 Enter ifcurve (0=recti, 1=orth curvi, 2=apprx curvi, -1 = skip
 And atom ordering flag, 0= never changes, 1= use the first order thenceforth,
  2= deduce it (does read on fail), 3= always read it
 Reading file: 
 ./CDT_0_C0S0.log                                                               
                                          
  Entering Gaussian System, Link 0=g16                                          
  
 Gaussian format, type: g94, g98, g03= F F F
  #P Geom=AllCheck Guess=TCheck SCRF=Check GenChk RB3LYP/6-311G(d,p) Fre    
 energy type= B3LYP   
 Original G94 input coords:
  6 -1.037021 -0.186937 -0.002038
  6 -0.434892  1.043082 -0.001475
  6  0.979718  0.942201  0.001654
  6  2.162470  1.889459  0.003644
  6  3.332534  0.926573  0.006764
  6  4.748358  1.008650  0.009784
  6  5.334087 -0.229261  0.011803
 16  4.160078 -1.524689  0.010049
  6  2.869604 -0.375472  0.006550
  6  1.425304 -0.365877  0.003415
 16  0.119674 -1.497850  0.001270
  1 -2.090710 -0.418345 -0.004184
  1 -0.993314  1.970235 -0.003248
  1  2.164891  2.542011  0.884095
  1  2.168710  2.540942 -0.877580
  1  5.319052  1.928302  0.010463
  1  6.384609 -0.474644  0.014225
 nber atoms=          17
  SCF Done:  E(RB3LYP) =  -1143.04501099     A.U. after    1 cycles             
  
          23          40 "  -1143.04501099"
After scan for Atom:   Atom  AN      X      Y      Z        X      Y      Z        X      Y      Z   
After scan for Atom:   Atom  AN      X      Y      Z        X      Y      Z        X      Y      Z   
After scan for Atom:   Atom  AN      X      Y      Z        X      Y      Z        X      Y      Z   
After scan for Atom:   Atom  AN      X      Y      Z        X      Y      Z        X      Y      Z   
After scan for Atom:   Atom  AN      X      Y      Z        X      Y      Z        X      Y      Z   
After scan for Atom:   Atom  AN      X      Y      Z        X      Y      Z        X      Y      Z   
After scan for Atom:   Atom  AN      X      Y      Z        X      Y      Z        X      Y      Z   
After scan for Atom:   Atom  AN      X      Y      Z        X      Y      Z        X      Y      Z   
After scan for Atom:   Atom  AN      X      Y      Z        X      Y      Z        X      Y      Z   
After scan for Atom:   Atom  AN      X      Y      Z        X      Y      Z        X      Y      Z   
After scan for Atom:   Atom  AN      X      Y      Z        X      Y      Z        X      Y      Z   
After scan for Atom:   Atom  AN      X      Y      Z        X      Y      Z        X      Y      Z   
After scan for Atom:   Atom  AN      X      Y      Z        X      Y      Z        X      Y      Z   
After scan for Atom:   Atom  AN      X      Y      Z        X      Y      Z        X      Y      Z   
After scan for Atom:   Atom  AN      X      Y      Z        X      Y      Z        X      Y      Z   
 g94    frequencies=
     0.0    0.0    0.0    0.0    0.0    0.0  111.2  141.4  200.9  251.0
   253.3  424.2  452.8  465.1  479.7  570.8  575.9  599.8  623.5  665.0
   683.1  705.5  710.0  800.8  830.9  872.1  880.0  936.1  941.9  997.4
  1004.1 1108.7 1111.0 1148.7 1181.1 1241.3 1273.2 1353.0 1401.8 1408.9
  1440.1 1454.8 1469.7 1527.1 1539.2 3026.3 3053.3 3198.2 3198.5 3246.0
  3246.2
 g94    symmetries=
                                                 A      A      A      A
       A      A      A      A      A      A      A      A      A      A
       A      A      A      A      A      A      A      A      A      A
       A      A      A      A      A      A      A      A      A      A
       A      A      A      A      A      A      A      A      A      A
       A
 atomic masses:
 12.0000 12.0000 12.0000 12.0000 12.0000 12.0000 12.0000 31.9721 12.0000 12.0000
 31.9721  1.0078  1.0078  1.0078  1.0078  1.0078  1.0078
 looking for force constants in 
 ./CDT_0_C0S0.fchk                                                              
  
 Cartesian Force Constants                  R   N=        1326                  
  
 n3=          51        1326
 g94-fc frequencies=
    -5.0   -2.5   -2.1   -0.0    0.0    0.0  111.2  141.4  200.9  251.0
   253.3  424.2  452.8  465.1  479.7  570.8  575.9  599.8  623.5  665.0
   683.1  705.5  710.0  800.9  830.9  872.1  880.1  936.1  942.0  997.4
  1004.1 1108.7 1111.1 1148.7 1181.1 1241.3 1273.2 1353.0 1401.8 1409.0
  1440.1 1454.8 1469.7 1527.1 1539.2 3026.3 3053.4 3198.2 3198.6 3246.1
  3246.3
 at 99999: n3=          51
 symm operator            1 :  F  nop=           0
 symm operator            2 :  F  nop=           0
 symm operator            3 :  F  nop=           0
 symm operator            4 :  F  nop=           0
 symm operator            5 :  F  nop=           0
 symm operator            6 :  F  nop=           0
 symm operator            7 :  F  nop=           0
 The point group of the molecule is  C1
 Symmetry rotation matrix:
   1.00000   0.00000   0.00000
   0.00000   1.00000   0.00000
   0.00000   0.00000   1.00000

 Projecting out zero-frequency components
 generating redundant internal coords
         300        3600          17
 search for int coords
   1 str   2   1   1.369
   2 str   3   2   1.418
   3 str   4   3   1.515
   4 str   5   4   1.515
   5 str   6   5   1.418
   6 str   7   6   1.369
   7 str   8   7   1.748
   8 str   9   5   1.382
   9 str   9   8   1.728
  10 str  10   3   1.382
  11 str  10   9   1.444
  12 str  11   1   1.748
  13 str  11  10   1.728
  14 str  12   1   1.079
  15 str  13   2   1.082
  16 str  14   4   1.096
  17 str  15   4   1.096
  18 str  16   6   1.082
  19 str  17   7   1.079
 nber stretches=          19
  20 ben   1   2   3
  21 prop tor   1   2   3   4
  22 prop tor   1   2   3  10
  23 ben   1   2  13
  24 ben   1  11  10
  25 ben   2   1  11
  26 prop tor   2   1  11  10
  27 ben   2   1  12
  28 ben   2   3   4
  29 prop tor   2   3   4   5
  30 prop tor   2   3   4  14
  31 prop tor   2   3   4  15
  32 ben   2   3  10
  33 prop tor   2   3  10   9
  34 prop tor   2   3  10  11
  35 ben   3   2  13
  36 ben   3   4   5
  37 prop tor   3   4   5   6
  38 prop tor   3   4   5   9
  39 ben   3   4  14
  40 ben   3   4  15
  41 ben   3  10   9
  42 ben   3  10  11
  43 prop tor   3  10  11   1
  44 ben   4   3  10
  45 prop tor   4   3  10   9
  46 prop tor   4   3  10  11
  47 ben   4   5   6
  48 prop tor   4   5   6   7
  49 prop tor   4   5   6  16
  50 ben   4   5   9
  51 prop tor   4   5   9   8
  52 prop tor   4   5   9  10
  53 ben   5   4  14
  54 ben   5   4  15
  55 ben   5   6   7
  56 prop tor   5   6   7   8
  57 prop tor   5   6   7  17
  58 ben   5   6  16
  59 ben   5   9   8
  60 ben   5   9  10
  61 prop tor   5   9  10   3
  62 prop tor   5   9  10  11
  63 ben   6   5   9
  64 prop tor   6   5   9   8
  65 prop tor   6   5   9  10
  66 ben   6   7   8
  67 prop tor   6   7   8   9
  68 ben   6   7  17
  69 ben   7   6  16
  70 ben   7   8   9
  71 prop tor   7   8   9   5
  72 prop tor   7   8   9  10
  73 ben   8   7  17
  74 ben   8   9  10
  75 prop tor   8   9  10   3
  76 prop tor   8   9  10  11
  77 prop tor   9   5   6   7
  78 prop tor   9   5   6  16
  79 ben   9  10  11
  80 prop tor   9  10  11   1
  81 prop tor  10   3   4   5
  82 prop tor  10   3   4  14
  83 prop tor  10   3   4  15
  84 prop tor  11   1   2   3
  85 prop tor  11   1   2  13
  86 ben  11   1  12
  87 prop tor  12   1   2   3
  88 prop tor  12   1   2  13
  89 prop tor  12   1  11  10
  90 prop tor  13   2   3   4
  91 prop tor  13   2   3  10
  92 prop tor  14   4   5   6
  93 prop tor  14   4   5   9
  94 ben  14   4  15
  95 prop tor  15   4   5   6
  96 prop tor  15   4   5   9
  97 prop tor  16   6   7   8
  98 prop tor  16   6   7  17
  99 prop tor  17   7   8   9
 nber bend=              32
 nber lin bend=           0
 nber prop tor=          48
 nber impr tor=           0
 nber tot redund int=          99
 Eigenvalues of G in red int coords
    Gval -0.00000000 -0.00000000 -0.00000000 -0.00000000 -0.00000000 -0.00000000 -0.00000000 -0.00000000
    Gval -0.00000000 -0.00000000 -0.00000000 -0.00000000 -0.00000000 -0.00000000 -0.00000000 -0.00000000
    Gval -0.00000000 -0.00000000 -0.00000000 -0.00000000 -0.00000000 -0.00000000 -0.00000000 -0.00000000
    Gval -0.00000000  0.00000000  0.00000000  0.00000000  0.00000000  0.00000000  0.00000000  0.00000000
    Gval  0.00000000  0.00000000  0.00000000  0.00000000  0.00000000  0.00000000  0.00000000  0.00000000
    Gval  0.00000000  0.00000000  0.00000000  0.00000000  0.00000000  0.00000000  0.00000000  0.00000000
    Gval  0.00000000  0.00000000  0.00000000  0.00000000  0.00000000  0.00000000  0.00000779  0.00001779
    Gval  0.00002344  0.00003824  0.00004636  0.00004850  0.00005681  0.00006153  0.00007954  0.00008776
    Gval  0.00009353  0.00009382  0.00012206  0.00013451  0.00015304  0.00018730  0.00028233  0.00029547
    Gval  0.00029709  0.00031481  0.00037052  0.00037340  0.00041838  0.00042264  0.00058334  0.00059659
    Gval  0.00059692  0.00061512  0.00062320  0.00062545  0.00106039  0.00108092  0.00108181  0.00118417
    Gval  0.00118447  0.00133220  0.00134010  0.00165901  0.00194487  0.00195678  0.00226006  0.00278652
    Gval  0.00302545  0.00402546  0.00411654
  7.788993618429479E-006  7.788993618429479E-006
  1.779408786444191E-005  7.788993618429479E-006
  2.344225588602997E-005  7.788993618429479E-006
  3.823945435789172E-005  7.788993618429479E-006
  4.635832469043333E-005  7.788993618429479E-006
  4.850378716345048E-005  7.788993618429479E-006
  5.680840782285453E-005  7.788993618429479E-006
  6.153163507586881E-005  7.788993618429479E-006
  7.954090392219331E-005  7.788993618429479E-006
  8.775622087480909E-005  7.788993618429479E-006
  9.352848150188158E-005  7.788993618429479E-006
  9.381932829156362E-005  7.788993618429479E-006
  1.220644508142775E-004  7.788993618429479E-006
  1.345109376458083E-004  7.788993618429479E-006
  1.530368284484925E-004  7.788993618429479E-006
  1.872950146906387E-004  7.788993618429479E-006
  2.823282078016285E-004  7.788993618429479E-006
  2.954716359411130E-004  7.788993618429479E-006
  2.970870017150116E-004  7.788993618429479E-006
  3.148103151573797E-004  7.788993618429479E-006
  3.705150753855496E-004  7.788993618429479E-006
  3.733977589790811E-004  7.788993618429479E-006
  4.183758928937388E-004  7.788993618429479E-006
  4.226375083328415E-004  7.788993618429479E-006
  5.833442401280458E-004  7.788993618429479E-006
  5.965943451208980E-004  7.788993618429479E-006
  5.969197829951846E-004  7.788993618429479E-006
  6.151207645612797E-004  7.788993618429479E-006
  6.232032176404699E-004  7.788993618429479E-006
  6.254505218501293E-004  7.788993618429479E-006
  1.060391769435001E-003  7.788993618429479E-006
  1.080921815814298E-003  7.788993618429479E-006
  1.081805213512065E-003  7.788993618429479E-006
  1.184169549700991E-003  7.788993618429479E-006
  1.184469530567812E-003  7.788993618429479E-006
  1.332199701163310E-003  7.788993618429479E-006
  1.340097560558364E-003  7.788993618429479E-006
  1.659006959667828E-003  7.788993618429479E-006
  1.944871422117053E-003  7.788993618429479E-006
  1.956778625177175E-003  7.788993618429479E-006
  2.260058009487295E-003  7.788993618429479E-006
  2.786519377148750E-003  7.788993618429479E-006
  3.025448387177096E-003  7.788993618429479E-006
  4.025461303921099E-003  7.788993618429479E-006
  4.116542248082934E-003  7.788993618429479E-006
 cut=1d-8, nber non-redundant internal coords=          45
 Check on Eigenvals of non-red overlap matrix:
  0.00000779  0.00001779  0.00002344  0.00003824  0.00004636  0.00004850  0.00005681  0.00006153
  0.00007954  0.00008776  0.00009353  0.00009382  0.00012206  0.00013451  0.00015304  0.00018730
  0.00028233  0.00029547  0.00029709  0.00031481  0.00037052  0.00037340  0.00041838  0.00042264
  0.00058334  0.00059659  0.00059692  0.00061512  0.00062320  0.00062545  0.00106039  0.00108092
  0.00108181  0.00118417  0.00118447  0.00133220  0.00134010  0.00165901  0.00194487  0.00195678
  0.00226006  0.00278652  0.00302545  0.00402546  0.00411654
 Checking for correct frequencies
 recalc frequencies=
    -0.0   -0.0    0.0    0.0    0.0    0.0  111.2  141.4  200.9  251.0
   253.3  424.2  452.8  465.1  479.7  570.8  575.9  599.8  623.5  665.0
   683.1  705.5  710.0  800.9  830.9  872.1  880.1  936.1  942.0  997.4
  1004.1 1108.7 1111.1 1148.7 1181.1 1241.3 1273.2 1353.0 1401.8 1409.0
  1440.1 1454.8 1469.7 1527.1 1539.2 3026.3 3053.4 3198.2 3198.6 3246.1
  3246.3
 recalc symmetries=
                                                                       
                                                                       
                                                                       
                                                                       
                                                                       
        
 recalc freqs check OK
 Zero-point lengths:
 10.0000 10.0000 10.0000 10.0000 10.0000 10.0000 23.5098 20.8498 17.4926 15.6467
 15.5774 12.0363 11.6503 11.4949 11.3190 10.3766 10.3301 10.1226  9.9284  9.6136
  9.4855  9.3335  9.3041  8.7602  8.6005  8.3950  8.3568  8.1028  8.0775  7.8498
  7.8235  7.4453  7.4375  7.3145  7.2136  7.0365  6.9477  6.7398  6.6214  6.6046
  6.5328  6.4997  6.4666  6.3439  6.3189  4.5065  4.4865  4.3837  4.3835  4.3513
  4.3511
 highest evec of mol 1
  0.2039  0.0545  0.0004
  0.0164 -0.0465  0.0001
 -0.0049  0.0015 -0.0000
  0.0000 -0.0001  0.0000
  0.0046  0.0014  0.0000
 -0.0160 -0.0435 -0.0000
 -0.1911  0.0538 -0.0004
  0.0007  0.0013  0.0000
  0.0021 -0.0012  0.0000
 -0.0022 -0.0012 -0.0000
 -0.0008  0.0014 -0.0000
 -0.6668 -0.1490 -0.0014
 -0.0651  0.1121 -0.0002
  0.0000  0.0002  0.0001
  0.0000  0.0002 -0.0001
  0.0626  0.1045  0.0001
  0.6252 -0.1485  0.0014
 generating redundant internal coords
         300        3600          17
 Adding extra bonds for z output only
           6           6           6           6           6           6
           6          16           6           6          16           1
           1           1           1           1           1
 search for int coords
   1 str   2   1   1.369
   2 str   3   2   1.418
   3 str   4   3   1.515
   4 str   5   4   1.515
   5 str   6   5   1.418
   6 str   7   6   1.369
   7 str   8   7   1.748
   8 str   9   5   1.382
   9 str   9   8   1.728
  10 str  10   3   1.382
  11 str  10   9   1.444
  12 str  11   1   1.748
  13 str  11  10   1.728
  14 str  12   1   1.079
  15 str  13   2   1.082
  16 str  14   4   1.096
  17 str  15   4   1.096
  18 str  16   6   1.082
  19 str  17   7   1.079
 nber stretches=          19
  20 ben   1   2   3
  21 prop tor   1   2   3   4
  22 prop tor   1   2   3  10
  23 ben   1   2  13
  24 ben   1  11  10
  25 ben   2   1  11
  26 prop tor   2   1  11  10
  27 ben   2   1  12
  28 ben   2   3   4
  29 prop tor   2   3   4   5
  30 prop tor   2   3   4  14
  31 prop tor   2   3   4  15
  32 ben   2   3  10
  33 prop tor   2   3  10   9
  34 prop tor   2   3  10  11
  35 ben   3   2  13
  36 ben   3   4   5
  37 prop tor   3   4   5   6
  38 prop tor   3   4   5   9
  39 ben   3   4  14
  40 ben   3   4  15
  41 ben   3  10   9
  42 ben   3  10  11
  43 prop tor   3  10  11   1
  44 ben   4   3  10
  45 prop tor   4   3  10   9
  46 prop tor   4   3  10  11
  47 ben   4   5   6
  48 prop tor   4   5   6   7
  49 prop tor   4   5   6  16
  50 ben   4   5   9
  51 prop tor   4   5   9   8
  52 prop tor   4   5   9  10
  53 ben   5   4  14
  54 ben   5   4  15
  55 ben   5   6   7
  56 prop tor   5   6   7   8
  57 prop tor   5   6   7  17
  58 ben   5   6  16
  59 ben   5   9   8
  60 ben   5   9  10
  61 prop tor   5   9  10   3
  62 prop tor   5   9  10  11
  63 ben   6   5   9
  64 prop tor   6   5   9   8
  65 prop tor   6   5   9  10
  66 ben   6   7   8
  67 prop tor   6   7   8   9
  68 ben   6   7  17
  69 ben   7   6  16
  70 ben   7   8   9
  71 prop tor   7   8   9   5
  72 prop tor   7   8   9  10
  73 ben   8   7  17
  74 ben   8   9  10
  75 prop tor   8   9  10   3
  76 prop tor   8   9  10  11
  77 prop tor   9   5   6   7
  78 prop tor   9   5   6  16
  79 ben   9  10  11
  80 prop tor   9  10  11   1
  81 prop tor  10   3   4   5
  82 prop tor  10   3   4  14
  83 prop tor  10   3   4  15
  84 prop tor  11   1   2   3
  85 prop tor  11   1   2  13
  86 ben  11   1  12
  87 prop tor  12   1   2   3
  88 prop tor  12   1   2  13
  89 prop tor  12   1  11  10
  90 prop tor  13   2   3   4
  91 prop tor  13   2   3  10
  92 prop tor  14   4   5   6
  93 prop tor  14   4   5   9
  94 ben  14   4  15
  95 prop tor  15   4   5   6
  96 prop tor  15   4   5   9
  97 prop tor  16   6   7   8
  98 prop tor  16   6   7  17
  99 prop tor  17   7   8   9
 nber bend=              32
 nber lin bend=           0
 nber prop tor=          48
 nber impr tor=           0
 nber tot redund int=          99
 Reading file: 
 ./CDT_0_C-1S0.log                                                              
                                          
  Entering Gaussian System, Link 0=g16                                          
  
 Gaussian format, type: g94, g98, g03= F F F
  #P Geom=AllCheck Guess=TCheck SCRF=Check GenChk UB3LYP/6-311G(d,p) Fre    
 energy type= B3LYP   
 Original G94 input coords:
  6 -1.069968 -0.187267 -0.002109
  6 -0.423012  1.042366 -0.001450
  6  0.971181  0.949680  0.001631
  6  2.162549  1.901298  0.003636
  6  3.341169  0.933940  0.006776
  6  4.736471  1.008092  0.009757
  6  5.367027 -0.230029  0.011879
 16  4.170144 -1.556912  0.010086
  6  2.848100 -0.396118  0.006513
  6  1.446532 -0.386810  0.003472
 16  0.109178 -1.529936  0.001263
  1 -2.125198 -0.408185 -0.004258
  1 -0.975254  1.977962 -0.003213
  1  2.165045  2.565019  0.883216
  1  2.168858  2.563953 -0.876728
  1  5.301098  1.936269  0.010417
  1  6.419230 -0.464943  0.014301
 nber atoms=          17
  SCF Done:  E(UB3LYP) =  -1143.03378488     A.U. after    1 cycles             
  
          23          40 "  -1143.03378488"
After scan for Atom:   Atom  AN      X      Y      Z        X      Y      Z        X      Y      Z   
After scan for Atom:   Atom  AN      X      Y      Z        X      Y      Z        X      Y      Z   
After scan for Atom:   Atom  AN      X      Y      Z        X      Y      Z        X      Y      Z   
After scan for Atom:   Atom  AN      X      Y      Z        X      Y      Z        X      Y      Z   
After scan for Atom:   Atom  AN      X      Y      Z        X      Y      Z        X      Y      Z   
After scan for Atom:   Atom  AN      X      Y      Z        X      Y      Z        X      Y      Z   
After scan for Atom:   Atom  AN      X      Y      Z        X      Y      Z        X      Y      Z   
After scan for Atom:   Atom  AN      X      Y      Z        X      Y      Z        X      Y      Z   
After scan for Atom:   Atom  AN      X      Y      Z        X      Y      Z        X      Y      Z   
After scan for Atom:   Atom  AN      X      Y      Z        X      Y      Z        X      Y      Z   
After scan for Atom:   Atom  AN      X      Y      Z        X      Y      Z        X      Y      Z   
After scan for Atom:   Atom  AN      X      Y      Z        X      Y      Z        X      Y      Z   
After scan for Atom:   Atom  AN      X      Y      Z        X      Y      Z        X      Y      Z   
After scan for Atom:   Atom  AN      X      Y      Z        X      Y      Z        X      Y      Z   
After scan for Atom:   Atom  AN      X      Y      Z        X      Y      Z        X      Y      Z   
 g94    frequencies=
     0.0    0.0    0.0    0.0    0.0    0.0   83.8  127.7  141.7  197.5
   204.3  278.8  308.2  365.3  413.5  424.7  447.2  541.7  544.0  562.8
   624.0  631.9  673.2  755.6  794.4  795.9  800.0  916.1  936.9  963.2
   963.7 1063.0 1073.9 1125.1 1183.0 1211.7 1231.2 1296.9 1314.3 1402.0
  1423.2 1456.4 1469.1 1493.0 1514.9 2918.7 2925.6 3140.6 3141.2 3235.2
  3235.5
 g94    symmetries=
                                                 A      A      A      A
       A      A      A      A      A      A      A      A      A      A
       A      A      A      A      A      A      A      A      A      A
       A      A      A      A      A      A      A      A      A      A
       A      A      A      A      A      A      A      A      A      A
       A
 atomic masses:
 12.0000 12.0000 12.0000 12.0000 12.0000 12.0000 12.0000 31.9721 12.0000 12.0000
 31.9721  1.0078  1.0078  1.0078  1.0078  1.0078  1.0078
 looking for force constants in 
 ./CDT_0_C-1S0.fchk                                                             
  
 Cartesian Force Constants                  R   N=        1326                  
  
 n3=          51        1326
 g94-fc frequencies=
    -4.1   -3.7   -3.6   -0.0    0.0    0.0   83.8  127.7  141.7  197.5
   204.3  278.8  308.2  365.3  413.5  424.7  447.2  541.7  544.0  562.8
   624.0  631.9  673.2  755.6  794.4  796.0  800.1  916.1  937.0  963.2
   963.8 1063.0 1074.0 1125.1 1183.0 1211.8 1231.3 1296.9 1314.4 1402.1
  1423.3 1456.4 1469.1 1493.0 1515.0 2918.8 2925.7 3140.6 3141.2 3235.2
  3235.5
 at 99999: n3=          51
 symm operator            1 :  F  nop=           0
 symm operator            2 :  F  nop=           0
 symm operator            3 :  F  nop=           0
 symm operator            4 :  F  nop=           0
 symm operator            5 :  F  nop=           0
 symm operator            6 :  F  nop=           0
 symm operator            7 :  F  nop=           0
 The point group of the molecule is  C1
 Symmetry rotation matrix:
   1.00000   0.00000   0.00000
   0.00000   1.00000   0.00000
   0.00000   0.00000   1.00000

 Projecting out zero-frequency components
 generating redundant internal coords
         300        3600          17
 search for int coords
   1 str   2   1   1.389
   2 str   3   2   1.397
   3 str   4   3   1.525
   4 str   5   4   1.525
   5 str   6   5   1.397
   6 str   7   6   1.389
   7 str   8   7   1.787
   8 str   9   5   1.419
   9 str   9   8   1.759
  10 str  10   3   1.419
  11 str  10   9   1.402
  12 str  11   1   1.787
  13 str  11  10   1.759
  14 str  12   1   1.078
  15 str  13   2   1.086
  16 str  14   4   1.102
  17 str  15   4   1.102
  18 str  16   6   1.086
  19 str  17   7   1.078
 nber stretches=          19
  20 ben   1   2   3
  21 prop tor   1   2   3   4
  22 prop tor   1   2   3  10
  23 ben   1   2  13
  24 ben   1  11  10
  25 ben   2   1  11
  26 prop tor   2   1  11  10
  27 ben   2   1  12
  28 ben   2   3   4
  29 prop tor   2   3   4   5
  30 prop tor   2   3   4  14
  31 prop tor   2   3   4  15
  32 ben   2   3  10
  33 prop tor   2   3  10   9
  34 prop tor   2   3  10  11
  35 ben   3   2  13
  36 ben   3   4   5
  37 prop tor   3   4   5   6
  38 prop tor   3   4   5   9
  39 ben   3   4  14
  40 ben   3   4  15
  41 ben   3  10   9
  42 ben   3  10  11
  43 prop tor   3  10  11   1
  44 ben   4   3  10
  45 prop tor   4   3  10   9
  46 prop tor   4   3  10  11
  47 ben   4   5   6
  48 prop tor   4   5   6   7
  49 prop tor   4   5   6  16
  50 ben   4   5   9
  51 prop tor   4   5   9   8
  52 prop tor   4   5   9  10
  53 ben   5   4  14
  54 ben   5   4  15
  55 ben   5   6   7
  56 prop tor   5   6   7   8
  57 prop tor   5   6   7  17
  58 ben   5   6  16
  59 ben   5   9   8
  60 ben   5   9  10
  61 prop tor   5   9  10   3
  62 prop tor   5   9  10  11
  63 ben   6   5   9
  64 prop tor   6   5   9   8
  65 prop tor   6   5   9  10
  66 ben   6   7   8
  67 prop tor   6   7   8   9
  68 ben   6   7  17
  69 ben   7   6  16
  70 ben   7   8   9
  71 prop tor   7   8   9   5
  72 prop tor   7   8   9  10
  73 ben   8   7  17
  74 ben   8   9  10
  75 prop tor   8   9  10   3
  76 prop tor   8   9  10  11
  77 prop tor   9   5   6   7
  78 prop tor   9   5   6  16
  79 ben   9  10  11
  80 prop tor   9  10  11   1
  81 prop tor  10   3   4   5
  82 prop tor  10   3   4  14
  83 prop tor  10   3   4  15
  84 prop tor  11   1   2   3
  85 prop tor  11   1   2  13
  86 ben  11   1  12
  87 prop tor  12   1   2   3
  88 prop tor  12   1   2  13
  89 prop tor  12   1  11  10
  90 prop tor  13   2   3   4
  91 prop tor  13   2   3  10
  92 prop tor  14   4   5   6
  93 prop tor  14   4   5   9
  94 ben  14   4  15
  95 prop tor  15   4   5   6
  96 prop tor  15   4   5   9
  97 prop tor  16   6   7   8
  98 prop tor  16   6   7  17
  99 prop tor  17   7   8   9
 nber bend=              32
 nber lin bend=           0
 nber prop tor=          48
 nber impr tor=           0
 nber tot redund int=          99
 Eigenvalues of G in red int coords
    Gval -0.00000000 -0.00000000 -0.00000000 -0.00000000 -0.00000000 -0.00000000 -0.00000000 -0.00000000
    Gval -0.00000000 -0.00000000 -0.00000000 -0.00000000 -0.00000000 -0.00000000 -0.00000000 -0.00000000
    Gval -0.00000000 -0.00000000 -0.00000000 -0.00000000 -0.00000000 -0.00000000 -0.00000000 -0.00000000
    Gval -0.00000000 -0.00000000 -0.00000000 -0.00000000  0.00000000  0.00000000  0.00000000  0.00000000
    Gval  0.00000000  0.00000000  0.00000000  0.00000000  0.00000000  0.00000000  0.00000000  0.00000000
    Gval  0.00000000  0.00000000  0.00000000  0.00000000  0.00000000  0.00000000  0.00000000  0.00000000
    Gval  0.00000000  0.00000000  0.00000000  0.00000000  0.00000000  0.00000000  0.00000771  0.00001763
    Gval  0.00002339  0.00003818  0.00004605  0.00004822  0.00005689  0.00006062  0.00007837  0.00008721
    Gval  0.00009298  0.00009322  0.00012036  0.00013448  0.00014990  0.00018318  0.00028019  0.00028737
    Gval  0.00029508  0.00030881  0.00036034  0.00037357  0.00041504  0.00042741  0.00058404  0.00059652
    Gval  0.00059684  0.00061495  0.00062324  0.00062563  0.00107199  0.00107871  0.00107973  0.00117695
    Gval  0.00117722  0.00130692  0.00132808  0.00163992  0.00194795  0.00197972  0.00230129  0.00281968
    Gval  0.00299992  0.00397748  0.00407166
  7.710288221452561E-006  7.710288221452561E-006
  1.762660709465497E-005  7.710288221452561E-006
  2.339029109062021E-005  7.710288221452561E-006
  3.818161885692221E-005  7.710288221452561E-006
  4.605454645830993E-005  7.710288221452561E-006
  4.822405208910110E-005  7.710288221452561E-006
  5.689009668331315E-005  7.710288221452561E-006
  6.061890709374182E-005  7.710288221452561E-006
  7.837331286128156E-005  7.710288221452561E-006
  8.721445825930534E-005  7.710288221452561E-006
  9.298466644722796E-005  7.710288221452561E-006
  9.321556134371395E-005  7.710288221452561E-006
  1.203591416694882E-004  7.710288221452561E-006
  1.344810071463706E-004  7.710288221452561E-006
  1.499015903007000E-004  7.710288221452561E-006
  1.831788344528027E-004  7.710288221452561E-006
  2.801931958783624E-004  7.710288221452561E-006
  2.873707334334679E-004  7.710288221452561E-006
  2.950831127954309E-004  7.710288221452561E-006
  3.088113417960982E-004  7.710288221452561E-006
  3.603439677264765E-004  7.710288221452561E-006
  3.735684794798223E-004  7.710288221452561E-006
  4.150359685159578E-004  7.710288221452561E-006
  4.274088278908516E-004  7.710288221452561E-006
  5.840419450466836E-004  7.710288221452561E-006
  5.965208069461892E-004  7.710288221452561E-006
  5.968431668321471E-004  7.710288221452561E-006
  6.149528078967314E-004  7.710288221452561E-006
  6.232363890353195E-004  7.710288221452561E-006
  6.256314568226708E-004  7.710288221452561E-006
  1.071991483675047E-003  7.710288221452561E-006
  1.078712326961049E-003  7.710288221452561E-006
  1.079728136634582E-003  7.710288221452561E-006
  1.176952889744343E-003  7.710288221452561E-006
  1.177221659961702E-003  7.710288221452561E-006
  1.306923089045317E-003  7.710288221452561E-006
  1.328075098780616E-003  7.710288221452561E-006
  1.639924512069953E-003  7.710288221452561E-006
  1.947945137880891E-003  7.710288221452561E-006
  1.979723149896521E-003  7.710288221452561E-006
  2.301288075436931E-003  7.710288221452561E-006
  2.819680827791942E-003  7.710288221452561E-006
  2.999916383242059E-003  7.710288221452561E-006
  3.977481398254917E-003  7.710288221452561E-006
  4.071658415632095E-003  7.710288221452561E-006
 cut=1d-8, nber non-redundant internal coords=          45
 Check on Eigenvals of non-red overlap matrix:
  0.00000771  0.00001763  0.00002339  0.00003818  0.00004605  0.00004822  0.00005689  0.00006062
  0.00007837  0.00008721  0.00009298  0.00009322  0.00012036  0.00013448  0.00014990  0.00018318
  0.00028019  0.00028737  0.00029508  0.00030881  0.00036034  0.00037357  0.00041504  0.00042741
  0.00058404  0.00059652  0.00059684  0.00061495  0.00062324  0.00062563  0.00107199  0.00107871
  0.00107973  0.00117695  0.00117722  0.00130692  0.00132808  0.00163992  0.00194795  0.00197972
  0.00230129  0.00281968  0.00299992  0.00397748  0.00407166
 Checking for correct frequencies
 recalc frequencies=
    -0.0   -0.0    0.0    0.0    0.0    0.0   83.8  127.7  141.7  197.5
   204.3  278.8  308.2  365.3  413.5  424.7  447.2  541.7  544.0  562.8
   624.0  631.9  673.2  755.6  794.4  796.0  800.1  916.1  937.0  963.2
   963.8 1063.0 1074.0 1125.1 1183.0 1211.8 1231.3 1296.9 1314.4 1402.1
  1423.3 1456.4 1469.1 1493.0 1515.0 2918.8 2925.7 3140.6 3141.2 3235.2
  3235.5
 recalc symmetries=
                                                                       
                                                                       
                                                                       
                                                                       
                                                                       
        
 recalc freqs check OK
 Zero-point lengths:
 10.0000 10.0000 10.0000 10.0000 10.0000 10.0000 27.0791 21.9356 20.8271 17.6391
 17.3459 14.8479 14.1212 12.9713 12.1908 12.0291 11.7228 10.6512 10.6294 10.4500
  9.9244  9.8618  9.5549  9.0190  8.7958  8.7872  8.7647  8.1906  8.0991  7.9879
  7.9856  7.6038  7.5649  7.3909  7.2078  7.1217  7.0651  6.8840  6.8382  6.6208
  6.5713  6.4961  6.4679  6.4160  6.3693  4.5888  4.5833  4.4237  4.4233  4.3585
  4.3584
 highest evec of mol 2
 -0.2038 -0.0516 -0.0004
 -0.0093  0.0302 -0.0000
  0.0048 -0.0004  0.0000
 -0.0000 -0.0012  0.0000
 -0.0046 -0.0003 -0.0000
  0.0091  0.0283  0.0000
  0.1909 -0.0511  0.0004
 -0.0004 -0.0011 -0.0000
 -0.0017  0.0001 -0.0000
  0.0018  0.0002  0.0000
  0.0004 -0.0012  0.0000
  0.6774  0.1458  0.0014
  0.0358 -0.0651  0.0001
  0.0000  0.0030  0.0035
  0.0000  0.0030 -0.0035
 -0.0345 -0.0608 -0.0000
 -0.6349  0.1455 -0.0015
 Enter nber and list of atoms to keep of mol #2
 keep list:          17           1           2           3           4
           5           6           7           8           9          10
          11          12          13          14          15          16
          17
 reordering atoms
           1  -3.21857680255284     
           2  -2.57980292682323     
           3  -1.18502162046336     
           4  5.806882960897632E-007
           5   1.18502423114930     
           6   2.57980608270525     
           7   3.21857543137688     
           8   2.03053149862430     
           9  0.700801524107991     
          10 -0.700800682350592     
          11  -2.03053368221930     
          12  -4.27231826800870     
          13  -3.13824990561735     
          14 -1.365419881457644E-006
          15 -4.757045556388071E-006
          16   3.13825537288129     
          17   4.27231839800668     
           1           1
           2           2
           3           3
           4           4
           5           5
           6           6
           7           7
           8           8
           9           9
          10          10
          11          11
          12          12
          13          13
          14          14
          15          15
          16          16
          17          17
 initial cartes coords mol 1
   6  -0.00000   0.02923  -3.18563
   6   0.00000   1.26323  -2.59169
   6   0.00000   1.17174  -1.17644
   6   0.00000   2.12684  -0.00000
   6  -0.00000   1.17175   1.17644
   6  -0.00000   1.26323   2.59169
   6  -0.00000   0.02923   3.18563
  16   0.00000  -1.27397   2.02025
   6  -0.00000  -0.13335   0.72217
   6   0.00000  -0.13335  -0.72217
  16   0.00000  -1.27397  -2.02025
   1  -0.00001  -0.20917  -4.23776
   1   0.00000   2.18665  -3.15626
   1   0.88084   2.77887  -0.00000
   1  -0.88084   2.77887  -0.00000
   1  -0.00000   2.18665   3.15626
   1  -0.00001  -0.20917   4.23776
 initial cartes coords mol 2
   6  -0.00000   0.04185  -3.21858
   6   0.00000   1.27575  -2.57980
   6   0.00000   1.19233  -1.18502
   6   0.00000   2.15184   0.00000
   6  -0.00000   1.19233   1.18502
   6  -0.00000   1.27575   2.57981
   6   0.00000   0.04185   3.21858
  16   0.00000  -1.29296   2.03053
   6  -0.00000  -0.14097   0.70080
   6   0.00000  -0.14097  -0.70080
  16  -0.00000  -1.29296  -2.03053
   1   0.00000  -0.18607  -4.27232
   1   0.00000   2.20766  -3.13825
   1   0.87998   2.81504  -0.00000
   1  -0.87997   2.81504  -0.00000
   1  -0.00000   2.20766   3.13826
   1   0.00000  -0.18607   4.27232
 loop 1 0
 mod cartes coords mol 2
   6  -0.00000   0.04185  -3.21858
   6   0.00000   1.27575  -2.57980
   6   0.00000   1.19233  -1.18502
   6   0.00000   2.15184   0.00000
   6  -0.00000   1.19233   1.18502
   6  -0.00000   1.27575   2.57981
   6   0.00000   0.04185   3.21858
  16   0.00000  -1.29296   2.03053
   6  -0.00000  -0.14097   0.70080
   6   0.00000  -0.14097  -0.70080
  16  -0.00000  -1.29296  -2.03053
   1   0.00000  -0.18607  -4.27232
   1   0.00000   2.20766  -3.13825
   1   0.87998   2.81504  -0.00000
   1  -0.87997   2.81504  -0.00000
   1  -0.00000   2.20766   3.13826
   1   0.00000  -0.18607   4.27232
 read in order, maxerr=  0.04 for atom  17
 final axis swaps:           1           1           1
 final xyz swap pattern=           1
 reorder list:
   1   2   3   4   5   6   7   8   9  10  11  12  13  14  15  16  17
 axis signs=           1           1           1
  6    -0.000001  0.041849 -3.218577    -0.000004  0.029234 -3.185633
  6     0.000000  1.275753 -2.579803     0.000001  1.263226 -2.591688
  6     0.000002  1.192330 -1.185022     0.000001  1.171744 -1.176436
  6     0.000000  2.151841  0.000001     0.000002  2.126838 -0.000001
  6    -0.000002  1.192333  1.185024    -0.000000  1.171746  1.176438
  6    -0.000002  1.275751  2.579806    -0.000001  1.263226  2.591688
  6     0.000002  0.041846  3.218575    -0.000003  0.029233  3.185631
 16     0.000000 -1.292958  2.030531     0.000002 -1.273966  2.020252
  6    -0.000002 -0.140971  0.700802    -0.000001 -0.133346  0.722168
  6     0.000002 -0.140973 -0.700801     0.000001 -0.133345 -0.722168
 16    -0.000000 -1.292958 -2.030534     0.000000 -1.273967 -2.020251
  1     0.000004 -0.186073 -4.272318    -0.000005 -0.209168 -4.237764
  1     0.000002  2.207660 -3.138250     0.000002  2.186649 -3.156259
  1     0.879975  2.815043 -0.000001     0.880841  2.778870 -0.000002
  1    -0.879973  2.815044 -0.000005    -0.880838  2.778871 -0.000003
  1    -0.000003  2.207658  3.138255    -0.000001  2.186649  3.156261
  1     0.000000 -0.186074  4.272318    -0.000008 -0.209167  4.237762
 generating redundant internal coords
         300        3600          17
 Adding extra bonds for z output only
           6           6           6           6           6           6
           6          16           6           6          16           1
           1           1           1           1           1
 search for int coords
   1 str   2   1   1.389
   2 str   3   2   1.397
   3 str   4   3   1.525
   4 str   5   4   1.525
   5 str   6   5   1.397
   6 str   7   6   1.389
   7 str   8   7   1.787
   8 str   9   5   1.419
   9 str   9   8   1.759
  10 str  10   3   1.419
  11 str  10   9   1.402
  12 str  11   1   1.787
  13 str  11  10   1.759
  14 str  12   1   1.078
  15 str  13   2   1.086
  16 str  14   4   1.102
  17 str  15   4   1.102
  18 str  16   6   1.086
  19 str  17   7   1.078
 nber stretches=          19
  20 ben   1   2   3
  21 prop tor   1   2   3   4
  22 prop tor   1   2   3  10
  23 ben   1   2  13
  24 ben   1  11  10
  25 ben   2   1  11
  26 prop tor   2   1  11  10
  27 ben   2   1  12
  28 ben   2   3   4
  29 prop tor   2   3   4   5
  30 prop tor   2   3   4  14
  31 prop tor   2   3   4  15
  32 ben   2   3  10
  33 prop tor   2   3  10   9
  34 prop tor   2   3  10  11
  35 ben   3   2  13
  36 ben   3   4   5
  37 prop tor   3   4   5   6
  38 prop tor   3   4   5   9
  39 ben   3   4  14
  40 ben   3   4  15
  41 ben   3  10   9
  42 ben   3  10  11
  43 prop tor   3  10  11   1
  44 ben   4   3  10
  45 prop tor   4   3  10   9
  46 prop tor   4   3  10  11
  47 ben   4   5   6
  48 prop tor   4   5   6   7
  49 prop tor   4   5   6  16
  50 ben   4   5   9
  51 prop tor   4   5   9   8
  52 prop tor   4   5   9  10
  53 ben   5   4  14
  54 ben   5   4  15
  55 ben   5   6   7
  56 prop tor   5   6   7   8
  57 prop tor   5   6   7  17
  58 ben   5   6  16
  59 ben   5   9   8
  60 ben   5   9  10
  61 prop tor   5   9  10   3
  62 prop tor   5   9  10  11
  63 ben   6   5   9
  64 prop tor   6   5   9   8
  65 prop tor   6   5   9  10
  66 ben   6   7   8
  67 prop tor   6   7   8   9
  68 ben   6   7  17
  69 ben   7   6  16
  70 ben   7   8   9
  71 prop tor   7   8   9   5
  72 prop tor   7   8   9  10
  73 ben   8   7  17
  74 ben   8   9  10
  75 prop tor   8   9  10   3
  76 prop tor   8   9  10  11
  77 prop tor   9   5   6   7
  78 prop tor   9   5   6  16
  79 ben   9  10  11
  80 prop tor   9  10  11   1
  81 prop tor  10   3   4   5
  82 prop tor  10   3   4  14
  83 prop tor  10   3   4  15
  84 prop tor  11   1   2   3
  85 prop tor  11   1   2  13
  86 ben  11   1  12
  87 prop tor  12   1   2   3
  88 prop tor  12   1   2  13
  89 prop tor  12   1  11  10
  90 prop tor  13   2   3   4
  91 prop tor  13   2   3  10
  92 prop tor  14   4   5   6
  93 prop tor  14   4   5   9
  94 ben  14   4  15
  95 prop tor  15   4   5   6
  96 prop tor  15   4   5   9
  97 prop tor  16   6   7   8
  98 prop tor  16   6   7  17
  99 prop tor  17   7   8   9
 nber bend=              32
 nber lin bend=           0
 nber prop tor=          48
 nber impr tor=           0
 nber tot redund int=          99
 generating redundant internal coords
         300        3600          17
 search for int coords
   1 str   2   1   1.369
   2 str   3   2   1.418
   3 str   4   3   1.515
   4 str   5   4   1.515
   5 str   6   5   1.418
   6 str   7   6   1.369
   7 str   8   7   1.748
   8 str   9   5   1.382
   9 str   9   8   1.728
  10 str  10   3   1.382
  11 str  10   9   1.444
  12 str  11   1   1.748
  13 str  11  10   1.728
  14 str  12   1   1.079
  15 str  13   2   1.082
  16 str  14   4   1.096
  17 str  15   4   1.096
  18 str  16   6   1.082
  19 str  17   7   1.079
 nber stretches=          19
  20 ben   1   2   3
  21 prop tor   1   2   3   4
  22 prop tor   1   2   3  10
  23 ben   1   2  13
  24 ben   1  11  10
  25 ben   2   1  11
  26 prop tor   2   1  11  10
  27 ben   2   1  12
  28 ben   2   3   4
  29 prop tor   2   3   4   5
  30 prop tor   2   3   4  14
  31 prop tor   2   3   4  15
  32 ben   2   3  10
  33 prop tor   2   3  10   9
  34 prop tor   2   3  10  11
  35 ben   3   2  13
  36 ben   3   4   5
  37 prop tor   3   4   5   6
  38 prop tor   3   4   5   9
  39 ben   3   4  14
  40 ben   3   4  15
  41 ben   3  10   9
  42 ben   3  10  11
  43 prop tor   3  10  11   1
  44 ben   4   3  10
  45 prop tor   4   3  10   9
  46 prop tor   4   3  10  11
  47 ben   4   5   6
  48 prop tor   4   5   6   7
  49 prop tor   4   5   6  16
  50 ben   4   5   9
  51 prop tor   4   5   9   8
  52 prop tor   4   5   9  10
  53 ben   5   4  14
  54 ben   5   4  15
  55 ben   5   6   7
  56 prop tor   5   6   7   8
  57 prop tor   5   6   7  17
  58 ben   5   6  16
  59 ben   5   9   8
  60 ben   5   9  10
  61 prop tor   5   9  10   3
  62 prop tor   5   9  10  11
  63 ben   6   5   9
  64 prop tor   6   5   9   8
  65 prop tor   6   5   9  10
  66 ben   6   7   8
  67 prop tor   6   7   8   9
  68 ben   6   7  17
  69 ben   7   6  16
  70 ben   7   8   9
  71 prop tor   7   8   9   5
  72 prop tor   7   8   9  10
  73 ben   8   7  17
  74 ben   8   9  10
  75 prop tor   8   9  10   3
  76 prop tor   8   9  10  11
  77 prop tor   9   5   6   7
  78 prop tor   9   5   6  16
  79 ben   9  10  11
  80 prop tor   9  10  11   1
  81 prop tor  10   3   4   5
  82 prop tor  10   3   4  14
  83 prop tor  10   3   4  15
  84 prop tor  11   1   2   3
  85 prop tor  11   1   2  13
  86 ben  11   1  12
  87 prop tor  12   1   2   3
  88 prop tor  12   1   2  13
  89 prop tor  12   1  11  10
  90 prop tor  13   2   3   4
  91 prop tor  13   2   3  10
  92 prop tor  14   4   5   6
  93 prop tor  14   4   5   9
  94 ben  14   4  15
  95 prop tor  15   4   5   6
  96 prop tor  15   4   5   9
  97 prop tor  16   6   7   8
  98 prop tor  16   6   7  17
  99 prop tor  17   7   8   9
 nber bend=              32
 nber lin bend=           0
 nber prop tor=          48
 nber impr tor=           0
 nber tot redund int=          99
 Eigenvalues of G in red int coords
    Gval -0.00000000 -0.00000000 -0.00000000 -0.00000000 -0.00000000 -0.00000000 -0.00000000 -0.00000000
    Gval -0.00000000 -0.00000000 -0.00000000 -0.00000000 -0.00000000 -0.00000000 -0.00000000 -0.00000000
    Gval -0.00000000 -0.00000000 -0.00000000 -0.00000000 -0.00000000 -0.00000000 -0.00000000  0.00000000
    Gval  0.00000000  0.00000000  0.00000000  0.00000000  0.00000000  0.00000000  0.00000000  0.00000000
    Gval  0.00000000  0.00000000  0.00000000  0.00000000  0.00000000  0.00000000  0.00000000  0.00000000
    Gval  0.00000000  0.00000000  0.00000000  0.00000000  0.00000000  0.00000000  0.00000000  0.00000000
    Gval  0.00000000  0.00000000  0.00000000  0.00000000  0.00000000  0.00000000  0.00000779  0.00001779
    Gval  0.00002344  0.00003824  0.00004636  0.00004850  0.00005681  0.00006153  0.00007954  0.00008776
    Gval  0.00009353  0.00009382  0.00012206  0.00013451  0.00015304  0.00018730  0.00028233  0.00029547
    Gval  0.00029709  0.00031481  0.00037052  0.00037340  0.00041838  0.00042264  0.00058334  0.00059659
    Gval  0.00059692  0.00061512  0.00062320  0.00062545  0.00106039  0.00108092  0.00108181  0.00118417
    Gval  0.00118447  0.00133220  0.00134010  0.00165901  0.00194487  0.00195678  0.00226006  0.00278652
    Gval  0.00302545  0.00402546  0.00411654
  7.788993618429433E-006  7.788993618429433E-006
  1.779408786444194E-005  7.788993618429433E-006
  2.344225588602964E-005  7.788993618429433E-006
  3.823945435789162E-005  7.788993618429433E-006
  4.635832469043333E-005  7.788993618429433E-006
  4.850378716345045E-005  7.788993618429433E-006
  5.680840782285457E-005  7.788993618429433E-006
  6.153163507586880E-005  7.788993618429433E-006
  7.954090392219381E-005  7.788993618429433E-006
  8.775622087480902E-005  7.788993618429433E-006
  9.352848150188145E-005  7.788993618429433E-006
  9.381932829156355E-005  7.788993618429433E-006
  1.220644508142771E-004  7.788993618429433E-006
  1.345109376458083E-004  7.788993618429433E-006
  1.530368284484922E-004  7.788993618429433E-006
  1.872950146906377E-004  7.788993618429433E-006
  2.823282078016278E-004  7.788993618429433E-006
  2.954716359411123E-004  7.788993618429433E-006
  2.970870017150104E-004  7.788993618429433E-006
  3.148103151573797E-004  7.788993618429433E-006
  3.705150753855491E-004  7.788993618429433E-006
  3.733977589790806E-004  7.788993618429433E-006
  4.183758928937395E-004  7.788993618429433E-006
  4.226375083328413E-004  7.788993618429433E-006
  5.833442401280454E-004  7.788993618429433E-006
  5.965943451208984E-004  7.788993618429433E-006
  5.969197829951851E-004  7.788993618429433E-006
  6.151207645612801E-004  7.788993618429433E-006
  6.232032176404694E-004  7.788993618429433E-006
  6.254505218501293E-004  7.788993618429433E-006
  1.060391769435002E-003  7.788993618429433E-006
  1.080921815814298E-003  7.788993618429433E-006
  1.081805213512066E-003  7.788993618429433E-006
  1.184169549700992E-003  7.788993618429433E-006
  1.184469530567812E-003  7.788993618429433E-006
  1.332199701163312E-003  7.788993618429433E-006
  1.340097560558366E-003  7.788993618429433E-006
  1.659006959667830E-003  7.788993618429433E-006
  1.944871422117053E-003  7.788993618429433E-006
  1.956778625177172E-003  7.788993618429433E-006
  2.260058009487292E-003  7.788993618429433E-006
  2.786519377148749E-003  7.788993618429433E-006
  3.025448387177098E-003  7.788993618429433E-006
  4.025461303921102E-003  7.788993618429433E-006
  4.116542248082936E-003  7.788993618429433E-006
 cut=1d-8, nber non-redundant internal coords=          45
 Check on Eigenvals of non-red overlap matrix:
  0.00000779  0.00001779  0.00002344  0.00003824  0.00004636  0.00004850  0.00005681  0.00006153
  0.00007954  0.00008776  0.00009353  0.00009382  0.00012206  0.00013451  0.00015304  0.00018730
  0.00028233  0.00029547  0.00029709  0.00031481  0.00037052  0.00037340  0.00041838  0.00042264
  0.00058334  0.00059659  0.00059692  0.00061512  0.00062320  0.00062545  0.00106039  0.00108092
  0.00108181  0.00118417  0.00118447  0.00133220  0.00134010  0.00165901  0.00194487  0.00195678
  0.00226006  0.00278652  0.00302545  0.00402546  0.00411654
 generating redundant internal coords
         300        3600          17
 search for int coords
   1 str   2   1   1.389
   2 str   3   2   1.397
   3 str   4   3   1.525
   4 str   5   4   1.525
   5 str   6   5   1.397
   6 str   7   6   1.389
   7 str   8   7   1.787
   8 str   9   5   1.419
   9 str   9   8   1.759
  10 str  10   3   1.419
  11 str  10   9   1.402
  12 str  11   1   1.787
  13 str  11  10   1.759
  14 str  12   1   1.078
  15 str  13   2   1.086
  16 str  14   4   1.102
  17 str  15   4   1.102
  18 str  16   6   1.086
  19 str  17   7   1.078
 nber stretches=          19
  20 ben   1   2   3
  21 prop tor   1   2   3   4
  22 prop tor   1   2   3  10
  23 ben   1   2  13
  24 ben   1  11  10
  25 ben   2   1  11
  26 prop tor   2   1  11  10
  27 ben   2   1  12
  28 ben   2   3   4
  29 prop tor   2   3   4   5
  30 prop tor   2   3   4  14
  31 prop tor   2   3   4  15
  32 ben   2   3  10
  33 prop tor   2   3  10   9
  34 prop tor   2   3  10  11
  35 ben   3   2  13
  36 ben   3   4   5
  37 prop tor   3   4   5   6
  38 prop tor   3   4   5   9
  39 ben   3   4  14
  40 ben   3   4  15
  41 ben   3  10   9
  42 ben   3  10  11
  43 prop tor   3  10  11   1
  44 ben   4   3  10
  45 prop tor   4   3  10   9
  46 prop tor   4   3  10  11
  47 ben   4   5   6
  48 prop tor   4   5   6   7
  49 prop tor   4   5   6  16
  50 ben   4   5   9
  51 prop tor   4   5   9   8
  52 prop tor   4   5   9  10
  53 ben   5   4  14
  54 ben   5   4  15
  55 ben   5   6   7
  56 prop tor   5   6   7   8
  57 prop tor   5   6   7  17
  58 ben   5   6  16
  59 ben   5   9   8
  60 ben   5   9  10
  61 prop tor   5   9  10   3
  62 prop tor   5   9  10  11
  63 ben   6   5   9
  64 prop tor   6   5   9   8
  65 prop tor   6   5   9  10
  66 ben   6   7   8
  67 prop tor   6   7   8   9
  68 ben   6   7  17
  69 ben   7   6  16
  70 ben   7   8   9
  71 prop tor   7   8   9   5
  72 prop tor   7   8   9  10
  73 ben   8   7  17
  74 ben   8   9  10
  75 prop tor   8   9  10   3
  76 prop tor   8   9  10  11
  77 prop tor   9   5   6   7
  78 prop tor   9   5   6  16
  79 ben   9  10  11
  80 prop tor   9  10  11   1
  81 prop tor  10   3   4   5
  82 prop tor  10   3   4  14
  83 prop tor  10   3   4  15
  84 prop tor  11   1   2   3
  85 prop tor  11   1   2  13
  86 ben  11   1  12
  87 prop tor  12   1   2   3
  88 prop tor  12   1   2  13
  89 prop tor  12   1  11  10
  90 prop tor  13   2   3   4
  91 prop tor  13   2   3  10
  92 prop tor  14   4   5   6
  93 prop tor  14   4   5   9
  94 ben  14   4  15
  95 prop tor  15   4   5   6
  96 prop tor  15   4   5   9
  97 prop tor  16   6   7   8
  98 prop tor  16   6   7  17
  99 prop tor  17   7   8   9
 nber bend=              32
 nber lin bend=           0
 nber prop tor=          48
 nber impr tor=           0
 nber tot redund int=          99
 Eigenvalues of G in red int coords
    Gval -0.00000000 -0.00000000 -0.00000000 -0.00000000 -0.00000000 -0.00000000 -0.00000000 -0.00000000
    Gval -0.00000000 -0.00000000 -0.00000000 -0.00000000 -0.00000000 -0.00000000 -0.00000000 -0.00000000
    Gval -0.00000000 -0.00000000 -0.00000000 -0.00000000 -0.00000000 -0.00000000 -0.00000000 -0.00000000
    Gval -0.00000000 -0.00000000 -0.00000000 -0.00000000 -0.00000000  0.00000000  0.00000000  0.00000000
    Gval  0.00000000  0.00000000  0.00000000  0.00000000  0.00000000  0.00000000  0.00000000  0.00000000
    Gval  0.00000000  0.00000000  0.00000000  0.00000000  0.00000000  0.00000000  0.00000000  0.00000000
    Gval  0.00000000  0.00000000  0.00000000  0.00000000  0.00000000  0.00000000  0.00000771  0.00001763
    Gval  0.00002339  0.00003818  0.00004605  0.00004822  0.00005689  0.00006062  0.00007837  0.00008721
    Gval  0.00009298  0.00009322  0.00012036  0.00013448  0.00014990  0.00018318  0.00028019  0.00028737
    Gval  0.00029508  0.00030881  0.00036034  0.00037357  0.00041504  0.00042741  0.00058404  0.00059652
    Gval  0.00059684  0.00061495  0.00062324  0.00062563  0.00107199  0.00107871  0.00107973  0.00117695
    Gval  0.00117722  0.00130692  0.00132808  0.00163992  0.00194795  0.00197972  0.00230129  0.00281968
    Gval  0.00299992  0.00397748  0.00407166
  7.710288221452468E-006  7.710288221452468E-006
  1.762660709465507E-005  7.710288221452468E-006
  2.339029109062005E-005  7.710288221452468E-006
  3.818161885692210E-005  7.710288221452468E-006
  4.605454645830985E-005  7.710288221452468E-006
  4.822405208910115E-005  7.710288221452468E-006
  5.689009668331312E-005  7.710288221452468E-006
  6.061890709374143E-005  7.710288221452468E-006
  7.837331286128139E-005  7.710288221452468E-006
  8.721445825930532E-005  7.710288221452468E-006
  9.298466644722797E-005  7.710288221452468E-006
  9.321556134371398E-005  7.710288221452468E-006
  1.203591416694881E-004  7.710288221452468E-006
  1.344810071463703E-004  7.710288221452468E-006
  1.499015903006999E-004  7.710288221452468E-006
  1.831788344528024E-004  7.710288221452468E-006
  2.801931958783622E-004  7.710288221452468E-006
  2.873707334334674E-004  7.710288221452468E-006
  2.950831127954307E-004  7.710288221452468E-006
  3.088113417960984E-004  7.710288221452468E-006
  3.603439677264768E-004  7.710288221452468E-006
  3.735684794798224E-004  7.710288221452468E-006
  4.150359685159580E-004  7.710288221452468E-006
  4.274088278908509E-004  7.710288221452468E-006
  5.840419450466836E-004  7.710288221452468E-006
  5.965208069461891E-004  7.710288221452468E-006
  5.968431668321479E-004  7.710288221452468E-006
  6.149528078967315E-004  7.710288221452468E-006
  6.232363890353196E-004  7.710288221452468E-006
  6.256314568226710E-004  7.710288221452468E-006
  1.071991483675047E-003  7.710288221452468E-006
  1.078712326961047E-003  7.710288221452468E-006
  1.079728136634579E-003  7.710288221452468E-006
  1.176952889744344E-003  7.710288221452468E-006
  1.177221659961703E-003  7.710288221452468E-006
  1.306923089045319E-003  7.710288221452468E-006
  1.328075098780618E-003  7.710288221452468E-006
  1.639924512069952E-003  7.710288221452468E-006
  1.947945137880891E-003  7.710288221452468E-006
  1.979723149896525E-003  7.710288221452468E-006
  2.301288075436933E-003  7.710288221452468E-006
  2.819680827791940E-003  7.710288221452468E-006
  2.999916383242053E-003  7.710288221452468E-006
  3.977481398254919E-003  7.710288221452468E-006
  4.071658415632103E-003  7.710288221452468E-006
 cut=1d-8, nber non-redundant internal coords=          45
 Check on Eigenvals of non-red overlap matrix:
  0.00000771  0.00001763  0.00002339  0.00003818  0.00004605  0.00004822  0.00005689  0.00006062
  0.00007837  0.00008721  0.00009298  0.00009322  0.00012036  0.00013448  0.00014990  0.00018318
  0.00028019  0.00028737  0.00029508  0.00030881  0.00036034  0.00037357  0.00041504  0.00042741
  0.00058404  0.00059652  0.00059684  0.00061495  0.00062324  0.00062563  0.00107199  0.00107871
  0.00107973  0.00117695  0.00117722  0.00130692  0.00132808  0.00163992  0.00194795  0.00197972
  0.00230129  0.00281968  0.00299992  0.00397748  0.00407166
 d1=
   5.2  -2.0  -0.0  10.3  -0.0  -0.0   2.1   0.0   0.0  -0.0   0.9  -0.0   0.2   2.4   0.0   5.1   0.0   0.0   0.0   0.0
   0.4   4.3  -0.0   0.0   0.4  -0.0   0.1   0.0   0.0  -1.2  -0.0  -0.0  -0.2  -0.0  -0.8  -0.0  -0.0  -0.0  -0.0   0.0
   0.0  -0.0  -0.6   0.0   0.0
 d2=
  -5.3  -2.0   0.0  10.0  -0.0  -0.0   2.3   0.0  -0.0  -0.0   1.0   0.0   0.5   2.4   0.0   5.3  -0.0  -0.0   0.0   0.0
  -3.6  -2.5   0.0   0.0  -0.4   0.0   0.1   0.0  -0.0  -1.2  -0.0  -0.0  -0.2   0.0  -0.8  -0.0   0.0   0.0  -0.0   0.0
  -0.0   0.0  -0.6  -0.0  -0.0
 curvilinear- renormalizn of Dush matrix done
  mol 1 sym            1  -> mol 2 sym            1

 Dushinsky matrix, ncs 2 in terms of ncs 1

   mode   freq    coeff     %      %tot     of    at

   1        -0.  0.0000     0.0     0.0   7       111.
   2        -0.  0.0000     0.0     0.0   7       111.
   3         0. -0.0000     0.0     0.0   7       111.
   4         0. -0.0000     0.0     0.0   8       141.
   5         0. -0.0000     0.0     0.0   7       111.
   6         0.  0.0000     0.0     0.0   8       141.
   7        84.  0.9922    98.4    99.6   7       111.
   8       128.  0.8200    67.2    97.2   8       141.
                -0.4554    20.7          10       251.
   9       142.  0.5331    28.4   101.4   8       141.
                 0.7987    63.8          10       251.
  10       198. -0.9998   100.0    98.4   9       201.
  11       204. -0.9221    85.0    98.2  11       253.
                -0.3249    10.6          21       683.
  12       279. -0.3515    12.4    99.3  11       253.
                -0.4451    19.8          14       465.
                 0.7131    50.9          21       683.
  13       308. -0.4217    17.8   102.3  10       251.
                -0.6199    38.4          19       623.
                -0.5574    31.1          22       706.
  14       365. -0.8619    74.3    97.0  14       465.
                -0.3275    10.7          17       576.
                -0.3547    12.6          21       683.
  15       414.  0.9908    98.2   100.6  12       424.
  16       425. -0.9706    94.2   100.9  15       480.
  17       447.  0.9990    99.8    99.5  13       453.
  18       542.  0.8756    76.7   101.5  17       576.
                -0.4246    18.0          21       683.
  19       544.  0.9718    94.4    97.6  16       571.
  20       563. -0.9980    99.6    97.9  18       600.
  21       624.  0.6799    46.2   102.1  19       623.
                -0.7213    52.0          22       706.
  22       632.  0.9699    94.1   100.4  20       665.
  23       673. -0.9835    96.7   100.2  23       710.
  24       756. -0.9867    97.4    98.8  24       801.
  25       794.  0.9843    96.9    98.6  25       831.
  26       796. -0.9356    87.5    97.6  26       872.
  27       800. -0.9440    89.1    97.6  27       880.
  28       916. -0.9423    88.8    97.6  29       942.
                -0.3217    10.3          31      1004.
  29       937. -0.9758    95.2    99.6  28       936.
  30       963.  0.3191    10.2   101.3  29       942.
                -0.9444    89.2          31      1004.
  31       964.  0.9917    98.3    99.4  30       997.
  32      1063. -0.9868    97.4    99.7  32      1109.
  33      1074. -0.9877    97.6   100.1  33      1111.
  34      1125. -0.9983    99.7    98.4  34      1149.
  35      1183.  0.9854    97.1    98.9  35      1181.
  36      1212.  0.9838    96.8    99.3  36      1241.
  37      1231.  0.9724    94.6    99.6  37      1273.
  38      1297. -0.9051    81.9    99.6  38      1353.
                 0.3892    15.2          39      1402.
  39      1314. -0.9611    92.4   100.2  40      1409.
  40      1402. -0.5194    27.0    99.6  41      1440.
                 0.8202    67.3          44      1527.
  41      1423.  0.5668    32.1    99.5  42      1455.
                 0.7857    61.7          45      1539.
  42      1456. -0.3347    11.2    99.5  38      1353.
                -0.8596    73.9          39      1402.
  43      1469. -0.6782    46.0    99.2  41      1440.
                -0.5415    29.3          43      1470.
                -0.3425    11.7          44      1527.
  44      1493. -0.7851    61.6    99.4  42      1455.
                 0.5921    35.1          45      1539.
  45      1515. -0.4613    21.3    99.1  41      1440.
                 0.7537    56.8          43      1470.
                -0.4381    19.2          44      1527.
  46      2919.  0.9999   100.0    99.9  47      3053.
  47      2926.  0.9995    99.9   100.1  46      3026.
  48      3141.  0.9964    99.3   100.0  48      3198.
  49      3141.  0.9967    99.3   100.0  49      3199.
  50      3235.  0.9965    99.3   100.0  50      3246.
  51      3235. -0.9967    99.3   100.0  51      3246.
 nber times 1st assigned=           1           0
 nber times 1st assigned=           2           0
 nber times 1st assigned=           3           0
 nber times 1st assigned=           4           0
 nber times 1st assigned=           5           0
 nber times 1st assigned=           6           0
 nber times 1st assigned=           7           4
 nber times 1st assigned=           8           2
 nber times 1st assigned=           9           0
 nber times 1st assigned=          10           0
 nber times 1st assigned=          11           0
 nber times 1st assigned=          12           0
 nber times 1st assigned=          13           0
 nber times 1st assigned=          14           0
 nber times 1st assigned=          15           0
 nber times 1st assigned=          16           0
 nber times 1st assigned=          17           0
 nber times 1st assigned=          18           0
 nber times 1st assigned=          19           0
 nber times 1st assigned=          20           0
 nber times 1st assigned=          21           0
 nber times 1st assigned=          22           0
 nber times 1st assigned=          23           0
 nber times 1st assigned=          24           0
 nber times 1st assigned=          25           0
 nber times 1st assigned=          26           0
 nber times 1st assigned=          27           0
 nber times 1st assigned=          28           0
 nber times 1st assigned=          29           0
 nber times 1st assigned=          30           0
 nber times 1st assigned=          31           0
 nber times 1st assigned=          32           0
 nber times 1st assigned=          33           0
 nber times 1st assigned=          34           0
 nber times 1st assigned=          35           0
 nber times 1st assigned=          36           0
 nber times 1st assigned=          37           0
 nber times 1st assigned=          38           0
 nber times 1st assigned=          39           0
 nber times 1st assigned=          40           0
 nber times 1st assigned=          41           0
 nber times 1st assigned=          42           0
 nber times 1st assigned=          43           0
 nber times 1st assigned=          44           0
 nber times 1st assigned=          45           0
 nber times 1st assigned=          46           0
 nber times 1st assigned=          47           0
 nber times 1st assigned=          48           0
 nber times 1st assigned=          49           0
 nber times 1st assigned=          50           0
 nber times 1st assigned=          51           0
 Dushinsky matrix written to .out file
 modes represented=   44.7640041412930     

 Dushinsky matrix, ncs 1 in terms of ncs 2

   mode   freq    coeff     %      %tot     of    at

   7       111.  0.9922    98.4    99.9   7        84.
   8       141.  0.8200    67.2    97.1   8       128.
                 0.5331    28.4           9       142.
   9       201. -0.9998   100.0    98.5  10       198.
  10       251. -0.4554    20.7   103.3   8       128.
                 0.7987    63.8           9       142.
                -0.4217    17.8          13       308.
  11       253. -0.9221    85.0    97.5  11       204.
                -0.3515    12.4          12       279.
  12       424.  0.9908    98.2   101.1  15       414.
  13       453.  0.9990    99.8    99.7  17       447.
  14       465. -0.4451    19.8    95.8  12       279.
                -0.8619    74.3          14       365.
  15       480. -0.9706    94.2    99.8  16       425.
  16       571.  0.9718    94.4    97.8  19       544.
  17       576. -0.3275    10.7    99.9  14       365.
                 0.8756    76.7          18       542.
  18       600. -0.9980    99.6    97.9  20       563.
  19       623. -0.6199    38.4   100.5  13       308.
                 0.6799    46.2          21       624.
  20       665.  0.9699    94.1    99.7  22       632.
  21       683. -0.3249    10.6   102.0  11       204.
                 0.7131    50.9          12       279.
                -0.3547    12.6          14       365.
                -0.4246    18.0          18       542.
  22       706. -0.5574    31.1   102.5  13       308.
                -0.7213    52.0          21       624.
  23       710. -0.9835    96.7   100.1  23       673.
  24       801. -0.9867    97.4    98.9  24       756.
  25       831.  0.9843    96.9    98.5  25       794.
  26       872. -0.9356    87.5    98.3  26       796.
  27       880. -0.9440    89.1    98.3  27       800.
  28       936. -0.9758    95.2    99.4  29       937.
  29       942. -0.9423    88.8    98.1  28       916.
                 0.3191    10.2          30       963.
  30       997.  0.9917    98.3    99.5  31       964.
  31      1004. -0.3217    10.3   100.9  28       916.
                -0.9444    89.2          30       963.
  32      1109. -0.9868    97.4    99.7  32      1063.
  33      1111. -0.9877    97.6   100.0  33      1074.
  34      1149. -0.9983    99.7    98.3  34      1125.
  35      1181.  0.9854    97.1    98.8  35      1183.
  36      1241.  0.9838    96.8    99.2  36      1212.
  37      1273.  0.9724    94.6    99.3  37      1231.
  38      1353. -0.9051    81.9    99.2  38      1297.
                -0.3347    11.2          42      1456.
  39      1402.  0.3892    15.2    99.5  38      1297.
                -0.8596    73.9          42      1456.
  40      1409. -0.9611    92.4   100.0  39      1314.
  41      1440. -0.5194    27.0    99.0  40      1402.
                -0.6782    46.0          43      1469.
                -0.4613    21.3          45      1515.
  42      1455.  0.5668    32.1    99.1  41      1423.
                -0.7851    61.6          44      1493.
  43      1470. -0.5415    29.3    99.1  43      1469.
                 0.7537    56.8          45      1515.
  44      1527.  0.8202    67.3    99.9  40      1402.
                -0.3425    11.7          43      1469.
                -0.4381    19.2          45      1515.
  45      1539.  0.7857    61.7   100.2  41      1423.
                 0.5921    35.1          44      1493.
  46      3026.  0.9995    99.9   100.1  47      2926.
  47      3053.  0.9999   100.0    99.9  46      2919.
  48      3198.  0.9964    99.3   100.0  48      3141.
  49      3199.  0.9967    99.3   100.0  49      3141.
  50      3246.  0.9965    99.3   100.0  50      3235.
  51      3246. -0.9967    99.3   100.0  51      3235.
 nber times 1st assigned=           1           0
 nber times 1st assigned=           2           0
 nber times 1st assigned=           3           0
 nber times 1st assigned=           4           0
 nber times 1st assigned=           5           0
 nber times 1st assigned=           6           0
 nber times 1st assigned=           7           0
 nber times 1st assigned=           8           0
 nber times 1st assigned=           9           0
 nber times 1st assigned=          10           0
 nber times 1st assigned=          11           0
 nber times 1st assigned=          12           0
 nber times 1st assigned=          13           0
 nber times 1st assigned=          14           0
 nber times 1st assigned=          15           0
 nber times 1st assigned=          16           0
 nber times 1st assigned=          17           0
 nber times 1st assigned=          18           0
 nber times 1st assigned=          19           0
 nber times 1st assigned=          20           0
 nber times 1st assigned=          21           0
 nber times 1st assigned=          22           0
 nber times 1st assigned=          23           0
 nber times 1st assigned=          24           0
 nber times 1st assigned=          25           0
 nber times 1st assigned=          26           0
 nber times 1st assigned=          27           0
 nber times 1st assigned=          28           0
 nber times 1st assigned=          29           0
 nber times 1st assigned=          30           0
 nber times 1st assigned=          31           0
 nber times 1st assigned=          32           0
 nber times 1st assigned=          33           0
 nber times 1st assigned=          34           0
 nber times 1st assigned=          35           0
 nber times 1st assigned=          36           0
 nber times 1st assigned=          37           0
 nber times 1st assigned=          38           0
 nber times 1st assigned=          39           0
 nber times 1st assigned=          40           0
 nber times 1st assigned=          41           0
 nber times 1st assigned=          42           0
 nber times 1st assigned=          43           0
 nber times 1st assigned=          44           0
 nber times 1st assigned=          45           0
 nber times 1st assigned=          46           0
 nber times 1st assigned=          47           0
 nber times 1st assigned=          48           0
 nber times 1st assigned=          49           0
 nber times 1st assigned=          50           0
 nber times 1st assigned=          51           0
 modes represented=   44.7640041412930     
 p1=
   -0.    0.    0.   -0.    0.   -0.   -0.   -0.    4.    0.    0.   -0.    2.    0.   -0.   -0.   -0.    8.   -0.    0.
    0.   -0.    2.    0.   -7.   -0.    0.   -0.    0.   -1.   -0.   -1.   -0.    0.   -0.   -1.    0.    1.   -4.   -0.
    3.    0.   -5.    0.    0.   -0.   -0.    0.    0.    0.   -0.
 p2=
    0.    0.   -0.   -0.   -0.    0.    0.    0.   -0.    4.   -0.    0.   -0.    0.    0.   -0.   -2.    0.    0.    8.
    0.   -0.    4.    0.    6.    0.   -0.    0.   -0.    0.    1.   -1.   -0.    0.    0.    2.   -0.    3.    0.    2.
   -0.   -2.   -1.    0.    6.    0.    0.   -0.   -0.   -0.   -0.

 Displacement: in terms of nc of 1 THEN of nc of 2

   1     freq=    -0. Q= -0.000 lam=    -0.0     freq=    -0. Q= -0.000 lam=    -0.0
   2     freq=    -0. Q=  0.000 lam=    -0.0     freq=    -0. Q=  0.000 lam=    -0.0
   3     freq=     0. Q=  0.000 lam=     0.0     freq=     0. Q=  0.000 lam=     0.0
   4     freq=     0. Q= -0.000 lam=     0.0     freq=     0. Q= -0.000 lam=     0.0
   5     freq=     0. Q=  0.000 lam=     0.0     freq=     0. Q=  0.000 lam=     0.0
   6     freq=     0. Q= -0.000 lam=     0.0     freq=     0. Q= -0.000 lam=     0.0
   7     freq=   111. Q= -0.000 lam=     0.0     freq=    84. Q= -0.000 lam=     0.0
   8     freq=   141. Q= -0.000 lam=     0.0     freq=   128. Q= -0.000 lam=     0.0
   9     freq=   201. Q=  0.216 lam=     4.7     freq=   142. Q=  0.000 lam=     0.0
  10     freq=   251. Q=  0.000 lam=     0.0     freq=   198. Q=  0.229 lam=     5.2
  11     freq=   253. Q=  0.000 lam=     0.0     freq=   204. Q=  0.000 lam=     0.0
  12     freq=   424. Q= -0.000 lam=     0.0     freq=   279. Q= -0.000 lam=     0.0
  13     freq=   453. Q=  0.171 lam=     6.6     freq=   308. Q=  0.000 lam=     0.0
  14     freq=   465. Q=  0.000 lam=     0.0     freq=   365. Q=  0.000 lam=     0.0
  15     freq=   480. Q= -0.000 lam=     0.0     freq=   414. Q= -0.000 lam=     0.0
  16     freq=   571. Q= -0.000 lam=     0.0     freq=   425. Q= -0.000 lam=     0.0
  17     freq=   576. Q= -0.000 lam=     0.0     freq=   447. Q= -0.160 lam=     5.7
  18     freq=   600. Q=  0.829 lam=   206.3     freq=   542. Q=  0.000 lam=     0.0
  19     freq=   623. Q= -0.000 lam=     0.0     freq=   544. Q= -0.000 lam=     0.0
  20     freq=   665. Q=  0.000 lam=     0.0     freq=   563. Q=  0.780 lam=   171.3
  21     freq=   683. Q=  0.000 lam=     0.0     freq=   624. Q=  0.000 lam=     0.0
  22     freq=   706. Q= -0.000 lam=     0.0     freq=   632. Q= -0.000 lam=     0.0
  23     freq=   710. Q=  0.203 lam=    14.6     freq=   673. Q=  0.374 lam=    47.2
  24     freq=   801. Q=  0.000 lam=     0.0     freq=   756. Q=  0.000 lam=     0.0
  25     freq=   831. Q= -0.773 lam=   248.1     freq=   794. Q= -0.728 lam=   210.2
  26     freq=   872. Q= -0.000 lam=     0.0     freq=   796. Q= -0.000 lam=     0.0
  27     freq=   880. Q=  0.000 lam=     0.0     freq=   800. Q=  0.000 lam=     0.0
  28     freq=   936. Q= -0.000 lam=     0.0     freq=   916. Q= -0.000 lam=     0.0
  29     freq=   942. Q=  0.000 lam=     0.0     freq=   937. Q=  0.000 lam=     0.0
  30     freq=   997. Q= -0.089 lam=     4.0     freq=   963. Q= -0.000 lam=     0.0
  31     freq=  1004. Q= -0.000 lam=     0.0     freq=   964. Q= -0.091 lam=     4.0
  32     freq=  1109. Q= -0.191 lam=    20.3     freq=  1063. Q= -0.162 lam=    14.0
  33     freq=  1111. Q= -0.000 lam=     0.0     freq=  1074. Q= -0.000 lam=     0.0
  34     freq=  1149. Q=  0.000 lam=     0.0     freq=  1125. Q=  0.000 lam=     0.0
  35     freq=  1181. Q= -0.000 lam=     0.0     freq=  1183. Q= -0.000 lam=     0.0
  36     freq=  1241. Q= -0.162 lam=    16.3     freq=  1212. Q= -0.229 lam=    31.9
  37     freq=  1273. Q=  0.000 lam=     0.0     freq=  1231. Q=  0.000 lam=     0.0
  38     freq=  1353. Q=  0.185 lam=    23.2     freq=  1297. Q=  0.399 lam=   103.2
  39     freq=  1402. Q= -0.597 lam=   250.0     freq=  1314. Q= -0.000 lam=     0.0
  40     freq=  1409. Q= -0.000 lam=     0.0     freq=  1402. Q= -0.267 lam=    50.0
  41     freq=  1440. Q=  0.469 lam=   158.3     freq=  1423. Q=  0.000 lam=     0.0
  42     freq=  1455. Q=  0.000 lam=     0.0     freq=  1456. Q=  0.298 lam=    64.7
  43     freq=  1470. Q= -0.812 lam=   484.2     freq=  1469. Q= -0.232 lam=    39.5
  44     freq=  1527. Q=  0.033 lam=     0.9     freq=  1493. Q=  0.000 lam=     0.0
  45     freq=  1539. Q=  0.000 lam=     0.0     freq=  1515. Q=  0.871 lam=   574.0
  46     freq=  3026. Q= -0.072 lam=     7.8     freq=  2919. Q= -0.000 lam=     0.0
  47     freq=  3053. Q= -0.000 lam=     0.0     freq=  2926. Q= -0.076 lam=     8.4
  48     freq=  3198. Q=  0.001 lam=     0.0     freq=  3141. Q=  0.000 lam=     0.0
  49     freq=  3199. Q=  0.049 lam=     3.8     freq=  3141. Q=  0.046 lam=     3.4
  50     freq=  3246. Q=  0.001 lam=     0.0     freq=  3235. Q=  0.001 lam=     0.0
  51     freq=  3246. Q= -0.026 lam=     1.1     freq=  3235. Q= -0.024 lam=     0.9

 total reorg energy (cm**-1, kcal/mol)=     1450.     1334.      4.15      3.81
 Nber of molecules processed=           2
