 Enter ifcurve (0=recti, 1=orth curvi, 2=apprx curvi, -1 = skip
 And atom ordering flag, 0= never changes, 1= use the first order thenceforth,
  2= deduce it (does read on fail), 3= always read it
 Reading file: 
 ./Common_Moeties_5_C0S0.log                                                    
                                          
  Entering Gaussian System, Link 0=g16                                          
  
 Gaussian format, type: g94, g98, g03= F F F
  #P Geom=AllCheck Guess=TCheck SCRF=Check GenChk RB3LYP/6-311G(d,p) Fre    
 energy type= B3LYP   
 Original G94 input coords:
  8  1.834364 -2.738899  0.000000
  6  2.269097 -1.599168  0.000000
  6  3.703013 -1.206589  0.000000
  6  4.815435 -2.030764  0.000000
  6  6.076677 -1.434392  0.000000
  6  6.193965 -0.043049  0.000000
  6  5.069229  0.785973  0.000000
  6  3.804239  0.195015  0.000000
  6  2.432391  0.775344  0.000000
  6  2.146415  2.134958  0.000000
  6  0.815614  2.640885  0.000000
  7 -0.277104  3.026733  0.000000
  6  3.139682  3.154162  0.000000
  7  3.916352  4.012312  0.000000
  6  1.499569 -0.334429  0.000000
  6  0.116552 -0.267319  0.000000
  6 -0.806313 -1.315720  0.000000
  6 -2.170949 -1.060725  0.000000
  7 -2.787419  0.156657  0.000000
  6 -4.176209  0.149385  0.000000
  6 -5.023677  1.255404  0.000000
  6 -6.396730  1.028422  0.000000
  6 -6.914973 -0.270085  0.000000
  6 -6.066661 -1.375580  0.000000
  6 -4.695141 -1.152587  0.000000
 16 -3.382609 -2.337083  0.000000
  1  4.689438 -3.107200  0.000000
  1  6.969437 -2.049217  0.000000
  1  7.178779  0.409828  0.000000
  1  5.201028  1.857476  0.000000
  1 -0.299719  0.727859  0.000000
  1 -0.466426 -2.341471  0.000000
  1 -2.260951  1.021857  0.000000
  1 -4.619955  2.260915  0.000000
  1 -7.072516  1.874978  0.000000
  1 -7.987297 -0.421907  0.000000
  1 -6.466629 -2.381979  0.000000
 nber atoms=          37
 Original standard coords:
  8  0.075962  3.257231  0.000000
  6  1.065727  2.544250  0.000000
  6  2.479305  3.004719  0.000000
  6  2.955356  4.304766  0.000000
  6  4.336749  4.500070  0.000000
  6  5.199696  3.402385  0.000000
  6  4.716025  2.091519  0.000000
  6  3.334477  1.889631  0.000000
  6  2.507662  0.650630  0.000000
  6  3.016323 -0.642273  0.000000
  6  2.182886 -1.796559  0.000000
  7  1.482296 -2.719643  0.000000
  6  4.406358 -0.947491  0.000000
  7  5.526923 -1.237270  0.000000
  6  1.118320  1.064732  0.000000
  6  0.000000  0.248276  0.000000
  6 -1.347282  0.616590  0.000000
  6 -2.346946 -0.346700  0.000000
  7 -2.192544 -1.702507  0.000000
  6 -3.356582 -2.460007  0.000000
  6 -3.456359 -3.849800  0.000000
  6 -4.728050 -4.415127  0.000000
  6 -5.874869 -3.615437  0.000000
  6 -5.774099 -2.225617  0.000000
  6 -4.505881 -1.657801  0.000000
 16 -4.060790  0.053241  0.000000
  1  2.258274  5.134625  0.000000
  1  4.744422  5.504477  0.000000
  1  6.271298  3.565566  0.000000
  1  5.415241  1.268970  0.000000
  1  0.199456 -0.811855  0.000000
  1 -1.627349  1.660261  0.000000
  1 -1.277094 -2.135739  0.000000
  1 -2.566291 -4.467719  0.000000
  1 -4.827079 -5.493801  0.000000
  1 -6.854041 -4.078199  0.000000
  1 -6.661519 -1.604892  0.000000
  SCF Done:  E(RB3LYP) =  -1444.76676346     A.U. after    1 cycles             
  
          23          40 "  -1444.76676346"
After scan for Atom:   Atom  AN      X      Y      Z        X      Y      Z        X      Y      Z   
After scan for Atom:   Atom  AN      X      Y      Z        X      Y      Z        X      Y      Z   
After scan for Atom:   Atom  AN      X      Y      Z        X      Y      Z        X      Y      Z   
After scan for Atom:   Atom  AN      X      Y      Z        X      Y      Z        X      Y      Z   
After scan for Atom:   Atom  AN      X      Y      Z        X      Y      Z        X      Y      Z   
After scan for Atom:   Atom  AN      X      Y      Z        X      Y      Z        X      Y      Z   
After scan for Atom:   Atom  AN      X      Y      Z        X      Y      Z        X      Y      Z   
After scan for Atom:   Atom  AN      X      Y      Z        X      Y      Z        X      Y      Z   
After scan for Atom:   Atom  AN      X      Y      Z        X      Y      Z        X      Y      Z   
After scan for Atom:   Atom  AN      X      Y      Z        X      Y      Z        X      Y      Z   
After scan for Atom:   Atom  AN      X      Y      Z        X      Y      Z        X      Y      Z   
After scan for Atom:   Atom  AN      X      Y      Z        X      Y      Z        X      Y      Z   
After scan for Atom:   Atom  AN      X      Y      Z        X      Y      Z        X      Y      Z   
After scan for Atom:   Atom  AN      X      Y      Z        X      Y      Z        X      Y      Z   
After scan for Atom:   Atom  AN      X      Y      Z        X      Y      Z        X      Y      Z   
After scan for Atom:   Atom  AN      X      Y      Z        X      Y      Z        X      Y      Z   
After scan for Atom:   Atom  AN      X      Y      Z        X      Y      Z        X      Y      Z   
After scan for Atom:   Atom  AN      X      Y      Z        X      Y      Z        X      Y      Z   
After scan for Atom:   Atom  AN      X      Y      Z        X      Y      Z        X      Y      Z   
After scan for Atom:   Atom  AN      X      Y      Z        X      Y      Z        X      Y      Z   
After scan for Atom:   Atom  AN      X      Y      Z        X      Y      Z        X      Y      Z   
After scan for Atom:   Atom  AN      X      Y      Z        X      Y      Z        X      Y      Z   
After scan for Atom:   Atom  AN      X      Y      Z        X      Y      Z        X      Y      Z   
After scan for Atom:   Atom  AN      X      Y      Z        X      Y      Z        X      Y      Z   
After scan for Atom:   Atom  AN      X      Y      Z        X      Y      Z        X      Y      Z   
After scan for Atom:   Atom  AN      X      Y      Z        X      Y      Z        X      Y      Z   
After scan for Atom:   Atom  AN      X      Y      Z        X      Y      Z        X      Y      Z   
After scan for Atom:   Atom  AN      X      Y      Z        X      Y      Z        X      Y      Z   
After scan for Atom:   Atom  AN      X      Y      Z        X      Y      Z        X      Y      Z   
After scan for Atom:   Atom  AN      X      Y      Z        X      Y      Z        X      Y      Z   
After scan for Atom:   Atom  AN      X      Y      Z        X      Y      Z        X      Y      Z   
After scan for Atom:   Atom  AN      X      Y      Z        X      Y      Z        X      Y      Z   
After scan for Atom:   Atom  AN      X      Y      Z        X      Y      Z        X      Y      Z   
After scan for Atom:   Atom  AN      X      Y      Z        X      Y      Z        X      Y      Z   
After scan for Atom:   Atom  AN      X      Y      Z        X      Y      Z        X      Y      Z   
 g94    frequencies=
     0.0    0.0    0.0    0.0    0.0    0.0   22.4   28.7   31.8   45.3
    56.3   80.6  129.4  133.1  137.7  156.7  162.2  183.8  185.8  216.4
   233.9  244.1  287.7  316.1  332.3  351.5  413.0  426.1  427.7  444.4
   458.9  479.1  493.5  500.8  510.4  538.6  551.8  555.1  576.1  595.0
   604.6  643.5  655.2  683.0  688.0  711.9  718.4  719.0  740.2  758.2
   791.3  791.7  819.5  844.8  857.3  867.1  910.1  914.5  925.3  927.7
   941.1  982.7  988.2 1004.9 1014.3 1043.0 1051.3 1078.1 1111.3 1146.2
  1156.2 1175.7 1185.4 1187.9 1199.9 1225.9 1242.2 1280.0 1291.5 1294.0
  1324.7 1337.1 1372.5 1386.2 1404.5 1443.7 1483.3 1496.6 1497.7 1506.0
  1538.4 1592.3 1603.9 1626.6 1627.6 1638.9 1640.9 1752.8 2290.9 2317.1
  3170.8 3177.8 3184.5 3185.5 3193.5 3194.0 3202.2 3215.9 3234.2 3234.4
  3569.4
 g94    symmetries=
                                                A"     A"     A'     A"
      A"     A"     A"     A'     A'     A'     A"     A'     A"     A"
      A"     A'     A"     A'     A"     A'     A'     A"     A"     A'
      A"     A'     A"     A'     A'     A"     A'     A"     A'     A"
      A"     A'     A'     A'     A"     A'     A"     A'     A"     A"
      A'     A"     A"     A'     A"     A"     A"     A'     A'     A"
      A"     A"     A"     A'     A"     A'     A'     A'     A'     A'
      A'     A'     A'     A'     A'     A'     A'     A'     A'     A'
      A'     A'     A'     A'     A'     A'     A'     A'     A'     A'
      A'     A'     A'     A'     A'     A'     A'     A'     A'     A'
      A'     A'     A'     A'     A'     A'     A'     A'     A'     A'
      A'
 atomic masses:
 15.9949 12.0000 12.0000 12.0000 12.0000 12.0000 12.0000 12.0000 12.0000 12.0000
 12.0000 14.0031 12.0000 14.0031 12.0000 12.0000 12.0000 12.0000 14.0031 12.0000
 12.0000 12.0000 12.0000 12.0000 12.0000 31.9721  1.0078  1.0078  1.0078  1.0078
  1.0078  1.0078  1.0078  1.0078  1.0078  1.0078  1.0078
 looking for force constants in 
 ./Common_Moeties_5_C0S0.fchk                                                   
  
 Cartesian Force Constants                  R   N=        6216                  
  
 n3=         111        6216
 g94-fc frequencies=
    -2.1   -1.5   -0.0    0.0    0.0    0.6   22.4   28.7   31.8   45.3
    56.3   80.6  129.4  133.1  137.7  156.7  162.2  183.8  185.8  216.4
   233.9  244.1  287.7  316.1  332.3  351.5  413.1  426.1  427.7  444.5
   458.9  479.1  493.5  500.8  510.4  538.6  551.8  555.1  576.1  595.0
   604.7  643.5  655.2  683.1  688.0  711.9  718.4  719.0  740.2  758.2
   791.3  791.7  819.5  844.8  857.3  867.1  910.1  914.6  925.3  927.7
   941.1  982.7  988.3 1004.9 1014.4 1043.1 1051.3 1078.2 1111.3 1146.2
  1156.2 1175.8 1185.4 1187.9 1199.9 1225.9 1242.2 1280.1 1291.5 1294.1
  1324.8 1337.1 1372.6 1386.2 1404.5 1443.7 1483.3 1496.6 1497.7 1506.1
  1538.4 1592.3 1604.0 1626.7 1627.6 1638.9 1641.0 1752.9 2291.0 2317.1
  3170.9 3177.9 3184.6 3185.5 3193.6 3194.1 3202.2 3216.0 3234.2 3234.5
  3569.4
 at 99999: n3=         111
 symm operator            1 :  F  nop=           0
 symm operator            2 :  F  nop=           0
 symm operator            3 :  F  nop=           0
 symm operator            4 :  F  nop=           0
 symm operator            5 :  T  nop=           1
 symm operator            6 :  F  nop=           1
 symm operator            7 :  F  nop=           1
 The point group of the molecule is  CS
 enforcing symm op           5  jsymt=           1           1          -1
 cartesian coord symmetries:
 A' :   74 A" :   37
 Symmetry rotation matrix:
   1.00000   0.00000   0.00000
   0.00000   1.00000   0.00000
   0.00000   0.00000   1.00000

 Projecting out zero-frequency components
 generating redundant internal coords
         300        3600          37
 search for int coords
   1 str   2   1   1.220
   2 str   3   2   1.487
   3 str   4   3   1.384
   4 str   5   4   1.395
   5 str   6   5   1.396
   6 str   7   6   1.397
   7 str   8   3   1.405
   8 str   8   7   1.396
   9 str   9   8   1.490
  10 str  10   9   1.389
  11 str  11  10   1.424
  12 str  12  11   1.159
  13 str  13  10   1.423
  14 str  14  13   1.157
  15 str  15   2   1.480
  16 str  15   9   1.450
  17 str  16  15   1.385
  18 str  17  16   1.397
  19 str  18  17   1.388
  20 str  19  18   1.365
  21 str  20  19   1.389
  22 str  21  20   1.393
  23 str  22  21   1.392
  24 str  23  22   1.398
  25 str  24  23   1.393
  26 str  25  20   1.402
  27 str  25  24   1.390
  28 str  26  18   1.760
  29 str  26  25   1.768
  30 str  27   4   1.084
  31 str  28   5   1.084
  32 str  29   6   1.084
  33 str  30   7   1.080
  34 str  31  16   1.079
  35 str  32  17   1.081
  36 str  33  19   1.013
  37 str  34  21   1.084
  38 str  35  22   1.083
  39 str  36  23   1.083
  40 str  37  24   1.083
 nber stretches=          40
  41 ben   1   2   3
  42 prop tor   1   2   3   4
  43 prop tor   1   2   3   8
  44 ben   1   2  15
  45 prop tor   1   2  15   9
  46 prop tor   1   2  15  16
  47 ben   2   3   4
  48 prop tor   2   3   4   5
  49 prop tor   2   3   4  27
  50 ben   2   3   8
  51 prop tor   2   3   8   7
  52 prop tor   2   3   8   9
  53 ben   2  15   9
  54 ben   2  15  16
  55 prop tor   2  15  16  17
  56 prop tor   2  15  16  31
  57 ben   3   2  15
  58 prop tor   3   2  15   9
  59 prop tor   3   2  15  16
  60 ben   3   4   5
  61 prop tor   3   4   5   6
  62 prop tor   3   4   5  28
  63 ben   3   4  27
  64 ben   3   8   7
  65 ben   3   8   9
  66 prop tor   3   8   9  10
  67 prop tor   3   8   9  15
  68 ben   4   3   8
  69 prop tor   4   3   8   7
  70 prop tor   4   3   8   9
  71 ben   4   5   6
  72 prop tor   4   5   6   7
  73 prop tor   4   5   6  29
  74 ben   4   5  28
  75 ben   5   4  27
  76 ben   5   6   7
  77 prop tor   5   6   7   8
  78 prop tor   5   6   7  30
  79 ben   5   6  29
  80 ben   6   5  28
  81 ben   6   7   8
  82 prop tor   6   7   8   3
  83 prop tor   6   7   8   9
  84 ben   6   7  30
  85 ben   7   6  29
  86 ben   7   8   9
  87 prop tor   7   8   9  10
  88 prop tor   7   8   9  15
  89 prop tor   8   3   4   5
  90 prop tor   8   3   4  27
  91 ben   8   7  30
  92 ben   8   9  10
  93 prop tor   8   9  10  11
  94 prop tor   8   9  10  13
  95 ben   8   9  15
  96 prop tor   8   9  15   2
  97 prop tor   8   9  15  16
  98 ben   9  10  11
  99 prop tor   9  10  11  12
 100 ben   9  10  13
 101 prop tor   9  10  13  14
 102 ben   9  15  16
 103 prop tor   9  15  16  17
 104 prop tor   9  15  16  31
 105 ben  10   9  15
 106 prop tor  10   9  15   2
 107 prop tor  10   9  15  16
 108 lin ben  10  11  12
 110 lin ben  10  13  14
 112 ben  11  10  13
 113 prop tor  11  10  13  14
 114 prop tor  13  10  11  12
 115 prop tor  15   2   3   4
 116 prop tor  15   2   3   8
 117 prop tor  15   9  10  11
 118 prop tor  15   9  10  13
 119 ben  15  16  17
 120 prop tor  15  16  17  18
 121 prop tor  15  16  17  32
 122 ben  15  16  31
 123 ben  16  17  18
 124 prop tor  16  17  18  19
 125 prop tor  16  17  18  26
 126 ben  16  17  32
 127 ben  17  16  31
 128 ben  17  18  19
 129 prop tor  17  18  19  20
 130 prop tor  17  18  19  33
 131 ben  17  18  26
 132 prop tor  17  18  26  25
 133 ben  18  17  32
 134 ben  18  19  20
 135 prop tor  18  19  20  21
 136 prop tor  18  19  20  25
 137 ben  18  19  33
 138 ben  18  26  25
 139 ben  19  18  26
 140 prop tor  19  18  26  25
 141 ben  19  20  21
 142 prop tor  19  20  21  22
 143 prop tor  19  20  21  34
 144 ben  19  20  25
 145 prop tor  19  20  25  24
 146 prop tor  19  20  25  26
 147 ben  20  19  33
 148 ben  20  21  22
 149 prop tor  20  21  22  23
 150 prop tor  20  21  22  35
 151 ben  20  21  34
 152 ben  20  25  24
 153 ben  20  25  26
 154 prop tor  20  25  26  18
 155 ben  21  20  25
 156 prop tor  21  20  25  24
 157 prop tor  21  20  25  26
 158 ben  21  22  23
 159 prop tor  21  22  23  24
 160 prop tor  21  22  23  36
 161 ben  21  22  35
 162 ben  22  21  34
 163 ben  22  23  24
 164 prop tor  22  23  24  25
 165 prop tor  22  23  24  37
 166 ben  22  23  36
 167 ben  23  22  35
 168 ben  23  24  25
 169 prop tor  23  24  25  20
 170 prop tor  23  24  25  26
 171 ben  23  24  37
 172 ben  24  23  36
 173 ben  24  25  26
 174 prop tor  24  25  26  18
 175 prop tor  25  20  21  22
 176 prop tor  25  20  21  34
 177 ben  25  24  37
 178 prop tor  26  18  19  20
 179 prop tor  26  18  19  33
 180 prop tor  27   4   5   6
 181 prop tor  27   4   5  28
 182 prop tor  28   5   6   7
 183 prop tor  28   5   6  29
 184 prop tor  29   6   7   8
 185 prop tor  29   6   7  30
 186 prop tor  30   7   8   3
 187 prop tor  30   7   8   9
 188 prop tor  31  16  17  18
 189 prop tor  31  16  17  32
 190 prop tor  32  17  18  19
 191 prop tor  32  17  18  26
 192 prop tor  33  19  20  21
 193 prop tor  33  19  20  25
 194 prop tor  34  21  22  23
 195 prop tor  34  21  22  35
 196 prop tor  35  22  23  24
 197 prop tor  35  22  23  36
 198 prop tor  36  23  24  25
 199 prop tor  36  23  24  37
 200 prop tor  37  24  25  20
 201 prop tor  37  24  25  26
 202 lin bend prop tor   9  10  12  11
 203 lin bend prop tor  13  10  12  11
 204 lin bend prop tor   9  10  14  13
 205 lin bend prop tor  11  10  14  13
 nber bend=              65
 nber lin bend=           2
 nber prop tor=         100
 nber impr tor=           0
 nber tot redund int=         205
 Eigenvalues of G in red int coords
    Gval -0.00000000 -0.00000000 -0.00000000 -0.00000000 -0.00000000 -0.00000000 -0.00000000 -0.00000000
    Gval -0.00000000 -0.00000000 -0.00000000 -0.00000000 -0.00000000 -0.00000000 -0.00000000 -0.00000000
    Gval -0.00000000 -0.00000000 -0.00000000 -0.00000000 -0.00000000 -0.00000000 -0.00000000 -0.00000000
    Gval -0.00000000 -0.00000000 -0.00000000 -0.00000000 -0.00000000 -0.00000000 -0.00000000 -0.00000000
    Gval -0.00000000 -0.00000000 -0.00000000 -0.00000000 -0.00000000 -0.00000000 -0.00000000 -0.00000000
    Gval -0.00000000 -0.00000000 -0.00000000 -0.00000000 -0.00000000 -0.00000000 -0.00000000 -0.00000000
    Gval  0.00000000  0.00000000  0.00000000  0.00000000  0.00000000  0.00000000  0.00000000  0.00000000
    Gval  0.00000000  0.00000000  0.00000000  0.00000000  0.00000000  0.00000000  0.00000000  0.00000000
    Gval  0.00000000  0.00000000  0.00000000  0.00000000  0.00000000  0.00000000  0.00000000  0.00000000
    Gval  0.00000000  0.00000000  0.00000000  0.00000000  0.00000000  0.00000000  0.00000000  0.00000000
    Gval  0.00000000  0.00000000  0.00000000  0.00000000  0.00000000  0.00000000  0.00000000  0.00000000
    Gval  0.00000000  0.00000000  0.00000000  0.00000000  0.00000000  0.00000000  0.00000000  0.00000000
    Gval  0.00000000  0.00000000  0.00000000  0.00000000  0.00000033  0.00000173  0.00000218  0.00000218
    Gval  0.00000387  0.00000573  0.00000711  0.00001078  0.00001329  0.00001437  0.00001450  0.00001745
    Gval  0.00002148  0.00002346  0.00002612  0.00003025  0.00003520  0.00003877  0.00004090  0.00004479
    Gval  0.00004677  0.00005167  0.00005378  0.00006059  0.00006418  0.00007056  0.00007702  0.00008283
    Gval  0.00008776  0.00009603  0.00009815  0.00010747  0.00011299  0.00011767  0.00012217  0.00012396
    Gval  0.00012763  0.00013054  0.00013678  0.00013700  0.00015413  0.00016111  0.00019876  0.00020931
    Gval  0.00023431  0.00024408  0.00025722  0.00028963  0.00030573  0.00031026  0.00032521  0.00034493
    Gval  0.00036618  0.00038332  0.00039525  0.00040300  0.00040742  0.00041733  0.00043274  0.00047301
    Gval  0.00048147  0.00059313  0.00059318  0.00059656  0.00059740  0.00059772  0.00060687  0.00062001
    Gval  0.00062185  0.00065397  0.00065595  0.00065808  0.00066711  0.00077244  0.00084708  0.00095733
    Gval  0.00105558  0.00105624  0.00108486  0.00109521  0.00112416  0.00112606  0.00116296  0.00116431
    Gval  0.00116927  0.00117213  0.00117285  0.00124129  0.00125537  0.00172241  0.00172669  0.00182100
    Gval  0.00192585  0.00212075  0.00271668  0.00283549  0.00296692  0.00328943  0.00349435  0.00363184
    Gval  0.00375736  0.00403863  0.00404046  0.46505186  1.16919804
  3.278923773181783E-007  3.278923773181783E-007
  1.728135563322046E-006  3.278923773181783E-007
  2.177012681125454E-006  3.278923773181783E-007
  2.178948771116660E-006  3.278923773181783E-007
  3.865863421484408E-006  3.278923773181783E-007
  5.731616549540309E-006  3.278923773181783E-007
  7.113373551262943E-006  3.278923773181783E-007
  1.077749232714651E-005  3.278923773181783E-007
  1.328776134041855E-005  3.278923773181783E-007
  1.437192780073823E-005  3.278923773181783E-007
  1.449882890235806E-005  3.278923773181783E-007
  1.745073809589914E-005  3.278923773181783E-007
  2.147872936746691E-005  3.278923773181783E-007
  2.346333259053894E-005  3.278923773181783E-007
  2.612179338946394E-005  3.278923773181783E-007
  3.025328547530966E-005  3.278923773181783E-007
  3.519764047041759E-005  3.278923773181783E-007
  3.876731394089063E-005  3.278923773181783E-007
  4.090454765163459E-005  3.278923773181783E-007
  4.479017583600203E-005  3.278923773181783E-007
  4.677079720879856E-005  3.278923773181783E-007
  5.167425051325075E-005  3.278923773181783E-007
  5.377618617674186E-005  3.278923773181783E-007
  6.059389057228660E-005  3.278923773181783E-007
  6.417577308243567E-005  3.278923773181783E-007
  7.056477058692600E-005  3.278923773181783E-007
  7.701930222848790E-005  3.278923773181783E-007
  8.282727353992320E-005  3.278923773181783E-007
  8.775580231653046E-005  3.278923773181783E-007
  9.603139626689427E-005  3.278923773181783E-007
  9.815224381176474E-005  3.278923773181783E-007
  1.074687791689669E-004  3.278923773181783E-007
  1.129855946526367E-004  3.278923773181783E-007
  1.176747651537643E-004  3.278923773181783E-007
  1.221717941483077E-004  3.278923773181783E-007
  1.239563617194849E-004  3.278923773181783E-007
  1.276285656563146E-004  3.278923773181783E-007
  1.305404114514931E-004  3.278923773181783E-007
  1.367776942089093E-004  3.278923773181783E-007
  1.369959891893439E-004  3.278923773181783E-007
  1.541345595154146E-004  3.278923773181783E-007
  1.611061326983236E-004  3.278923773181783E-007
  1.987596914803298E-004  3.278923773181783E-007
  2.093050860591315E-004  3.278923773181783E-007
  2.343094265627540E-004  3.278923773181783E-007
  2.440837258082989E-004  3.278923773181783E-007
  2.572217897574363E-004  3.278923773181783E-007
  2.896250568408728E-004  3.278923773181783E-007
  3.057320852071508E-004  3.278923773181783E-007
  3.102559943477579E-004  3.278923773181783E-007
  3.252117982814626E-004  3.278923773181783E-007
  3.449260177759462E-004  3.278923773181783E-007
  3.661795419516792E-004  3.278923773181783E-007
  3.833172954187557E-004  3.278923773181783E-007
  3.952481519081735E-004  3.278923773181783E-007
  4.030009144972424E-004  3.278923773181783E-007
  4.074191264432345E-004  3.278923773181783E-007
  4.173270613827341E-004  3.278923773181783E-007
  4.327396284801754E-004  3.278923773181783E-007
  4.730076771570671E-004  3.278923773181783E-007
  4.814749336773068E-004  3.278923773181783E-007
  5.931338745477469E-004  3.278923773181783E-007
  5.931751164699151E-004  3.278923773181783E-007
  5.965649028751933E-004  3.278923773181783E-007
  5.974006709805291E-004  3.278923773181783E-007
  5.977222893916291E-004  3.278923773181783E-007
  6.068701304085933E-004  3.278923773181783E-007
  6.200101606771938E-004  3.278923773181783E-007
  6.218471460465063E-004  3.278923773181783E-007
  6.539680159161099E-004  3.278923773181783E-007
  6.559511094998297E-004  3.278923773181783E-007
  6.580817381672089E-004  3.278923773181783E-007
  6.671121440582451E-004  3.278923773181783E-007
  7.724382280378585E-004  3.278923773181783E-007
  8.470782510565994E-004  3.278923773181783E-007
  9.573292320003310E-004  3.278923773181783E-007
  1.055580670129651E-003  3.278923773181783E-007
  1.056240884309929E-003  3.278923773181783E-007
  1.084855459881861E-003  3.278923773181783E-007
  1.095206638678676E-003  3.278923773181783E-007
  1.124162261108950E-003  3.278923773181783E-007
  1.126058167051550E-003  3.278923773181783E-007
  1.162959542555563E-003  3.278923773181783E-007
  1.164307748345590E-003  3.278923773181783E-007
  1.169268290773110E-003  3.278923773181783E-007
  1.172133468902598E-003  3.278923773181783E-007
  1.172851070831604E-003  3.278923773181783E-007
  1.241287993987287E-003  3.278923773181783E-007
  1.255372729866246E-003  3.278923773181783E-007
  1.722406648795020E-003  3.278923773181783E-007
  1.726687385742969E-003  3.278923773181783E-007
  1.820997172227517E-003  3.278923773181783E-007
  1.925849018732662E-003  3.278923773181783E-007
  2.120745245395144E-003  3.278923773181783E-007
  2.716679454578700E-003  3.278923773181783E-007
  2.835485977184969E-003  3.278923773181783E-007
  2.966918342121276E-003  3.278923773181783E-007
  3.289427493971591E-003  3.278923773181783E-007
  3.494351670236986E-003  3.278923773181783E-007
  3.631842728724597E-003  3.278923773181783E-007
  3.757363896004686E-003  3.278923773181783E-007
  4.038632384258825E-003  3.278923773181783E-007
  4.040455842885564E-003  3.278923773181783E-007
  0.465051861439112       3.278923773181783E-007
   1.16919803926974       3.278923773181783E-007
 cut=1d-8, nber non-redundant internal coords=         105
 Check on Eigenvals of non-red overlap matrix:
  0.00000033  0.00000173  0.00000218  0.00000218  0.00000387  0.00000573  0.00000711  0.00001078
  0.00001329  0.00001437  0.00001450  0.00001745  0.00002148  0.00002346  0.00002612  0.00003025
  0.00003520  0.00003877  0.00004090  0.00004479  0.00004677  0.00005167  0.00005378  0.00006059
  0.00006418  0.00007056  0.00007702  0.00008283  0.00008776  0.00009603  0.00009815  0.00010747
  0.00011299  0.00011767  0.00012217  0.00012396  0.00012763  0.00013054  0.00013678  0.00013700
  0.00015413  0.00016111  0.00019876  0.00020931  0.00023431  0.00024408  0.00025722  0.00028963
  0.00030573  0.00031026  0.00032521  0.00034493  0.00036618  0.00038332  0.00039525  0.00040300
  0.00040742  0.00041733  0.00043274  0.00047301  0.00048147  0.00059313  0.00059318  0.00059656
  0.00059740  0.00059772  0.00060687  0.00062001  0.00062185  0.00065397  0.00065595  0.00065808
  0.00066711  0.00077244  0.00084708  0.00095733  0.00105558  0.00105624  0.00108486  0.00109521
  0.00112416  0.00112606  0.00116296  0.00116431  0.00116927  0.00117213  0.00117285  0.00124129
  0.00125537  0.00172241  0.00172669  0.00182100  0.00192585  0.00212075  0.00271668  0.00283549
  0.00296692  0.00328943  0.00349435  0.00363184  0.00375736  0.00403863  0.00404046  0.46505186
  1.16919804
 Checking for correct frequencies
 recalc frequencies=
    -0.0   -0.0    0.0    0.0    0.0    0.0   22.4   28.7   31.8   45.3
    56.3   80.6  129.4  133.1  137.7  156.7  162.2  183.8  185.8  216.4
   233.9  244.1  287.7  316.1  332.3  351.5  413.1  426.1  427.7  444.5
   458.9  479.1  493.5  500.8  510.4  538.6  551.8  555.1  576.1  595.0
   604.7  643.5  655.2  683.1  688.0  711.9  718.4  719.0  740.2  758.2
   791.3  791.7  819.5  844.8  857.3  867.1  910.1  914.6  925.3  927.7
   941.1  982.7  988.3 1004.9 1014.4 1043.1 1051.3 1078.2 1111.3 1146.2
  1156.2 1175.8 1185.4 1187.9 1199.9 1225.9 1242.2 1280.1 1291.5 1294.1
  1324.8 1337.1 1372.6 1386.2 1404.5 1443.7 1483.3 1496.6 1497.7 1506.1
  1538.4 1592.3 1604.0 1626.7 1627.6 1638.9 1641.0 1752.9 2291.0 2317.1
  3170.9 3177.9 3184.6 3185.5 3193.6 3194.1 3202.2 3216.0 3234.2 3234.5
  3569.4
 recalc symmetries=
     A"     A"     A"     A'     A'     A'     A"     A"     A'     A" 
     A"     A"     A"     A'     A'     A'     A"     A'     A"     A" 
     A"     A'     A"     A'     A"     A'     A'     A"     A"     A' 
     A"     A'     A"     A'     A'     A"     A'     A"     A'     A" 
     A"     A'     A'     A'     A"     A'     A"     A'     A"     A" 
     A'     A"     A"     A'     A"     A"     A"     A'     A'     A" 
     A"     A"     A"     A'     A"     A'     A'     A'     A'     A' 
     A'     A'     A'     A'     A'     A'     A'     A'     A'     A' 
     A'     A'     A'     A'     A'     A'     A'     A'     A'     A' 
     A'     A'     A'     A'     A'     A'     A'     A'     A'     A' 
     A'     A'     A'     A'     A'     A'     A'     A'     A'     A' 
     A' 
 recalc freqs check OK
 Zero-point lengths:
 10.0000 10.0000 10.0000 10.0000 10.0000 10.0000 52.3723 46.2452 43.9911 36.8459
 33.0512 27.6103 21.7909 21.4871 21.1229 19.8015 19.4654 18.2880 18.1859 16.8535
 16.2087 15.8664 14.6161 13.9429 13.5996 13.2227 12.1981 12.0102 11.9868 11.7594
 11.5730 11.3266 11.1592 11.0776 10.9735 10.6825 10.5532 10.5225 10.3286 10.1629
 10.0819  9.7725  9.6849  9.4857  9.4514  9.2913  9.2494  9.2453  9.1120  9.0033
  8.8131  8.8109  8.6600  8.5293  8.4670  8.4191  8.2177  8.1977  8.1500  8.1393
  8.0812  7.9084  7.8860  7.8205  7.7840  7.6761  7.6460  7.5501  7.4366  7.3225
  7.2908  7.2300  7.2006  7.1928  7.1569  7.0805  7.0340  6.9292  6.8984  6.8916
  6.8112  6.7797  6.6916  6.6585  6.6150  6.5245  6.4369  6.4083  6.4059  6.3882
  6.3206  6.2127  6.1901  6.1468  6.1450  6.1237  6.1199  5.9213  5.1795  5.1501
  4.4025  4.3977  4.3931  4.3924  4.3869  4.3865  4.3809  4.3716  4.3592  4.3591
  4.1495
 highest evec of mol 1
 -0.0000  0.0001  0.0000
 -0.0002 -0.0008  0.0000
  0.0003  0.0002  0.0000
 -0.0002 -0.0002  0.0000
  0.0003 -0.0001  0.0000
 -0.0000  0.0003  0.0000
 -0.0002 -0.0001  0.0000
  0.0003  0.0002  0.0000
 -0.0023  0.0015  0.0000
  0.0007 -0.0017  0.0000
  0.0014  0.0017  0.0000
 -0.0022 -0.0007  0.0000
 -0.0004 -0.0001  0.0000
  0.0002 -0.0001  0.0000
  0.0030  0.0008  0.0000
 -0.0036 -0.0033  0.0000
  0.0052  0.0014  0.0000
 -0.0026 -0.0012  0.0000
  0.2424 -0.1124  0.0000
 -0.0035 -0.0013  0.0000
 -0.0005 -0.0006  0.0000
  0.0009  0.0002  0.0000
 -0.0005  0.0003  0.0000
  0.0003 -0.0002  0.0000
 -0.0030  0.0007  0.0000
 -0.0013  0.0006  0.0000
 -0.0001  0.0000  0.0000
  0.0000  0.0001  0.0000
  0.0000  0.0000  0.0000
  0.0000 -0.0000  0.0000
 -0.0005  0.0177  0.0000
  0.0002 -0.0011  0.0000
 -0.8722  0.4092  0.0000
  0.0009  0.0001  0.0000
  0.0000 -0.0002  0.0000
  0.0003  0.0001  0.0000
 -0.0006  0.0005  0.0000
 generating redundant internal coords
         300        3600          37
 Adding extra bonds for z output only
           8           6           6           6           6           6
           6           6           6           6           6           7
           6           7           6           6           6           6
           7           6           6           6           6           6
           6          16           1           1           1           1
           1           1           1           1           1           1
           1
 search for int coords
   1 str   2   1   1.220
   2 str   3   2   1.487
   3 str   4   3   1.384
   4 str   5   4   1.395
   5 str   6   5   1.396
   6 str   7   6   1.397
   7 str   8   3   1.405
   8 str   8   7   1.396
   9 str   9   8   1.490
  10 str  10   9   1.389
  11 str  11  10   1.424
  12 str  12  11   1.159
  13 str  13  10   1.423
  14 str  14  13   1.157
  15 str  15   2   1.480
  16 str  15   9   1.450
  17 str  16  15   1.385
  18 str  17  16   1.397
  19 str  18  17   1.388
  20 str  19  18   1.365
  21 str  20  19   1.389
  22 str  21  20   1.393
  23 str  22  21   1.392
  24 str  23  22   1.398
  25 str  24  23   1.393
  26 str  25  20   1.402
  27 str  25  24   1.390
  28 str  26  18   1.760
  29 str  26  25   1.768
  30 str  27   4   1.084
  31 str  28   5   1.084
  32 str  29   6   1.084
  33 str  30   7   1.080
  34 str  31  16   1.079
  35 str  32  17   1.081
  36 str  33  19   1.013
  37 str  34  21   1.084
  38 str  35  22   1.083
  39 str  36  23   1.083
  40 str  37  24   1.083
 nber stretches=          40
  41 ben   1   2   3
  42 prop tor   1   2   3   4
  43 prop tor   1   2   3   8
  44 ben   1   2  15
  45 prop tor   1   2  15   9
  46 prop tor   1   2  15  16
  47 ben   2   3   4
  48 prop tor   2   3   4   5
  49 prop tor   2   3   4  27
  50 ben   2   3   8
  51 prop tor   2   3   8   7
  52 prop tor   2   3   8   9
  53 ben   2  15   9
  54 ben   2  15  16
  55 prop tor   2  15  16  17
  56 prop tor   2  15  16  31
  57 ben   3   2  15
  58 prop tor   3   2  15   9
  59 prop tor   3   2  15  16
  60 ben   3   4   5
  61 prop tor   3   4   5   6
  62 prop tor   3   4   5  28
  63 ben   3   4  27
  64 ben   3   8   7
  65 ben   3   8   9
  66 prop tor   3   8   9  10
  67 prop tor   3   8   9  15
  68 ben   4   3   8
  69 prop tor   4   3   8   7
  70 prop tor   4   3   8   9
  71 ben   4   5   6
  72 prop tor   4   5   6   7
  73 prop tor   4   5   6  29
  74 ben   4   5  28
  75 ben   5   4  27
  76 ben   5   6   7
  77 prop tor   5   6   7   8
  78 prop tor   5   6   7  30
  79 ben   5   6  29
  80 ben   6   5  28
  81 ben   6   7   8
  82 prop tor   6   7   8   3
  83 prop tor   6   7   8   9
  84 ben   6   7  30
  85 ben   7   6  29
  86 ben   7   8   9
  87 prop tor   7   8   9  10
  88 prop tor   7   8   9  15
  89 prop tor   8   3   4   5
  90 prop tor   8   3   4  27
  91 ben   8   7  30
  92 ben   8   9  10
  93 prop tor   8   9  10  11
  94 prop tor   8   9  10  13
  95 ben   8   9  15
  96 prop tor   8   9  15   2
  97 prop tor   8   9  15  16
  98 ben   9  10  11
  99 prop tor   9  10  11  12
 100 ben   9  10  13
 101 prop tor   9  10  13  14
 102 ben   9  15  16
 103 prop tor   9  15  16  17
 104 prop tor   9  15  16  31
 105 ben  10   9  15
 106 prop tor  10   9  15   2
 107 prop tor  10   9  15  16
 108 lin ben  10  11  12
 110 lin ben  10  13  14
 112 ben  11  10  13
 113 prop tor  11  10  13  14
 114 prop tor  13  10  11  12
 115 prop tor  15   2   3   4
 116 prop tor  15   2   3   8
 117 prop tor  15   9  10  11
 118 prop tor  15   9  10  13
 119 ben  15  16  17
 120 prop tor  15  16  17  18
 121 prop tor  15  16  17  32
 122 ben  15  16  31
 123 ben  16  17  18
 124 prop tor  16  17  18  19
 125 prop tor  16  17  18  26
 126 ben  16  17  32
 127 ben  17  16  31
 128 ben  17  18  19
 129 prop tor  17  18  19  20
 130 prop tor  17  18  19  33
 131 ben  17  18  26
 132 prop tor  17  18  26  25
 133 ben  18  17  32
 134 ben  18  19  20
 135 prop tor  18  19  20  21
 136 prop tor  18  19  20  25
 137 ben  18  19  33
 138 ben  18  26  25
 139 ben  19  18  26
 140 prop tor  19  18  26  25
 141 ben  19  20  21
 142 prop tor  19  20  21  22
 143 prop tor  19  20  21  34
 144 ben  19  20  25
 145 prop tor  19  20  25  24
 146 prop tor  19  20  25  26
 147 ben  20  19  33
 148 ben  20  21  22
 149 prop tor  20  21  22  23
 150 prop tor  20  21  22  35
 151 ben  20  21  34
 152 ben  20  25  24
 153 ben  20  25  26
 154 prop tor  20  25  26  18
 155 ben  21  20  25
 156 prop tor  21  20  25  24
 157 prop tor  21  20  25  26
 158 ben  21  22  23
 159 prop tor  21  22  23  24
 160 prop tor  21  22  23  36
 161 ben  21  22  35
 162 ben  22  21  34
 163 ben  22  23  24
 164 prop tor  22  23  24  25
 165 prop tor  22  23  24  37
 166 ben  22  23  36
 167 ben  23  22  35
 168 ben  23  24  25
 169 prop tor  23  24  25  20
 170 prop tor  23  24  25  26
 171 ben  23  24  37
 172 ben  24  23  36
 173 ben  24  25  26
 174 prop tor  24  25  26  18
 175 prop tor  25  20  21  22
 176 prop tor  25  20  21  34
 177 ben  25  24  37
 178 prop tor  26  18  19  20
 179 prop tor  26  18  19  33
 180 prop tor  27   4   5   6
 181 prop tor  27   4   5  28
 182 prop tor  28   5   6   7
 183 prop tor  28   5   6  29
 184 prop tor  29   6   7   8
 185 prop tor  29   6   7  30
 186 prop tor  30   7   8   3
 187 prop tor  30   7   8   9
 188 prop tor  31  16  17  18
 189 prop tor  31  16  17  32
 190 prop tor  32  17  18  19
 191 prop tor  32  17  18  26
 192 prop tor  33  19  20  21
 193 prop tor  33  19  20  25
 194 prop tor  34  21  22  23
 195 prop tor  34  21  22  35
 196 prop tor  35  22  23  24
 197 prop tor  35  22  23  36
 198 prop tor  36  23  24  25
 199 prop tor  36  23  24  37
 200 prop tor  37  24  25  20
 201 prop tor  37  24  25  26
 202 lin bend prop tor   9  10  12  11
 203 lin bend prop tor  13  10  12  11
 204 lin bend prop tor   9  10  14  13
 205 lin bend prop tor  11  10  14  13
 nber bend=              65
 nber lin bend=           2
 nber prop tor=         100
 nber impr tor=           0
 nber tot redund int=         205
 Reading file: 
 ./Common_Moeties_5_C1S0.log                                                    
                                          
  Entering Gaussian System, Link 0=g16                                          
  
 Gaussian format, type: g94, g98, g03= F F F
  #P Geom=AllCheck Guess=TCheck SCRF=Check GenChk UB3LYP/6-311G(d,p) Fre    
 energy type= B3LYP   
 Original G94 input coords:
  8  1.748788 -2.669455  0.000000
  6  2.248272 -1.564043  0.000000
  6  3.676090 -1.208459  0.000000
  6  4.766021 -2.066976  0.000000
  6  6.040569 -1.504699  0.000000
  6  6.197973 -0.114273  0.000000
  6  5.100790  0.749071  0.000000
  6  3.819264  0.194522  0.000000
  6  2.478131  0.823559  0.000000
  6  2.212202  2.184143  0.000000
  6  0.887810  2.711823  0.000000
  7 -0.202389  3.099326  0.000000
  6  3.226875  3.180955  0.000000
  7  4.024463  4.018408  0.000000
  6  1.497845 -0.253875  0.000000
  6  0.110885 -0.151531  0.000000
  6 -0.789872 -1.209799  0.000000
  6 -2.188870 -0.993704  0.000000
  7 -2.821969  0.198108  0.000000
  6 -4.205537  0.152464  0.000000
  6 -5.088717  1.235769  0.000000
  6 -6.443790  0.952750  0.000000
  6 -6.916179 -0.373681  0.000000
  6 -6.043031 -1.451197  0.000000
  6 -4.675855 -1.175103  0.000000
 16 -3.331921 -2.298180  0.000000
  1  4.614226 -3.139500  0.000000
  1  6.915746 -2.142892  0.000000
  1  7.195795  0.307604  0.000000
  1  5.268030  1.815201  0.000000
  1 -0.299275  0.845496  0.000000
  1 -0.430433 -2.230904  0.000000
  1 -2.319186  1.081019  0.000000
  1 -4.723074  2.255334  0.000000
  1 -7.155669  1.768446  0.000000
  1 -7.983303 -0.556609  0.000000
  1 -6.410703 -2.469118  0.000000
 nber atoms=          37
 Original standard coords:
  8 -0.865622  3.037238  0.000000
  6  0.301041  2.705098  0.000000
  6  1.494339  3.565996  0.000000
  6  1.542285  4.952612  0.000000
  6  2.794494  5.563023  0.000000
  6  3.957996  4.785641  0.000000
  6  3.909055  3.390370  0.000000
  6  2.658243  2.769641  0.000000
  6  2.272874  1.339321  0.000000
  6  3.140302  0.257897  0.000000
  6  2.688333 -1.094206  0.000000
  7  2.280493 -2.176963  0.000000
  6  4.556607  0.389322  0.000000
  7  5.711069  0.457831  0.000000
  6  0.817194  1.286203  0.000000
  6  0.000000  0.160893  0.000000
  6 -1.389702  0.156139  0.000000
  6 -2.127795 -1.051797  0.000000
  7 -1.626290 -2.304683  0.000000
  6 -2.554317 -3.331869  0.000000
  6 -2.297120 -4.705698  0.000000
  6 -3.388039 -5.557884  0.000000
  6 -4.706006 -5.062372  0.000000
  6 -4.965257 -3.699942  0.000000
  6 -3.871815 -2.834042  0.000000
 16 -3.861944 -1.082653  0.000000
  1  0.625191  5.529055  0.000000
  1  2.872070  6.643396  0.000000
  1  4.924337  5.275348  0.000000
  1  4.831236  2.829850  0.000000
  1  0.496664 -0.795987  0.000000
  1 -1.937499  1.089826  0.000000
  1 -0.627425 -2.490666  0.000000
  1 -1.282421 -5.084635  0.000000
  1 -3.224635 -6.628132  0.000000
  1 -5.534597 -5.759261  0.000000
  1 -5.980011 -3.323615  0.000000
  SCF Done:  E(UB3LYP) =  -1444.51053822     A.U. after    1 cycles             
  
          23          40 "  -1444.51053822"
After scan for Atom:   Atom  AN      X      Y      Z        X      Y      Z        X      Y      Z   
After scan for Atom:   Atom  AN      X      Y      Z        X      Y      Z        X      Y      Z   
After scan for Atom:   Atom  AN      X      Y      Z        X      Y      Z        X      Y      Z   
After scan for Atom:   Atom  AN      X      Y      Z        X      Y      Z        X      Y      Z   
After scan for Atom:   Atom  AN      X      Y      Z        X      Y      Z        X      Y      Z   
After scan for Atom:   Atom  AN      X      Y      Z        X      Y      Z        X      Y      Z   
After scan for Atom:   Atom  AN      X      Y      Z        X      Y      Z        X      Y      Z   
After scan for Atom:   Atom  AN      X      Y      Z        X      Y      Z        X      Y      Z   
After scan for Atom:   Atom  AN      X      Y      Z        X      Y      Z        X      Y      Z   
After scan for Atom:   Atom  AN      X      Y      Z        X      Y      Z        X      Y      Z   
After scan for Atom:   Atom  AN      X      Y      Z        X      Y      Z        X      Y      Z   
After scan for Atom:   Atom  AN      X      Y      Z        X      Y      Z        X      Y      Z   
After scan for Atom:   Atom  AN      X      Y      Z        X      Y      Z        X      Y      Z   
After scan for Atom:   Atom  AN      X      Y      Z        X      Y      Z        X      Y      Z   
After scan for Atom:   Atom  AN      X      Y      Z        X      Y      Z        X      Y      Z   
After scan for Atom:   Atom  AN      X      Y      Z        X      Y      Z        X      Y      Z   
After scan for Atom:   Atom  AN      X      Y      Z        X      Y      Z        X      Y      Z   
After scan for Atom:   Atom  AN      X      Y      Z        X      Y      Z        X      Y      Z   
After scan for Atom:   Atom  AN      X      Y      Z        X      Y      Z        X      Y      Z   
After scan for Atom:   Atom  AN      X      Y      Z        X      Y      Z        X      Y      Z   
After scan for Atom:   Atom  AN      X      Y      Z        X      Y      Z        X      Y      Z   
After scan for Atom:   Atom  AN      X      Y      Z        X      Y      Z        X      Y      Z   
After scan for Atom:   Atom  AN      X      Y      Z        X      Y      Z        X      Y      Z   
After scan for Atom:   Atom  AN      X      Y      Z        X      Y      Z        X      Y      Z   
After scan for Atom:   Atom  AN      X      Y      Z        X      Y      Z        X      Y      Z   
After scan for Atom:   Atom  AN      X      Y      Z        X      Y      Z        X      Y      Z   
After scan for Atom:   Atom  AN      X      Y      Z        X      Y      Z        X      Y      Z   
After scan for Atom:   Atom  AN      X      Y      Z        X      Y      Z        X      Y      Z   
After scan for Atom:   Atom  AN      X      Y      Z        X      Y      Z        X      Y      Z   
After scan for Atom:   Atom  AN      X      Y      Z        X      Y      Z        X      Y      Z   
After scan for Atom:   Atom  AN      X      Y      Z        X      Y      Z        X      Y      Z   
After scan for Atom:   Atom  AN      X      Y      Z        X      Y      Z        X      Y      Z   
After scan for Atom:   Atom  AN      X      Y      Z        X      Y      Z        X      Y      Z   
After scan for Atom:   Atom  AN      X      Y      Z        X      Y      Z        X      Y      Z   
After scan for Atom:   Atom  AN      X      Y      Z        X      Y      Z        X      Y      Z   
 g94    frequencies=
     0.0    0.0    0.0    0.0    0.0    0.0   15.7   28.5   32.6   38.3
    53.9   77.2  118.2  134.0  135.7  155.7  163.9  181.4  186.4  195.7
   226.6  245.3  299.7  319.8  343.5  351.5  411.1  424.2  430.7  439.9
   440.1  472.9  472.9  499.8  510.9  521.3  551.4  568.3  571.7  581.0
   634.0  663.2  678.2  680.4  683.3  714.5  717.6  721.1  741.4  772.6
   784.3  795.8  815.3  840.0  867.1  875.8  911.7  913.7  923.4  943.5
   971.7  982.1  997.4 1017.9 1032.6 1035.8 1050.7 1076.1 1114.1 1150.0
  1160.7 1171.5 1179.8 1196.1 1205.6 1228.9 1242.3 1254.4 1276.5 1293.5
  1329.0 1340.5 1361.1 1385.0 1395.2 1433.0 1465.3 1477.2 1495.7 1498.3
  1519.1 1537.8 1550.7 1616.2 1617.7 1627.1 1627.5 1770.7 2300.2 2320.1
  3187.5 3191.6 3197.4 3197.6 3203.3 3206.1 3206.2 3213.0 3235.9 3242.1
  3537.2
 g94    symmetries=
                                                A"     A"     A'     A"
      A"     A"     A"     A'     A'     A'     A"     A'     A"     A"
      A"     A'     A"     A'     A"     A'     A'     A"     A"     A"
      A'     A"     A'     A'     A'     A"     A'     A"     A'     A"
      A'     A'     A"     A'     A"     A'     A"     A'     A"     A"
      A"     A'     A"     A'     A"     A"     A'     A"     A'     A"
      A"     A'     A"     A"     A"     A'     A'     A'     A'     A'
      A'     A'     A'     A'     A'     A'     A'     A'     A'     A'
      A'     A'     A'     A'     A'     A'     A'     A'     A'     A'
      A'     A'     A'     A'     A'     A'     A'     A'     A'     A'
      A'     A'     A'     A'     A'     A'     A'     A'     A'     A'
      A'
 atomic masses:
 15.9949 12.0000 12.0000 12.0000 12.0000 12.0000 12.0000 12.0000 12.0000 12.0000
 12.0000 14.0031 12.0000 14.0031 12.0000 12.0000 12.0000 12.0000 14.0031 12.0000
 12.0000 12.0000 12.0000 12.0000 12.0000 31.9721  1.0078  1.0078  1.0078  1.0078
  1.0078  1.0078  1.0078  1.0078  1.0078  1.0078  1.0078
 looking for force constants in 
 ./Common_Moeties_5_C1S0.fchk                                                   
  
 Cartesian Force Constants                  R   N=        6216                  
  
 n3=         111        6216
 g94-fc frequencies=
    -4.4   -0.5   -0.0    0.0    0.0    1.0   15.8   28.5   32.6   38.3
    53.9   77.2  118.2  134.0  135.7  155.7  163.9  181.5  186.4  195.7
   226.6  245.3  299.7  319.8  343.5  351.5  411.1  424.2  430.7  439.9
   440.1  472.9  473.0  499.8  510.9  521.3  551.4  568.3  571.7  581.0
   634.0  663.2  678.2  680.4  683.3  714.5  717.6  721.1  741.5  772.6
   784.3  795.8  815.4  840.0  867.1  875.8  911.7  913.7  923.4  943.5
   971.8  982.1  997.4 1018.0 1032.6 1035.8 1050.7 1076.1 1114.2 1150.0
  1160.8 1171.5 1179.8 1196.2 1205.6 1228.9 1242.4 1254.4 1276.6 1293.6
  1329.0 1340.6 1361.1 1385.1 1395.2 1433.0 1465.4 1477.3 1495.7 1498.3
  1519.1 1537.8 1550.7 1616.3 1617.8 1627.1 1627.5 1770.8 2300.3 2320.1
  3187.6 3191.6 3197.5 3197.6 3203.3 3206.2 3206.3 3213.0 3236.0 3242.2
  3537.3
 at 99999: n3=         111
 symm operator            1 :  F  nop=           0
 symm operator            2 :  F  nop=           0
 symm operator            3 :  F  nop=           0
 symm operator            4 :  F  nop=           0
 symm operator            5 :  T  nop=           1
 symm operator            6 :  F  nop=           1
 symm operator            7 :  F  nop=           1
 The point group of the molecule is  CS
 enforcing symm op           5  jsymt=           1           1          -1
 cartesian coord symmetries:
 A' :   74 A" :   37
 Symmetry rotation matrix:
   1.00000   0.00000   0.00000
   0.00000   1.00000   0.00000
   0.00000   0.00000   1.00000

 Projecting out zero-frequency components
 generating redundant internal coords
         300        3600          37
 search for int coords
   1 str   2   1   1.213
   2 str   3   2   1.471
   3 str   4   3   1.387
   4 str   5   4   1.393
   5 str   6   5   1.399
   6 str   7   6   1.396
   7 str   8   3   1.410
   8 str   8   7   1.396
   9 str   9   8   1.481
  10 str  10   9   1.386
  11 str  11  10   1.426
  12 str  12  11   1.157
  13 str  13  10   1.422
  14 str  14  13   1.156
  15 str  15   2   1.510
  16 str  15   9   1.457
  17 str  16  15   1.391
  18 str  17  16   1.390
  19 str  18  17   1.416
  20 str  19  18   1.350
  21 str  20  19   1.384
  22 str  21  20   1.398
  23 str  22  21   1.384
  24 str  23  22   1.408
  25 str  24  23   1.387
  26 str  25  20   1.408
  27 str  25  24   1.395
  28 str  26  18   1.734
  29 str  26  19   2.548
  30 str  26  25   1.751
  31 str  27   4   1.083
  32 str  28   5   1.083
  33 str  29   6   1.083
  34 str  30   7   1.079
  35 str  31  16   1.078
  36 str  32  17   1.083
  37 str  33  19   1.016
  38 str  34  21   1.083
  39 str  35  22   1.083
  40 str  36  23   1.083
  41 str  37  24   1.082
 nber stretches=          41
  42 ben   1   2   3
  43 prop tor   1   2   3   4
  44 prop tor   1   2   3   8
  45 ben   1   2  15
  46 prop tor   1   2  15   9
  47 prop tor   1   2  15  16
  48 ben   2   3   4
  49 prop tor   2   3   4   5
  50 prop tor   2   3   4  27
  51 ben   2   3   8
  52 prop tor   2   3   8   7
  53 prop tor   2   3   8   9
  54 ben   2  15   9
  55 ben   2  15  16
  56 prop tor   2  15  16  17
  57 prop tor   2  15  16  31
  58 ben   3   2  15
  59 prop tor   3   2  15   9
  60 prop tor   3   2  15  16
  61 ben   3   4   5
  62 prop tor   3   4   5   6
  63 prop tor   3   4   5  28
  64 ben   3   4  27
  65 ben   3   8   7
  66 ben   3   8   9
  67 prop tor   3   8   9  10
  68 prop tor   3   8   9  15
  69 ben   4   3   8
  70 prop tor   4   3   8   7
  71 prop tor   4   3   8   9
  72 ben   4   5   6
  73 prop tor   4   5   6   7
  74 prop tor   4   5   6  29
  75 ben   4   5  28
  76 ben   5   4  27
  77 ben   5   6   7
  78 prop tor   5   6   7   8
  79 prop tor   5   6   7  30
  80 ben   5   6  29
  81 ben   6   5  28
  82 ben   6   7   8
  83 prop tor   6   7   8   3
  84 prop tor   6   7   8   9
  85 ben   6   7  30
  86 ben   7   6  29
  87 ben   7   8   9
  88 prop tor   7   8   9  10
  89 prop tor   7   8   9  15
  90 prop tor   8   3   4   5
  91 prop tor   8   3   4  27
  92 ben   8   7  30
  93 ben   8   9  10
  94 prop tor   8   9  10  11
  95 prop tor   8   9  10  13
  96 ben   8   9  15
  97 prop tor   8   9  15   2
  98 prop tor   8   9  15  16
  99 ben   9  10  11
 100 prop tor   9  10  11  12
 101 ben   9  10  13
 102 prop tor   9  10  13  14
 103 ben   9  15  16
 104 prop tor   9  15  16  17
 105 prop tor   9  15  16  31
 106 ben  10   9  15
 107 prop tor  10   9  15   2
 108 prop tor  10   9  15  16
 109 lin ben  10  11  12
 111 lin ben  10  13  14
 113 ben  11  10  13
 114 prop tor  11  10  13  14
 115 prop tor  13  10  11  12
 116 prop tor  15   2   3   4
 117 prop tor  15   2   3   8
 118 prop tor  15   9  10  11
 119 prop tor  15   9  10  13
 120 ben  15  16  17
 121 prop tor  15  16  17  18
 122 prop tor  15  16  17  32
 123 ben  15  16  31
 124 ben  16  17  18
 125 prop tor  16  17  18  19
 126 prop tor  16  17  18  26
 127 ben  16  17  32
 128 ben  17  16  31
 129 ben  17  18  19
 130 prop tor  17  18  19  20
 131 prop tor  17  18  19  26
 132 prop tor  17  18  19  33
 133 ben  17  18  26
 134 prop tor  17  18  26  19
 135 prop tor  17  18  26  25
 136 ben  18  17  32
 137 ben  18  19  20
 138 prop tor  18  19  20  21
 139 prop tor  18  19  20  25
 140 ben  18  19  26
 141 prop tor  18  19  26  25
 142 ben  18  19  33
 143 ben  18  26  19
 144 ben  18  26  25
 145 ben  19  18  26
 146 prop tor  19  18  26  25
 147 ben  19  20  21
 148 prop tor  19  20  21  22
 149 prop tor  19  20  21  34
 150 ben  19  20  25
 151 prop tor  19  20  25  24
 152 prop tor  19  20  25  26
 153 ben  19  26  25
 154 ben  20  19  26
 155 prop tor  20  19  26  18
 156 prop tor  20  19  26  25
 157 ben  20  19  33
 158 ben  20  21  22
 159 prop tor  20  21  22  23
 160 prop tor  20  21  22  35
 161 ben  20  21  34
 162 ben  20  25  24
 163 ben  20  25  26
 164 prop tor  20  25  26  18
 165 prop tor  20  25  26  19
 166 ben  21  20  25
 167 prop tor  21  20  25  24
 168 prop tor  21  20  25  26
 169 ben  21  22  23
 170 prop tor  21  22  23  24
 171 prop tor  21  22  23  36
 172 ben  21  22  35
 173 ben  22  21  34
 174 ben  22  23  24
 175 prop tor  22  23  24  25
 176 prop tor  22  23  24  37
 177 ben  22  23  36
 178 ben  23  22  35
 179 ben  23  24  25
 180 prop tor  23  24  25  20
 181 prop tor  23  24  25  26
 182 ben  23  24  37
 183 ben  24  23  36
 184 ben  24  25  26
 185 prop tor  24  25  26  18
 186 prop tor  24  25  26  19
 187 prop tor  25  20  21  22
 188 prop tor  25  20  21  34
 189 ben  25  24  37
 190 prop tor  26  18  19  20
 191 prop tor  26  18  19  33
 192 prop tor  26  19  20  21
 193 prop tor  26  19  20  25
 194 ben  26  19  33
 195 prop tor  27   4   5   6
 196 prop tor  27   4   5  28
 197 prop tor  28   5   6   7
 198 prop tor  28   5   6  29
 199 prop tor  29   6   7   8
 200 prop tor  29   6   7  30
 201 prop tor  30   7   8   3
 202 prop tor  30   7   8   9
 203 prop tor  31  16  17  18
 204 prop tor  31  16  17  32
 205 prop tor  32  17  18  19
 206 prop tor  32  17  18  26
 207 prop tor  33  19  20  21
 208 prop tor  33  19  20  25
 209 prop tor  33  19  26  18
 210 prop tor  33  19  26  25
 211 prop tor  34  21  22  23
 212 prop tor  34  21  22  35
 213 prop tor  35  22  23  24
 214 prop tor  35  22  23  36
 215 prop tor  36  23  24  25
 216 prop tor  36  23  24  37
 217 prop tor  37  24  25  20
 218 prop tor  37  24  25  26
 219 lin bend prop tor   9  10  12  11
 220 lin bend prop tor  13  10  12  11
 221 lin bend prop tor   9  10  14  13
 222 lin bend prop tor  11  10  14  13
 nber bend=              70
 nber lin bend=           2
 nber prop tor=         111
 nber impr tor=           0
 nber tot redund int=         222
 Eigenvalues of G in red int coords
    Gval -0.00000000 -0.00000000 -0.00000000 -0.00000000 -0.00000000 -0.00000000 -0.00000000 -0.00000000
    Gval -0.00000000 -0.00000000 -0.00000000 -0.00000000 -0.00000000 -0.00000000 -0.00000000 -0.00000000
    Gval -0.00000000 -0.00000000 -0.00000000 -0.00000000 -0.00000000 -0.00000000 -0.00000000 -0.00000000
    Gval -0.00000000 -0.00000000 -0.00000000 -0.00000000 -0.00000000 -0.00000000 -0.00000000 -0.00000000
    Gval -0.00000000 -0.00000000 -0.00000000 -0.00000000 -0.00000000 -0.00000000 -0.00000000 -0.00000000
    Gval -0.00000000 -0.00000000 -0.00000000 -0.00000000 -0.00000000 -0.00000000 -0.00000000 -0.00000000
    Gval -0.00000000 -0.00000000 -0.00000000 -0.00000000 -0.00000000 -0.00000000 -0.00000000 -0.00000000
    Gval -0.00000000 -0.00000000 -0.00000000  0.00000000  0.00000000  0.00000000  0.00000000  0.00000000
    Gval  0.00000000  0.00000000  0.00000000  0.00000000  0.00000000  0.00000000  0.00000000  0.00000000
    Gval  0.00000000  0.00000000  0.00000000  0.00000000  0.00000000  0.00000000  0.00000000  0.00000000
    Gval  0.00000000  0.00000000  0.00000000  0.00000000  0.00000000  0.00000000  0.00000000  0.00000000
    Gval  0.00000000  0.00000000  0.00000000  0.00000000  0.00000000  0.00000000  0.00000000  0.00000000
    Gval  0.00000000  0.00000000  0.00000000  0.00000000  0.00000000  0.00000000  0.00000000  0.00000000
    Gval  0.00000000  0.00000000  0.00000000  0.00000000  0.00000000  0.00000000  0.00000000  0.00000000
    Gval  0.00000000  0.00000000  0.00000000  0.00000000  0.00000000  0.00000034  0.00000172  0.00000224
    Gval  0.00000234  0.00000390  0.00000570  0.00000712  0.00001083  0.00001338  0.00001463  0.00001476
    Gval  0.00001798  0.00002303  0.00002393  0.00002717  0.00003127  0.00004025  0.00004207  0.00004234
    Gval  0.00004716  0.00004997  0.00005298  0.00005526  0.00006421  0.00007079  0.00007790  0.00008583
    Gval  0.00008796  0.00009216  0.00010025  0.00010711  0.00010860  0.00011806  0.00012136  0.00012244
    Gval  0.00012594  0.00012777  0.00013122  0.00013726  0.00016099  0.00016220  0.00016956  0.00020988
    Gval  0.00022081  0.00023989  0.00024844  0.00027313  0.00029321  0.00031284  0.00032610  0.00033024
    Gval  0.00034500  0.00036768  0.00039796  0.00040373  0.00040865  0.00041610  0.00042749  0.00044069
    Gval  0.00047270  0.00047704  0.00059312  0.00059317  0.00059681  0.00059737  0.00059770  0.00061340
    Gval  0.00062005  0.00063308  0.00065359  0.00065608  0.00066130  0.00077141  0.00081924  0.00092225
    Gval  0.00098817  0.00105673  0.00105752  0.00108317  0.00112490  0.00112697  0.00116562  0.00116592
    Gval  0.00117078  0.00117308  0.00117312  0.00121330  0.00163699  0.00181696  0.00183778  0.00187459
    Gval  0.00193709  0.00206849  0.00219101  0.00280737  0.00284598  0.00305019  0.00330521  0.00362424
    Gval  0.00363664  0.00403233  0.00403779  0.01580273  0.43217778  0.62520823
  3.357996506194118E-007  3.357996506194118E-007
  1.718641172800841E-006  3.357996506194118E-007
  2.241703738944750E-006  3.357996506194118E-007
  2.337799071886593E-006  3.357996506194118E-007
  3.897689074496908E-006  3.357996506194118E-007
  5.698260383252527E-006  3.357996506194118E-007
  7.118222221669853E-006  3.357996506194118E-007
  1.083082234781247E-005  3.357996506194118E-007
  1.337798900469846E-005  3.357996506194118E-007
  1.462971371537668E-005  3.357996506194118E-007
  1.475647096284702E-005  3.357996506194118E-007
  1.797897439224964E-005  3.357996506194118E-007
  2.303409474829682E-005  3.357996506194118E-007
  2.392882592204334E-005  3.357996506194118E-007
  2.716531402850239E-005  3.357996506194118E-007
  3.126978502584029E-005  3.357996506194118E-007
  4.025221983111039E-005  3.357996506194118E-007
  4.207367413629081E-005  3.357996506194118E-007
  4.233963208194009E-005  3.357996506194118E-007
  4.715649151959691E-005  3.357996506194118E-007
  4.997016083994435E-005  3.357996506194118E-007
  5.297793845705208E-005  3.357996506194118E-007
  5.526223327076266E-005  3.357996506194118E-007
  6.420938488474114E-005  3.357996506194118E-007
  7.078917480777890E-005  3.357996506194118E-007
  7.789916115625008E-005  3.357996506194118E-007
  8.582640104573795E-005  3.357996506194118E-007
  8.796393309578392E-005  3.357996506194118E-007
  9.215538244514874E-005  3.357996506194118E-007
  1.002524441640612E-004  3.357996506194118E-007
  1.071137044437464E-004  3.357996506194118E-007
  1.086035073337038E-004  3.357996506194118E-007
  1.180575383511901E-004  3.357996506194118E-007
  1.213621922860469E-004  3.357996506194118E-007
  1.224352881603567E-004  3.357996506194118E-007
  1.259350550787766E-004  3.357996506194118E-007
  1.277738511978332E-004  3.357996506194118E-007
  1.312212036177609E-004  3.357996506194118E-007
  1.372642658636640E-004  3.357996506194118E-007
  1.609909667961286E-004  3.357996506194118E-007
  1.621958291269764E-004  3.357996506194118E-007
  1.695553884305246E-004  3.357996506194118E-007
  2.098754671713669E-004  3.357996506194118E-007
  2.208050511573010E-004  3.357996506194118E-007
  2.398926988217612E-004  3.357996506194118E-007
  2.484449095015635E-004  3.357996506194118E-007
  2.731303977890613E-004  3.357996506194118E-007
  2.932053954801953E-004  3.357996506194118E-007
  3.128402064508311E-004  3.357996506194118E-007
  3.261020460249484E-004  3.357996506194118E-007
  3.302403593168728E-004  3.357996506194118E-007
  3.450028751586741E-004  3.357996506194118E-007
  3.676814129664655E-004  3.357996506194118E-007
  3.979557061949151E-004  3.357996506194118E-007
  4.037274953870183E-004  3.357996506194118E-007
  4.086470272899423E-004  3.357996506194118E-007
  4.161046043053038E-004  3.357996506194118E-007
  4.274895954136650E-004  3.357996506194118E-007
  4.406901022776297E-004  3.357996506194118E-007
  4.727048453388587E-004  3.357996506194118E-007
  4.770438097128443E-004  3.357996506194118E-007
  5.931185349593701E-004  3.357996506194118E-007
  5.931673461308532E-004  3.357996506194118E-007
  5.968121850067414E-004  3.357996506194118E-007
  5.973749312815447E-004  3.357996506194118E-007
  5.976953563268996E-004  3.357996506194118E-007
  6.133999540393933E-004  3.357996506194118E-007
  6.200468086314658E-004  3.357996506194118E-007
  6.330770154004931E-004  3.357996506194118E-007
  6.535901139028291E-004  3.357996506194118E-007
  6.560810692966171E-004  3.357996506194118E-007
  6.612979224206775E-004  3.357996506194118E-007
  7.714078351077002E-004  3.357996506194118E-007
  8.192396121270908E-004  3.357996506194118E-007
  9.222500673759960E-004  3.357996506194118E-007
  9.881679851546886E-004  3.357996506194118E-007
  1.056731105254377E-003  3.357996506194118E-007
  1.057516187804532E-003  3.357996506194118E-007
  1.083171542152283E-003  3.357996506194118E-007
  1.124904549047121E-003  3.357996506194118E-007
  1.126973692950714E-003  3.357996506194118E-007
  1.165622019286019E-003  3.357996506194118E-007
  1.165924005826567E-003  3.357996506194118E-007
  1.170782967594292E-003  3.357996506194118E-007
  1.173083320456192E-003  3.357996506194118E-007
  1.173115905862079E-003  3.357996506194118E-007
  1.213303304718198E-003  3.357996506194118E-007
  1.636993197466912E-003  3.357996506194118E-007
  1.816958343936063E-003  3.357996506194118E-007
  1.837777007109927E-003  3.357996506194118E-007
  1.874586660801609E-003  3.357996506194118E-007
  1.937087458402504E-003  3.357996506194118E-007
  2.068491024061395E-003  3.357996506194118E-007
  2.191008937270502E-003  3.357996506194118E-007
  2.807367897699573E-003  3.357996506194118E-007
  2.845980296587620E-003  3.357996506194118E-007
  3.050190684450300E-003  3.357996506194118E-007
  3.305208541428272E-003  3.357996506194118E-007
  3.624242938588355E-003  3.357996506194118E-007
  3.636642127912931E-003  3.357996506194118E-007
  4.032332443807718E-003  3.357996506194118E-007
  4.037792619792773E-003  3.357996506194118E-007
  1.580272833711277E-002  3.357996506194118E-007
  0.432177775934012       3.357996506194118E-007
  0.625208226051775       3.357996506194118E-007
 cut=1d-8, nber non-redundant internal coords=         105
 Check on Eigenvals of non-red overlap matrix:
  0.00000034  0.00000172  0.00000224  0.00000234  0.00000390  0.00000570  0.00000712  0.00001083
  0.00001338  0.00001463  0.00001476  0.00001798  0.00002303  0.00002393  0.00002717  0.00003127
  0.00004025  0.00004207  0.00004234  0.00004716  0.00004997  0.00005298  0.00005526  0.00006421
  0.00007079  0.00007790  0.00008583  0.00008796  0.00009216  0.00010025  0.00010711  0.00010860
  0.00011806  0.00012136  0.00012244  0.00012594  0.00012777  0.00013122  0.00013726  0.00016099
  0.00016220  0.00016956  0.00020988  0.00022081  0.00023989  0.00024844  0.00027313  0.00029321
  0.00031284  0.00032610  0.00033024  0.00034500  0.00036768  0.00039796  0.00040373  0.00040865
  0.00041610  0.00042749  0.00044069  0.00047270  0.00047704  0.00059312  0.00059317  0.00059681
  0.00059737  0.00059770  0.00061340  0.00062005  0.00063308  0.00065359  0.00065608  0.00066130
  0.00077141  0.00081924  0.00092225  0.00098817  0.00105673  0.00105752  0.00108317  0.00112490
  0.00112697  0.00116562  0.00116592  0.00117078  0.00117308  0.00117312  0.00121330  0.00163699
  0.00181696  0.00183778  0.00187459  0.00193709  0.00206849  0.00219101  0.00280737  0.00284598
  0.00305019  0.00330521  0.00362424  0.00363664  0.00403233  0.00403779  0.01580273  0.43217778
  0.62520823
 Checking for correct frequencies
 recalc frequencies=
    -0.0   -0.0   -0.0   -0.0    0.0    0.0   15.7   28.5   32.6   38.3
    53.9   77.2  118.2  134.0  135.7  155.7  163.9  181.5  186.4  195.7
   226.6  245.3  299.7  319.8  343.5  351.5  411.1  424.2  430.7  439.9
   440.1  472.9  473.0  499.8  510.9  521.3  551.4  568.3  571.7  581.0
   634.0  663.2  678.2  680.4  683.3  714.5  717.6  721.1  741.5  772.6
   784.3  795.8  815.4  840.0  867.1  875.8  911.7  913.7  923.4  943.5
   971.8  982.1  997.4 1018.0 1032.6 1035.8 1050.7 1076.1 1114.2 1150.0
  1160.8 1171.5 1179.8 1196.2 1205.6 1228.9 1242.4 1254.4 1276.6 1293.6
  1329.0 1340.6 1361.1 1385.1 1395.2 1433.0 1465.4 1477.3 1495.7 1498.3
  1519.1 1537.8 1550.7 1616.3 1617.8 1627.1 1627.5 1770.8 2300.3 2320.1
  3187.6 3191.6 3197.5 3197.6 3203.3 3206.2 3206.3 3213.0 3236.0 3242.2
  3537.3
 recalc symmetries=
     A'     A'     A'     A"     A"     A"     A"     A"     A'     A" 
     A"     A"     A"     A'     A'     A'     A"     A'     A"     A" 
     A"     A'     A"     A'     A"     A'     A'     A"     A"     A" 
     A'     A"     A'     A'     A'     A"     A'     A"     A'     A" 
     A'     A'     A"     A'     A"     A'     A"     A'     A"     A" 
     A"     A'     A"     A'     A"     A"     A'     A"     A'     A" 
     A"     A'     A"     A"     A"     A'     A'     A'     A'     A' 
     A'     A'     A'     A'     A'     A'     A'     A'     A'     A' 
     A'     A'     A'     A'     A'     A'     A'     A'     A'     A' 
     A'     A'     A'     A'     A'     A'     A'     A'     A'     A' 
     A'     A'     A'     A'     A'     A'     A'     A'     A'     A' 
     A' 
 recalc freqs check OK
 Zero-point lengths:
 10.0000 10.0000 10.0000 10.0000 10.0000 10.0000 62.5502 46.4443 43.4145 40.0456
 33.7634 28.2222 22.7985 21.4123 21.2780 19.8675 19.3655 18.4041 18.1598 17.7235
 16.4683 15.8284 14.3201 13.8638 13.3761 13.2238 12.2274 12.0368 11.9457 11.8199
 11.8171 11.4005 11.3995 11.0891 10.9681 10.8584 10.5579 10.3990 10.3686 10.2852
  9.8455  9.6264  9.5194  9.5040  9.4838  9.2743  9.2546  9.2320  9.1044  8.9192
  8.8523  8.7882  8.6820  8.5537  8.4188  8.3772  8.2106  8.2015  8.1584  8.0707
  7.9527  7.9107  7.8497  7.7701  7.7150  7.7029  7.6482  7.5573  7.4271  7.3105
  7.2765  7.2431  7.2176  7.1681  7.1399  7.0718  7.0335  6.9996  6.9386  6.8929
  6.8004  6.7710  6.7197  6.6613  6.6371  6.5489  6.4762  6.4501  6.4101  6.4046
  6.3606  6.3219  6.2955  6.1665  6.1636  6.1459  6.1451  5.8913  5.1690  5.1468
  4.3910  4.3882  4.3842  4.3841  4.3802  4.3782  4.3782  4.3736  4.3580  4.3539
  4.1683
 highest evec of mol 2
  0.0001  0.0001  0.0000
 -0.0003 -0.0005  0.0000
  0.0001  0.0002  0.0000
 -0.0001 -0.0001  0.0000
  0.0000 -0.0000  0.0000
  0.0001 -0.0001  0.0000
  0.0001  0.0001  0.0000
  0.0000 -0.0002  0.0000
  0.0001 -0.0002  0.0000
  0.0002  0.0002  0.0000
  0.0003  0.0005  0.0000
 -0.0015 -0.0004  0.0000
  0.0003 -0.0001  0.0000
 -0.0002 -0.0000  0.0000
  0.0001  0.0002  0.0000
  0.0003 -0.0031  0.0000
  0.0026  0.0013  0.0000
 -0.0023  0.0006  0.0000
  0.2646 -0.0482  0.0000
 -0.0033 -0.0017  0.0000
 -0.0007 -0.0011  0.0000
  0.0012  0.0003  0.0000
 -0.0005  0.0004  0.0000
  0.0003 -0.0002  0.0000
 -0.0027  0.0003  0.0000
 -0.0023  0.0004  0.0000
  0.0000 -0.0001  0.0000
  0.0000  0.0001  0.0000
 -0.0000 -0.0000  0.0000
 -0.0000 -0.0000  0.0000
 -0.0060  0.0173  0.0000
  0.0002 -0.0006  0.0000
 -0.9475  0.1720  0.0000
  0.0011  0.0000  0.0000
 -0.0000  0.0000  0.0000
  0.0000 -0.0001  0.0000
 -0.0006  0.0003  0.0000
 Enter nber and list of atoms to keep of mol #2
 keep list:          37           1           2           3           4
           5           6           7           8           9          10
          11          12          13          14          15          16
          17          18          19          20          21          22
          23          24          25          26          27          28
          29          30          31          32          33          34
          35          36          37
 reordering atoms
           1   1.49158934152954     
           2   2.08644650854241     
           3   3.54002478812433     
           4   4.55014601622366     
           5   5.86924487681653     
           6   6.14844228607831     
           7   5.13152190569631     
           8   3.80615226353697     
           9   2.52560223473669     
          10   2.38048318080738     
          11   1.10768700372380     
          12  5.583268290889687E-002
          13   3.47896846898418     
          14   4.34718419132582     
          15   1.45427151522313     
          16  8.170747776207095E-002
          17 -0.908716042486174     
          18  -2.28325830688062     
          19  -2.80898049057362     
          20  -4.19119555006334     
          21  -4.97557888720638     
          22  -6.35030689639974     
          23  -6.93763146915866     
          24  -6.16273102581555     
          25  -4.77655742781574     
          26  -3.53670923974682     
          27   4.30452230399573     
          28   6.68484124636868     
          29   7.17952900665993     
          30   5.39196732218284     
          31 -0.239088749278725     
          32 -0.640564553053409     
          33  -2.23042405793486     
          34  -4.52159998570550     
          35  -6.98761288379241     
          36  -8.01671663172728     
          37  -6.61858622281447     
           1           1
           2           2
           3           3
           4           4
           5           5
           6           6
           7           7
           8           8
           9           9
          10          10
          11          11
          12          12
          13          13
          14          14
          15          15
          16          16
          17          17
          18          18
          19          19
          20          20
          21          21
          22          22
          23          23
          24          24
          25          25
          26          26
          27          27
          28          28
          29          29
          30          30
          31          31
          32          32
          33          33
          34          34
          35          35
          36          36
          37          37
 initial cartes coords mol 1
   8   0.00000   2.82957   1.59702
   6   0.00000   1.72965   2.12442
   6   0.00000   1.45687   3.58587
   6   0.00000   2.37013   4.62640
   6   0.00000   1.87999   5.93260
   6   0.00000   0.50310   6.16443
   6   0.00000  -0.41601   5.11202
   6   0.00000   0.06842   3.80254
   6   0.00000  -0.62325   2.48332
   6   0.00000  -2.00185   2.31064
   6   0.00000  -2.61599   1.02619
   7   0.00000  -3.09079  -0.03092
   6   0.00000  -2.93551   3.38471
   7   0.00000  -3.72656   4.22962
   6   0.00000   0.40566   1.46201
   6   0.00000   0.22453   0.08926
   6   0.00000   1.19310  -0.91706
   6   0.00000   0.82624  -2.25597
   7   0.00000  -0.43791  -2.76976
   6   0.00000  -0.54539  -4.15440
   6   0.00000  -1.71764  -4.90760
   6   0.00000  -1.60487  -6.29471
   6   0.00000  -0.35361  -6.91846
   6   0.00000   0.81819  -6.16437
   6   0.00000   0.70926  -4.77912
  16   0.00000   1.99814  -3.56893
   1   0.00000   3.43248   4.41190
   1   0.00000   2.56647   6.77151
   1   0.00000   0.13312   7.18329
   1   0.00000  -1.47296   5.33189
   1   0.00000  -0.80164  -0.24337
   1   0.00000   2.24343  -0.66308
   1   0.00000  -1.25665  -2.17361
   1   0.00000  -2.68636  -4.42219
   1   0.00000  -2.50436  -6.89825
   1   0.00000  -0.29090  -7.99966
   1   0.00000   1.78810  -6.64612
 initial cartes coords mol 2
   8   0.00000   2.77552   1.49159
   6   0.00000   1.71837   2.08645
   6   0.00000   1.48986   3.54002
   6   0.00000   2.44100   4.55015
   6   0.00000   1.99311   5.86924
   6   0.00000   0.62193   6.14844
   6   0.00000  -0.33465   5.13152
   6   0.00000   0.10493   3.80615
   6   0.00000  -0.63973   2.52560
   6   0.00000  -2.01844   2.38048
   6   0.00000  -2.66066   1.10769
   7   0.00000  -3.14263   0.05583
   6   0.00000  -2.92206   3.47897
   7   0.00000  -3.68604   4.34718
   6   0.00000   0.34723   1.45427
   6   0.00000   0.12318   0.08171
   6   0.00000   1.09804  -0.90872
   6   0.00000   0.75963  -2.28326
   7   0.00000  -0.48329  -2.80898
   6   0.00000  -0.55962  -4.19120
   6   0.00000  -1.71647  -4.97558
   6   0.00000  -1.55384  -6.35031
   6   0.00000  -0.27415  -6.93763
   6   0.00000   0.87605  -6.16273
   6   0.00000   0.72139  -4.77656
  16   0.00000   1.95841  -3.53671
   1   0.00000   3.49599   4.30452
   1   0.00000   2.70587   6.68484
   1   0.00000   0.28954   7.17953
   1   0.00000  -1.38191   5.39197
   1   0.00000  -0.90608  -0.23909
   1   0.00000   2.14683  -0.64056
   1   0.00000  -1.31851  -2.23042
   1   0.00000  -2.69989  -4.52160
   1   0.00000  -2.42904  -6.98761
   1   0.00000  -0.18587  -8.01672
   1   0.00000   1.85765  -6.61859
 loop 1 0
 mod cartes coords mol 2
   8   0.00000   2.77552   1.49159
   6   0.00000   1.71837   2.08645
   6   0.00000   1.48986   3.54002
   6   0.00000   2.44100   4.55015
   6   0.00000   1.99311   5.86924
   6   0.00000   0.62193   6.14844
   6   0.00000  -0.33465   5.13152
   6   0.00000   0.10493   3.80615
   6   0.00000  -0.63973   2.52560
   6   0.00000  -2.01844   2.38048
   6   0.00000  -2.66066   1.10769
   7   0.00000  -3.14263   0.05583
   6   0.00000  -2.92206   3.47897
   7   0.00000  -3.68604   4.34718
   6   0.00000   0.34723   1.45427
   6   0.00000   0.12318   0.08171
   6   0.00000   1.09804  -0.90872
   6   0.00000   0.75963  -2.28326
   7   0.00000  -0.48329  -2.80898
   6   0.00000  -0.55962  -4.19120
   6   0.00000  -1.71647  -4.97558
   6   0.00000  -1.55384  -6.35031
   6   0.00000  -0.27415  -6.93763
   6   0.00000   0.87605  -6.16273
   6   0.00000   0.72139  -4.77656
  16   0.00000   1.95841  -3.53671
   1   0.00000   3.49599   4.30452
   1   0.00000   2.70587   6.68484
   1   0.00000   0.28954   7.17953
   1   0.00000  -1.38191   5.39197
   1   0.00000  -0.90608  -0.23909
   1   0.00000   2.14683  -0.64056
   1   0.00000  -1.31851  -2.23042
   1   0.00000  -2.69989  -4.52160
   1   0.00000  -2.42904  -6.98761
   1   0.00000  -0.18587  -8.01672
   1   0.00000   1.85765  -6.61859
 read in order, maxerr=  0.16 for atom  28
 final axis swaps:           1           1           1
 final xyz swap pattern=           1
 reorder list:
   1   2   3   4   5   6   7   8   9  10  11  12  13  14  15  16  17  18  19  20
  21  22  23  24  25  26  27  28  29  30  31  32  33  34  35  36  37
 axis signs=           1           1           1
  8     0.000000  2.775519  1.491589     0.000000  2.829571  1.597016
  6     0.000000  1.718370  2.086447     0.000000  1.729651  2.124419
  6     0.000000  1.489862  3.540025     0.000000  1.456874  3.585866
  6     0.000000  2.440997  4.550146     0.000000  2.370131  4.626398
  6     0.000000  1.993105  5.869245     0.000000  1.879992  5.932596
  6     0.000000  0.621935  6.148442     0.000000  0.503095  6.164426
  6     0.000000 -0.334647  5.131522     0.000000 -0.416010  5.112023
  6     0.000000  0.104933  3.806152     0.000000  0.068423  3.802535
  6     0.000000 -0.639726  2.525602     0.000000 -0.623254  2.483320
  6     0.000000 -2.018439  2.380483     0.000000 -2.001847  2.310643
  6     0.000000 -2.660660  1.107687     0.000000 -2.615985  1.026187
  7     0.000000 -3.142634  0.055833     0.000000 -3.090786 -0.030919
  6     0.000000 -2.922055  3.478968     0.000000 -2.935510  3.384714
  7     0.000000 -3.686043  4.347184     0.000000 -3.726564  4.229623
  6     0.000000  0.347227  1.454272     0.000000  0.405662  1.462005
  6     0.000000  0.123181  0.081707     0.000000  0.224527  0.089260
  6     0.000000  1.098043 -0.908716     0.000000  1.193104 -0.917061
  6     0.000000  0.759629 -2.283258     0.000000  0.826243 -2.255967
  7     0.000000 -0.483290 -2.808980     0.000000 -0.437906 -2.769759
  6     0.000000 -0.559623 -4.191196     0.000000 -0.545390 -4.154402
  6     0.000000 -1.716472 -4.975579     0.000000 -1.717640 -4.907602
  6     0.000000 -1.553843 -6.350307     0.000000 -1.604866 -6.294713
  6     0.000000 -0.274148 -6.937631     0.000000 -0.353611 -6.918459
  6     0.000000  0.876050 -6.162731     0.000000  0.818187 -6.164374
  6     0.000000  0.721386 -4.776557     0.000000  0.709261 -4.779120
 16     0.000000  1.958414 -3.536709     0.000000  1.998140 -3.568930
  1     0.000000  3.495993  4.304522     0.000000  3.432479  4.411904
  1     0.000000  2.705865  6.684841     0.000000  2.566469  6.771512
  1     0.000000  0.289537  7.179529     0.000000  0.133124  7.183288
  1     0.000000 -1.381914  5.391967     0.000000 -1.472962  5.331891
  1     0.000000 -0.906083 -0.239089     0.000000 -0.801639 -0.243373
  1     0.000000  2.146827 -0.640565     0.000000  2.243427 -0.663076
  1     0.000000 -1.318510 -2.230424     0.000000 -1.256655 -2.173614
  1     0.000000 -2.699889 -4.521600     0.000000 -2.686361 -4.422191
  1     0.000000 -2.429042 -6.987613     0.000000 -2.504357 -6.898253
  1     0.000000 -0.185873 -8.016717     0.000000 -0.290896 -7.999659
  1     0.000000  1.857653 -6.618586     0.000000  1.788103 -6.646117
 generating redundant internal coords
         300        3600          37
 Adding extra bonds for z output only
           8           6           6           6           6           6
           6           6           6           6           6           7
           6           7           6           6           6           6
           7           6           6           6           6           6
           6          16           1           1           1           1
           1           1           1           1           1           1
           1
 search for int coords
   1 str   2   1   1.213
   2 str   3   2   1.471
   3 str   4   3   1.387
   4 str   5   4   1.393
   5 str   6   5   1.399
   6 str   7   6   1.396
   7 str   8   3   1.410
   8 str   8   7   1.396
   9 str   9   8   1.481
  10 str  10   9   1.386
  11 str  11  10   1.426
  12 str  12  11   1.157
  13 str  13  10   1.422
  14 str  14  13   1.156
  15 str  15   2   1.510
  16 str  15   9   1.457
  17 str  16  15   1.391
  18 str  17  16   1.390
  19 str  18  17   1.416
  20 str  19  18   1.350
  21 str  20  19   1.384
  22 str  21  20   1.398
  23 str  22  21   1.384
  24 str  23  22   1.408
  25 str  24  23   1.387
  26 str  25  20   1.408
  27 str  25  24   1.395
  28 str  26  18   1.734
  29 str  26  19   2.548
  30 str  26  25   1.751
  31 str  27   4   1.083
  32 str  28   5   1.083
  33 str  29   6   1.083
  34 str  30   7   1.079
  35 str  31  16   1.078
  36 str  32  17   1.083
  37 str  33  19   1.016
  38 str  34  21   1.083
  39 str  35  22   1.083
  40 str  36  23   1.083
  41 str  37  24   1.082
 nber stretches=          41
  42 ben   1   2   3
  43 prop tor   1   2   3   4
  44 prop tor   1   2   3   8
  45 ben   1   2  15
  46 prop tor   1   2  15   9
  47 prop tor   1   2  15  16
  48 ben   2   3   4
  49 prop tor   2   3   4   5
  50 prop tor   2   3   4  27
  51 ben   2   3   8
  52 prop tor   2   3   8   7
  53 prop tor   2   3   8   9
  54 ben   2  15   9
  55 ben   2  15  16
  56 prop tor   2  15  16  17
  57 prop tor   2  15  16  31
  58 ben   3   2  15
  59 prop tor   3   2  15   9
  60 prop tor   3   2  15  16
  61 ben   3   4   5
  62 prop tor   3   4   5   6
  63 prop tor   3   4   5  28
  64 ben   3   4  27
  65 ben   3   8   7
  66 ben   3   8   9
  67 prop tor   3   8   9  10
  68 prop tor   3   8   9  15
  69 ben   4   3   8
  70 prop tor   4   3   8   7
  71 prop tor   4   3   8   9
  72 ben   4   5   6
  73 prop tor   4   5   6   7
  74 prop tor   4   5   6  29
  75 ben   4   5  28
  76 ben   5   4  27
  77 ben   5   6   7
  78 prop tor   5   6   7   8
  79 prop tor   5   6   7  30
  80 ben   5   6  29
  81 ben   6   5  28
  82 ben   6   7   8
  83 prop tor   6   7   8   3
  84 prop tor   6   7   8   9
  85 ben   6   7  30
  86 ben   7   6  29
  87 ben   7   8   9
  88 prop tor   7   8   9  10
  89 prop tor   7   8   9  15
  90 prop tor   8   3   4   5
  91 prop tor   8   3   4  27
  92 ben   8   7  30
  93 ben   8   9  10
  94 prop tor   8   9  10  11
  95 prop tor   8   9  10  13
  96 ben   8   9  15
  97 prop tor   8   9  15   2
  98 prop tor   8   9  15  16
  99 ben   9  10  11
 100 prop tor   9  10  11  12
 101 ben   9  10  13
 102 prop tor   9  10  13  14
 103 ben   9  15  16
 104 prop tor   9  15  16  17
 105 prop tor   9  15  16  31
 106 ben  10   9  15
 107 prop tor  10   9  15   2
 108 prop tor  10   9  15  16
 109 lin ben  10  11  12
 111 lin ben  10  13  14
 113 ben  11  10  13
 114 prop tor  11  10  13  14
 115 prop tor  13  10  11  12
 116 prop tor  15   2   3   4
 117 prop tor  15   2   3   8
 118 prop tor  15   9  10  11
 119 prop tor  15   9  10  13
 120 ben  15  16  17
 121 prop tor  15  16  17  18
 122 prop tor  15  16  17  32
 123 ben  15  16  31
 124 ben  16  17  18
 125 prop tor  16  17  18  19
 126 prop tor  16  17  18  26
 127 ben  16  17  32
 128 ben  17  16  31
 129 ben  17  18  19
 130 prop tor  17  18  19  20
 131 prop tor  17  18  19  26
 132 prop tor  17  18  19  33
 133 ben  17  18  26
 134 prop tor  17  18  26  19
 135 prop tor  17  18  26  25
 136 ben  18  17  32
 137 ben  18  19  20
 138 prop tor  18  19  20  21
 139 prop tor  18  19  20  25
 140 ben  18  19  26
 141 prop tor  18  19  26  25
 142 ben  18  19  33
 143 ben  18  26  19
 144 ben  18  26  25
 145 ben  19  18  26
 146 prop tor  19  18  26  25
 147 ben  19  20  21
 148 prop tor  19  20  21  22
 149 prop tor  19  20  21  34
 150 ben  19  20  25
 151 prop tor  19  20  25  24
 152 prop tor  19  20  25  26
 153 ben  19  26  25
 154 ben  20  19  26
 155 prop tor  20  19  26  18
 156 prop tor  20  19  26  25
 157 ben  20  19  33
 158 ben  20  21  22
 159 prop tor  20  21  22  23
 160 prop tor  20  21  22  35
 161 ben  20  21  34
 162 ben  20  25  24
 163 ben  20  25  26
 164 prop tor  20  25  26  18
 165 prop tor  20  25  26  19
 166 ben  21  20  25
 167 prop tor  21  20  25  24
 168 prop tor  21  20  25  26
 169 ben  21  22  23
 170 prop tor  21  22  23  24
 171 prop tor  21  22  23  36
 172 ben  21  22  35
 173 ben  22  21  34
 174 ben  22  23  24
 175 prop tor  22  23  24  25
 176 prop tor  22  23  24  37
 177 ben  22  23  36
 178 ben  23  22  35
 179 ben  23  24  25
 180 prop tor  23  24  25  20
 181 prop tor  23  24  25  26
 182 ben  23  24  37
 183 ben  24  23  36
 184 ben  24  25  26
 185 prop tor  24  25  26  18
 186 prop tor  24  25  26  19
 187 prop tor  25  20  21  22
 188 prop tor  25  20  21  34
 189 ben  25  24  37
 190 prop tor  26  18  19  20
 191 prop tor  26  18  19  33
 192 prop tor  26  19  20  21
[...]
  2.572217897574364E-004  3.278923773181990E-007
  2.896250568408725E-004  3.278923773181990E-007
  3.057320852071492E-004  3.278923773181990E-007
  3.102559943477579E-004  3.278923773181990E-007
  3.252117982814627E-004  3.278923773181990E-007
  3.449260177759466E-004  3.278923773181990E-007
  3.661795419516790E-004  3.278923773181990E-007
  3.833172954187517E-004  3.278923773181990E-007
  3.952481519081737E-004  3.278923773181990E-007
  4.030009144972420E-004  3.278923773181990E-007
  4.074191264432349E-004  3.278923773181990E-007
  4.173270613827345E-004  3.278923773181990E-007
  4.327396284801760E-004  3.278923773181990E-007
  4.730076771570688E-004  3.278923773181990E-007
  4.814749336773057E-004  3.278923773181990E-007
  5.931338745477464E-004  3.278923773181990E-007
  5.931751164699147E-004  3.278923773181990E-007
  5.965649028751926E-004  3.278923773181990E-007
  5.974006709805287E-004  3.278923773181990E-007
  5.977222893916302E-004  3.278923773181990E-007
  6.068701304085932E-004  3.278923773181990E-007
  6.200101606771941E-004  3.278923773181990E-007
  6.218471460465077E-004  3.278923773181990E-007
  6.539680159161099E-004  3.278923773181990E-007
  6.559511094998293E-004  3.278923773181990E-007
  6.580817381672089E-004  3.278923773181990E-007
  6.671121440582446E-004  3.278923773181990E-007
  7.724382280378592E-004  3.278923773181990E-007
  8.470782510566021E-004  3.278923773181990E-007
  9.573292320003317E-004  3.278923773181990E-007
  1.055580670129649E-003  3.278923773181990E-007
  1.056240884309927E-003  3.278923773181990E-007
  1.084855459881859E-003  3.278923773181990E-007
  1.095206638678674E-003  3.278923773181990E-007
  1.124162261108947E-003  3.278923773181990E-007
  1.126058167051549E-003  3.278923773181990E-007
  1.162959542555559E-003  3.278923773181990E-007
  1.164307748345588E-003  3.278923773181990E-007
  1.169268290773106E-003  3.278923773181990E-007
  1.172133468902594E-003  3.278923773181990E-007
  1.172851070831599E-003  3.278923773181990E-007
  1.241287993987277E-003  3.278923773181990E-007
  1.255372729866246E-003  3.278923773181990E-007
  1.722406648795015E-003  3.278923773181990E-007
  1.726687385742961E-003  3.278923773181990E-007
  1.820997172227505E-003  3.278923773181990E-007
  1.925849018732650E-003  3.278923773181990E-007
  2.120745245395136E-003  3.278923773181990E-007
  2.716679454578697E-003  3.278923773181990E-007
  2.835485977184972E-003  3.278923773181990E-007
  2.966918342121269E-003  3.278923773181990E-007
  3.289427493971593E-003  3.278923773181990E-007
  3.494351670236989E-003  3.278923773181990E-007
  3.631842728724600E-003  3.278923773181990E-007
  3.757363896004682E-003  3.278923773181990E-007
  4.038632384258833E-003  3.278923773181990E-007
  4.040455842885569E-003  3.278923773181990E-007
  0.465051861439266       3.278923773181990E-007
   1.16919803926935       3.278923773181990E-007
 cut=1d-8, nber non-redundant internal coords=         105
 Check on Eigenvals of non-red overlap matrix:
  0.00000033  0.00000173  0.00000218  0.00000218  0.00000387  0.00000573  0.00000711  0.00001078
  0.00001329  0.00001437  0.00001450  0.00001745  0.00002148  0.00002346  0.00002612  0.00003025
  0.00003520  0.00003877  0.00004090  0.00004479  0.00004677  0.00005167  0.00005378  0.00006059
  0.00006418  0.00007056  0.00007702  0.00008283  0.00008776  0.00009603  0.00009815  0.00010747
  0.00011299  0.00011767  0.00012217  0.00012396  0.00012763  0.00013054  0.00013678  0.00013700
  0.00015413  0.00016111  0.00019876  0.00020931  0.00023431  0.00024408  0.00025722  0.00028963
  0.00030573  0.00031026  0.00032521  0.00034493  0.00036618  0.00038332  0.00039525  0.00040300
  0.00040742  0.00041733  0.00043274  0.00047301  0.00048147  0.00059313  0.00059318  0.00059656
  0.00059740  0.00059772  0.00060687  0.00062001  0.00062185  0.00065397  0.00065595  0.00065808
  0.00066711  0.00077244  0.00084708  0.00095733  0.00105558  0.00105624  0.00108486  0.00109521
  0.00112416  0.00112606  0.00116296  0.00116431  0.00116927  0.00117213  0.00117285  0.00124129
  0.00125537  0.00172241  0.00172669  0.00182100  0.00192585  0.00212075  0.00271668  0.00283549
  0.00296692  0.00328943  0.00349435  0.00363184  0.00375736  0.00403863  0.00404046  0.46505186
  1.16919804
 generating redundant internal coords
         300        3600          37
 search for int coords
   1 str   2   1   1.213
   2 str   3   2   1.471
   3 str   4   3   1.387
   4 str   5   4   1.393
   5 str   6   5   1.399
   6 str   7   6   1.396
   7 str   8   3   1.410
   8 str   8   7   1.396
   9 str   9   8   1.481
  10 str  10   9   1.386
  11 str  11  10   1.426
  12 str  12  11   1.157
  13 str  13  10   1.422
  14 str  14  13   1.156
  15 str  15   2   1.510
  16 str  15   9   1.457
  17 str  16  15   1.391
  18 str  17  16   1.390
  19 str  18  17   1.416
  20 str  19  18   1.350
  21 str  20  19   1.384
  22 str  21  20   1.398
  23 str  22  21   1.384
  24 str  23  22   1.408
  25 str  24  23   1.387
  26 str  25  20   1.408
  27 str  25  24   1.395
  28 str  26  18   1.734
  29 str  26  19   2.548
  30 str  26  25   1.751
  31 str  27   4   1.083
  32 str  28   5   1.083
  33 str  29   6   1.083
  34 str  30   7   1.079
  35 str  31  16   1.078
  36 str  32  17   1.083
  37 str  33  19   1.016
  38 str  34  21   1.083
  39 str  35  22   1.083
  40 str  36  23   1.083
  41 str  37  24   1.082
 nber stretches=          41
  42 ben   1   2   3
  43 prop tor   1   2   3   4
  44 prop tor   1   2   3   8
  45 ben   1   2  15
  46 prop tor   1   2  15   9
  47 prop tor   1   2  15  16
  48 ben   2   3   4
  49 prop tor   2   3   4   5
  50 prop tor   2   3   4  27
  51 ben   2   3   8
  52 prop tor   2   3   8   7
  53 prop tor   2   3   8   9
  54 ben   2  15   9
  55 ben   2  15  16
  56 prop tor   2  15  16  17
  57 prop tor   2  15  16  31
  58 ben   3   2  15
  59 prop tor   3   2  15   9
  60 prop tor   3   2  15  16
  61 ben   3   4   5
  62 prop tor   3   4   5   6
  63 prop tor   3   4   5  28
  64 ben   3   4  27
  65 ben   3   8   7
  66 ben   3   8   9
  67 prop tor   3   8   9  10
  68 prop tor   3   8   9  15
  69 ben   4   3   8
  70 prop tor   4   3   8   7
  71 prop tor   4   3   8   9
  72 ben   4   5   6
  73 prop tor   4   5   6   7
  74 prop tor   4   5   6  29
  75 ben   4   5  28
  76 ben   5   4  27
  77 ben   5   6   7
  78 prop tor   5   6   7   8
  79 prop tor   5   6   7  30
  80 ben   5   6  29
  81 ben   6   5  28
  82 ben   6   7   8
  83 prop tor   6   7   8   3
  84 prop tor   6   7   8   9
  85 ben   6   7  30
  86 ben   7   6  29
  87 ben   7   8   9
  88 prop tor   7   8   9  10
  89 prop tor   7   8   9  15
  90 prop tor   8   3   4   5
  91 prop tor   8   3   4  27
  92 ben   8   7  30
  93 ben   8   9  10
  94 prop tor   8   9  10  11
  95 prop tor   8   9  10  13
  96 ben   8   9  15
  97 prop tor   8   9  15   2
  98 prop tor   8   9  15  16
  99 ben   9  10  11
 100 prop tor   9  10  11  12
 101 ben   9  10  13
 102 prop tor   9  10  13  14
 103 ben   9  15  16
 104 prop tor   9  15  16  17
 105 prop tor   9  15  16  31
 106 ben  10   9  15
 107 prop tor  10   9  15   2
 108 prop tor  10   9  15  16
 109 lin ben  10  11  12
 111 lin ben  10  13  14
 113 ben  11  10  13
 114 prop tor  11  10  13  14
 115 prop tor  13  10  11  12
 116 prop tor  15   2   3   4
 117 prop tor  15   2   3   8
 118 prop tor  15   9  10  11
 119 prop tor  15   9  10  13
 120 ben  15  16  17
 121 prop tor  15  16  17  18
 122 prop tor  15  16  17  32
 123 ben  15  16  31
 124 ben  16  17  18
 125 prop tor  16  17  18  19
 126 prop tor  16  17  18  26
 127 ben  16  17  32
 128 ben  17  16  31
 129 ben  17  18  19
 130 prop tor  17  18  19  20
 131 prop tor  17  18  19  26
 132 prop tor  17  18  19  33
 133 ben  17  18  26
 134 prop tor  17  18  26  19
 135 prop tor  17  18  26  25
 136 ben  18  17  32
 137 ben  18  19  20
 138 prop tor  18  19  20  21
 139 prop tor  18  19  20  25
 140 ben  18  19  26
 141 prop tor  18  19  26  25
 142 ben  18  19  33
 143 ben  18  26  19
 144 ben  18  26  25
 145 ben  19  18  26
 146 prop tor  19  18  26  25
 147 ben  19  20  21
 148 prop tor  19  20  21  22
 149 prop tor  19  20  21  34
 150 ben  19  20  25
 151 prop tor  19  20  25  24
 152 prop tor  19  20  25  26
 153 ben  19  26  25
 154 ben  20  19  26
 155 prop tor  20  19  26  18
 156 prop tor  20  19  26  25
 157 ben  20  19  33
 158 ben  20  21  22
 159 prop tor  20  21  22  23
 160 prop tor  20  21  22  35
 161 ben  20  21  34
 162 ben  20  25  24
 163 ben  20  25  26
 164 prop tor  20  25  26  18
 165 prop tor  20  25  26  19
 166 ben  21  20  25
 167 prop tor  21  20  25  24
 168 prop tor  21  20  25  26
 169 ben  21  22  23
 170 prop tor  21  22  23  24
 171 prop tor  21  22  23  36
 172 ben  21  22  35
 173 ben  22  21  34
 174 ben  22  23  24
 175 prop tor  22  23  24  25
 176 prop tor  22  23  24  37
 177 ben  22  23  36
 178 ben  23  22  35
 179 ben  23  24  25
 180 prop tor  23  24  25  20
 181 prop tor  23  24  25  26
 182 ben  23  24  37
 183 ben  24  23  36
 184 ben  24  25  26
 185 prop tor  24  25  26  18
 186 prop tor  24  25  26  19
 187 prop tor  25  20  21  22
 188 prop tor  25  20  21  34
 189 ben  25  24  37
 190 prop tor  26  18  19  20
 191 prop tor  26  18  19  33
 192 prop tor  26  19  20  21
 193 prop tor  26  19  20  25
 194 ben  26  19  33
 195 prop tor  27   4   5   6
 196 prop tor  27   4   5  28
 197 prop tor  28   5   6   7
 198 prop tor  28   5   6  29
 199 prop tor  29   6   7   8
 200 prop tor  29   6   7  30
 201 prop tor  30   7   8   3
 202 prop tor  30   7   8   9
 203 prop tor  31  16  17  18
 204 prop tor  31  16  17  32
 205 prop tor  32  17  18  19
 206 prop tor  32  17  18  26
 207 prop tor  33  19  20  21
 208 prop tor  33  19  20  25
 209 prop tor  33  19  26  18
 210 prop tor  33  19  26  25
 211 prop tor  34  21  22  23
 212 prop tor  34  21  22  35
 213 prop tor  35  22  23  24
 214 prop tor  35  22  23  36
 215 prop tor  36  23  24  25
 216 prop tor  36  23  24  37
 217 prop tor  37  24  25  20
 218 prop tor  37  24  25  26
 219 lin bend prop tor   9  10  12  11
 220 lin bend prop tor  13  10  12  11
 221 lin bend prop tor   9  10  14  13
 222 lin bend prop tor  11  10  14  13
 nber bend=              70
 nber lin bend=           2
 nber prop tor=         111
 nber impr tor=           0
 nber tot redund int=         222
 Eigenvalues of G in red int coords
    Gval -0.00000000 -0.00000000 -0.00000000 -0.00000000 -0.00000000 -0.00000000 -0.00000000 -0.00000000
    Gval -0.00000000 -0.00000000 -0.00000000 -0.00000000 -0.00000000 -0.00000000 -0.00000000 -0.00000000
    Gval -0.00000000 -0.00000000 -0.00000000 -0.00000000 -0.00000000 -0.00000000 -0.00000000 -0.00000000
    Gval -0.00000000 -0.00000000 -0.00000000 -0.00000000 -0.00000000 -0.00000000 -0.00000000 -0.00000000
    Gval -0.00000000 -0.00000000 -0.00000000 -0.00000000 -0.00000000 -0.00000000 -0.00000000 -0.00000000
    Gval -0.00000000 -0.00000000 -0.00000000 -0.00000000 -0.00000000 -0.00000000 -0.00000000 -0.00000000
    Gval -0.00000000 -0.00000000 -0.00000000 -0.00000000 -0.00000000 -0.00000000 -0.00000000 -0.00000000
    Gval -0.00000000 -0.00000000 -0.00000000  0.00000000  0.00000000  0.00000000  0.00000000  0.00000000
    Gval  0.00000000  0.00000000  0.00000000  0.00000000  0.00000000  0.00000000  0.00000000  0.00000000
    Gval  0.00000000  0.00000000  0.00000000  0.00000000  0.00000000  0.00000000  0.00000000  0.00000000
    Gval  0.00000000  0.00000000  0.00000000  0.00000000  0.00000000  0.00000000  0.00000000  0.00000000
    Gval  0.00000000  0.00000000  0.00000000  0.00000000  0.00000000  0.00000000  0.00000000  0.00000000
    Gval  0.00000000  0.00000000  0.00000000  0.00000000  0.00000000  0.00000000  0.00000000  0.00000000
    Gval  0.00000000  0.00000000  0.00000000  0.00000000  0.00000000  0.00000000  0.00000000  0.00000000
    Gval  0.00000000  0.00000000  0.00000000  0.00000000  0.00000000  0.00000034  0.00000172  0.00000224
    Gval  0.00000234  0.00000390  0.00000570  0.00000712  0.00001083  0.00001338  0.00001463  0.00001476
    Gval  0.00001798  0.00002303  0.00002393  0.00002717  0.00003127  0.00004025  0.00004207  0.00004234
    Gval  0.00004716  0.00004997  0.00005298  0.00005526  0.00006421  0.00007079  0.00007790  0.00008583
    Gval  0.00008796  0.00009216  0.00010025  0.00010711  0.00010860  0.00011806  0.00012136  0.00012244
    Gval  0.00012594  0.00012777  0.00013122  0.00013726  0.00016099  0.00016220  0.00016956  0.00020988
    Gval  0.00022081  0.00023989  0.00024844  0.00027313  0.00029321  0.00031284  0.00032610  0.00033024
    Gval  0.00034500  0.00036768  0.00039796  0.00040373  0.00040865  0.00041610  0.00042749  0.00044069
    Gval  0.00047270  0.00047704  0.00059312  0.00059317  0.00059681  0.00059737  0.00059770  0.00061340
    Gval  0.00062005  0.00063308  0.00065359  0.00065608  0.00066130  0.00077141  0.00081924  0.00092225
    Gval  0.00098817  0.00105673  0.00105752  0.00108317  0.00112490  0.00112697  0.00116562  0.00116592
    Gval  0.00117078  0.00117308  0.00117312  0.00121330  0.00163699  0.00181696  0.00183778  0.00187459
    Gval  0.00193709  0.00206849  0.00219101  0.00280737  0.00284598  0.00305019  0.00330521  0.00362424
    Gval  0.00363664  0.00403233  0.00403779  0.01580273  0.43217778  0.62520823
  3.357996506193354E-007  3.357996506193354E-007
  1.718641172800808E-006  3.357996506193354E-007
  2.241703738944713E-006  3.357996506193354E-007
  2.337799071886229E-006  3.357996506193354E-007
  3.897689074496958E-006  3.357996506193354E-007
  5.698260383252388E-006  3.357996506193354E-007
  7.118222221669836E-006  3.357996506193354E-007
  1.083082234781250E-005  3.357996506193354E-007
  1.337798900469850E-005  3.357996506193354E-007
  1.462971371537670E-005  3.357996506193354E-007
  1.475647096284682E-005  3.357996506193354E-007
  1.797897439224959E-005  3.357996506193354E-007
  2.303409474829591E-005  3.357996506193354E-007
  2.392882592204334E-005  3.357996506193354E-007
  2.716531402850242E-005  3.357996506193354E-007
  3.126978502584034E-005  3.357996506193354E-007
  4.025221983111037E-005  3.357996506193354E-007
  4.207367413628838E-005  3.357996506193354E-007
  4.233963208194012E-005  3.357996506193354E-007
  4.715649151959683E-005  3.357996506193354E-007
  4.997016083994439E-005  3.357996506193354E-007
  5.297793845705209E-005  3.357996506193354E-007
  5.526223327076273E-005  3.357996506193354E-007
  6.420938488474091E-005  3.357996506193354E-007
  7.078917480777888E-005  3.357996506193354E-007
  7.789916115625001E-005  3.357996506193354E-007
  8.582640104573780E-005  3.357996506193354E-007
  8.796393309578374E-005  3.357996506193354E-007
  9.215538244514885E-005  3.357996506193354E-007
  1.002524441640615E-004  3.357996506193354E-007
  1.071137044437464E-004  3.357996506193354E-007
  1.086035073337038E-004  3.357996506193354E-007
  1.180575383511901E-004  3.357996506193354E-007
  1.213621922860463E-004  3.357996506193354E-007
  1.224352881603566E-004  3.357996506193354E-007
  1.259350550787765E-004  3.357996506193354E-007
  1.277738511978331E-004  3.357996506193354E-007
  1.312212036177608E-004  3.357996506193354E-007
  1.372642658636638E-004  3.357996506193354E-007
  1.609909667961281E-004  3.357996506193354E-007
  1.621958291269769E-004  3.357996506193354E-007
  1.695553884305248E-004  3.357996506193354E-007
  2.098754671713661E-004  3.357996506193354E-007
  2.208050511573010E-004  3.357996506193354E-007
  2.398926988217612E-004  3.357996506193354E-007
  2.484449095015604E-004  3.357996506193354E-007
  2.731303977890612E-004  3.357996506193354E-007
  2.932053954801950E-004  3.357996506193354E-007
  3.128402064508307E-004  3.357996506193354E-007
  3.261020460249446E-004  3.357996506193354E-007
  3.302403593168729E-004  3.357996506193354E-007
  3.450028751586733E-004  3.357996506193354E-007
  3.676814129664645E-004  3.357996506193354E-007
  3.979557061949150E-004  3.357996506193354E-007
  4.037274953870183E-004  3.357996506193354E-007
  4.086470272899411E-004  3.357996506193354E-007
  4.161046043053036E-004  3.357996506193354E-007
  4.274895954136636E-004  3.357996506193354E-007
  4.406901022776292E-004  3.357996506193354E-007
  4.727048453388600E-004  3.357996506193354E-007
  4.770438097128419E-004  3.357996506193354E-007
  5.931185349593712E-004  3.357996506193354E-007
  5.931673461308541E-004  3.357996506193354E-007
  5.968121850067434E-004  3.357996506193354E-007
  5.973749312815463E-004  3.357996506193354E-007
  5.976953563269012E-004  3.357996506193354E-007
  6.133999540393936E-004  3.357996506193354E-007
  6.200468086314682E-004  3.357996506193354E-007
  6.330770154004917E-004  3.357996506193354E-007
  6.535901139028276E-004  3.357996506193354E-007
  6.560810692966168E-004  3.357996506193354E-007
  6.612979224206771E-004  3.357996506193354E-007
  7.714078351077027E-004  3.357996506193354E-007
  8.192396121270924E-004  3.357996506193354E-007
  9.222500673759971E-004  3.357996506193354E-007
  9.881679851546895E-004  3.357996506193354E-007
  1.056731105254377E-003  3.357996506193354E-007
  1.057516187804532E-003  3.357996506193354E-007
  1.083171542152285E-003  3.357996506193354E-007
  1.124904549047124E-003  3.357996506193354E-007
  1.126973692950711E-003  3.357996506193354E-007
  1.165622019286023E-003  3.357996506193354E-007
  1.165924005826568E-003  3.357996506193354E-007
  1.170782967594287E-003  3.357996506193354E-007
  1.173083320456193E-003  3.357996506193354E-007
  1.173115905862083E-003  3.357996506193354E-007
  1.213303304718197E-003  3.357996506193354E-007
  1.636993197466904E-003  3.357996506193354E-007
  1.816958343936063E-003  3.357996506193354E-007
  1.837777007109929E-003  3.357996506193354E-007
  1.874586660801615E-003  3.357996506193354E-007
  1.937087458402506E-003  3.357996506193354E-007
  2.068491024061395E-003  3.357996506193354E-007
  2.191008937270499E-003  3.357996506193354E-007
  2.807367897699563E-003  3.357996506193354E-007
  2.845980296587630E-003  3.357996506193354E-007
  3.050190684450300E-003  3.357996506193354E-007
  3.305208541428267E-003  3.357996506193354E-007
  3.624242938588353E-003  3.357996506193354E-007
  3.636642127912918E-003  3.357996506193354E-007
  4.032332443807715E-003  3.357996506193354E-007
  4.037792619792771E-003  3.357996506193354E-007
  1.580272833711272E-002  3.357996506193354E-007
  0.432177775933819       3.357996506193354E-007
  0.625208226051644       3.357996506193354E-007
 cut=1d-8, nber non-redundant internal coords=         105
 Check on Eigenvals of non-red overlap matrix:
  0.00000034  0.00000172  0.00000224  0.00000234  0.00000390  0.00000570  0.00000712  0.00001083
  0.00001338  0.00001463  0.00001476  0.00001798  0.00002303  0.00002393  0.00002717  0.00003127
  0.00004025  0.00004207  0.00004234  0.00004716  0.00004997  0.00005298  0.00005526  0.00006421
  0.00007079  0.00007790  0.00008583  0.00008796  0.00009216  0.00010025  0.00010711  0.00010860
  0.00011806  0.00012136  0.00012244  0.00012594  0.00012777  0.00013122  0.00013726  0.00016099
  0.00016220  0.00016956  0.00020988  0.00022081  0.00023989  0.00024844  0.00027313  0.00029321
  0.00031284  0.00032610  0.00033024  0.00034500  0.00036768  0.00039796  0.00040373  0.00040865
  0.00041610  0.00042749  0.00044069  0.00047270  0.00047704  0.00059312  0.00059317  0.00059681
  0.00059737  0.00059770  0.00061340  0.00062005  0.00063308  0.00065359  0.00065608  0.00066130
  0.00077141  0.00081924  0.00092225  0.00098817  0.00105673  0.00105752  0.00108317  0.00112490
  0.00112697  0.00116562  0.00116592  0.00117078  0.00117308  0.00117312  0.00121330  0.00163699
  0.00181696  0.00183778  0.00187459  0.00193709  0.00206849  0.00219101  0.00280737  0.00284598
  0.00305019  0.00330521  0.00362424  0.00363664  0.00403233  0.00403779  0.01580273  0.43217778
  0.62520823
 int defn changed for coord          29
          26          25           0           0
          26          19           0           0
