 Enter ifcurve (0=recti, 1=orth curvi, 2=apprx curvi, -1 = skip
 And atom ordering flag, 0= never changes, 1= use the first order thenceforth,
  2= deduce it (does read on fail), 3= always read it
 Reading file: 
 ./PDI_5_C0S0.log                                                               
                                          
  Entering Gaussian System, Link 0=g16                                          
  
 Gaussian format, type: g94, g98, g03= F F F
  #P Geom=AllCheck Guess=TCheck SCRF=Check GenChk RB3LYP/6-311G(d,p) Fre    
 energy type= B3LYP   
 Original G94 input coords:
  6  0.612046  0.570361  0.200404
  6  2.082957  0.627129 -0.073685
  6  3.031988  0.851320  0.846813
  6  4.452163  0.900476  0.551118
  6  5.348060  1.129424  1.527074
  7  6.765827  1.214755  1.450521
  6  7.419910  1.466284  2.693492
  8  6.780472  1.593094  3.718599
  6  8.895058  1.564455  2.680477
  6  9.561183  1.805746  3.868114
  6 10.953529  1.903708  3.891900
  6 11.722495  1.765137  2.737359
  6 13.188105  1.865723  2.751297
  6 13.909074  2.104582  3.919987
  6 15.302852  2.198381  3.922625
  6 16.016820  2.055242  2.748579
  6 17.498536  2.159894  2.782985
  8 18.093574  2.367800  3.825753
  7 18.182746  2.010232  1.569962
  6 19.677688  2.108984  1.556227
  6 20.157753  3.506512  1.961001
  6 20.327731  0.981398  2.364511
  6 17.547781  1.767056  0.337092
  8 18.185139  1.643299 -0.693025
  6 16.066580  1.667549  0.343521
  6 15.401018  1.429254 -0.843758
  6 14.007882  1.330640 -0.867461
  6 13.238987  1.466351  0.287163
  6 11.773619  1.363752  0.273676
  6 11.052137  1.122054 -0.893968
  6  9.658988  1.026399 -0.895686
  6  8.943194  1.171044  0.278187
  6  7.464674  1.061818  0.232393
  8  6.882144  0.849067 -0.813297
  6  9.631311  1.417196  1.485540
  6 11.054862  1.516234  1.498992
  6 13.906296  1.713929  1.525727
  6 15.330116  1.812300  1.539259
  1  0.192997 -0.401388 -0.085995
  1  0.071138  1.325280 -0.382198
  1  0.392336  0.736224  1.257698
  1  2.389639  0.472008 -1.106935
  1  2.735570  1.007676  1.883380
  1  4.762238  0.748152 -0.470962
  1  5.017802  1.279246  2.544572
  1  8.982268  1.916543  4.776065
  1 11.430024  2.092991  4.843704
  1 13.393297  2.223505  4.862761
  1 15.845475  2.384090  4.840867
  1 19.923776  1.958032  0.507600
  1 19.958735  3.713320  3.011667
  1 19.674768  4.273458  1.350009
  1 21.235500  3.574682  1.789947
  1 20.133630  1.085712  3.431163
  1 21.408749  1.006193  2.202546
  1 19.963498  0.006450  2.030469
  1 15.980601  1.320944 -1.751688
  1 13.531128  1.143251 -1.819601
  1 11.567260  1.001783 -1.836898
  1  9.117666  0.837811 -1.813931
 nber atoms=          60
  SCF Done:  E(RB3LYP) =  -1643.56512928     A.U. after    1 cycles             
  
          23          40 "  -1643.56512928"
After scan for Atom:   Atom  AN      X      Y      Z        X      Y      Z        X      Y      Z   
After scan for Atom:   Atom  AN      X      Y      Z        X      Y      Z        X      Y      Z   
After scan for Atom:   Atom  AN      X      Y      Z        X      Y      Z        X      Y      Z   
After scan for Atom:   Atom  AN      X      Y      Z        X      Y      Z        X      Y      Z   
After scan for Atom:   Atom  AN      X      Y      Z        X      Y      Z        X      Y      Z   
After scan for Atom:   Atom  AN      X      Y      Z        X      Y      Z        X      Y      Z   
After scan for Atom:   Atom  AN      X      Y      Z        X      Y      Z        X      Y      Z   
After scan for Atom:   Atom  AN      X      Y      Z        X      Y      Z        X      Y      Z   
After scan for Atom:   Atom  AN      X      Y      Z        X      Y      Z        X      Y      Z   
After scan for Atom:   Atom  AN      X      Y      Z        X      Y      Z        X      Y      Z   
After scan for Atom:   Atom  AN      X      Y      Z        X      Y      Z        X      Y      Z   
After scan for Atom:   Atom  AN      X      Y      Z        X      Y      Z        X      Y      Z   
After scan for Atom:   Atom  AN      X      Y      Z        X      Y      Z        X      Y      Z   
After scan for Atom:   Atom  AN      X      Y      Z        X      Y      Z        X      Y      Z   
After scan for Atom:   Atom  AN      X      Y      Z        X      Y      Z        X      Y      Z   
After scan for Atom:   Atom  AN      X      Y      Z        X      Y      Z        X      Y      Z   
After scan for Atom:   Atom  AN      X      Y      Z        X      Y      Z        X      Y      Z   
After scan for Atom:   Atom  AN      X      Y      Z        X      Y      Z        X      Y      Z   
After scan for Atom:   Atom  AN      X      Y      Z        X      Y      Z        X      Y      Z   
After scan for Atom:   Atom  AN      X      Y      Z        X      Y      Z        X      Y      Z   
After scan for Atom:   Atom  AN      X      Y      Z        X      Y      Z        X      Y      Z   
After scan for Atom:   Atom  AN      X      Y      Z        X      Y      Z        X      Y      Z   
After scan for Atom:   Atom  AN      X      Y      Z        X      Y      Z        X      Y      Z   
After scan for Atom:   Atom  AN      X      Y      Z        X      Y      Z        X      Y      Z   
After scan for Atom:   Atom  AN      X      Y      Z        X      Y      Z        X      Y      Z   
After scan for Atom:   Atom  AN      X      Y      Z        X      Y      Z        X      Y      Z   
After scan for Atom:   Atom  AN      X      Y      Z        X      Y      Z        X      Y      Z   
After scan for Atom:   Atom  AN      X      Y      Z        X      Y      Z        X      Y      Z   
After scan for Atom:   Atom  AN      X      Y      Z        X      Y      Z        X      Y      Z   
After scan for Atom:   Atom  AN      X      Y      Z        X      Y      Z        X      Y      Z   
After scan for Atom:   Atom  AN      X      Y      Z        X      Y      Z        X      Y      Z   
After scan for Atom:   Atom  AN      X      Y      Z        X      Y      Z        X      Y      Z   
After scan for Atom:   Atom  AN      X      Y      Z        X      Y      Z        X      Y      Z   
After scan for Atom:   Atom  AN      X      Y      Z        X      Y      Z        X      Y      Z   
After scan for Atom:   Atom  AN      X      Y      Z        X      Y      Z        X      Y      Z   
After scan for Atom:   Atom  AN      X      Y      Z        X      Y      Z        X      Y      Z   
After scan for Atom:   Atom  AN      X      Y      Z        X      Y      Z        X      Y      Z   
After scan for Atom:   Atom  AN      X      Y      Z        X      Y      Z        X      Y      Z   
After scan for Atom:   Atom  AN      X      Y      Z        X      Y      Z        X      Y      Z   
After scan for Atom:   Atom  AN      X      Y      Z        X      Y      Z        X      Y      Z   
After scan for Atom:   Atom  AN      X      Y      Z        X      Y      Z        X      Y      Z   
After scan for Atom:   Atom  AN      X      Y      Z        X      Y      Z        X      Y      Z   
After scan for Atom:   Atom  AN      X      Y      Z        X      Y      Z        X      Y      Z   
After scan for Atom:   Atom  AN      X      Y      Z        X      Y      Z        X      Y      Z   
After scan for Atom:   Atom  AN      X      Y      Z        X      Y      Z        X      Y      Z   
After scan for Atom:   Atom  AN      X      Y      Z        X      Y      Z        X      Y      Z   
After scan for Atom:   Atom  AN      X      Y      Z        X      Y      Z        X      Y      Z   
After scan for Atom:   Atom  AN      X      Y      Z        X      Y      Z        X      Y      Z   
After scan for Atom:   Atom  AN      X      Y      Z        X      Y      Z        X      Y      Z   
After scan for Atom:   Atom  AN      X      Y      Z        X      Y      Z        X      Y      Z   
After scan for Atom:   Atom  AN      X      Y      Z        X      Y      Z        X      Y      Z   
After scan for Atom:   Atom  AN      X      Y      Z        X      Y      Z        X      Y      Z   
After scan for Atom:   Atom  AN      X      Y      Z        X      Y      Z        X      Y      Z   
After scan for Atom:   Atom  AN      X      Y      Z        X      Y      Z        X      Y      Z   
After scan for Atom:   Atom  AN      X      Y      Z        X      Y      Z        X      Y      Z   
After scan for Atom:   Atom  AN      X      Y      Z        X      Y      Z        X      Y      Z   
After scan for Atom:   Atom  AN      X      Y      Z        X      Y      Z        X      Y      Z   
After scan for Atom:   Atom  AN      X      Y      Z        X      Y      Z        X      Y      Z   
 g94    frequencies=
     0.0    0.0    0.0    0.0    0.0    0.0   13.9   22.9   31.3   49.1
    51.3   58.7   60.5   75.9   85.5   91.2  104.8  109.7  158.4  163.3
   165.8  181.1  187.5  187.7  210.7  226.5  233.8  237.7  238.7  260.6
   271.0  272.2  296.3  309.3  314.4  344.8  362.9  392.2  400.3  408.3
   422.6  433.4  438.9  439.5  447.1  447.2  466.0  476.7  480.9  481.2
   497.7  514.8  533.7  541.0  557.3  578.2  584.2  593.1  623.3  630.5
   644.9  652.8  665.6  716.3  721.1  726.7  738.7  745.1  753.6  767.1
   769.0  785.8  804.3  809.5  816.1  825.0  846.2  863.3  864.4  869.1
   870.4  900.1  903.7  924.0  938.8  945.4  956.9  959.3  974.4  985.4
   992.2  996.4 1001.0 1005.5 1027.4 1038.3 1062.6 1065.3 1088.8 1100.8
  1110.1 1132.8 1154.6 1155.8 1170.0 1182.6 1194.6 1199.2 1208.2 1214.4
  1218.7 1235.9 1240.7 1252.2 1268.6 1290.3 1307.3 1317.0 1324.8 1331.4
  1336.6 1342.3 1353.8 1368.8 1373.2 1379.1 1382.3 1398.5 1400.5 1407.3
  1414.8 1417.0 1429.6 1436.9 1456.1 1478.7 1479.4 1485.2 1491.5 1492.0
  1498.1 1505.4 1507.7 1522.7 1541.7 1561.5 1604.6 1612.9 1617.4 1631.5
  1632.2 1649.2 1670.7 1704.1 1713.3 1721.7 1751.1 1759.2 3006.4 3034.8
  3038.8 3045.8 3090.2 3092.7 3095.9 3113.2 3113.7 3125.2 3133.1 3143.5
  3194.1 3194.2 3202.2 3202.5 3209.3 3209.4 3218.1 3218.3 3220.0 3239.6
 g94    symmetries=
                                                 A      A      A      A
       A      A      A      A      A      A      A      A      A      A
       A      A      A      A      A      A      A      A      A      A
       A      A      A      A      A      A      A      A      A      A
       A      A      A      A      A      A      A      A      A      A
       A      A      A      A      A      A      A      A      A      A
       A      A      A      A      A      A      A      A      A      A
       A      A      A      A      A      A      A      A      A      A
       A      A      A      A      A      A      A      A      A      A
       A      A      A      A      A      A      A      A      A      A
       A      A      A      A      A      A      A      A      A      A
       A      A      A      A      A      A      A      A      A      A
       A      A      A      A      A      A      A      A      A      A
       A      A      A      A      A      A      A      A      A      A
       A      A      A      A      A      A      A      A      A      A
       A      A      A      A      A      A      A      A      A      A
       A      A      A      A      A      A      A      A      A      A
       A      A      A      A      A      A      A      A      A      A
 atomic masses:
 12.0000 12.0000 12.0000 12.0000 12.0000 14.0031 12.0000 15.9949 12.0000 12.0000
 12.0000 12.0000 12.0000 12.0000 12.0000 12.0000 12.0000 15.9949 14.0031 12.0000
 12.0000 12.0000 12.0000 15.9949 12.0000 12.0000 12.0000 12.0000 12.0000 12.0000
 12.0000 12.0000 12.0000 15.9949 12.0000 12.0000 12.0000 12.0000  1.0078  1.0078
  1.0078  1.0078  1.0078  1.0078  1.0078  1.0078  1.0078  1.0078  1.0078  1.0078
  1.0078  1.0078  1.0078  1.0078  1.0078  1.0078  1.0078  1.0078  1.0078  1.0078
 looking for force constants in 
 ./PDI_5_C0S0.fchk                                                              
  
 Cartesian Force Constants                  R   N=       16290                  
  
 n3=         180       16290
 g94-fc frequencies=
    -1.3   -0.0    0.0    0.0    1.2    3.8   13.9   22.9   31.3   49.1
    51.3   58.7   60.5   75.9   85.5   91.2  104.8  109.7  158.4  163.3
   165.9  181.1  187.5  187.7  210.7  226.5  233.8  237.7  238.7  260.6
   271.1  272.2  296.3  309.3  314.4  344.9  362.9  392.2  400.3  408.3
   422.6  433.4  438.9  439.5  447.1  447.2  466.0  476.8  480.9  481.2
   497.7  514.8  533.7  541.0  557.4  578.3  584.2  593.1  623.3  630.6
   644.9  652.8  665.6  716.3  721.1  726.7  738.8  745.1  753.6  767.2
   769.0  785.8  804.3  809.5  816.1  825.0  846.2  863.3  864.4  869.1
   870.4  900.1  903.7  924.0  938.8  945.4  957.0  959.4  974.5  985.4
   992.2  996.4 1001.0 1005.5 1027.4 1038.3 1062.6 1065.3 1088.8 1100.9
  1110.2 1132.8 1154.6 1155.8 1170.0 1182.6 1194.6 1199.2 1208.2 1214.4
  1218.7 1236.0 1240.7 1252.2 1268.6 1290.3 1307.4 1317.0 1324.9 1331.5
  1336.6 1342.3 1353.9 1368.8 1373.2 1379.1 1382.3 1398.5 1400.6 1407.3
  1414.8 1417.0 1429.7 1436.9 1456.2 1478.7 1479.5 1485.3 1491.5 1492.1
  1498.2 1505.4 1507.7 1522.8 1541.7 1561.5 1604.7 1612.9 1617.4 1631.5
  1632.2 1649.2 1670.7 1704.1 1713.4 1721.8 1751.1 1759.2 3006.5 3034.9
  3038.9 3045.8 3090.2 3092.7 3095.9 3113.3 3113.7 3125.2 3133.1 3143.5
  3194.1 3194.3 3202.3 3202.5 3209.3 3209.5 3218.2 3218.4 3220.1 3239.7
 at 99999: n3=         180
 symm operator            1 :  F  nop=           0
 symm operator            2 :  F  nop=           0
 symm operator            3 :  F  nop=           0
 symm operator            4 :  F  nop=           0
 symm operator            5 :  F  nop=           0
 symm operator            6 :  F  nop=           0
 symm operator            7 :  F  nop=           0
 The point group of the molecule is  C1
 Symmetry rotation matrix:
   1.00000   0.00000   0.00000
   0.00000   1.00000   0.00000
   0.00000   0.00000   1.00000

 Projecting out zero-frequency components
 generating redundant internal coords
         300        3600          60
 search for int coords
   1 str   2   1   1.497
   2 str   3   2   1.341
   3 str   4   3   1.451
   4 str   5   4   1.344
   5 str   6   5   1.422
   6 str   7   6   1.427
   7 str   8   7   1.215
   8 str   9   7   1.478
   9 str  10   9   1.383
  10 str  11  10   1.396
  11 str  12  11   1.394
  12 str  13  12   1.469
  13 str  14  13   1.394
  14 str  15  14   1.397
  15 str  16  15   1.382
  16 str  17  16   1.486
  17 str  18  17   1.218
  18 str  19  17   1.401
  19 str  20  19   1.498
  20 str  21  20   1.532
  21 str  22  20   1.532
  22 str  23  19   1.408
  23 str  24  23   1.218
  24 str  25  23   1.485
  25 str  26  25   1.382
  26 str  27  26   1.397
  27 str  28  27   1.394
  28 str  29  28   1.469
  29 str  30  29   1.394
  30 str  31  30   1.396
  31 str  32  31   1.382
  32 str  33   6   1.413
  33 str  33  32   1.483
  34 str  34  33   1.216
  35 str  35   9   1.411
  36 str  35  32   1.411
  37 str  36  12   1.429
  38 str  36  29   1.429
  39 str  36  35   1.427
  40 str  37  13   1.429
  41 str  37  28   1.429
  42 str  38  16   1.412
  43 str  38  25   1.412
  44 str  38  37   1.427
  45 str  39   1   1.096
  46 str  40   1   1.096
  47 str  41   1   1.093
  48 str  42   2   1.089
  49 str  43   3   1.089
  50 str  44   4   1.079
  51 str  45   5   1.080
  52 str  46  10   1.082
  53 str  47  11   1.081
  54 str  48  14   1.081
  55 str  49  15   1.083
  56 str  50  20   1.088
  57 str  51  21   1.089
  58 str  52  21   1.093
  59 str  53  21   1.093
  60 str  54  22   1.089
  61 str  55  22   1.093
  62 str  56  22   1.093
  63 str  57  26   1.083
  64 str  58  27   1.081
  65 str  59  30   1.081
  66 str  60  31   1.082
 nber stretches=          66
  67 ben   1   2   3
  68 prop tor   1   2   3   4
  69 prop tor   1   2   3  43
  70 ben   1   2  42
  71 ben   2   1  39
  72 ben   2   1  40
  73 ben   2   1  41
  74 ben   2   3   4
  75 prop tor   2   3   4   5
  76 prop tor   2   3   4  44
  77 ben   2   3  43
  78 ben   3   2  42
  79 ben   3   4   5
  80 prop tor   3   4   5   6
  81 prop tor   3   4   5  45
  82 ben   3   4  44
  83 ben   4   3  43
  84 ben   4   5   6
  85 prop tor   4   5   6   7
  86 prop tor   4   5   6  33
  87 ben   4   5  45
  88 ben   5   4  44
  89 ben   5   6   7
  90 prop tor   5   6   7   8
  91 prop tor   5   6   7   9
  92 ben   5   6  33
  93 prop tor   5   6  33  32
  94 prop tor   5   6  33  34
  95 ben   6   5  45
  96 ben   6   7   8
  97 ben   6   7   9
  98 prop tor   6   7   9  10
  99 prop tor   6   7   9  35
 100 ben   6  33  32
 101 ben   6  33  34
 102 ben   7   6  33
 103 prop tor   7   6  33  32
 104 prop tor   7   6  33  34
 105 ben   7   9  10
 106 prop tor   7   9  10  11
 107 prop tor   7   9  10  46
 108 ben   7   9  35
 109 prop tor   7   9  35  32
 110 prop tor   7   9  35  36
 111 ben   8   7   9
 112 prop tor   8   7   9  10
 113 prop tor   8   7   9  35
 114 ben   9  10  11
 115 prop tor   9  10  11  12
 116 prop tor   9  10  11  47
 117 ben   9  10  46
 118 ben   9  35  32
 119 ben   9  35  36
 120 prop tor   9  35  36  12
 121 prop tor   9  35  36  29
 122 ben  10   9  35
 123 prop tor  10   9  35  32
 124 prop tor  10   9  35  36
 125 ben  10  11  12
 126 prop tor  10  11  12  13
 127 prop tor  10  11  12  36
 128 ben  10  11  47
 129 ben  11  10  46
 130 ben  11  12  13
 131 prop tor  11  12  13  14
 132 prop tor  11  12  13  37
 133 ben  11  12  36
 134 prop tor  11  12  36  29
 135 prop tor  11  12  36  35
 136 ben  12  11  47
 137 ben  12  13  14
 138 prop tor  12  13  14  15
 139 prop tor  12  13  14  48
 140 ben  12  13  37
 141 prop tor  12  13  37  28
 142 prop tor  12  13  37  38
 143 ben  12  36  29
 144 ben  12  36  35
 145 ben  13  12  36
 146 prop tor  13  12  36  29
 147 prop tor  13  12  36  35
 148 ben  13  14  15
 149 prop tor  13  14  15  16
 150 prop tor  13  14  15  49
 151 ben  13  14  48
 152 ben  13  37  28
 153 ben  13  37  38
 154 prop tor  13  37  38  16
 155 prop tor  13  37  38  25
 156 ben  14  13  37
 157 prop tor  14  13  37  28
 158 prop tor  14  13  37  38
 159 ben  14  15  16
 160 prop tor  14  15  16  17
 161 prop tor  14  15  16  38
 162 ben  14  15  49
 163 ben  15  14  48
 164 ben  15  16  17
 165 prop tor  15  16  17  18
 166 prop tor  15  16  17  19
 167 ben  15  16  38
 168 prop tor  15  16  38  25
 169 prop tor  15  16  38  37
 170 ben  16  15  49
 171 ben  16  17  18
 172 ben  16  17  19
 173 prop tor  16  17  19  20
 174 prop tor  16  17  19  23
 175 ben  16  38  25
 176 ben  16  38  37
 177 ben  17  16  38
 178 prop tor  17  16  38  25
 179 prop tor  17  16  38  37
 180 ben  17  19  20
 181 prop tor  17  19  20  21
 182 prop tor  17  19  20  22
 183 prop tor  17  19  20  50
 184 ben  17  19  23
 185 prop tor  17  19  23  24
 186 prop tor  17  19  23  25
 187 ben  18  17  19
 188 prop tor  18  17  19  20
 189 prop tor  18  17  19  23
 190 ben  19  20  21
 191 prop tor  19  20  21  51
 192 prop tor  19  20  21  52
 193 prop tor  19  20  21  53
 194 ben  19  20  22
 195 prop tor  19  20  22  54
 196 prop tor  19  20  22  55
 197 prop tor  19  20  22  56
 198 ben  19  20  50
 199 ben  19  23  24
 200 ben  19  23  25
 201 prop tor  19  23  25  26
 202 prop tor  19  23  25  38
 203 ben  20  19  23
 204 prop tor  20  19  23  24
 205 prop tor  20  19  23  25
 206 ben  20  21  51
 207 ben  20  21  52
 208 ben  20  21  53
 209 ben  20  22  54
 210 ben  20  22  55
 211 ben  20  22  56
 212 ben  21  20  22
 213 prop tor  21  20  22  54
 214 prop tor  21  20  22  55
 215 prop tor  21  20  22  56
 216 ben  21  20  50
 217 prop tor  22  20  21  51
 218 prop tor  22  20  21  52
 219 prop tor  22  20  21  53
 220 ben  22  20  50
 221 prop tor  23  19  20  21
 222 prop tor  23  19  20  22
 223 prop tor  23  19  20  50
 224 ben  23  25  26
 225 prop tor  23  25  26  27
 226 prop tor  23  25  26  57
 227 ben  23  25  38
 228 prop tor  23  25  38  16
 229 prop tor  23  25  38  37
 230 ben  24  23  25
 231 prop tor  24  23  25  26
 232 prop tor  24  23  25  38
 233 ben  25  26  27
 234 prop tor  25  26  27  28
 235 prop tor  25  26  27  58
 236 ben  25  26  57
 237 ben  25  38  37
 238 ben  26  25  38
 239 prop tor  26  25  38  16
 240 prop tor  26  25  38  37
 241 ben  26  27  28
 242 prop tor  26  27  28  29
 243 prop tor  26  27  28  37
 244 ben  26  27  58
 245 ben  27  26  57
 246 ben  27  28  29
 247 prop tor  27  28  29  30
 248 prop tor  27  28  29  36
 249 ben  27  28  37
 250 prop tor  27  28  37  13
 251 prop tor  27  28  37  38
 252 ben  28  27  58
 253 ben  28  29  30
 254 prop tor  28  29  30  31
 255 prop tor  28  29  30  59
 256 ben  28  29  36
 257 prop tor  28  29  36  12
 258 prop tor  28  29  36  35
 259 ben  28  37  38
 260 prop tor  28  37  38  16
 261 prop tor  28  37  38  25
 262 ben  29  28  37
 263 prop tor  29  28  37  13
 264 prop tor  29  28  37  38
 265 ben  29  30  31
 266 prop tor  29  30  31  32
 267 prop tor  29  30  31  60
 268 ben  29  30  59
 269 ben  29  36  35
 270 ben  30  29  36
 271 prop tor  30  29  36  12
 272 prop tor  30  29  36  35
 273 ben  30  31  32
 274 prop tor  30  31  32  33
 275 prop tor  30  31  32  35
 276 ben  30  31  60
 277 ben  31  30  59
 278 ben  31  32  33
 279 prop tor  31  32  33   6
 280 prop tor  31  32  33  34
 281 ben  31  32  35
 282 prop tor  31  32  35   9
 283 prop tor  31  32  35  36
 284 ben  32  31  60
 285 ben  32  33  34
 286 ben  32  35  36
 287 prop tor  32  35  36  12
 288 prop tor  32  35  36  29
 289 prop tor  33   6   7   8
 290 prop tor  33   6   7   9
 291 ben  33  32  35
 292 prop tor  33  32  35   9
 293 prop tor  33  32  35  36
 294 prop tor  35   9  10  11
 295 prop tor  35   9  10  46
 296 prop tor  35  32  33   6
 297 prop tor  35  32  33  34
 298 prop tor  36  12  13  14
 299 prop tor  36  12  13  37
 300 prop tor  36  29  30  31
 301 prop tor  36  29  30  59
 302 prop tor  37  13  14  15
 303 prop tor  37  13  14  48
 304 prop tor  37  28  29  30
 305 prop tor  37  28  29  36
 306 prop tor  38  16  17  18
 307 prop tor  38  16  17  19
 308 prop tor  38  25  26  27
 309 prop tor  38  25  26  57
 310 prop tor  39   1   2   3
 311 prop tor  39   1   2  42
 312 ben  39   1  40
 313 ben  39   1  41
 314 prop tor  40   1   2   3
 315 prop tor  40   1   2  42
 316 ben  40   1  41
 317 prop tor  41   1   2   3
 318 prop tor  41   1   2  42
 319 prop tor  42   2   3   4
 320 prop tor  42   2   3  43
 321 prop tor  43   3   4   5
 322 prop tor  43   3   4  44
 323 prop tor  44   4   5   6
 324 prop tor  44   4   5  45
 325 prop tor  45   5   6   7
 326 prop tor  45   5   6  33
 327 prop tor  46  10  11  12
 328 prop tor  46  10  11  47
 329 prop tor  47  11  12  13
 330 prop tor  47  11  12  36
 331 prop tor  48  14  15  16
 332 prop tor  48  14  15  49
 333 prop tor  49  15  16  17
 334 prop tor  49  15  16  38
 335 prop tor  50  20  21  51
 336 prop tor  50  20  21  52
 337 prop tor  50  20  21  53
 338 prop tor  50  20  22  54
 339 prop tor  50  20  22  55
 340 prop tor  50  20  22  56
 341 ben  51  21  52
 342 ben  51  21  53
 343 ben  52  21  53
 344 ben  54  22  55
 345 ben  54  22  56
 346 ben  55  22  56
 347 prop tor  57  26  27  28
 348 prop tor  57  26  27  58
 349 prop tor  58  27  28  29
 350 prop tor  58  27  28  37
 351 prop tor  59  30  31  32
 352 prop tor  59  30  31  60
 353 prop tor  60  31  32  33
 354 prop tor  60  31  32  35
 nber bend=             114
 nber lin bend=           0
 nber prop tor=         174
 nber impr tor=           0
 nber tot redund int=         354
 Eigenvalues of G in red int coords
    Gval -0.00000000 -0.00000000 -0.00000000 -0.00000000 -0.00000000 -0.00000000 -0.00000000 -0.00000000
    Gval -0.00000000 -0.00000000 -0.00000000 -0.00000000 -0.00000000 -0.00000000 -0.00000000 -0.00000000
    Gval -0.00000000 -0.00000000 -0.00000000 -0.00000000 -0.00000000 -0.00000000 -0.00000000 -0.00000000
    Gval -0.00000000 -0.00000000 -0.00000000 -0.00000000 -0.00000000 -0.00000000 -0.00000000 -0.00000000
    Gval -0.00000000 -0.00000000 -0.00000000 -0.00000000 -0.00000000 -0.00000000 -0.00000000 -0.00000000
    Gval -0.00000000 -0.00000000 -0.00000000 -0.00000000 -0.00000000 -0.00000000 -0.00000000 -0.00000000
    Gval -0.00000000 -0.00000000 -0.00000000 -0.00000000 -0.00000000 -0.00000000 -0.00000000 -0.00000000
    Gval -0.00000000 -0.00000000 -0.00000000 -0.00000000 -0.00000000 -0.00000000 -0.00000000 -0.00000000
    Gval -0.00000000 -0.00000000 -0.00000000 -0.00000000 -0.00000000 -0.00000000 -0.00000000 -0.00000000
    Gval -0.00000000 -0.00000000 -0.00000000 -0.00000000 -0.00000000 -0.00000000 -0.00000000 -0.00000000
    Gval -0.00000000 -0.00000000 -0.00000000 -0.00000000 -0.00000000 -0.00000000  0.00000000  0.00000000
    Gval  0.00000000  0.00000000  0.00000000  0.00000000  0.00000000  0.00000000  0.00000000  0.00000000
    Gval  0.00000000  0.00000000  0.00000000  0.00000000  0.00000000  0.00000000  0.00000000  0.00000000
    Gval  0.00000000  0.00000000  0.00000000  0.00000000  0.00000000  0.00000000  0.00000000  0.00000000
    Gval  0.00000000  0.00000000  0.00000000  0.00000000  0.00000000  0.00000000  0.00000000  0.00000000
    Gval  0.00000000  0.00000000  0.00000000  0.00000000  0.00000000  0.00000000  0.00000000  0.00000000
    Gval  0.00000000  0.00000000  0.00000000  0.00000000  0.00000000  0.00000000  0.00000000  0.00000000
    Gval  0.00000000  0.00000000  0.00000000  0.00000000  0.00000000  0.00000000  0.00000000  0.00000000
    Gval  0.00000000  0.00000000  0.00000000  0.00000000  0.00000000  0.00000000  0.00000000  0.00000000
    Gval  0.00000000  0.00000000  0.00000000  0.00000000  0.00000000  0.00000000  0.00000000  0.00000000
    Gval  0.00000000  0.00000000  0.00000000  0.00000000  0.00000000  0.00000000  0.00000000  0.00000000
    Gval  0.00000000  0.00000000  0.00000000  0.00000000  0.00000000  0.00000000  0.00000000  0.00000000
    Gval  0.00000000  0.00000000  0.00000000  0.00000000  0.00000039  0.00000109  0.00000159  0.00000210
    Gval  0.00000458  0.00000524  0.00000552  0.00000896  0.00001020  0.00001079  0.00001214  0.00001483
    Gval  0.00001508  0.00001646  0.00001758  0.00001797  0.00001843  0.00002137  0.00002362  0.00002437
    Gval  0.00002540  0.00002719  0.00002912  0.00003090  0.00003500  0.00003993  0.00004406  0.00004518
    Gval  0.00004920  0.00005125  0.00005157  0.00005197  0.00005360  0.00006115  0.00006340  0.00006345
    Gval  0.00006860  0.00007208  0.00007391  0.00007977  0.00008139  0.00008247  0.00008496  0.00008768
    Gval  0.00008875  0.00009192  0.00009376  0.00009459  0.00010310  0.00011419  0.00011496  0.00012085
    Gval  0.00012271  0.00013659  0.00013676  0.00013706  0.00014112  0.00015671  0.00016033  0.00016264
    Gval  0.00016882  0.00018045  0.00019812  0.00020133  0.00022233  0.00022860  0.00023008  0.00024211
    Gval  0.00026341  0.00027765  0.00028310  0.00029176  0.00029936  0.00034181  0.00034656  0.00035357
    Gval  0.00036017  0.00038398  0.00039190  0.00039307  0.00039352  0.00040724  0.00042092  0.00042583
    Gval  0.00042996  0.00043383  0.00044173  0.00044266  0.00046241  0.00046626  0.00046686  0.00049264
    Gval  0.00050603  0.00053168  0.00053412  0.00053717  0.00053807  0.00054931  0.00055414  0.00055603
    Gval  0.00055614  0.00055705  0.00058493  0.00059077  0.00059408  0.00059864  0.00059943  0.00059969
    Gval  0.00060001  0.00060220  0.00060828  0.00064184  0.00064483  0.00064557  0.00064602  0.00064808
    Gval  0.00065109  0.00067220  0.00068333  0.00069640  0.00069790  0.00073085  0.00079608  0.00082715
    Gval  0.00094023  0.00100022  0.00103524  0.00109138  0.00109548  0.00109646  0.00109717  0.00109770
    Gval  0.00114386  0.00115111  0.00116251  0.00116267  0.00116302  0.00116328  0.00117171  0.00117226
    Gval  0.00118460  0.00118709  0.00119949  0.00120001  0.00127878  0.00129530  0.00138779  0.00149601
    Gval  0.00156537  0.00172317  0.00177599  0.00191170  0.00229364  0.00235365  0.00238069  0.00239658
    Gval  0.00253188  0.00253699  0.00256333  0.00274603  0.00278870  0.00292287  0.00294244  0.00302358
    Gval  0.00304221  0.00308151  0.00309688  0.00340014  0.00365482  0.00365715  0.00370369  0.00370566
    Gval  0.00394325  0.00399170
  3.928036757568812E-007  3.928036757568812E-007
  1.091053262756120E-006  3.928036757568812E-007
  1.590223071557295E-006  3.928036757568812E-007
  2.100568846780360E-006  3.928036757568812E-007
  4.583403972581590E-006  3.928036757568812E-007
  5.236748442256114E-006  3.928036757568812E-007
  5.522182509059899E-006  3.928036757568812E-007
  8.957089899504866E-006  3.928036757568812E-007
  1.020261900304691E-005  3.928036757568812E-007
  1.079293139368245E-005  3.928036757568812E-007
  1.213981965301767E-005  3.928036757568812E-007
  1.483479632711450E-005  3.928036757568812E-007
  1.508238882792004E-005  3.928036757568812E-007
  1.645647561382505E-005  3.928036757568812E-007
  1.758411251900616E-005  3.928036757568812E-007
  1.796737546149449E-005  3.928036757568812E-007
  1.843428914287448E-005  3.928036757568812E-007
  2.136729579488342E-005  3.928036757568812E-007
  2.362106036785340E-005  3.928036757568812E-007
  2.437286721568560E-005  3.928036757568812E-007
  2.540117249845238E-005  3.928036757568812E-007
  2.718662578414248E-005  3.928036757568812E-007
  2.912036641558527E-005  3.928036757568812E-007
  3.090069322706671E-005  3.928036757568812E-007
  3.499891408499612E-005  3.928036757568812E-007
  3.993454995780313E-005  3.928036757568812E-007
  4.406099109556447E-005  3.928036757568812E-007
  4.518249627147858E-005  3.928036757568812E-007
  4.920391844551730E-005  3.928036757568812E-007
  5.125498414791935E-005  3.928036757568812E-007
  5.156621262339034E-005  3.928036757568812E-007
  5.197132186435181E-005  3.928036757568812E-007
  5.360397863279565E-005  3.928036757568812E-007
  6.115408495954976E-005  3.928036757568812E-007
  6.340352057959438E-005  3.928036757568812E-007
  6.345166083452310E-005  3.928036757568812E-007
  6.860000121072896E-005  3.928036757568812E-007
  7.207699520132095E-005  3.928036757568812E-007
  7.391097831428835E-005  3.928036757568812E-007
  7.976926806379031E-005  3.928036757568812E-007
  8.139186806073788E-005  3.928036757568812E-007
  8.247108796738612E-005  3.928036757568812E-007
  8.496259040483714E-005  3.928036757568812E-007
  8.768227567603784E-005  3.928036757568812E-007
  8.874628922621044E-005  3.928036757568812E-007
  9.191780418205658E-005  3.928036757568812E-007
  9.376083334768340E-005  3.928036757568812E-007
  9.459114576766381E-005  3.928036757568812E-007
  1.031021999040788E-004  3.928036757568812E-007
  1.141900483210830E-004  3.928036757568812E-007
  1.149645398633410E-004  3.928036757568812E-007
  1.208514902463008E-004  3.928036757568812E-007
  1.227105820603601E-004  3.928036757568812E-007
  1.365880357341240E-004  3.928036757568812E-007
  1.367565743165506E-004  3.928036757568812E-007
  1.370576266825195E-004  3.928036757568812E-007
  1.411223463173343E-004  3.928036757568812E-007
  1.567147928915575E-004  3.928036757568812E-007
  1.603261262049280E-004  3.928036757568812E-007
  1.626430899620462E-004  3.928036757568812E-007
  1.688154662236902E-004  3.928036757568812E-007
  1.804466740215613E-004  3.928036757568812E-007
  1.981222883302538E-004  3.928036757568812E-007
  2.013267627137956E-004  3.928036757568812E-007
  2.223327591961683E-004  3.928036757568812E-007
  2.286024382604561E-004  3.928036757568812E-007
  2.300789149380891E-004  3.928036757568812E-007
  2.421099865404760E-004  3.928036757568812E-007
  2.634070281801082E-004  3.928036757568812E-007
  2.776493528890954E-004  3.928036757568812E-007
  2.831022812691467E-004  3.928036757568812E-007
  2.917570382359261E-004  3.928036757568812E-007
  2.993634008520647E-004  3.928036757568812E-007
  3.418130188564093E-004  3.928036757568812E-007
  3.465566993620591E-004  3.928036757568812E-007
  3.535706238796506E-004  3.928036757568812E-007
  3.601715406070612E-004  3.928036757568812E-007
  3.839797699678232E-004  3.928036757568812E-007
  3.919001930576670E-004  3.928036757568812E-007
  3.930691435422116E-004  3.928036757568812E-007
  3.935174920924663E-004  3.928036757568812E-007
  4.072400532479693E-004  3.928036757568812E-007
  4.209205919841122E-004  3.928036757568812E-007
  4.258271762831574E-004  3.928036757568812E-007
  4.299610729694876E-004  3.928036757568812E-007
  4.338325834748931E-004  3.928036757568812E-007
  4.417256004509947E-004  3.928036757568812E-007
  4.426586418505096E-004  3.928036757568812E-007
  4.624098336890080E-004  3.928036757568812E-007
  4.662612964909620E-004  3.928036757568812E-007
  4.668635869813708E-004  3.928036757568812E-007
  4.926392041685720E-004  3.928036757568812E-007
  5.060275747870732E-004  3.928036757568812E-007
  5.316770467860677E-004  3.928036757568812E-007
  5.341194223499932E-004  3.928036757568812E-007
  5.371689809660164E-004  3.928036757568812E-007
  5.380672074164471E-004  3.928036757568812E-007
  5.493058992223103E-004  3.928036757568812E-007
  5.541395910820051E-004  3.928036757568812E-007
  5.560305477506240E-004  3.928036757568812E-007
  5.561389527273531E-004  3.928036757568812E-007
  5.570535357577712E-004  3.928036757568812E-007
  5.849328903023357E-004  3.928036757568812E-007
  5.907732739595823E-004  3.928036757568812E-007
  5.940762559266205E-004  3.928036757568812E-007
  5.986414182283958E-004  3.928036757568812E-007
  5.994293384161079E-004  3.928036757568812E-007
  5.996870036428976E-004  3.928036757568812E-007
  6.000097862989775E-004  3.928036757568812E-007
  6.021956094625599E-004  3.928036757568812E-007
  6.082802208807822E-004  3.928036757568812E-007
  6.418418076176686E-004  3.928036757568812E-007
  6.448282510012554E-004  3.928036757568812E-007
  6.455655457797839E-004  3.928036757568812E-007
  6.460213148942261E-004  3.928036757568812E-007
  6.480828773262139E-004  3.928036757568812E-007
  6.510913093262452E-004  3.928036757568812E-007
  6.722021109406213E-004  3.928036757568812E-007
  6.833343242896801E-004  3.928036757568812E-007
  6.964009169139122E-004  3.928036757568812E-007
  6.978999747309047E-004  3.928036757568812E-007
  7.308490889415408E-004  3.928036757568812E-007
  7.960820317105350E-004  3.928036757568812E-007
  8.271504379285201E-004  3.928036757568812E-007
  9.402325668485766E-004  3.928036757568812E-007
  1.000219666498010E-003  3.928036757568812E-007
  1.035238754641162E-003  3.928036757568812E-007
  1.091384030348707E-003  3.928036757568812E-007
  1.095475235635990E-003  3.928036757568812E-007
  1.096459062004611E-003  3.928036757568812E-007
  1.097168612544386E-003  3.928036757568812E-007
  1.097701315043657E-003  3.928036757568812E-007
  1.143857971106364E-003  3.928036757568812E-007
  1.151105409079941E-003  3.928036757568812E-007
  1.162512501362455E-003  3.928036757568812E-007
  1.162665014730685E-003  3.928036757568812E-007
  1.163023960243087E-003  3.928036757568812E-007
  1.163281163065095E-003  3.928036757568812E-007
  1.171705678677721E-003  3.928036757568812E-007
  1.172263868060526E-003  3.928036757568812E-007
  1.184599259366302E-003  3.928036757568812E-007
  1.187091427692257E-003  3.928036757568812E-007
  1.199491586412732E-003  3.928036757568812E-007
  1.200008862291449E-003  3.928036757568812E-007
  1.278777651014659E-003  3.928036757568812E-007
  1.295296507776447E-003  3.928036757568812E-007
  1.387793466271965E-003  3.928036757568812E-007
  1.496010569170895E-003  3.928036757568812E-007
  1.565371247286270E-003  3.928036757568812E-007
  1.723167687275525E-003  3.928036757568812E-007
  1.775992835767881E-003  3.928036757568812E-007
  1.911699333200257E-003  3.928036757568812E-007
  2.293638183490632E-003  3.928036757568812E-007
  2.353652801534000E-003  3.928036757568812E-007
  2.380690965483286E-003  3.928036757568812E-007
  2.396584012141878E-003  3.928036757568812E-007
  2.531880997486032E-003  3.928036757568812E-007
  2.536989247496712E-003  3.928036757568812E-007
  2.563333418433664E-003  3.928036757568812E-007
  2.746034604970834E-003  3.928036757568812E-007
  2.788702658858006E-003  3.928036757568812E-007
  2.922874630290444E-003  3.928036757568812E-007
  2.942440074012821E-003  3.928036757568812E-007
  3.023579545570511E-003  3.928036757568812E-007
  3.042208201120963E-003  3.928036757568812E-007
  3.081505821613090E-003  3.928036757568812E-007
  3.096882446987005E-003  3.928036757568812E-007
  3.400140906561477E-003  3.928036757568812E-007
  3.654816154485679E-003  3.928036757568812E-007
  3.657153303358954E-003  3.928036757568812E-007
  3.703685899868382E-003  3.928036757568812E-007
  3.705659073710181E-003  3.928036757568812E-007
  3.943248691622996E-003  3.928036757568812E-007
  3.991698336971067E-003  3.928036757568812E-007
 cut=1d-8, nber non-redundant internal coords=         174
 Check on Eigenvals of non-red overlap matrix:
  0.00000039  0.00000109  0.00000159  0.00000210  0.00000458  0.00000524  0.00000552  0.00000896
  0.00001020  0.00001079  0.00001214  0.00001483  0.00001508  0.00001646  0.00001758  0.00001797
  0.00001843  0.00002137  0.00002362  0.00002437  0.00002540  0.00002719  0.00002912  0.00003090
  0.00003500  0.00003993  0.00004406  0.00004518  0.00004920  0.00005125  0.00005157  0.00005197
  0.00005360  0.00006115  0.00006340  0.00006345  0.00006860  0.00007208  0.00007391  0.00007977
  0.00008139  0.00008247  0.00008496  0.00008768  0.00008875  0.00009192  0.00009376  0.00009459
  0.00010310  0.00011419  0.00011496  0.00012085  0.00012271  0.00013659  0.00013676  0.00013706
  0.00014112  0.00015671  0.00016033  0.00016264  0.00016882  0.00018045  0.00019812  0.00020133
  0.00022233  0.00022860  0.00023008  0.00024211  0.00026341  0.00027765  0.00028310  0.00029176
  0.00029936  0.00034181  0.00034656  0.00035357  0.00036017  0.00038398  0.00039190  0.00039307
  0.00039352  0.00040724  0.00042092  0.00042583  0.00042996  0.00043383  0.00044173  0.00044266
  0.00046241  0.00046626  0.00046686  0.00049264  0.00050603  0.00053168  0.00053412  0.00053717
  0.00053807  0.00054931  0.00055414  0.00055603  0.00055614  0.00055705  0.00058493  0.00059077
  0.00059408  0.00059864  0.00059943  0.00059969  0.00060001  0.00060220  0.00060828  0.00064184
  0.00064483  0.00064557  0.00064602  0.00064808  0.00065109  0.00067220  0.00068333  0.00069640
  0.00069790  0.00073085  0.00079608  0.00082715  0.00094023  0.00100022  0.00103524  0.00109138
  0.00109548  0.00109646  0.00109717  0.00109770  0.00114386  0.00115111  0.00116251  0.00116267
  0.00116302  0.00116328  0.00117171  0.00117226  0.00118460  0.00118709  0.00119949  0.00120001
  0.00127878  0.00129530  0.00138779  0.00149601  0.00156537  0.00172317  0.00177599  0.00191170
  0.00229364  0.00235365  0.00238069  0.00239658  0.00253188  0.00253699  0.00256333  0.00274603
  0.00278870  0.00292287  0.00294244  0.00302358  0.00304221  0.00308151  0.00309688  0.00340014
  0.00365482  0.00365715  0.00370369  0.00370566  0.00394325  0.00399170
 Checking for correct frequencies
 recalc frequencies=
    -0.0   -0.0   -0.0    0.0    0.0    0.0   13.9   22.9   31.3   49.1
    51.3   58.7   60.5   75.9   85.5   91.2  104.8  109.7  158.4  163.3
   165.9  181.1  187.5  187.7  210.7  226.5  233.8  237.7  238.7  260.6
   271.1  272.2  296.3  309.3  314.4  344.9  362.9  392.2  400.3  408.3
   422.6  433.4  438.9  439.5  447.1  447.2  466.0  476.8  480.9  481.2
   497.7  514.8  533.7  541.0  557.4  578.3  584.2  593.1  623.3  630.6
   644.9  652.8  665.6  716.3  721.1  726.7  738.8  745.1  753.6  767.2
   769.0  785.8  804.3  809.5  816.1  825.0  846.2  863.3  864.4  869.1
   870.4  900.1  903.7  924.0  938.8  945.4  957.0  959.4  974.5  985.4
   992.2  996.4 1001.0 1005.5 1027.4 1038.3 1062.6 1065.3 1088.8 1100.9
  1110.2 1132.8 1154.6 1155.8 1170.0 1182.6 1194.6 1199.2 1208.2 1214.4
  1218.7 1236.0 1240.7 1252.2 1268.6 1290.3 1307.4 1317.0 1324.9 1331.5
  1336.6 1342.3 1353.9 1368.8 1373.2 1379.1 1382.3 1398.5 1400.6 1407.3
  1414.8 1417.0 1429.7 1436.9 1456.2 1478.7 1479.5 1485.3 1491.5 1492.1
  1498.2 1505.4 1507.7 1522.8 1541.7 1561.5 1604.7 1612.9 1617.4 1631.5
  1632.2 1649.2 1670.7 1704.1 1713.4 1721.8 1751.1 1759.2 3006.5 3034.9
  3038.9 3045.8 3090.2 3092.7 3095.9 3113.3 3113.7 3125.2 3133.1 3143.5
  3194.1 3194.3 3202.3 3202.5 3209.3 3209.5 3218.2 3218.4 3220.1 3239.7
 recalc symmetries=
                                                                       
                                                                       
                                                                       
                                                                       
                                                                       
                                                                       
                                                                       
                                                                       
                                                                       
                                                                       
                                                                       
                                                                       
                                                                       
                                                                       
                                                                       
                                                                       
                                                                       
                                                                       
 recalc freqs check OK
 Zero-point lengths:
 10.0000 10.0000 10.0000 10.0000 10.0000 10.0000 66.4270 51.8378 44.2818 35.3828
 34.6259 32.3577 31.8726 28.4593 26.8118 25.9654 24.2116 23.6654 19.6961 19.4007
 19.2503 18.4233 18.1036 18.0973 17.0787 16.4730 16.2123 16.0785 16.0467 15.3576
 15.0580 15.0268 14.4028 14.0952 13.9820 13.3499 13.0131 12.5188 12.3901 12.2686
 12.0591 11.9079 11.8333 11.8255 11.7249 11.7231 11.4840 11.3540 11.3049 11.3015
 11.1127 10.9259 10.7313 10.6583 10.5010 10.3095 10.2564 10.1793  9.9301  9.8726
  9.7623  9.7032  9.6090  9.2627  9.2322  9.1964  9.1211  9.0823  9.0306  8.9507
  8.9399  8.8437  8.7413  8.7133  8.6779  8.6311  8.5223  8.4374  8.4321  8.4095
  8.4030  8.2631  8.2465  8.1555  8.0912  8.0628  8.0140  8.0040  7.9417  7.8973
  7.8703  7.8537  7.8357  7.8180  7.7342  7.6936  7.6052  7.5954  7.5131  7.4719
  7.4405  7.3658  7.2959  7.2922  7.2477  7.2090  7.1728  7.1588  7.1323  7.1139
  7.1014  7.0517  7.0381  7.0058  6.9604  6.9016  6.8564  6.8313  6.8110  6.7941
  6.7809  6.7666  6.7376  6.7008  6.6901  6.6757  6.6679  6.6292  6.6243  6.6085
  6.5909  6.5858  6.5566  6.5400  6.4967  6.4469  6.4453  6.4327  6.4192  6.4180
  6.4049  6.3895  6.3847  6.3530  6.3138  6.2737  6.1888  6.1729  6.1644  6.1376
  6.1363  6.1046  6.0651  6.0055  5.9892  5.9746  5.9243  5.9107  4.5214  4.5001
  4.4971  4.4920  4.4596  4.4578  4.4555  4.4431  4.4428  4.4346  4.4290  4.4217
  4.3865  4.3864  4.3809  4.3808  4.3761  4.3760  4.3701  4.3699  4.3688  4.3556
 highest evec of mol 1
  0.0001  0.0002  0.0009
  0.0016 -0.0005 -0.0036
 -0.0021 -0.0018 -0.0096
  0.0680 -0.0409 -0.2681
  0.0273 -0.0050 -0.0405
  0.0011 -0.0002 -0.0014
 -0.0003 -0.0002 -0.0011
 -0.0009 -0.0001 -0.0003
  0.0002  0.0000 -0.0000
  0.0001 -0.0000 -0.0002
 -0.0000 -0.0000 -0.0001
 -0.0000  0.0000  0.0000
 -0.0000  0.0000  0.0000
  0.0000 -0.0000 -0.0000
 -0.0000 -0.0000 -0.0000
  0.0000  0.0000 -0.0000
 -0.0000 -0.0000  0.0000
  0.0000  0.0000  0.0000
  0.0000 -0.0000 -0.0000
 -0.0000 -0.0000  0.0000
 -0.0000 -0.0000  0.0000
 -0.0000  0.0000  0.0000
  0.0000  0.0000  0.0000
  0.0000 -0.0000 -0.0000
 -0.0000 -0.0000  0.0000
 -0.0000 -0.0000  0.0000
  0.0000  0.0000  0.0000
  0.0000  0.0000  0.0000
 -0.0000 -0.0000 -0.0000
 -0.0001  0.0000  0.0001
  0.0003  0.0001  0.0005
  0.0003  0.0000 -0.0001
 -0.0013  0.0002  0.0016
  0.0047  0.0000 -0.0021
 -0.0000  0.0000  0.0000
  0.0000  0.0000  0.0000
  0.0000  0.0000  0.0000
  0.0000  0.0000  0.0000
  0.0004  0.0001 -0.0001
  0.0004 -0.0000 -0.0001
 -0.0005 -0.0003 -0.0013
 -0.0016  0.0025  0.0150
 -0.0156  0.0056  0.0391
 -0.2678  0.1328  0.8901
 -0.0578  0.0262  0.1777
 -0.0003  0.0001  0.0005
  0.0002  0.0001  0.0004
 -0.0000  0.0000  0.0001
  0.0000  0.0000  0.0001
  0.0000 -0.0000 -0.0000
 -0.0000 -0.0000 -0.0000
 -0.0000  0.0000 -0.0000
  0.0000  0.0000 -0.0000
 -0.0000 -0.0000 -0.0000
  0.0000 -0.0000 -0.0000
 -0.0000 -0.0000 -0.0000
  0.0000 -0.0000 -0.0000
 -0.0001 -0.0000 -0.0001
  0.0003 -0.0001 -0.0004
 -0.0009 -0.0003 -0.0014
 generating redundant internal coords
         300        3600          60
 Adding extra bonds for z output only
           6           6           6           6           6           7
           6           8           6           6           6           6
           6           6           6           6           6           8
           7           6           6           6           6           8
           6           6           6           6           6           6
           6           6           6           8           6           6
           6           6           1           1           1           1
           1           1           1           1           1           1
           1           1           1           1           1           1
           1           1           1           1           1           1
 search for int coords
   1 str   2   1   1.497
   2 str   3   2   1.341
   3 str   4   3   1.451
   4 str   5   4   1.344
   5 str   6   5   1.422
   6 str   7   6   1.427
   7 str   8   7   1.215
   8 str   9   7   1.478
   9 str  10   9   1.383
  10 str  11  10   1.396
  11 str  12  11   1.394
  12 str  13  12   1.469
  13 str  14  13   1.394
  14 str  15  14   1.397
  15 str  16  15   1.382
  16 str  17  16   1.486
  17 str  18  17   1.218
  18 str  19  17   1.401
  19 str  20  19   1.498
  20 str  21  20   1.532
  21 str  22  20   1.532
  22 str  23  19   1.408
  23 str  24  23   1.218
  24 str  25  23   1.485
  25 str  26  25   1.382
  26 str  27  26   1.397
  27 str  28  27   1.394
  28 str  29  28   1.469
  29 str  30  29   1.394
  30 str  31  30   1.396
  31 str  32  31   1.382
  32 str  33   6   1.413
  33 str  33  32   1.483
  34 str  34  33   1.216
  35 str  35   9   1.411
  36 str  35  32   1.411
  37 str  36  12   1.429
  38 str  36  29   1.429
  39 str  36  35   1.427
  40 str  37  13   1.429
  41 str  37  28   1.429
  42 str  38  16   1.412
  43 str  38  25   1.412
  44 str  38  37   1.427
  45 str  39   1   1.096
  46 str  40   1   1.096
  47 str  41   1   1.093
  48 str  42   2   1.089
  49 str  43   3   1.089
  50 str  44   4   1.079
  51 str  45   5   1.080
  52 str  46  10   1.082
  53 str  47  11   1.081
  54 str  48  14   1.081
  55 str  49  15   1.083
  56 str  50  20   1.088
  57 str  51  21   1.089
  58 str  52  21   1.093
  59 str  53  21   1.093
  60 str  54  22   1.089
  61 str  55  22   1.093
  62 str  56  22   1.093
  63 str  57  26   1.083
  64 str  58  27   1.081
  65 str  59  30   1.081
  66 str  60  31   1.082
 nber stretches=          66
  67 ben   1   2   3
  68 prop tor   1   2   3   4
  69 prop tor   1   2   3  43
  70 ben   1   2  42
  71 ben   2   1  39
  72 ben   2   1  40
  73 ben   2   1  41
  74 ben   2   3   4
  75 prop tor   2   3   4   5
  76 prop tor   2   3   4  44
  77 ben   2   3  43
  78 ben   3   2  42
  79 ben   3   4   5
  80 prop tor   3   4   5   6
  81 prop tor   3   4   5  45
  82 ben   3   4  44
  83 ben   4   3  43
  84 ben   4   5   6
  85 prop tor   4   5   6   7
  86 prop tor   4   5   6  33
  87 ben   4   5  45
  88 ben   5   4  44
  89 ben   5   6   7
  90 prop tor   5   6   7   8
  91 prop tor   5   6   7   9
  92 ben   5   6  33
  93 prop tor   5   6  33  32
  94 prop tor   5   6  33  34
  95 ben   6   5  45
  96 ben   6   7   8
  97 ben   6   7   9
  98 prop tor   6   7   9  10
  99 prop tor   6   7   9  35
 100 ben   6  33  32
 101 ben   6  33  34
 102 ben   7   6  33
 103 prop tor   7   6  33  32
 104 prop tor   7   6  33  34
 105 ben   7   9  10
 106 prop tor   7   9  10  11
 107 prop tor   7   9  10  46
 108 ben   7   9  35
 109 prop tor   7   9  35  32
 110 prop tor   7   9  35  36
 111 ben   8   7   9
 112 prop tor   8   7   9  10
 113 prop tor   8   7   9  35
 114 ben   9  10  11
 115 prop tor   9  10  11  12
 116 prop tor   9  10  11  47
 117 ben   9  10  46
 118 ben   9  35  32
 119 ben   9  35  36
 120 prop tor   9  35  36  12
 121 prop tor   9  35  36  29
 122 ben  10   9  35
 123 prop tor  10   9  35  32
 124 prop tor  10   9  35  36
 125 ben  10  11  12
 126 prop tor  10  11  12  13
 127 prop tor  10  11  12  36
 128 ben  10  11  47
 129 ben  11  10  46
 130 ben  11  12  13
 131 prop tor  11  12  13  14
 132 prop tor  11  12  13  37
 133 ben  11  12  36
 134 prop tor  11  12  36  29
 135 prop tor  11  12  36  35
 136 ben  12  11  47
 137 ben  12  13  14
 138 prop tor  12  13  14  15
 139 prop tor  12  13  14  48
 140 ben  12  13  37
 141 prop tor  12  13  37  28
 142 prop tor  12  13  37  38
 143 ben  12  36  29
 144 ben  12  36  35
 145 ben  13  12  36
 146 prop tor  13  12  36  29
 147 prop tor  13  12  36  35
 148 ben  13  14  15
 149 prop tor  13  14  15  16
 150 prop tor  13  14  15  49
 151 ben  13  14  48
 152 ben  13  37  28
 153 ben  13  37  38
 154 prop tor  13  37  38  16
 155 prop tor  13  37  38  25
 156 ben  14  13  37
 157 prop tor  14  13  37  28
 158 prop tor  14  13  37  38
 159 ben  14  15  16
 160 prop tor  14  15  16  17
 161 prop tor  14  15  16  38
 162 ben  14  15  49
 163 ben  15  14  48
 164 ben  15  16  17
 165 prop tor  15  16  17  18
 166 prop tor  15  16  17  19
 167 ben  15  16  38
 168 prop tor  15  16  38  25
 169 prop tor  15  16  38  37
 170 ben  16  15  49
 171 ben  16  17  18
 172 ben  16  17  19
 173 prop tor  16  17  19  20
 174 prop tor  16  17  19  23
 175 ben  16  38  25
 176 ben  16  38  37
 177 ben  17  16  38
 178 prop tor  17  16  38  25
 179 prop tor  17  16  38  37
 180 ben  17  19  20
 181 prop tor  17  19  20  21
 182 prop tor  17  19  20  22
 183 prop tor  17  19  20  50
 184 ben  17  19  23
 185 prop tor  17  19  23  24
 186 prop tor  17  19  23  25
 187 ben  18  17  19
 188 prop tor  18  17  19  20
 189 prop tor  18  17  19  23
 190 ben  19  20  21
 191 prop tor  19  20  21  51
 192 prop tor  19  20  21  52
 193 prop tor  19  20  21  53
 194 ben  19  20  22
 195 prop tor  19  20  22  54
 196 prop tor  19  20  22  55
 197 prop tor  19  20  22  56
 198 ben  19  20  50
 199 ben  19  23  24
 200 ben  19  23  25
 201 prop tor  19  23  25  26
 202 prop tor  19  23  25  38
 203 ben  20  19  23
 204 prop tor  20  19  23  24
 205 prop tor  20  19  23  25
 206 ben  20  21  51
 207 ben  20  21  52
 208 ben  20  21  53
 209 ben  20  22  54
 210 ben  20  22  55
 211 ben  20  22  56
 212 ben  21  20  22
 213 prop tor  21  20  22  54
 214 prop tor  21  20  22  55
 215 prop tor  21  20  22  56
 216 ben  21  20  50
 217 prop tor  22  20  21  51
 218 prop tor  22  20  21  52
 219 prop tor  22  20  21  53
 220 ben  22  20  50
 221 prop tor  23  19  20  21
 222 prop tor  23  19  20  22
 223 prop tor  23  19  20  50
 224 ben  23  25  26
 225 prop tor  23  25  26  27
 226 prop tor  23  25  26  57
 227 ben  23  25  38
 228 prop tor  23  25  38  16
 229 prop tor  23  25  38  37
 230 ben  24  23  25
 231 prop tor  24  23  25  26
 232 prop tor  24  23  25  38
 233 ben  25  26  27
 234 prop tor  25  26  27  28
 235 prop tor  25  26  27  58
 236 ben  25  26  57
 237 ben  25  38  37
 238 ben  26  25  38
 239 prop tor  26  25  38  16
 240 prop tor  26  25  38  37
 241 ben  26  27  28
 242 prop tor  26  27  28  29
 243 prop tor  26  27  28  37
 244 ben  26  27  58
 245 ben  27  26  57
 246 ben  27  28  29
 247 prop tor  27  28  29  30
 248 prop tor  27  28  29  36
 249 ben  27  28  37
 250 prop tor  27  28  37  13
 251 prop tor  27  28  37  38
 252 ben  28  27  58
 253 ben  28  29  30
 254 prop tor  28  29  30  31
 255 prop tor  28  29  30  59
 256 ben  28  29  36
 257 prop tor  28  29  36  12
 258 prop tor  28  29  36  35
 259 ben  28  37  38
 260 prop tor  28  37  38  16
 261 prop tor  28  37  38  25
 262 ben  29  28  37
 263 prop tor  29  28  37  13
 264 prop tor  29  28  37  38
 265 ben  29  30  31
 266 prop tor  29  30  31  32
 267 prop tor  29  30  31  60
 268 ben  29  30  59
 269 ben  29  36  35
 270 ben  30  29  36
 271 prop tor  30  29  36  12
 272 prop tor  30  29  36  35
 273 ben  30  31  32
 274 prop tor  30  31  32  33
 275 prop tor  30  31  32  35
 276 ben  30  31  60
 277 ben  31  30  59
 278 ben  31  32  33
 279 prop tor  31  32  33   6
 280 prop tor  31  32  33  34
 281 ben  31  32  35
 282 prop tor  31  32  35   9
 283 prop tor  31  32  35  36
 284 ben  32  31  60
 285 ben  32  33  34
 286 ben  32  35  36
 287 prop tor  32  35  36  12
 288 prop tor  32  35  36  29
 289 prop tor  33   6   7   8
 290 prop tor  33   6   7   9
 291 ben  33  32  35
 292 prop tor  33  32  35   9
 293 prop tor  33  32  35  36
 294 prop tor  35   9  10  11
 295 prop tor  35   9  10  46
 296 prop tor  35  32  33   6
 297 prop tor  35  32  33  34
 298 prop tor  36  12  13  14
 299 prop tor  36  12  13  37
 300 prop tor  36  29  30  31
 301 prop tor  36  29  30  59
 302 prop tor  37  13  14  15
 303 prop tor  37  13  14  48
 304 prop tor  37  28  29  30
 305 prop tor  37  28  29  36
 306 prop tor  38  16  17  18
 307 prop tor  38  16  17  19
 308 prop tor  38  25  26  27
 309 prop tor  38  25  26  57
 310 prop tor  39   1   2   3
 311 prop tor  39   1   2  42
 312 ben  39   1  40
 313 ben  39   1  41
 314 prop tor  40   1   2   3
 315 prop tor  40   1   2  42
 316 ben  40   1  41
 317 prop tor  41   1   2   3
 318 prop tor  41   1   2  42
 319 prop tor  42   2   3   4
 320 prop tor  42   2   3  43
 321 prop tor  43   3   4   5
 322 prop tor  43   3   4  44
 323 prop tor  44   4   5   6
 324 prop tor  44   4   5  45
 325 prop tor  45   5   6   7
 326 prop tor  45   5   6  33
 327 prop tor  46  10  11  12
 328 prop tor  46  10  11  47
 329 prop tor  47  11  12  13
 330 prop tor  47  11  12  36
 331 prop tor  48  14  15  16
 332 prop tor  48  14  15  49
 333 prop tor  49  15  16  17
 334 prop tor  49  15  16  38
 335 prop tor  50  20  21  51
 336 prop tor  50  20  21  52
 337 prop tor  50  20  21  53
 338 prop tor  50  20  22  54
 339 prop tor  50  20  22  55
 340 prop tor  50  20  22  56
 341 ben  51  21  52
 342 ben  51  21  53
 343 ben  52  21  53
 344 ben  54  22  55
 345 ben  54  22  56
 346 ben  55  22  56
 347 prop tor  57  26  27  28
 348 prop tor  57  26  27  58
 349 prop tor  58  27  28  29
 350 prop tor  58  27  28  37
 351 prop tor  59  30  31  32
 352 prop tor  59  30  31  60
 353 prop tor  60  31  32  33
 354 prop tor  60  31  32  35
 nber bend=             114
 nber lin bend=           0
 nber prop tor=         174
 nber impr tor=           0
 nber tot redund int=         354
 Reading file: 
 ./PDI_5_C0S1.log                                                               
                                          
  Entering Gaussian System, Link 0=g16                                          
  
 Gaussian format, type: g94, g98, g03= F F F
  #P Geom=AllCheck Guess=TCheck SCRF=Check GenChk RB3LYP TD(FC,Read)/6-3    
 energy type= TD      
 Original G94 input coords:
  6  0.670356  0.596198  0.295343
  6  2.112125  0.643662 -0.041762
  6  3.125284  0.859647  0.861088
  6  4.486844  0.897210  0.498132
  6  5.437162  1.122430  1.488403
  7  6.784903  1.204964  1.412360
  6  7.456645  1.461139  2.728515
  8  6.748819  1.568163  3.706732
  6  8.885907  1.551683  2.678620
  6  9.577382  1.790727  3.883629
  6 10.942860  1.887724  3.904299
  6 11.716282  1.752876  2.721255
  6 13.157890  1.854514  2.740156
  6 13.884682  2.092401  3.928636
  6 15.264027  2.187112  3.933558
  6 15.991624  2.049640  2.751642
  6 17.459683  2.155835  2.793160
  8 18.064186  2.361081  3.838221
  7 18.147067  2.011620  1.577515
  6 19.637210  2.111879  1.568231
  6 20.117612  3.507964  1.979828
  6 20.289580  0.983386  2.374497
  6 17.518071  1.772452  0.337698
  8 18.170536  1.655020 -0.690708
  6 16.049100  1.672548  0.341681
  6 15.379204  1.436862 -0.858309
  6 14.000052  1.337545 -0.888430
  6 13.218624  1.468960  0.280563
  6 11.773940  1.366696  0.262008
  6 11.059868  1.127050 -0.938563
  6  9.692201  1.030780 -0.951058
  6  8.947490  1.167561  0.234302
  6  7.509610  1.054072  0.145747
  8  6.876804  0.849307 -0.869298
  6  9.603158  1.407972  1.463512
  6 11.043720  1.510122  1.482494
  6 13.882923  1.710603  1.518799
  6 15.312688  1.811328  1.537561
  1  0.240830 -0.368584 -0.001737
  1  0.119657  1.352552 -0.277549
  1  0.483019  0.753301  1.357947
  1  2.384440  0.495824 -1.083577
  1  2.864578  1.008878  1.906482
  1  4.786549  0.754002 -0.527661
  1  5.094817  1.261356  2.509553
  1  9.000467  1.895696  4.793545
  1 11.432093  2.071417  4.849292
  1 13.363766  2.205767  4.868684
  1 15.808435  2.369435  4.851370
  1 19.887260  1.965060  0.519751
  1 19.906310  3.711370  3.028753
  1 19.638853  4.275591  1.366096
  1 21.197342  3.576843  1.818585
  1 20.085012  1.082135  3.439718
  1 21.372065  1.012352  2.219834
  1 19.929558  0.009288  2.032946
  1 15.966631  1.334175 -1.761762
  1 13.524034  1.154164 -1.841148
  1 11.593205  1.015832 -1.870871
  1  9.158349  0.847351 -1.874593
 nber atoms=          60
  Total Energy, E(TD-HF/TD-DFT) =  -1643.51872049                               
  
          32          49 "  -1643.51872049"
After scan for Atom:   Atom  AN      X      Y      Z        X      Y      Z        X      Y      Z   
After scan for Atom:   Atom  AN      X      Y      Z        X      Y      Z        X      Y      Z   
After scan for Atom:   Atom  AN      X      Y      Z        X      Y      Z        X      Y      Z   
After scan for Atom:   Atom  AN      X      Y      Z        X      Y      Z        X      Y      Z   
After scan for Atom:   Atom  AN      X      Y      Z        X      Y      Z        X      Y      Z   
After scan for Atom:   Atom  AN      X      Y      Z        X      Y      Z        X      Y      Z   
After scan for Atom:   Atom  AN      X      Y      Z        X      Y      Z        X      Y      Z   
After scan for Atom:   Atom  AN      X      Y      Z        X      Y      Z        X      Y      Z   
After scan for Atom:   Atom  AN      X      Y      Z        X      Y      Z        X      Y      Z   
After scan for Atom:   Atom  AN      X      Y      Z        X      Y      Z        X      Y      Z   
After scan for Atom:   Atom  AN      X      Y      Z        X      Y      Z        X      Y      Z   
After scan for Atom:   Atom  AN      X      Y      Z        X      Y      Z        X      Y      Z   
After scan for Atom:   Atom  AN      X      Y      Z        X      Y      Z        X      Y      Z   
After scan for Atom:   Atom  AN      X      Y      Z        X      Y      Z        X      Y      Z   
After scan for Atom:   Atom  AN      X      Y      Z        X      Y      Z        X      Y      Z   
After scan for Atom:   Atom  AN      X      Y      Z        X      Y      Z        X      Y      Z   
After scan for Atom:   Atom  AN      X      Y      Z        X      Y      Z        X      Y      Z   
After scan for Atom:   Atom  AN      X      Y      Z        X      Y      Z        X      Y      Z   
After scan for Atom:   Atom  AN      X      Y      Z        X      Y      Z        X      Y      Z   
After scan for Atom:   Atom  AN      X      Y      Z        X      Y      Z        X      Y      Z   
After scan for Atom:   Atom  AN      X      Y      Z        X      Y      Z        X      Y      Z   
After scan for Atom:   Atom  AN      X      Y      Z        X      Y      Z        X      Y      Z   
After scan for Atom:   Atom  AN      X      Y      Z        X      Y      Z        X      Y      Z   
After scan for Atom:   Atom  AN      X      Y      Z        X      Y      Z        X      Y      Z   
After scan for Atom:   Atom  AN      X      Y      Z        X      Y      Z        X      Y      Z   
After scan for Atom:   Atom  AN      X      Y      Z        X      Y      Z        X      Y      Z   
After scan for Atom:   Atom  AN      X      Y      Z        X      Y      Z        X      Y      Z   
After scan for Atom:   Atom  AN      X      Y      Z        X      Y      Z        X      Y      Z   
After scan for Atom:   Atom  AN      X      Y      Z        X      Y      Z        X      Y      Z   
After scan for Atom:   Atom  AN      X      Y      Z        X      Y      Z        X      Y      Z   
After scan for Atom:   Atom  AN      X      Y      Z        X      Y      Z        X      Y      Z   
After scan for Atom:   Atom  AN      X      Y      Z        X      Y      Z        X      Y      Z   
After scan for Atom:   Atom  AN      X      Y      Z        X      Y      Z        X      Y      Z   
After scan for Atom:   Atom  AN      X      Y      Z        X      Y      Z        X      Y      Z   
After scan for Atom:   Atom  AN      X      Y      Z        X      Y      Z        X      Y      Z   
After scan for Atom:   Atom  AN      X      Y      Z        X      Y      Z        X      Y      Z   
After scan for Atom:   Atom  AN      X      Y      Z        X      Y      Z        X      Y      Z   
After scan for Atom:   Atom  AN      X      Y      Z        X      Y      Z        X      Y      Z   
After scan for Atom:   Atom  AN      X      Y      Z        X      Y      Z        X      Y      Z   
After scan for Atom:   Atom  AN      X      Y      Z        X      Y      Z        X      Y      Z   
After scan for Atom:   Atom  AN      X      Y      Z        X      Y      Z        X      Y      Z   
After scan for Atom:   Atom  AN      X      Y      Z        X      Y      Z        X      Y      Z   
After scan for Atom:   Atom  AN      X      Y      Z        X      Y      Z        X      Y      Z   
After scan for Atom:   Atom  AN      X      Y      Z        X      Y      Z        X      Y      Z   
After scan for Atom:   Atom  AN      X      Y      Z        X      Y      Z        X      Y      Z   
After scan for Atom:   Atom  AN      X      Y      Z        X      Y      Z        X      Y      Z   
After scan for Atom:   Atom  AN      X      Y      Z        X      Y      Z        X      Y      Z   
After scan for Atom:   Atom  AN      X      Y      Z        X      Y      Z        X      Y      Z   
After scan for Atom:   Atom  AN      X      Y      Z        X      Y      Z        X      Y      Z   
After scan for Atom:   Atom  AN      X      Y      Z        X      Y      Z        X      Y      Z   
After scan for Atom:   Atom  AN      X      Y      Z        X      Y      Z        X      Y      Z   
After scan for Atom:   Atom  AN      X      Y      Z        X      Y      Z        X      Y      Z   
After scan for Atom:   Atom  AN      X      Y      Z        X      Y      Z        X      Y      Z   
After scan for Atom:   Atom  AN      X      Y      Z        X      Y      Z        X      Y      Z   
After scan for Atom:   Atom  AN      X      Y      Z        X      Y      Z        X      Y      Z   
After scan for Atom:   Atom  AN      X      Y      Z        X      Y      Z        X      Y      Z   
After scan for Atom:   Atom  AN      X      Y      Z        X      Y      Z        X      Y      Z   
After scan for Atom:   Atom  AN      X      Y      Z        X      Y      Z        X      Y      Z   
 g94    frequencies=
     0.0    0.0    0.0    0.0    0.0    0.0   11.1   22.9   29.0   49.7
    54.3   58.2   73.5   76.6   88.0   96.4  102.7  110.9  161.0  164.5
   168.9  178.4  189.2  194.6  212.2  228.2  235.0  238.6  241.0  256.9
   263.0  283.0  295.2  297.7  310.9  339.9  362.9  390.2  394.5  402.5
   414.7  417.7  435.2  442.5  451.3  453.2  453.9  471.8  493.3  499.4
   500.9  514.3  516.3  538.0  553.3  578.9  581.9  590.5  623.4  625.5
   641.9  662.5  668.8  711.5  715.9  729.0  747.6  757.5  766.7  772.7
   786.7  801.3  807.6  816.6  818.4  822.8  826.8  830.9  834.5  846.4
   853.0  897.0  914.8  916.6  929.1  940.0  944.1  955.9  962.9  974.5
   977.8  980.1  987.2  989.0  990.3 1035.3 1041.8 1049.7 1070.2 1094.5
  1120.1 1134.4 1149.7 1155.3 1166.3 1174.8 1190.6 1201.6 1216.7 1227.9
  1231.6 1236.5 1249.9 1259.2 1279.1 1290.3 1297.6 1303.5 1311.8 1327.7
  1337.2 1360.2 1363.0 1371.4 1372.0 1384.0 1392.4 1393.7 1398.1 1398.2
  1401.2 1412.5 1427.3 1440.4 1461.6 1462.7 1474.8 1481.8 1483.6 1484.3
  1485.7 1496.6 1506.5 1523.6 1546.9 1556.1 1568.5 1576.0 1589.0 1610.2
  1616.4 1620.7 1634.5 1670.7 1686.2 1723.2 1801.3 1824.1 3007.8 3030.5
  3035.0 3044.8 3087.8 3090.9 3110.0 3118.4 3131.9 3141.7 3142.1 3159.3
  3166.8 3194.1 3194.6 3199.5 3200.4 3209.6 3210.1 3226.1 3226.4 3251.3
 g94    symmetries=
                                                 A      A      A      A
       A      A      A      A      A      A      A      A      A      A
       A      A      A      A      A      A      A      A      A      A
       A      A      A      A      A      A      A      A      A      A
       A      A      A      A      A      A      A      A      A      A
       A      A      A      A      A      A      A      A      A      A
       A      A      A      A      A      A      A      A      A      A
       A      A      A      A      A      A      A      A      A      A
       A      A      A      A      A      A      A      A      A      A
       A      A      A      A      A      A      A      A      A      A
       A      A      A      A      A      A      A      A      A      A
       A      A      A      A      A      A      A      A      A      A
       A      A      A      A      A      A      A      A      A      A
       A      A      A      A      A      A      A      A      A      A
       A      A      A      A      A      A      A      A      A      A
       A      A      A      A      A      A      A      A      A      A
       A      A      A      A      A      A      A      A      A      A
       A      A      A      A      A      A      A      A      A      A
 atomic masses:
 12.0000 12.0000 12.0000 12.0000 12.0000 14.0031 12.0000 15.9949 12.0000 12.0000
 12.0000 12.0000 12.0000 12.0000 12.0000 12.0000 12.0000 15.9949 14.0031 12.0000
 12.0000 12.0000 12.0000 15.9949 12.0000 12.0000 12.0000 12.0000 12.0000 12.0000
 12.0000 12.0000 12.0000 15.9949 12.0000 12.0000 12.0000 12.0000  1.0078  1.0078
  1.0078  1.0078  1.0078  1.0078  1.0078  1.0078  1.0078  1.0078  1.0078  1.0078
  1.0078  1.0078  1.0078  1.0078  1.0078  1.0078  1.0078  1.0078  1.0078  1.0078
 looking for force constants in 
 ./PDI_5_C0S1.fchk                                                              
  
 Cartesian Force Constants                  R   N=       16290                  
  
 n3=         180       16290
 g94-fc frequencies=
    -0.9   -0.0    0.0    0.0    1.6    4.2   11.2   22.9   29.0   49.7
    54.3   58.2   73.5   76.6   88.0   96.4  102.7  110.9  161.1  164.5
   168.9  178.4  189.2  194.6  212.2  228.2  235.0  238.6  241.0  256.9
   263.0  283.0  295.2  297.7  310.9  339.9  362.9  390.2  394.5  402.5
   414.7  417.7  435.2  442.5  451.4  453.2  453.9  471.8  493.3  499.4
   500.9  514.3  516.3  538.0  553.4  579.0  581.9  590.5  623.4  625.5
   641.9  662.5  668.9  711.6  715.9  729.0  747.6  757.5  766.7  772.7
   786.7  801.3  807.6  816.6  818.4  822.8  826.9  831.0  834.5  846.5
   853.1  897.0  914.8  916.6  929.2  940.0  944.1  955.9  962.9  974.5
   977.8  980.1  987.2  989.0  990.3 1035.3 1041.8 1049.7 1070.2 1094.5
  1120.2 1134.4 1149.7 1155.3 1166.3 1174.9 1190.6 1201.6 1216.7 1227.9
  1231.6 1236.5 1249.9 1259.3 1279.1 1290.3 1297.7 1303.5 1311.9 1327.7
  1337.2 1360.2 1363.0 1371.4 1372.1 1384.0 1392.5 1393.7 1398.1 1398.3
  1401.2 1412.5 1427.4 1440.4 1461.7 1462.7 1474.8 1481.8 1483.7 1484.3
  1485.8 1496.6 1506.5 1523.6 1547.0 1556.2 1568.5 1576.0 1589.1 1610.2
  1616.5 1620.8 1634.6 1670.8 1686.3 1723.2 1801.4 1824.1 3007.9 3030.5
  3035.0 3044.8 3087.8 3091.0 3110.0 3118.5 3132.0 3141.8 3142.1 3159.3
  3166.9 3194.1 3194.7 3199.5 3200.4 3209.7 3210.1 3226.2 3226.5 3251.4
 at 99999: n3=         180
 symm operator            1 :  F  nop=           0
 symm operator            2 :  F  nop=           0
 symm operator            3 :  F  nop=           0
 symm operator            4 :  F  nop=           0
 symm operator            5 :  F  nop=           0
 symm operator            6 :  F  nop=           0
 symm operator            7 :  F  nop=           0
 The point group of the molecule is  C1
 Symmetry rotation matrix:
   1.00000   0.00000   0.00000
   0.00000   1.00000   0.00000
   0.00000   0.00000   1.00000

 Projecting out zero-frequency components
 generating redundant internal coords
         300        3600          60
 search for int coords
   1 str   2   1   1.481
   2 str   3   2   1.374
   3 str   4   3   1.410
   4 str   5   4   1.391
   5 str   6   5   1.352
   6 str   7   6   1.500
   7 str   8   7   1.212
   8 str   9   7   1.433
   9 str  10   9   1.410
  10 str  11  10   1.369
  11 str  12  11   1.420
  12 str  13  12   1.445
  13 str  14  13   1.413
  14 str  15  14   1.383
  15 str  16  15   1.395
  16 str  17  16   1.472
  17 str  18  17   1.225
  18 str  19  17   1.404
  19 str  20  19   1.494
  20 str  21  20   1.533
  21 str  22  20   1.533
  22 str  23  19   1.411
  23 str  24  23   1.224
  24 str  25  23   1.472
  25 str  26  25   1.394
  26 str  27  26   1.383
  27 str  28  27   1.412
  28 str  29  28   1.448
  29 str  30  29   1.417
  30 str  31  30   1.371
  31 str  32  31   1.407
  32 str  33   6   1.467
  33 str  33  32   1.445
  34 str  34  33   1.214
  35 str  35   9   1.418
  36 str  35  32   1.414
  37 str  36  12   1.430
  38 str  36  29   1.429
  39 str  36  35   1.444
  40 str  37  13   1.428
  41 str  37  28   1.426
  42 str  38  16   1.411
  43 str  38  25   1.411
  44 str  38  37   1.433
  45 str  39   1   1.097
  46 str  40   1   1.097
  47 str  41   1   1.090
  48 str  42   2   1.087
  49 str  43   3   1.088
  50 str  44   4   1.078
  51 str  45   5   1.086
  52 str  46  10   1.082
  53 str  47  11   1.080
  54 str  48  14   1.081
  55 str  49  15   1.083
  56 str  50  20   1.088
  57 str  51  21   1.089
  58 str  52  21   1.093
  59 str  53  21   1.094
  60 str  54  22   1.089
  61 str  55  22   1.094
  62 str  56  22   1.093
  63 str  57  26   1.083
  64 str  58  27   1.081
  65 str  59  30   1.080
  66 str  60  31   1.082
 nber stretches=          66
  67 ben   1   2   3
  68 prop tor   1   2   3   4
  69 prop tor   1   2   3  43
  70 ben   1   2  42
  71 ben   2   1  39
  72 ben   2   1  40
  73 ben   2   1  41
  74 ben   2   3   4
  75 prop tor   2   3   4   5
  76 prop tor   2   3   4  44
  77 ben   2   3  43
  78 ben   3   2  42
  79 ben   3   4   5
  80 prop tor   3   4   5   6
  81 prop tor   3   4   5  45
  82 ben   3   4  44
  83 ben   4   3  43
  84 ben   4   5   6
  85 prop tor   4   5   6   7
  86 prop tor   4   5   6  33
  87 ben   4   5  45
  88 ben   5   4  44
  89 ben   5   6   7
  90 prop tor   5   6   7   8
  91 prop tor   5   6   7   9
  92 ben   5   6  33
  93 prop tor   5   6  33  32
  94 prop tor   5   6  33  34
  95 ben   6   5  45
  96 ben   6   7   8
  97 ben   6   7   9
  98 prop tor   6   7   9  10
  99 prop tor   6   7   9  35
 100 ben   6  33  32
 101 ben   6  33  34
 102 ben   7   6  33
 103 prop tor   7   6  33  32
 104 prop tor   7   6  33  34
 105 ben   7   9  10
 106 prop tor   7   9  10  11
 107 prop tor   7   9  10  46
 108 ben   7   9  35
 109 prop tor   7   9  35  32
 110 prop tor   7   9  35  36
 111 ben   8   7   9
 112 prop tor   8   7   9  10
 113 prop tor   8   7   9  35
 114 ben   9  10  11
 115 prop tor   9  10  11  12
 116 prop tor   9  10  11  47
 117 ben   9  10  46
 118 ben   9  35  32
 119 ben   9  35  36
 120 prop tor   9  35  36  12
 121 prop tor   9  35  36  29
 122 ben  10   9  35
 123 prop tor  10   9  35  32
 124 prop tor  10   9  35  36
 125 ben  10  11  12
 126 prop tor  10  11  12  13
 127 prop tor  10  11  12  36
 128 ben  10  11  47
 129 ben  11  10  46
 130 ben  11  12  13
 131 prop tor  11  12  13  14
 132 prop tor  11  12  13  37
 133 ben  11  12  36
 134 prop tor  11  12  36  29
 135 prop tor  11  12  36  35
 136 ben  12  11  47
 137 ben  12  13  14
 138 prop tor  12  13  14  15
 139 prop tor  12  13  14  48
 140 ben  12  13  37
 141 prop tor  12  13  37  28
 142 prop tor  12  13  37  38
 143 ben  12  36  29
 144 ben  12  36  35
 145 ben  13  12  36
 146 prop tor  13  12  36  29
 147 prop tor  13  12  36  35
 148 ben  13  14  15
 149 prop tor  13  14  15  16
 150 prop tor  13  14  15  49
 151 ben  13  14  48
 152 ben  13  37  28
 153 ben  13  37  38
 154 prop tor  13  37  38  16
 155 prop tor  13  37  38  25
 156 ben  14  13  37
 157 prop tor  14  13  37  28
 158 prop tor  14  13  37  38
 159 ben  14  15  16
 160 prop tor  14  15  16  17
 161 prop tor  14  15  16  38
 162 ben  14  15  49
 163 ben  15  14  48
 164 ben  15  16  17
 165 prop tor  15  16  17  18
 166 prop tor  15  16  17  19
 167 ben  15  16  38
 168 prop tor  15  16  38  25
 169 prop tor  15  16  38  37
 170 ben  16  15  49
 171 ben  16  17  18
 172 ben  16  17  19
 173 prop tor  16  17  19  20
 174 prop tor  16  17  19  23
 175 ben  16  38  25
 176 ben  16  38  37
 177 ben  17  16  38
 178 prop tor  17  16  38  25
 179 prop tor  17  16  38  37
 180 ben  17  19  20
 181 prop tor  17  19  20  21
 182 prop tor  17  19  20  22
 183 prop tor  17  19  20  50
 184 ben  17  19  23
 185 prop tor  17  19  23  24
 186 prop tor  17  19  23  25
 187 ben  18  17  19
 188 prop tor  18  17  19  20
 189 prop tor  18  17  19  23
 190 ben  19  20  21
 191 prop tor  19  20  21  51
 192 prop tor  19  20  21  52
 193 prop tor  19  20  21  53
 194 ben  19  20  22
 195 prop tor  19  20  22  54
 196 prop tor  19  20  22  55
 197 prop tor  19  20  22  56
 198 ben  19  20  50
 199 ben  19  23  24
 200 ben  19  23  25
 201 prop tor  19  23  25  26
 202 prop tor  19  23  25  38
 203 ben  20  19  23
 204 prop tor  20  19  23  24
 205 prop tor  20  19  23  25
 206 ben  20  21  51
 207 ben  20  21  52
 208 ben  20  21  53
 209 ben  20  22  54
 210 ben  20  22  55
 211 ben  20  22  56
 212 ben  21  20  22
 213 prop tor  21  20  22  54
 214 prop tor  21  20  22  55
 215 prop tor  21  20  22  56
 216 ben  21  20  50
 217 prop tor  22  20  21  51
 218 prop tor  22  20  21  52
 219 prop tor  22  20  21  53
 220 ben  22  20  50
 221 prop tor  23  19  20  21
 222 prop tor  23  19  20  22
 223 prop tor  23  19  20  50
 224 ben  23  25  26
 225 prop tor  23  25  26  27
 226 prop tor  23  25  26  57
 227 ben  23  25  38
 228 prop tor  23  25  38  16
 229 prop tor  23  25  38  37
 230 ben  24  23  25
 231 prop tor  24  23  25  26
 232 prop tor  24  23  25  38
 233 ben  25  26  27
 234 prop tor  25  26  27  28
 235 prop tor  25  26  27  58
 236 ben  25  26  57
 237 ben  25  38  37
 238 ben  26  25  38
 239 prop tor  26  25  38  16
 240 prop tor  26  25  38  37
 241 ben  26  27  28
 242 prop tor  26  27  28  29
 243 prop tor  26  27  28  37
 244 ben  26  27  58
 245 ben  27  26  57
 246 ben  27  28  29
 247 prop tor  27  28  29  30
 248 prop tor  27  28  29  36
 249 ben  27  28  37
 250 prop tor  27  28  37  13
 251 prop tor  27  28  37  38
 252 ben  28  27  58
 253 ben  28  29  30
 254 prop tor  28  29  30  31
 255 prop tor  28  29  30  59
 256 ben  28  29  36
 257 prop tor  28  29  36  12
 258 prop tor  28  29  36  35
 259 ben  28  37  38
 260 prop tor  28  37  38  16
 261 prop tor  28  37  38  25
 262 ben  29  28  37
 263 prop tor  29  28  37  13
 264 prop tor  29  28  37  38
 265 ben  29  30  31
 266 prop tor  29  30  31  32
 267 prop tor  29  30  31  60
 268 ben  29  30  59
 269 ben  29  36  35
 270 ben  30  29  36
 271 prop tor  30  29  36  12
 272 prop tor  30  29  36  35
 273 ben  30  31  32
 274 prop tor  30  31  32  33
 275 prop tor  30  31  32  35
 276 ben  30  31  60
 277 ben  31  30  59
 278 ben  31  32  33
 279 prop tor  31  32  33   6
 280 prop tor  31  32  33  34
 281 ben  31  32  35
 282 prop tor  31  32  35   9
 283 prop tor  31  32  35  36
 284 ben  32  31  60
 285 ben  32  33  34
 286 ben  32  35  36
 287 prop tor  32  35  36  12
 288 prop tor  32  35  36  29
 289 prop tor  33   6   7   8
 290 prop tor  33   6   7   9
 291 ben  33  32  35
 292 prop tor  33  32  35   9
 293 prop tor  33  32  35  36
 294 prop tor  35   9  10  11
 295 prop tor  35   9  10  46
 296 prop tor  35  32  33   6
 297 prop tor  35  32  33  34
 298 prop tor  36  12  13  14
 299 prop tor  36  12  13  37
 300 prop tor  36  29  30  31
 301 prop tor  36  29  30  59
 302 prop tor  37  13  14  15
 303 prop tor  37  13  14  48
 304 prop tor  37  28  29  30
 305 prop tor  37  28  29  36
 306 prop tor  38  16  17  18
 307 prop tor  38  16  17  19
 308 prop tor  38  25  26  27
 309 prop tor  38  25  26  57
 310 prop tor  39   1   2   3
 311 prop tor  39   1   2  42
 312 ben  39   1  40
 313 ben  39   1  41
 314 prop tor  40   1   2   3
 315 prop tor  40   1   2  42
 316 ben  40   1  41
 317 prop tor  41   1   2   3
 318 prop tor  41   1   2  42
 319 prop tor  42   2   3   4
 320 prop tor  42   2   3  43
 321 prop tor  43   3   4   5
 322 prop tor  43   3   4  44
 323 prop tor  44   4   5   6
 324 prop tor  44   4   5  45
 325 prop tor  45   5   6   7
 326 prop tor  45   5   6  33
 327 prop tor  46  10  11  12
 328 prop tor  46  10  11  47
 329 prop tor  47  11  12  13
 330 prop tor  47  11  12  36
 331 prop tor  48  14  15  16
 332 prop tor  48  14  15  49
 333 prop tor  49  15  16  17
 334 prop tor  49  15  16  38
 335 prop tor  50  20  21  51
 336 prop tor  50  20  21  52
 337 prop tor  50  20  21  53
 338 prop tor  50  20  22  54
 339 prop tor  50  20  22  55
 340 prop tor  50  20  22  56
 341 ben  51  21  52
 342 ben  51  21  53
 343 ben  52  21  53
 344 ben  54  22  55
 345 ben  54  22  56
 346 ben  55  22  56
 347 prop tor  57  26  27  28
 348 prop tor  57  26  27  58
 349 prop tor  58  27  28  29
 350 prop tor  58  27  28  37
 351 prop tor  59  30  31  32
 352 prop tor  59  30  31  60
 353 prop tor  60  31  32  33
 354 prop tor  60  31  32  35
 nber bend=             114
 nber lin bend=           0
 nber prop tor=         174
 nber impr tor=           0
 nber tot redund int=         354
 Eigenvalues of G in red int coords
    Gval -0.00000000 -0.00000000 -0.00000000 -0.00000000 -0.00000000 -0.00000000 -0.00000000 -0.00000000
    Gval -0.00000000 -0.00000000 -0.00000000 -0.00000000 -0.00000000 -0.00000000 -0.00000000 -0.00000000
    Gval -0.00000000 -0.00000000 -0.00000000 -0.00000000 -0.00000000 -0.00000000 -0.00000000 -0.00000000
    Gval -0.00000000 -0.00000000 -0.00000000 -0.00000000 -0.00000000 -0.00000000 -0.00000000 -0.00000000
    Gval -0.00000000 -0.00000000 -0.00000000 -0.00000000 -0.00000000 -0.00000000 -0.00000000 -0.00000000
    Gval -0.00000000 -0.00000000 -0.00000000 -0.00000000 -0.00000000 -0.00000000 -0.00000000 -0.00000000
    Gval -0.00000000 -0.00000000 -0.00000000 -0.00000000 -0.00000000 -0.00000000 -0.00000000 -0.00000000
    Gval -0.00000000 -0.00000000 -0.00000000 -0.00000000 -0.00000000 -0.00000000 -0.00000000 -0.00000000
    Gval -0.00000000 -0.00000000 -0.00000000 -0.00000000 -0.00000000 -0.00000000 -0.00000000 -0.00000000
    Gval -0.00000000 -0.00000000 -0.00000000 -0.00000000 -0.00000000 -0.00000000 -0.00000000 -0.00000000
    Gval -0.00000000 -0.00000000 -0.00000000 -0.00000000 -0.00000000 -0.00000000 -0.00000000 -0.00000000
    Gval -0.00000000 -0.00000000 -0.00000000 -0.00000000 -0.00000000  0.00000000  0.00000000  0.00000000
    Gval  0.00000000  0.00000000  0.00000000  0.00000000  0.00000000  0.00000000  0.00000000  0.00000000
    Gval  0.00000000  0.00000000  0.00000000  0.00000000  0.00000000  0.00000000  0.00000000  0.00000000
    Gval  0.00000000  0.00000000  0.00000000  0.00000000  0.00000000  0.00000000  0.00000000  0.00000000
    Gval  0.00000000  0.00000000  0.00000000  0.00000000  0.00000000  0.00000000  0.00000000  0.00000000
[...]
 nber times 1st assigned=         136           0
 nber times 1st assigned=         137           0
 nber times 1st assigned=         138           0
 nber times 1st assigned=         139           0
 nber times 1st assigned=         140           0
 nber times 1st assigned=         141           0
 nber times 1st assigned=         142           0
 nber times 1st assigned=         143           0
 nber times 1st assigned=         144           0
 nber times 1st assigned=         145           0
 nber times 1st assigned=         146           0
 nber times 1st assigned=         147           0
 nber times 1st assigned=         148           0
 nber times 1st assigned=         149           0
 nber times 1st assigned=         150           0
 nber times 1st assigned=         151           0
 nber times 1st assigned=         152           0
 nber times 1st assigned=         153           0
 nber times 1st assigned=         154           0
 nber times 1st assigned=         155           0
 nber times 1st assigned=         156           0
 nber times 1st assigned=         157           0
 nber times 1st assigned=         158           0
 nber times 1st assigned=         159           0
 nber times 1st assigned=         160           0
 nber times 1st assigned=         161           0
 nber times 1st assigned=         162           0
 nber times 1st assigned=         163           0
 nber times 1st assigned=         164           0
 nber times 1st assigned=         165           0
 nber times 1st assigned=         166           0
 nber times 1st assigned=         167           0
 nber times 1st assigned=         168           0
 nber times 1st assigned=         169           0
 nber times 1st assigned=         170           0
 nber times 1st assigned=         171           0
 nber times 1st assigned=         172           0
 nber times 1st assigned=         173           0
 nber times 1st assigned=         174           0
 nber times 1st assigned=         175           0
 nber times 1st assigned=         176           0
 nber times 1st assigned=         177           0
 nber times 1st assigned=         178           0
 nber times 1st assigned=         179           0
 nber times 1st assigned=         180           0
 modes represented=   174.283841350277     
 p1=
   -0.   -0.   -0.    0.    0.   -0.    2.    1.   -0.  -21.    0.   -0.    0.    0.    0.   -0.    0.   -5.   -0.   28.
   -0.    0.   -6.   -7.   -0.   -4.    0.   -1.   -0.   -8.   -0.   -0.   -2.   -5.   -0.    0.   -4.   -1.    6.   -1.
    0.   -3.    2.   -1.   -0.   -0.    8.    0.    1.    4.    6.    7.   -0.   -8.    5.    0.   -2.   -0.   -0.   -0.
    1.    0.   -0.    1.   -0.   -2.   -0.    0.    0.   -0.   -0.    0.   -0.   -0.    0.   -0.   -0.   -0.    0.    0.
    0.    0.   -1.    1.   -1.    0.    0.   -0.   -0.   -0.   -0.   -0.    0.   -0.   -0.   -0.   -0.    0.    0.   -0.
   -1.    3.    0.   -0.   -1.    2.   -1.   -1.    0.   -1.    1.   -2.    0.   -1.    0.   -2.    4.   -0.    2.    1.
    0.   -2.   -5.    0.   -3.   -5.    0.    4.   -0.    1.   -1.   -0.    1.    1.   -1.   -0.    0.   -0.   -1.   -0.
   -0.   -0.   -0.    0.    0.    0.    2.    2.   -3.   -1.   -0.   -0.    3.   -4.   -0.   -1.   -1.    0.   -0.    0.
   -0.    0.    0.   -0.    0.   -0.    0.    0.   -0.    0.    0.    0.   -0.   -0.   -0.   -0.    0.    0.    0.    0.
 p2=
    0.   -0.    0.   -0.    0.    0.    2.    2.    0.   21.   -0.   -0.   -0.    0.    0.    0.    0.    5.    0.   28.
    0.   -0.  -10.    0.    0.    4.   -0.   -1.    0.   -0.   -8.    0.   -0.    3.   -4.   -0.    4.    0.   -2.   -1.
   -4.   -0.   -1.    4.    1.    0.  -13.   -0.   -7.    1.   -0.    0.    0.    7.   -2.    0.    1.    0.    0.   -0.
    1.   -0.   -0.   -1.    0.   -1.   -0.    0.   -0.    0.   -0.    0.    0.   -0.    0.    0.   -0.   -0.    0.    0.
   -0.    1.   -0.   -1.   -1.    1.   -0.    0.   -1.   -0.    0.    0.   -0.    0.    0.    0.   -0.   -2.   -1.   -1.
   -2.    3.    0.   -0.    0.   -0.    0.    0.    0.    1.   -3.   -0.    1.   -1.    3.   -0.   -4.    1.    1.    2.
    1.   -2.   -0.    5.    3.    0.   -0.    1.    0.    0.   -1.    0.    0.    1.    1.    0.    0.    1.    1.    0.
   -0.    0.    0.   -0.   -1.    0.    0.   -0.   -0.    1.   -0.   -2.   -1.   -7.    0.    1.    4.    1.   -0.   -0.
   -0.   -0.    0.   -0.   -0.    0.   -0.    0.    0.   -0.    0.    0.   -0.   -0.   -0.    0.   -0.    0.    0.   -0.

 Displacement: in terms of nc of 1 THEN of nc of 2

   1     freq=    -0. Q= -0.000 lam=    -0.0     freq=    -0. Q= -0.000 lam=    -0.0
   2     freq=    -0. Q= -0.000 lam=    -0.0     freq=    -0. Q= -0.000 lam=    -0.0
   3     freq=    -0. Q= -0.000 lam=    -0.0     freq=    -0. Q= -0.000 lam=    -0.0
   4     freq=     0. Q=  0.000 lam=     0.0     freq=     0. Q=  0.000 lam=     0.0
   5     freq=     0. Q=  0.000 lam=     0.0     freq=     0. Q=  0.000 lam=     0.0
   6     freq=     0. Q= -0.000 lam=     0.0     freq=     0. Q= -0.000 lam=     0.0
   7     freq=    14. Q=  0.032 lam=     0.0     freq=    11. Q=  0.025 lam=     0.0
   8     freq=    23. Q=  0.026 lam=     0.0     freq=    23. Q=  0.029 lam=     0.0
   9     freq=    31. Q= -0.009 lam=     0.0     freq=    29. Q= -0.005 lam=     0.0
  10     freq=    49. Q= -0.600 lam=     8.8     freq=    50. Q= -0.610 lam=     9.3
  11     freq=    51. Q=  0.012 lam=     0.0     freq=    54. Q=  0.008 lam=     0.0
  12     freq=    59. Q= -0.009 lam=     0.0     freq=    58. Q= -0.004 lam=     0.0
  13     freq=    60. Q=  0.009 lam=     0.0     freq=    73. Q=  0.014 lam=     0.0
  14     freq=    76. Q=  0.001 lam=     0.0     freq=    77. Q=  0.003 lam=     0.0
  15     freq=    85. Q=  0.001 lam=     0.0     freq=    88. Q=  0.003 lam=     0.0
  16     freq=    91. Q= -0.002 lam=     0.0     freq=    96. Q= -0.015 lam=     0.0
  17     freq=   105. Q=  0.004 lam=     0.0     freq=   103. Q=  0.015 lam=     0.0
  18     freq=   110. Q= -0.198 lam=     2.1     freq=   111. Q= -0.218 lam=     2.6
  19     freq=   158. Q= -0.020 lam=     0.0     freq=   161. Q= -0.018 lam=     0.0
  20     freq=   163. Q=  1.446 lam=   170.7     freq=   164. Q=  1.471 lam=   177.9
  21     freq=   166. Q= -0.012 lam=     0.0     freq=   169. Q= -0.002 lam=     0.0
  22     freq=   181. Q=  0.005 lam=     0.0     freq=   178. Q=  0.007 lam=     0.0
  23     freq=   188. Q= -0.343 lam=    11.1     freq=   189. Q= -0.531 lam=    26.7
  24     freq=   188. Q= -0.385 lam=    13.9     freq=   195. Q= -0.001 lam=     0.0
  25     freq=   211. Q= -0.002 lam=     0.0     freq=   212. Q= -0.002 lam=     0.0
  26     freq=   226. Q= -0.221 lam=     5.5     freq=   228. Q= -0.214 lam=     5.2
  27     freq=   234. Q=  0.006 lam=     0.0     freq=   235. Q=  0.014 lam=     0.0
  28     freq=   238. Q= -0.066 lam=     0.5     freq=   239. Q= -0.093 lam=     1.0
  29     freq=   239. Q= -0.006 lam=     0.0     freq=   241. Q= -0.004 lam=     0.0
  30     freq=   261. Q= -0.545 lam=    38.7     freq=   257. Q= -0.002 lam=     0.0
  31     freq=   271. Q= -0.000 lam=     0.0     freq=   263. Q= -0.528 lam=    36.6
  32     freq=   272. Q= -0.004 lam=     0.0     freq=   283. Q= -0.006 lam=     0.0
  33     freq=   296. Q= -0.156 lam=     3.6     freq=   295. Q= -0.001 lam=     0.0
  34     freq=   309. Q= -0.340 lam=    17.8     freq=   298. Q= -0.198 lam=     5.8
  35     freq=   314. Q= -0.003 lam=     0.0     freq=   311. Q= -0.291 lam=    13.1
  36     freq=   345. Q=  0.000 lam=     0.0     freq=   340. Q=  0.002 lam=     0.0
  37     freq=   363. Q= -0.282 lam=    14.5     freq=   363. Q= -0.274 lam=    13.6
  38     freq=   392. Q= -0.117 lam=     2.7     freq=   390. Q= -0.012 lam=     0.0
  39     freq=   400. Q=  0.447 lam=    40.0     freq=   394. Q=  0.137 lam=     3.7
  40     freq=   408. Q= -0.113 lam=     2.6     freq=   402. Q= -0.084 lam=     1.4
  41     freq=   423. Q=  0.004 lam=     0.0     freq=   415. Q=  0.324 lam=    21.8
  42     freq=   433. Q= -0.269 lam=    15.7     freq=   418. Q= -0.000 lam=     0.0
  43     freq=   439. Q=  0.153 lam=     5.1     freq=   435. Q=  0.066 lam=     1.0
  44     freq=   439. Q= -0.083 lam=     1.5     freq=   442. Q= -0.299 lam=    19.8
  45     freq=   447. Q= -0.001 lam=     0.0     freq=   451. Q= -0.107 lam=     2.6
  46     freq=   447. Q= -0.001 lam=     0.0     freq=   453. Q= -0.018 lam=     0.1
  47     freq=   466. Q=  0.657 lam=   100.5     freq=   454. Q=  1.118 lam=   283.6
  48     freq=   477. Q=  0.002 lam=     0.0     freq=   472. Q=  0.039 lam=     0.4
  49     freq=   481. Q=  0.051 lam=     0.6     freq=   493. Q=  0.639 lam=   100.6
  50     freq=   481. Q=  0.352 lam=    29.9     freq=   499. Q=  0.114 lam=     3.2
  51     freq=   498. Q=  0.563 lam=    79.0     freq=   501. Q=  0.001 lam=     0.0
  52     freq=   515. Q=  0.667 lam=   114.5     freq=   514. Q=  0.002 lam=     0.0
  53     freq=   534. Q= -0.002 lam=     0.0     freq=   516. Q= -0.001 lam=     0.0
  54     freq=   541. Q= -0.717 lam=   139.3     freq=   538. Q= -0.647 lam=   112.6
  55     freq=   557. Q=  0.462 lam=    59.4     freq=   553. Q=  0.166 lam=     7.7
  56     freq=   578. Q=  0.004 lam=     0.0     freq=   579. Q=  0.017 lam=     0.1
  57     freq=   584. Q= -0.171 lam=     8.6     freq=   582. Q= -0.101 lam=     3.0
  58     freq=   593. Q= -0.001 lam=     0.0     freq=   590. Q= -0.001 lam=     0.0
  59     freq=   623. Q= -0.013 lam=     0.0     freq=   623. Q= -0.001 lam=     0.0
  60     freq=   631. Q= -0.000 lam=     0.0     freq=   625. Q= -0.033 lam=     0.4
  61     freq=   645. Q=  0.119 lam=     4.6     freq=   642. Q=  0.119 lam=     4.6
  62     freq=   653. Q=  0.001 lam=     0.0     freq=   663. Q=  0.001 lam=     0.0
  63     freq=   666. Q= -0.001 lam=     0.0     freq=   669. Q= -0.001 lam=     0.0
  64     freq=   716. Q=  0.095 lam=     3.2     freq=   712. Q=  0.084 lam=     2.5
  65     freq=   721. Q= -0.043 lam=     0.7     freq=   716. Q= -0.044 lam=     0.7
  66     freq=   727. Q= -0.244 lam=    21.6     freq=   729. Q= -0.118 lam=     5.1
  67     freq=   739. Q= -0.001 lam=     0.0     freq=   748. Q= -0.001 lam=     0.0
  68     freq=   745. Q=  0.000 lam=     0.0     freq=   758. Q=  0.002 lam=     0.0
  69     freq=   754. Q=  0.001 lam=     0.0     freq=   767. Q=  0.001 lam=     0.0
  70     freq=   767. Q= -0.001 lam=     0.0     freq=   773. Q= -0.001 lam=     0.0
  71     freq=   769. Q= -0.002 lam=     0.0     freq=   787. Q= -0.002 lam=     0.0
  72     freq=   786. Q=  0.001 lam=     0.0     freq=   801. Q=  0.043 lam=     0.8
  73     freq=   804. Q= -0.035 lam=     0.5     freq=   808. Q= -0.050 lam=     1.0
  74     freq=   810. Q= -0.001 lam=     0.0     freq=   817. Q= -0.000 lam=     0.0
  75     freq=   816. Q=  0.053 lam=     1.2     freq=   818. Q=  0.000 lam=     0.0
  76     freq=   825. Q= -0.020 lam=     0.2     freq=   823. Q= -0.010 lam=     0.0
  77     freq=   846. Q= -0.027 lam=     0.3     freq=   827. Q= -0.000 lam=     0.0
  78     freq=   863. Q= -0.000 lam=     0.0     freq=   831. Q= -0.001 lam=     0.0
  79     freq=   864. Q=  0.000 lam=     0.0     freq=   834. Q=  0.001 lam=     0.0
  80     freq=   869. Q=  0.000 lam=     0.0     freq=   846. Q=  0.031 lam=     0.4
  81     freq=   870. Q=  0.001 lam=     0.0     freq=   853. Q=  0.001 lam=     0.0
  82     freq=   900. Q=  0.001 lam=     0.0     freq=   897. Q=  0.092 lam=     3.8
  83     freq=   904. Q= -0.076 lam=     2.6     freq=   915. Q= -0.004 lam=     0.0
  84     freq=   924. Q=  0.103 lam=     4.9     freq=   917. Q=  0.095 lam=     4.1
  85     freq=   939. Q= -0.172 lam=    13.9     freq=   929. Q= -0.131 lam=     8.0
  86     freq=   945. Q=  0.000 lam=     0.0     freq=   940. Q=  0.111 lam=     5.7
  87     freq=   957. Q=  0.000 lam=     0.0     freq=   944. Q=  0.000 lam=     0.0
  88     freq=   959. Q= -0.048 lam=     1.1     freq=   956. Q= -0.001 lam=     0.0
  89     freq=   974. Q= -0.002 lam=     0.0     freq=   963. Q= -0.141 lam=     9.6
  90     freq=   985. Q= -0.008 lam=     0.0     freq=   974. Q= -0.000 lam=     0.0
  91     freq=   992. Q= -0.000 lam=     0.0     freq=   978. Q= -0.000 lam=     0.0
  92     freq=   996. Q= -0.000 lam=     0.0     freq=   980. Q= -0.046 lam=     1.0
  93     freq=  1001. Q=  0.000 lam=     0.0     freq=   987. Q=  0.000 lam=     0.0
  94     freq=  1006. Q= -0.000 lam=     0.0     freq=   989. Q= -0.001 lam=     0.0
  95     freq=  1027. Q= -0.013 lam=     0.1     freq=   990. Q= -0.000 lam=     0.0
  96     freq=  1038. Q= -0.002 lam=     0.0     freq=  1035. Q= -0.003 lam=     0.0
  97     freq=  1063. Q= -0.000 lam=     0.0     freq=  1042. Q= -0.002 lam=     0.0
  98     freq=  1065. Q=  0.005 lam=     0.0     freq=  1050. Q=  0.288 lam=    43.4
  99     freq=  1089. Q=  0.054 lam=     1.6     freq=  1070. Q=  0.093 lam=     4.6
 100     freq=  1101. Q= -0.043 lam=     1.0     freq=  1095. Q= -0.106 lam=     6.2
 101     freq=  1110. Q= -0.088 lam=     4.3     freq=  1120. Q= -0.285 lam=    45.6
 102     freq=  1133. Q=  0.424 lam=   101.8     freq=  1134. Q=  0.456 lam=   117.9
 103     freq=  1155. Q=  0.055 lam=     1.8     freq=  1150. Q=  0.024 lam=     0.3
 104     freq=  1156. Q= -0.000 lam=     0.0     freq=  1155. Q= -0.000 lam=     0.0
 105     freq=  1170. Q= -0.082 lam=     3.9     freq=  1166. Q= -0.065 lam=     2.5
 106     freq=  1183. Q=  0.246 lam=    35.7     freq=  1175. Q=  0.015 lam=     0.1
 107     freq=  1195. Q= -0.077 lam=     3.6     freq=  1191. Q= -0.005 lam=     0.0
 108     freq=  1199. Q= -0.190 lam=    21.6     freq=  1202. Q= -0.008 lam=     0.0
 109     freq=  1208. Q=  0.020 lam=     0.2     freq=  1217. Q=  0.030 lam=     0.5
 110     freq=  1214. Q= -0.074 lam=     3.3     freq=  1228. Q= -0.130 lam=    10.3
 111     freq=  1219. Q=  0.115 lam=     8.0     freq=  1232. Q=  0.433 lam=   115.3
 112     freq=  1236. Q= -0.305 lam=    57.5     freq=  1236. Q= -0.023 lam=     0.3
 113     freq=  1241. Q=  0.018 lam=     0.2     freq=  1250. Q=  0.086 lam=     4.7
 114     freq=  1252. Q= -0.073 lam=     3.3     freq=  1259. Q= -0.188 lam=    22.2
 115     freq=  1269. Q=  0.047 lam=     1.4     freq=  1279. Q=  0.480 lam=   147.1
 116     freq=  1290. Q= -0.233 lam=    34.9     freq=  1290. Q= -0.069 lam=     3.1
 117     freq=  1307. Q=  0.516 lam=   173.9     freq=  1298. Q=  0.609 lam=   240.8
 118     freq=  1317. Q= -0.041 lam=     1.1     freq=  1303. Q= -0.075 lam=     3.7
 119     freq=  1325. Q=  0.269 lam=    47.8     freq=  1312. Q=  0.179 lam=    21.1
 120     freq=  1331. Q=  0.134 lam=    11.9     freq=  1328. Q=  0.336 lam=    75.0
 121     freq=  1337. Q=  0.041 lam=     1.1     freq=  1337. Q=  0.133 lam=    11.9
 122     freq=  1342. Q= -0.329 lam=    72.6     freq=  1360. Q= -0.370 lam=    93.1
 123     freq=  1354. Q= -0.788 lam=   420.1     freq=  1363. Q= -0.041 lam=     1.2
 124     freq=  1369. Q=  0.028 lam=     0.6     freq=  1371. Q=  0.706 lam=   341.4
 125     freq=  1373. Q= -0.424 lam=   123.7     freq=  1372. Q= -0.382 lam=    99.9
 126     freq=  1379. Q= -0.741 lam=   379.0     freq=  1384. Q= -0.001 lam=     0.0
 127     freq=  1382. Q=  0.004 lam=     0.0     freq=  1392. Q=  0.019 lam=     0.3
 128     freq=  1398. Q=  0.597 lam=   249.3     freq=  1394. Q=  0.079 lam=     4.3
 129     freq=  1401. Q= -0.001 lam=     0.0     freq=  1398. Q= -0.001 lam=     0.0
 130     freq=  1407. Q=  0.218 lam=    33.4     freq=  1398. Q=  0.014 lam=     0.1
 131     freq=  1415. Q= -0.176 lam=    21.9     freq=  1401. Q= -0.116 lam=     9.5
 132     freq=  1417. Q= -0.041 lam=     1.2     freq=  1413. Q= -0.048 lam=     1.6
 133     freq=  1430. Q=  0.175 lam=    22.0     freq=  1427. Q=  0.019 lam=     0.3
 134     freq=  1437. Q=  0.106 lam=     8.0     freq=  1440. Q=  0.110 lam=     8.7
 135     freq=  1456. Q= -0.176 lam=    22.7     freq=  1462. Q= -0.148 lam=    15.9
 136     freq=  1479. Q= -0.000 lam=     0.0     freq=  1463. Q= -0.003 lam=     0.0
 137     freq=  1479. Q=  0.042 lam=     1.3     freq=  1475. Q=  0.014 lam=     0.1
 138     freq=  1485. Q= -0.000 lam=     0.0     freq=  1482. Q= -0.122 lam=    11.0
 139     freq=  1492. Q= -0.101 lam=     7.6     freq=  1484. Q= -0.129 lam=    12.4
 140     freq=  1492. Q= -0.058 lam=     2.5     freq=  1484. Q= -0.001 lam=     0.0
 141     freq=  1498. Q= -0.015 lam=     0.2     freq=  1486. Q= -0.029 lam=     0.6
 142     freq=  1505. Q= -0.001 lam=     0.0     freq=  1497. Q= -0.011 lam=     0.1
 143     freq=  1508. Q= -0.003 lam=     0.0     freq=  1507. Q= -0.000 lam=     0.0
 144     freq=  1523. Q=  0.013 lam=     0.1     freq=  1524. Q=  0.012 lam=     0.1
 145     freq=  1542. Q=  0.058 lam=     2.6     freq=  1547. Q=  0.090 lam=     6.2
 146     freq=  1561. Q=  0.034 lam=     0.9     freq=  1556. Q=  0.074 lam=     4.3
 147     freq=  1605. Q=  0.343 lam=    94.3     freq=  1568. Q=  0.049 lam=     1.9
 148     freq=  1613. Q=  0.275 lam=    61.0     freq=  1576. Q=  0.001 lam=     0.0
 149     freq=  1617. Q= -0.438 lam=   155.0     freq=  1589. Q= -0.018 lam=     0.2
 150     freq=  1631. Q= -0.116 lam=    10.9     freq=  1610. Q= -0.200 lam=    32.3
 151     freq=  1632. Q= -0.025 lam=     0.5     freq=  1616. Q= -0.025 lam=     0.5
 152     freq=  1649. Q= -0.003 lam=     0.0     freq=  1621. Q= -0.297 lam=    71.6
 153     freq=  1671. Q=  0.482 lam=   194.3     freq=  1635. Q=  0.197 lam=    31.7
 154     freq=  1704. Q= -0.737 lam=   462.5     freq=  1671. Q= -1.079 lam=   972.8
 155     freq=  1713. Q= -0.009 lam=     0.1     freq=  1686. Q= -0.011 lam=     0.1
 156     freq=  1722. Q= -0.136 lam=    16.0     freq=  1723. Q= -0.155 lam=    20.8
 157     freq=  1751. Q= -0.138 lam=    16.7     freq=  1801. Q= -0.608 lam=   333.0
 158     freq=  1759. Q=  0.067 lam=     4.0     freq=  1824. Q=  0.118 lam=    12.6
 159     freq=  3006. Q= -0.008 lam=     0.1     freq=  3008. Q= -0.011 lam=     0.2
 160     freq=  3035. Q=  0.000 lam=     0.0     freq=  3030. Q=  0.000 lam=     0.0
 161     freq=  3039. Q= -0.007 lam=     0.1     freq=  3035. Q= -0.009 lam=     0.1
 162     freq=  3046. Q=  0.000 lam=     0.0     freq=  3045. Q=  0.000 lam=     0.0
 163     freq=  3090. Q=  0.019 lam=     0.6     freq=  3088. Q=  0.000 lam=     0.0
 164     freq=  3093. Q= -0.000 lam=     0.0     freq=  3091. Q= -0.006 lam=     0.1
 165     freq=  3096. Q=  0.005 lam=     0.0     freq=  3110. Q=  0.004 lam=     0.0
 166     freq=  3113. Q= -0.004 lam=     0.0     freq=  3118. Q= -0.022 lam=     0.8
 167     freq=  3114. Q=  0.037 lam=     2.2     freq=  3132. Q=  0.000 lam=     0.0
 168     freq=  3125. Q=  0.016 lam=     0.4     freq=  3142. Q=  0.004 lam=     0.0
 169     freq=  3133. Q= -0.000 lam=     0.0     freq=  3142. Q= -0.036 lam=     2.1
 170     freq=  3143. Q=  0.003 lam=     0.0     freq=  3159. Q=  0.022 lam=     0.8
 171     freq=  3194. Q=  0.004 lam=     0.0     freq=  3167. Q=  0.036 lam=     2.0
 172     freq=  3194. Q=  0.000 lam=     0.0     freq=  3194. Q=  0.001 lam=     0.0
 173     freq=  3202. Q= -0.000 lam=     0.0     freq=  3195. Q= -0.000 lam=     0.0
 174     freq=  3202. Q= -0.001 lam=     0.0     freq=  3199. Q= -0.000 lam=     0.0
 175     freq=  3209. Q= -0.004 lam=     0.0     freq=  3200. Q= -0.001 lam=     0.0
 176     freq=  3209. Q= -0.005 lam=     0.0     freq=  3210. Q= -0.002 lam=     0.0
 177     freq=  3218. Q=  0.008 lam=     0.1     freq=  3210. Q=  0.003 lam=     0.0
 178     freq=  3218. Q=  0.013 lam=     0.3     freq=  3226. Q=  0.003 lam=     0.0
 179     freq=  3220. Q=  0.024 lam=     0.9     freq=  3226. Q=  0.005 lam=     0.0
 180     freq=  3240. Q=  0.021 lam=     0.7     freq=  3251. Q=  0.003 lam=     0.0

 total reorg energy (cm**-1, kcal/mol)=     3852.     3873.     11.01     11.07
 Nber of molecules processed=           2
