 Enter ifcurve (0=recti, 1=orth curvi, 2=apprx curvi, -1 = skip
 And atom ordering flag, 0= never changes, 1= use the first order thenceforth,
  2= deduce it (does read on fail), 3= always read it
 Reading file: 
 ./TT_1_C0S1.log                                                                
                                          
  Entering Gaussian System, Link 0=g16                                          
  
 Gaussian format, type: g94, g98, g03= F F F
  #P Geom=AllCheck Guess=TCheck SCRF=Check GenChk RB3LYP TD(FC,Read)/6-3    
 energy type= TD      
 Original G94 input coords:
  6 -1.499582 -0.134997  0.111072
  6 -0.895275  1.131585  0.054927
  6  0.473036  1.255525 -0.064598
  6  1.316319  0.097248 -0.134892
  6  2.718103  0.202580 -0.257260
  6  3.683885 -0.858147 -0.338721
  6  4.970039 -0.374346 -0.451447
 16  6.567746 -1.119574 -0.588258
  6  7.312235  0.465956 -0.656350
  6  6.402944  1.507689 -0.579910
  6  5.088621  1.045468 -0.464956
 16  3.514700  1.816788 -0.330119
  6  0.673236 -1.186885 -0.075269
  6 -0.696986 -1.285346  0.044397
  1 -2.575421 -0.223737  0.205019
  1 -1.509933  2.023604  0.106000
  1  0.920370  2.242531 -0.106355
  1  3.407929 -1.900959 -0.312477
  1  8.385070  0.538200 -0.749585
  1  6.699110  2.547422 -0.607973
  1  1.271347 -2.088198 -0.124667
  1 -1.159266 -2.265637  0.087492
 nber atoms=          22
  Total Energy, E(TD-HF/TD-DFT) =  -1258.48614925                               
  
          32          49 "  -1258.48614925"
After scan for Atom:   Atom  AN      X      Y      Z        X      Y      Z        X      Y      Z   
After scan for Atom:   Atom  AN      X      Y      Z        X      Y      Z        X      Y      Z   
After scan for Atom:   Atom  AN      X      Y      Z        X      Y      Z        X      Y      Z   
After scan for Atom:   Atom  AN      X      Y      Z        X      Y      Z        X      Y      Z   
After scan for Atom:   Atom  AN      X      Y      Z        X      Y      Z        X      Y      Z   
After scan for Atom:   Atom  AN      X      Y      Z        X      Y      Z        X      Y      Z   
After scan for Atom:   Atom  AN      X      Y      Z        X      Y      Z        X      Y      Z   
After scan for Atom:   Atom  AN      X      Y      Z        X      Y      Z        X      Y      Z   
After scan for Atom:   Atom  AN      X      Y      Z        X      Y      Z        X      Y      Z   
After scan for Atom:   Atom  AN      X      Y      Z        X      Y      Z        X      Y      Z   
After scan for Atom:   Atom  AN      X      Y      Z        X      Y      Z        X      Y      Z   
After scan for Atom:   Atom  AN      X      Y      Z        X      Y      Z        X      Y      Z   
After scan for Atom:   Atom  AN      X      Y      Z        X      Y      Z        X      Y      Z   
After scan for Atom:   Atom  AN      X      Y      Z        X      Y      Z        X      Y      Z   
After scan for Atom:   Atom  AN      X      Y      Z        X      Y      Z        X      Y      Z   
After scan for Atom:   Atom  AN      X      Y      Z        X      Y      Z        X      Y      Z   
After scan for Atom:   Atom  AN      X      Y      Z        X      Y      Z        X      Y      Z   
After scan for Atom:   Atom  AN      X      Y      Z        X      Y      Z        X      Y      Z   
After scan for Atom:   Atom  AN      X      Y      Z        X      Y      Z        X      Y      Z   
After scan for Atom:   Atom  AN      X      Y      Z        X      Y      Z        X      Y      Z   
 g94    frequencies=
     0.0    0.0    0.0    0.0    0.0    0.0   43.0   47.8  106.7  112.6
   174.1  211.6  259.5  305.4  367.5  404.3  407.8  432.4  435.3  507.2
   557.3  587.5  610.4  617.4  630.7  645.2  645.5  688.5  732.5  738.2
   767.4  783.2  835.8  855.5  869.7  943.5  953.6  970.0  992.1 1025.5
  1068.4 1088.8 1129.0 1164.7 1179.1 1210.4 1229.5 1306.1 1332.7 1370.7
  1401.5 1417.8 1431.7 1459.0 1496.1 1532.1 1538.7 1635.0 3158.8 3163.1
  3175.3 3186.5 3193.4 3209.4 3233.4 3242.5
 g94    symmetries=
                                                 A      A      A      A
       A      A      A      A      A      A      A      A      A      A
       A      A      A      A      A      A      A      A      A      A
       A      A      A      A      A      A      A      A      A      A
       A      A      A      A      A      A      A      A      A      A
       A      A      A      A      A      A      A      A      A      A
       A      A      A      A      A      A
 atomic masses:
 12.0000 12.0000 12.0000 12.0000 12.0000 12.0000 12.0000 31.9721 12.0000 12.0000
 12.0000 31.9721 12.0000 12.0000  1.0078  1.0078  1.0078  1.0078  1.0078  1.0078
  1.0078  1.0078
 looking for force constants in 
 ./TT_1_C0S1.fchk                                                               
  
 Cartesian Force Constants                  R   N=        2211                  
  
 n3=          66        2211
 g94-fc frequencies=
    -3.8   -0.0    0.0    0.0    1.3    2.8   43.0   47.8  106.7  112.6
   174.1  211.6  259.5  305.4  367.5  404.4  407.9  432.4  435.3  507.2
   557.3  587.6  610.4  617.4  630.7  645.2  645.5  688.6  732.5  738.2
   767.4  783.2  835.8  855.6  869.7  943.5  953.6  970.0  992.1 1025.5
  1068.4 1088.8 1129.0 1164.7 1179.1 1210.5 1229.6 1306.2 1332.7 1370.7
  1401.6 1417.9 1431.7 1459.0 1496.2 1532.1 1538.8 1635.1 3158.9 3163.2
  3175.4 3186.6 3193.5 3209.4 3233.4 3242.5
 at 99999: n3=          66
 symm operator            1 :  F  nop=           0
 symm operator            2 :  F  nop=           0
 symm operator            3 :  F  nop=           0
 symm operator            4 :  F  nop=           0
 symm operator            5 :  F  nop=           0
 symm operator            6 :  F  nop=           0
 symm operator            7 :  F  nop=           0
 The point group of the molecule is  C1
 Symmetry rotation matrix:
   1.00000   0.00000   0.00000
   0.00000   1.00000   0.00000
   0.00000   0.00000   1.00000

 Projecting out zero-frequency components
 generating redundant internal coords
         300        3600          22
 search for int coords
   1 str   2   1   1.404
   2 str   3   2   1.379
   3 str   4   3   1.434
   4 str   5   4   1.411
   5 str   6   5   1.437
   6 str   7   6   1.379
   7 str   8   7   1.768
   8 str   9   8   1.753
   9 str  10   9   1.385
  10 str  11   7   1.425
  11 str  11  10   1.398
  12 str  12   5   1.802
  13 str  12  11   1.758
  14 str  13   4   1.437
  15 str  14   1   1.404
  16 str  14  13   1.379
  17 str  15   1   1.084
  18 str  16   2   1.084
  19 str  17   3   1.084
  20 str  18   6   1.079
  21 str  19   9   1.079
  22 str  20  10   1.081
  23 str  21  13   1.083
  24 str  22  14   1.085
 nber stretches=          24
  25 ben   1   2   3
  26 prop tor   1   2   3   4
  27 prop tor   1   2   3  17
  28 ben   1   2  16
  29 ben   1  14  13
  30 ben   1  14  22
  31 ben   2   1  14
  32 prop tor   2   1  14  13
  33 prop tor   2   1  14  22
  34 ben   2   1  15
  35 ben   2   3   4
  36 prop tor   2   3   4   5
  37 prop tor   2   3   4  13
  38 ben   2   3  17
  39 ben   3   2  16
  40 ben   3   4   5
  41 prop tor   3   4   5   6
  42 prop tor   3   4   5  12
  43 ben   3   4  13
  44 prop tor   3   4  13  14
  45 prop tor   3   4  13  21
  46 ben   4   3  17
  47 ben   4   5   6
  48 prop tor   4   5   6   7
  49 prop tor   4   5   6  18
  50 ben   4   5  12
  51 prop tor   4   5  12  11
  52 ben   4  13  14
  53 prop tor   4  13  14   1
  54 prop tor   4  13  14  22
  55 ben   4  13  21
  56 ben   5   4  13
  57 prop tor   5   4  13  14
  58 prop tor   5   4  13  21
  59 ben   5   6   7
  60 prop tor   5   6   7   8
  61 prop tor   5   6   7  11
  62 ben   5   6  18
  63 ben   5  12  11
  64 ben   6   5  12
  65 prop tor   6   5  12  11
  66 ben   6   7   8
  67 prop tor   6   7   8   9
  68 ben   6   7  11
  69 prop tor   6   7  11  10
  70 prop tor   6   7  11  12
  71 ben   7   6  18
  72 ben   7   8   9
  73 prop tor   7   8   9  10
  74 prop tor   7   8   9  19
  75 ben   7  11  10
  76 ben   7  11  12
  77 prop tor   7  11  12   5
  78 ben   8   7  11
  79 prop tor   8   7  11  10
  80 prop tor   8   7  11  12
  81 ben   8   9  10
  82 prop tor   8   9  10  11
  83 prop tor   8   9  10  20
  84 ben   8   9  19
  85 ben   9  10  11
  86 prop tor   9  10  11   7
  87 prop tor   9  10  11  12
  88 ben   9  10  20
  89 ben  10   9  19
  90 ben  10  11  12
  91 prop tor  10  11  12   5
  92 prop tor  11   7   8   9
  93 ben  11  10  20
  94 prop tor  12   5   6   7
  95 prop tor  12   5   6  18
  96 prop tor  13   4   5   6
  97 prop tor  13   4   5  12
  98 ben  13  14  22
  99 prop tor  14   1   2   3
 100 prop tor  14   1   2  16
 101 ben  14   1  15
 102 ben  14  13  21
 103 prop tor  15   1   2   3
 104 prop tor  15   1   2  16
 105 prop tor  15   1  14  13
 106 prop tor  15   1  14  22
 107 prop tor  16   2   3   4
 108 prop tor  16   2   3  17
 109 prop tor  17   3   4   5
 110 prop tor  17   3   4  13
 111 prop tor  18   6   7   8
 112 prop tor  18   6   7  11
 113 prop tor  19   9  10  11
 114 prop tor  19   9  10  20
 115 prop tor  20  10  11   7
 116 prop tor  20  10  11  12
 117 prop tor  21  13  14   1
 118 prop tor  21  13  14  22
 nber bend=              38
 nber lin bend=           0
 nber prop tor=          56
 nber impr tor=           0
 nber tot redund int=         118
 Eigenvalues of G in red int coords
    Gval -0.00000000 -0.00000000 -0.00000000 -0.00000000 -0.00000000 -0.00000000 -0.00000000 -0.00000000
    Gval -0.00000000 -0.00000000 -0.00000000 -0.00000000 -0.00000000 -0.00000000 -0.00000000 -0.00000000
    Gval -0.00000000 -0.00000000 -0.00000000 -0.00000000 -0.00000000 -0.00000000 -0.00000000 -0.00000000
    Gval -0.00000000 -0.00000000 -0.00000000 -0.00000000  0.00000000  0.00000000  0.00000000  0.00000000
    Gval  0.00000000  0.00000000  0.00000000  0.00000000  0.00000000  0.00000000  0.00000000  0.00000000
    Gval  0.00000000  0.00000000  0.00000000  0.00000000  0.00000000  0.00000000  0.00000000  0.00000000
    Gval  0.00000000  0.00000000  0.00000000  0.00000000  0.00000000  0.00000000  0.00000000  0.00000000
    Gval  0.00000000  0.00000000  0.00000273  0.00000529  0.00001493  0.00001631  0.00002088  0.00002985
    Gval  0.00003292  0.00003957  0.00004724  0.00004850  0.00005461  0.00006276  0.00006462  0.00008931
    Gval  0.00009186  0.00010244  0.00011149  0.00011625  0.00012596  0.00015273  0.00015535  0.00018284
    Gval  0.00022304  0.00026639  0.00029690  0.00030627  0.00030836  0.00036199  0.00037536  0.00043174
    Gval  0.00053257  0.00054904  0.00059303  0.00059361  0.00059654  0.00060372  0.00061967  0.00062357
    Gval  0.00063051  0.00065187  0.00065920  0.00103930  0.00106178  0.00108204  0.00110553  0.00113833
    Gval  0.00114649  0.00116969  0.00117085  0.00118192  0.00128163  0.00144743  0.00188077  0.00208187
    Gval  0.00232913  0.00311101  0.00357479  0.00372330  0.00392239  0.00405384
  2.730577928539546E-006  2.730577928539546E-006
  5.292828548044412E-006  2.730577928539546E-006
  1.493322825678048E-005  2.730577928539546E-006
  1.630629695956810E-005  2.730577928539546E-006
  2.088193242479054E-005  2.730577928539546E-006
  2.985256315861945E-005  2.730577928539546E-006
  3.291763050887587E-005  2.730577928539546E-006
  3.956822726016752E-005  2.730577928539546E-006
  4.723923392228731E-005  2.730577928539546E-006
  4.849980713810570E-005  2.730577928539546E-006
  5.460741972721573E-005  2.730577928539546E-006
  6.275672319752722E-005  2.730577928539546E-006
  6.461920906099098E-005  2.730577928539546E-006
  8.931070297040068E-005  2.730577928539546E-006
  9.186240090968157E-005  2.730577928539546E-006
  1.024375837350176E-004  2.730577928539546E-006
  1.114879848065964E-004  2.730577928539546E-006
  1.162491972082033E-004  2.730577928539546E-006
  1.259629751540393E-004  2.730577928539546E-006
  1.527276276071986E-004  2.730577928539546E-006
  1.553460006345890E-004  2.730577928539546E-006
  1.828393759538676E-004  2.730577928539546E-006
  2.230378062456313E-004  2.730577928539546E-006
  2.663866385932319E-004  2.730577928539546E-006
  2.968985491092692E-004  2.730577928539546E-006
  3.062674421361150E-004  2.730577928539546E-006
  3.083632961331517E-004  2.730577928539546E-006
  3.619920453568044E-004  2.730577928539546E-006
  3.753568249709074E-004  2.730577928539546E-006
  4.317434773976583E-004  2.730577928539546E-006
  5.325733608867736E-004  2.730577928539546E-006
  5.490389024111351E-004  2.730577928539546E-006
  5.930348071542535E-004  2.730577928539546E-006
  5.936069990004869E-004  2.730577928539546E-006
  5.965436259549509E-004  2.730577928539546E-006
  6.037248900239236E-004  2.730577928539546E-006
  6.196742412756702E-004  2.730577928539546E-006
  6.235703368761999E-004  2.730577928539546E-006
  6.305076011398737E-004  2.730577928539546E-006
  6.518724222292965E-004  2.730577928539546E-006
  6.592010487538847E-004  2.730577928539546E-006
  1.039301730339655E-003  2.730577928539546E-006
  1.061780457804581E-003  2.730577928539546E-006
  1.082044528128368E-003  2.730577928539546E-006
  1.105525242282080E-003  2.730577928539546E-006
  1.138334531691398E-003  2.730577928539546E-006
  1.146493803546080E-003  2.730577928539546E-006
  1.169694569165902E-003  2.730577928539546E-006
  1.170847224538000E-003  2.730577928539546E-006
  1.181922921094089E-003  2.730577928539546E-006
  1.281631458075376E-003  2.730577928539546E-006
  1.447433572491781E-003  2.730577928539546E-006
  1.880767503779452E-003  2.730577928539546E-006
  2.081867780833525E-003  2.730577928539546E-006
  2.329130332138223E-003  2.730577928539546E-006
  3.111005013907093E-003  2.730577928539546E-006
  3.574791511913015E-003  2.730577928539546E-006
  3.723295570341596E-003  2.730577928539546E-006
  3.922387383403909E-003  2.730577928539546E-006
  4.053841771373238E-003  2.730577928539546E-006
 cut=1d-8, nber non-redundant internal coords=          60
 Check on Eigenvals of non-red overlap matrix:
  0.00000273  0.00000529  0.00001493  0.00001631  0.00002088  0.00002985  0.00003292  0.00003957
  0.00004724  0.00004850  0.00005461  0.00006276  0.00006462  0.00008931  0.00009186  0.00010244
  0.00011149  0.00011625  0.00012596  0.00015273  0.00015535  0.00018284  0.00022304  0.00026639
  0.00029690  0.00030627  0.00030836  0.00036199  0.00037536  0.00043174  0.00053257  0.00054904
  0.00059303  0.00059361  0.00059654  0.00060372  0.00061967  0.00062357  0.00063051  0.00065187
  0.00065920  0.00103930  0.00106178  0.00108204  0.00110553  0.00113833  0.00114649  0.00116969
  0.00117085  0.00118192  0.00128163  0.00144743  0.00188077  0.00208187  0.00232913  0.00311101
  0.00357479  0.00372330  0.00392239  0.00405384
 Checking for correct frequencies
 recalc frequencies=
    -0.0   -0.0   -0.0   -0.0    0.0    0.0   43.0   47.8  106.7  112.6
   174.1  211.6  259.5  305.4  367.5  404.4  407.9  432.4  435.3  507.2
   557.3  587.6  610.4  617.4  630.7  645.2  645.5  688.6  732.5  738.2
   767.4  783.2  835.8  855.6  869.7  943.5  953.6  970.0  992.1 1025.5
  1068.4 1088.8 1129.0 1164.7 1179.1 1210.5 1229.6 1306.2 1332.7 1370.7
  1401.6 1417.9 1431.7 1459.0 1496.2 1532.1 1538.8 1635.1 3158.9 3163.2
  3175.4 3186.6 3193.5 3209.4 3233.4 3242.5
 recalc symmetries=
                                                                       
                                                                       
                                                                       
                                                                       
                                                                       
                                                                       
                                           
 recalc freqs check OK
 Zero-point lengths:
 10.0000 10.0000 10.0000 10.0000 10.0000 10.0000 37.8119 35.8539 23.9966 23.3674
 18.7877 17.0442 15.3893 14.1864 12.9325 12.3286 12.2756 11.9216 11.8819 11.0082
 10.5011 10.2275 10.0340  9.9775  9.8713  9.7597  9.7578  9.4477  9.1597  9.1244
  8.9489  8.8584  8.5752  8.4756  8.4064  8.0709  8.0282  7.9600  7.8707  7.7416
  7.5844  7.5131  7.3780  7.2642  7.2198  7.1256  7.0700  6.8595  6.7909  6.6960
  6.6220  6.5838  6.5519  6.4904  6.4092  6.3336  6.3199  6.1309  4.4109  4.4079
  4.3994  4.3917  4.3869  4.3760  4.3598  4.3536
 highest evec of mol 1
  0.0003 -0.0001 -0.0000
 -0.0002  0.0001  0.0000
  0.0004  0.0000 -0.0000
 -0.0008 -0.0001  0.0001
  0.0005  0.0005 -0.0000
  0.0010  0.0041 -0.0001
  0.0026  0.0011 -0.0002
  0.0008  0.0020 -0.0001
 -0.2832 -0.0075  0.0246
 -0.0119 -0.0800  0.0012
  0.0072  0.0020 -0.0006
 -0.0004 -0.0005  0.0000
  0.0000  0.0007 -0.0000
 -0.0003  0.0001  0.0000
 -0.0005 -0.0000  0.0000
  0.0003 -0.0004 -0.0000
 -0.0006 -0.0012  0.0001
 -0.0036 -0.0131  0.0003
  0.9218  0.0584 -0.0801
  0.0606  0.2217 -0.0058
  0.0008 -0.0012 -0.0001
  0.0001  0.0003 -0.0000
 generating redundant internal coords
         300        3600          22
 Adding extra bonds for z output only
           6           6           6           6           6           6
           6          16           6           6           6          16
           6           6           1           1           1           1
           1           1           1           1
 search for int coords
   1 str   2   1   1.404
   2 str   3   2   1.379
   3 str   4   3   1.434
   4 str   5   4   1.411
   5 str   6   5   1.437
   6 str   7   6   1.379
   7 str   8   7   1.768
   8 str   9   8   1.753
   9 str  10   9   1.385
  10 str  11   7   1.425
  11 str  11  10   1.398
  12 str  12   5   1.802
  13 str  12  11   1.758
  14 str  13   4   1.437
  15 str  14   1   1.404
  16 str  14  13   1.379
  17 str  15   1   1.084
  18 str  16   2   1.084
  19 str  17   3   1.084
  20 str  18   6   1.079
  21 str  19   9   1.079
  22 str  20  10   1.081
  23 str  21  13   1.083
  24 str  22  14   1.085
 nber stretches=          24
  25 ben   1   2   3
  26 prop tor   1   2   3   4
  27 prop tor   1   2   3  17
  28 ben   1   2  16
  29 ben   1  14  13
  30 ben   1  14  22
  31 ben   2   1  14
  32 prop tor   2   1  14  13
  33 prop tor   2   1  14  22
  34 ben   2   1  15
  35 ben   2   3   4
  36 prop tor   2   3   4   5
  37 prop tor   2   3   4  13
  38 ben   2   3  17
  39 ben   3   2  16
  40 ben   3   4   5
  41 prop tor   3   4   5   6
  42 prop tor   3   4   5  12
  43 ben   3   4  13
  44 prop tor   3   4  13  14
  45 prop tor   3   4  13  21
  46 ben   4   3  17
  47 ben   4   5   6
  48 prop tor   4   5   6   7
  49 prop tor   4   5   6  18
  50 ben   4   5  12
  51 prop tor   4   5  12  11
  52 ben   4  13  14
  53 prop tor   4  13  14   1
  54 prop tor   4  13  14  22
  55 ben   4  13  21
  56 ben   5   4  13
  57 prop tor   5   4  13  14
  58 prop tor   5   4  13  21
  59 ben   5   6   7
  60 prop tor   5   6   7   8
  61 prop tor   5   6   7  11
  62 ben   5   6  18
  63 ben   5  12  11
  64 ben   6   5  12
  65 prop tor   6   5  12  11
  66 ben   6   7   8
  67 prop tor   6   7   8   9
  68 ben   6   7  11
  69 prop tor   6   7  11  10
  70 prop tor   6   7  11  12
  71 ben   7   6  18
  72 ben   7   8   9
  73 prop tor   7   8   9  10
  74 prop tor   7   8   9  19
  75 ben   7  11  10
  76 ben   7  11  12
  77 prop tor   7  11  12   5
  78 ben   8   7  11
  79 prop tor   8   7  11  10
  80 prop tor   8   7  11  12
  81 ben   8   9  10
  82 prop tor   8   9  10  11
  83 prop tor   8   9  10  20
  84 ben   8   9  19
  85 ben   9  10  11
  86 prop tor   9  10  11   7
  87 prop tor   9  10  11  12
  88 ben   9  10  20
  89 ben  10   9  19
  90 ben  10  11  12
  91 prop tor  10  11  12   5
  92 prop tor  11   7   8   9
  93 ben  11  10  20
  94 prop tor  12   5   6   7
  95 prop tor  12   5   6  18
  96 prop tor  13   4   5   6
  97 prop tor  13   4   5  12
  98 ben  13  14  22
  99 prop tor  14   1   2   3
 100 prop tor  14   1   2  16
 101 ben  14   1  15
 102 ben  14  13  21
 103 prop tor  15   1   2   3
 104 prop tor  15   1   2  16
 105 prop tor  15   1  14  13
 106 prop tor  15   1  14  22
 107 prop tor  16   2   3   4
 108 prop tor  16   2   3  17
 109 prop tor  17   3   4   5
 110 prop tor  17   3   4  13
 111 prop tor  18   6   7   8
 112 prop tor  18   6   7  11
 113 prop tor  19   9  10  11
 114 prop tor  19   9  10  20
 115 prop tor  20  10  11   7
 116 prop tor  20  10  11  12
 117 prop tor  21  13  14   1
 118 prop tor  21  13  14  22
 nber bend=              38
 nber lin bend=           0
 nber prop tor=          56
 nber impr tor=           0
 nber tot redund int=         118
 Reading file: 
 ./TT_1_C1S0.log                                                                
                                          
  Entering Gaussian System, Link 0=g16                                          
  
 Gaussian format, type: g94, g98, g03= F F F
  #P Geom=AllCheck Guess=TCheck SCRF=Check GenChk UB3LYP/6-311G(d,p) Fre    
 energy type= B3LYP   
 Original G94 input coords:
  6 -1.476245 -0.140763  0.108654
  6 -0.889364  1.130317  0.054174
  6  0.479790  1.253815 -0.065197
  6  1.308760  0.102728 -0.134192
  6  2.730274  0.221025 -0.258082
  6  3.672648 -0.834968 -0.337059
  6  4.966782 -0.370094 -0.450615
 16  6.543151 -1.122381 -0.585361
  6  7.276378  0.445083 -0.653069
  6  6.390184  1.509431 -0.579040
  6  5.078585  1.046673 -0.464056
 16  3.519289  1.804041 -0.330788
  6  0.691301 -1.176726 -0.077053
  6 -0.679682 -1.289891  0.042512
  1 -2.551583 -0.234325  0.202423
  1 -1.509594  2.016289  0.105699
  1  0.919053  2.243508 -0.106012
  1  3.394672 -1.877920 -0.310052
  1  8.351448  0.512836 -0.746477
  1  6.700450  2.543977 -0.608700
  1  1.290173 -2.076038 -0.126731
  1 -1.138240 -2.269847  0.085091
 nber atoms=          22
  SCF Done:  E(UB3LYP) =  -1258.35752554     A.U. after    1 cycles             
  
          23          40 "  -1258.35752554"
After scan for Atom:   Atom  AN      X      Y      Z        X      Y      Z        X      Y      Z   
After scan for Atom:   Atom  AN      X      Y      Z        X      Y      Z        X      Y      Z   
After scan for Atom:   Atom  AN      X      Y      Z        X      Y      Z        X      Y      Z   
After scan for Atom:   Atom  AN      X      Y      Z        X      Y      Z        X      Y      Z   
After scan for Atom:   Atom  AN      X      Y      Z        X      Y      Z        X      Y      Z   
After scan for Atom:   Atom  AN      X      Y      Z        X      Y      Z        X      Y      Z   
After scan for Atom:   Atom  AN      X      Y      Z        X      Y      Z        X      Y      Z   
After scan for Atom:   Atom  AN      X      Y      Z        X      Y      Z        X      Y      Z   
After scan for Atom:   Atom  AN      X      Y      Z        X      Y      Z        X      Y      Z   
After scan for Atom:   Atom  AN      X      Y      Z        X      Y      Z        X      Y      Z   
After scan for Atom:   Atom  AN      X      Y      Z        X      Y      Z        X      Y      Z   
After scan for Atom:   Atom  AN      X      Y      Z        X      Y      Z        X      Y      Z   
After scan for Atom:   Atom  AN      X      Y      Z        X      Y      Z        X      Y      Z   
After scan for Atom:   Atom  AN      X      Y      Z        X      Y      Z        X      Y      Z   
After scan for Atom:   Atom  AN      X      Y      Z        X      Y      Z        X      Y      Z   
After scan for Atom:   Atom  AN      X      Y      Z        X      Y      Z        X      Y      Z   
After scan for Atom:   Atom  AN      X      Y      Z        X      Y      Z        X      Y      Z   
After scan for Atom:   Atom  AN      X      Y      Z        X      Y      Z        X      Y      Z   
After scan for Atom:   Atom  AN      X      Y      Z        X      Y      Z        X      Y      Z   
After scan for Atom:   Atom  AN      X      Y      Z        X      Y      Z        X      Y      Z   
 g94    frequencies=
     0.0    0.0    0.0    0.0    0.0    0.0   23.5   62.1  116.8  155.0
   203.0  267.4  278.9  314.8  387.4  427.3  434.3  453.7  462.1  563.5
   582.1  616.5  624.8  641.2  665.4  682.8  759.2  765.4  783.0  806.3
   825.6  855.5  892.8  905.3  948.6  974.0  998.4 1007.0 1027.7 1040.1
  1099.2 1113.3 1170.1 1194.3 1203.5 1223.5 1244.7 1336.4 1353.4 1373.0
  1408.6 1425.1 1444.7 1477.2 1514.6 1531.1 1577.0 1623.7 3182.3 3190.5
  3199.5 3207.2 3213.0 3225.7 3238.3 3239.2
 g94    symmetries=
                                                 A      A      A      A
       A      A      A      A      A      A      A      A      A      A
       A      A      A      A      A      A      A      A      A      A
       A      A      A      A      A      A      A      A      A      A
       A      A      A      A      A      A      A      A      A      A
       A      A      A      A      A      A      A      A      A      A
       A      A      A      A      A      A
 atomic masses:
 12.0000 12.0000 12.0000 12.0000 12.0000 12.0000 12.0000 31.9721 12.0000 12.0000
 12.0000 31.9721 12.0000 12.0000  1.0078  1.0078  1.0078  1.0078  1.0078  1.0078
  1.0078  1.0078
 looking for force constants in 
 ./TT_1_C1S0.fchk                                                               
  
 Cartesian Force Constants                  R   N=        2211                  
  
 n3=          66        2211
 g94-fc frequencies=
    -2.9   -0.0   -0.0    0.0    0.6    3.5   23.6   62.1  116.8  155.0
   203.0  267.4  278.9  314.9  387.4  427.3  434.3  453.7  462.1  563.5
   582.2  616.5  624.8  641.2  665.5  682.8  759.2  765.4  783.0  806.3
   825.6  855.5  892.9  905.3  948.6  974.0  998.4 1007.1 1027.8 1040.2
  1099.2 1113.3 1170.1 1194.3 1203.6 1223.6 1244.8 1336.5 1353.4 1373.0
  1408.7 1425.1 1444.8 1477.2 1514.7 1531.1 1577.0 1623.8 3182.4 3190.5
  3199.5 3207.3 3213.1 3225.8 3238.4 3239.3
 at 99999: n3=          66
 symm operator            1 :  F  nop=           0
 symm operator            2 :  F  nop=           0
 symm operator            3 :  F  nop=           0
 symm operator            4 :  F  nop=           0
 symm operator            5 :  F  nop=           0
 symm operator            6 :  F  nop=           0
 symm operator            7 :  F  nop=           0
 The point group of the molecule is  C1
 Symmetry rotation matrix:
   1.00000   0.00000   0.00000
   0.00000   1.00000   0.00000
   0.00000   0.00000   1.00000

 Projecting out zero-frequency components
 generating redundant internal coords
         300        3600          22
 search for int coords
   1 str   2   1   1.401
   2 str   3   2   1.380
   3 str   4   3   1.420
   4 str   5   4   1.432
   5 str   6   5   1.418
   6 str   7   6   1.380
   7 str   8   7   1.752
   8 str   9   8   1.732
   9 str  10   9   1.387
  10 str  11   7   1.421
  11 str  11  10   1.396
  12 str  12   5   1.770
  13 str  12  11   1.739
  14 str  13   4   1.422
  15 str  14   1   1.400
  16 str  14  13   1.381
  17 str  15   1   1.083
  18 str  16   2   1.083
  19 str  17   3   1.084
  20 str  18   6   1.080
  21 str  19   9   1.081
  22 str  20  10   1.080
  23 str  21  13   1.082
  24 str  22  14   1.083
 nber stretches=          24
  25 ben   1   2   3
  26 prop tor   1   2   3   4
  27 prop tor   1   2   3  17
  28 ben   1   2  16
  29 ben   1  14  13
  30 ben   1  14  22
  31 ben   2   1  14
  32 prop tor   2   1  14  13
  33 prop tor   2   1  14  22
  34 ben   2   1  15
  35 ben   2   3   4
  36 prop tor   2   3   4   5
  37 prop tor   2   3   4  13
  38 ben   2   3  17
  39 ben   3   2  16
  40 ben   3   4   5
  41 prop tor   3   4   5   6
  42 prop tor   3   4   5  12
  43 ben   3   4  13
  44 prop tor   3   4  13  14
  45 prop tor   3   4  13  21
  46 ben   4   3  17
  47 ben   4   5   6
  48 prop tor   4   5   6   7
  49 prop tor   4   5   6  18
  50 ben   4   5  12
  51 prop tor   4   5  12  11
  52 ben   4  13  14
  53 prop tor   4  13  14   1
  54 prop tor   4  13  14  22
  55 ben   4  13  21
  56 ben   5   4  13
  57 prop tor   5   4  13  14
  58 prop tor   5   4  13  21
  59 ben   5   6   7
  60 prop tor   5   6   7   8
  61 prop tor   5   6   7  11
  62 ben   5   6  18
  63 ben   5  12  11
  64 ben   6   5  12
  65 prop tor   6   5  12  11
  66 ben   6   7   8
  67 prop tor   6   7   8   9
  68 ben   6   7  11
  69 prop tor   6   7  11  10
  70 prop tor   6   7  11  12
  71 ben   7   6  18
  72 ben   7   8   9
  73 prop tor   7   8   9  10
  74 prop tor   7   8   9  19
  75 ben   7  11  10
  76 ben   7  11  12
  77 prop tor   7  11  12   5
  78 ben   8   7  11
  79 prop tor   8   7  11  10
  80 prop tor   8   7  11  12
  81 ben   8   9  10
  82 prop tor   8   9  10  11
  83 prop tor   8   9  10  20
  84 ben   8   9  19
  85 ben   9  10  11
  86 prop tor   9  10  11   7
  87 prop tor   9  10  11  12
  88 ben   9  10  20
  89 ben  10   9  19
  90 ben  10  11  12
  91 prop tor  10  11  12   5
  92 prop tor  11   7   8   9
  93 ben  11  10  20
  94 prop tor  12   5   6   7
  95 prop tor  12   5   6  18
  96 prop tor  13   4   5   6
  97 prop tor  13   4   5  12
  98 ben  13  14  22
  99 prop tor  14   1   2   3
 100 prop tor  14   1   2  16
 101 ben  14   1  15
 102 ben  14  13  21
 103 prop tor  15   1   2   3
 104 prop tor  15   1   2  16
 105 prop tor  15   1  14  13
 106 prop tor  15   1  14  22
 107 prop tor  16   2   3   4
 108 prop tor  16   2   3  17
 109 prop tor  17   3   4   5
 110 prop tor  17   3   4  13
 111 prop tor  18   6   7   8
 112 prop tor  18   6   7  11
 113 prop tor  19   9  10  11
 114 prop tor  19   9  10  20
 115 prop tor  20  10  11   7
 116 prop tor  20  10  11  12
 117 prop tor  21  13  14   1
 118 prop tor  21  13  14  22
 nber bend=              38
 nber lin bend=           0
 nber prop tor=          56
 nber impr tor=           0
 nber tot redund int=         118
 Eigenvalues of G in red int coords
    Gval -0.00000000 -0.00000000 -0.00000000 -0.00000000 -0.00000000 -0.00000000 -0.00000000 -0.00000000
    Gval -0.00000000 -0.00000000 -0.00000000 -0.00000000 -0.00000000 -0.00000000 -0.00000000 -0.00000000
    Gval -0.00000000 -0.00000000 -0.00000000 -0.00000000 -0.00000000 -0.00000000 -0.00000000 -0.00000000
    Gval -0.00000000 -0.00000000 -0.00000000  0.00000000  0.00000000  0.00000000  0.00000000  0.00000000
    Gval  0.00000000  0.00000000  0.00000000  0.00000000  0.00000000  0.00000000  0.00000000  0.00000000
    Gval  0.00000000  0.00000000  0.00000000  0.00000000  0.00000000  0.00000000  0.00000000  0.00000000
    Gval  0.00000000  0.00000000  0.00000000  0.00000000  0.00000000  0.00000000  0.00000000  0.00000000
    Gval  0.00000000  0.00000000  0.00000274  0.00000533  0.00001501  0.00001621  0.00002100  0.00003003
    Gval  0.00003313  0.00003991  0.00004721  0.00004856  0.00005473  0.00006294  0.00006483  0.00008973
    Gval  0.00009311  0.00010252  0.00011205  0.00011651  0.00012622  0.00015493  0.00015671  0.00018504
    Gval  0.00022265  0.00026869  0.00029767  0.00030982  0.00031155  0.00036505  0.00037474  0.00042876
    Gval  0.00053000  0.00055698  0.00059304  0.00059363  0.00059656  0.00060398  0.00062009  0.00062364
    Gval  0.00063077  0.00065771  0.00066015  0.00104193  0.00105636  0.00108072  0.00111035  0.00113952
    Gval  0.00114586  0.00117313  0.00117391  0.00118191  0.00128329  0.00144950  0.00188198  0.00206254
    Gval  0.00235203  0.00311010  0.00355695  0.00374852  0.00394525  0.00406307
  2.744614254607757E-006  2.744614254607757E-006
  5.330381549742043E-006  2.744614254607757E-006
  1.501200822926409E-005  2.744614254607757E-006
  1.620861311157980E-005  2.744614254607757E-006
  2.100095180611136E-005  2.744614254607757E-006
  3.002923048203276E-005  2.744614254607757E-006
  3.313218826808903E-005  2.744614254607757E-006
  3.991207793097821E-005  2.744614254607757E-006
  4.720567138836684E-005  2.744614254607757E-006
  4.855833808428540E-005  2.744614254607757E-006
  5.472751887518152E-005  2.744614254607757E-006
  6.294227223736544E-005  2.744614254607757E-006
  6.483225566114329E-005  2.744614254607757E-006
  8.973471347362671E-005  2.744614254607757E-006
  9.311052061119319E-005  2.744614254607757E-006
  1.025172545833079E-004  2.744614254607757E-006
  1.120455854227783E-004  2.744614254607757E-006
  1.165050907250629E-004  2.744614254607757E-006
  1.262183191442242E-004  2.744614254607757E-006
  1.549298754637729E-004  2.744614254607757E-006
  1.567146857711441E-004  2.744614254607757E-006
  1.850370472584978E-004  2.744614254607757E-006
  2.226520908422920E-004  2.744614254607757E-006
  2.686875729317861E-004  2.744614254607757E-006
  2.976679832372106E-004  2.744614254607757E-006
  3.098158104360652E-004  2.744614254607757E-006
  3.115491536339205E-004  2.744614254607757E-006
  3.650468709881464E-004  2.744614254607757E-006
  3.747448443711675E-004  2.744614254607757E-006
  4.287629414488875E-004  2.744614254607757E-006
  5.299980144735702E-004  2.744614254607757E-006
  5.569782951916168E-004  2.744614254607757E-006
  5.930369742836869E-004  2.744614254607757E-006
  5.936301215364202E-004  2.744614254607757E-006
  5.965562909702201E-004  2.744614254607757E-006
  6.039818918536766E-004  2.744614254607757E-006
  6.200858935076766E-004  2.744614254607757E-006
  6.236366250045658E-004  2.744614254607757E-006
  6.307677312849854E-004  2.744614254607757E-006
  6.577081442282563E-004  2.744614254607757E-006
  6.601508214377623E-004  2.744614254607757E-006
  1.041930587032968E-003  2.744614254607757E-006
  1.056357896776904E-003  2.744614254607757E-006
  1.080717018044445E-003  2.744614254607757E-006
  1.110351079383059E-003  2.744614254607757E-006
  1.139523897236053E-003  2.744614254607757E-006
  1.145861290164347E-003  2.744614254607757E-006
  1.173126506977451E-003  2.744614254607757E-006
  1.173914642767193E-003  2.744614254607757E-006
  1.181914524444908E-003  2.744614254607757E-006
  1.283293308398208E-003  2.744614254607757E-006
  1.449499909446396E-003  2.744614254607757E-006
  1.881983415942572E-003  2.744614254607757E-006
  2.062537170912118E-003  2.744614254607757E-006
  2.352025144261307E-003  2.744614254607757E-006
  3.110104578096493E-003  2.744614254607757E-006
  3.556952413000494E-003  2.744614254607757E-006
  3.748521229373168E-003  2.744614254607757E-006
  3.945246818098672E-003  2.744614254607757E-006
  4.063072212555020E-003  2.744614254607757E-006
 cut=1d-8, nber non-redundant internal coords=          60
 Check on Eigenvals of non-red overlap matrix:
  0.00000274  0.00000533  0.00001501  0.00001621  0.00002100  0.00003003  0.00003313  0.00003991
  0.00004721  0.00004856  0.00005473  0.00006294  0.00006483  0.00008973  0.00009311  0.00010252
  0.00011205  0.00011651  0.00012622  0.00015493  0.00015671  0.00018504  0.00022265  0.00026869
  0.00029767  0.00030982  0.00031155  0.00036505  0.00037474  0.00042876  0.00053000  0.00055698
  0.00059304  0.00059363  0.00059656  0.00060398  0.00062009  0.00062364  0.00063077  0.00065771
  0.00066015  0.00104193  0.00105636  0.00108072  0.00111035  0.00113952  0.00114586  0.00117313
  0.00117391  0.00118191  0.00128329  0.00144950  0.00188198  0.00206254  0.00235203  0.00311010
  0.00355695  0.00374852  0.00394525  0.00406307
 Checking for correct frequencies
 recalc frequencies=
    -0.0   -0.0   -0.0    0.0    0.0    0.0   23.5   62.1  116.8  155.0
   203.0  267.4  278.9  314.9  387.4  427.3  434.3  453.7  462.1  563.5
   582.2  616.5  624.8  641.2  665.5  682.8  759.2  765.4  783.0  806.3
   825.6  855.5  892.9  905.3  948.6  974.0  998.4 1007.1 1027.8 1040.2
  1099.2 1113.3 1170.1 1194.3 1203.6 1223.6 1244.8 1336.5 1353.4 1373.0
  1408.7 1425.1 1444.8 1477.2 1514.7 1531.1 1577.0 1623.8 3182.4 3190.5
  3199.5 3207.3 3213.1 3225.8 3238.4 3239.3
 recalc symmetries=
                                                                       
                                                                       
                                                                       
                                                                       
                                                                       
                                                                       
                                           
 recalc freqs check OK
 Zero-point lengths:
 10.0000 10.0000 10.0000 10.0000 10.0000 10.0000 51.0898 31.4574 22.9436 19.9098
 17.4011 15.1609 14.8448 13.9715 12.5960 11.9927 11.8958 11.6383 11.5326 10.4436
 10.2749  9.9844  9.9181  9.7906  9.6102  9.4871  8.9975  8.9609  8.8593  8.7304
  8.6282  8.4757  8.2967  8.2394  8.0491  7.9434  7.8460  7.8121  7.7330  7.6868
  7.4774  7.4299  7.2475  7.1737  7.1460  7.0873  7.0267  6.7814  6.7387  6.6905
  6.6053  6.5670  6.5222  6.4502  6.3699  6.3356  6.2428  6.1522  4.3946  4.3890
  4.3828  4.3775  4.3736  4.3649  4.3564  4.3558
 highest evec of mol 2
  0.0009 -0.0001 -0.0001
  0.0003 -0.0007 -0.0000
 -0.0002 -0.0008  0.0000
 -0.0006  0.0002  0.0001
  0.0029 -0.0027 -0.0002
  0.0318  0.1117 -0.0031
 -0.0087 -0.0041  0.0008
 -0.0008 -0.0023  0.0001
  0.2022  0.0007 -0.0175
  0.0462  0.1822 -0.0045
 -0.0108 -0.0044  0.0009
  0.0003 -0.0005 -0.0000
 -0.0134  0.0200  0.0011
  0.0026  0.0040 -0.0002
 -0.0021 -0.0001  0.0002
 -0.0014  0.0019  0.0001
  0.0007  0.0018 -0.0001
 -0.1008 -0.3638  0.0098
 -0.6411 -0.0372  0.0557
 -0.1670 -0.5621  0.0160
  0.0467 -0.0675 -0.0039
 -0.0061 -0.0126  0.0006
 Enter nber and list of atoms to keep of mol #2
 keep list:          22           1           2           3           4
           5           6           7           8           9          10
          11          12          13          14          15          16
          17          18          19          20          21          22
 reordering atoms
           1   4.74751366021139     
           2   4.15445839146919     
           3   2.77976031285565     
           4   1.95125083025091     
           5  0.524013322027579     
           6 -0.418612181481088     
           7  -1.71905277633074     
           8  -3.29899378095877     
           9  -4.03984445726064     
          10  -3.15364023550575     
          11  -1.83568275517969     
          12 -0.272893179645813     
          13   2.57502350162403     
          14   3.95153071536390     
          15   5.82719736599012     
          16   4.77426417487474     
          17   2.33576226275965     
          18 -0.136336801179923     
          19  -5.11915553801589     
          20  -3.46828970304725     
          21   1.97669379296312     
          22   4.41487588733967     
           1           1
           2           2
           3           3
           4           4
           5           5
           6           6
           7           7
           8           8
           9           9
          10          10
          11          11
          12          12
          13          13
          14          14
          15          15
          16          16
          17          17
          18          18
          19          19
          20          20
          21          21
          22          22
 initial cartes coords mol 1
   6  -0.00034   0.33414   4.77403
   6   0.00009  -0.93043   4.16295
   6   0.00034  -1.04984   2.78903
   6   0.00022   0.11123   1.94665
   6   0.00046   0.01054   0.53920
   6   0.00061   1.07446  -0.42650
   6   0.00030   0.59493  -1.71918
  16   0.00008   1.34545  -3.32026
   6  -0.00053  -0.23761  -4.07308
   6  -0.00052  -1.28235  -3.16403
   6  -0.00005  -0.82449  -1.84317
  16   0.00001  -1.60102  -0.26604
   6  -0.00027   1.39323   2.59672
   6  -0.00056   1.48715   3.97248
   1  -0.00053   0.41932   5.85425
   1   0.00022  -1.82449   4.77678
   1   0.00073  -2.03536   2.33650
   1   0.00097   2.11636  -0.14587
   1  -0.00075  -0.30630  -5.15019
   1  -0.00081  -2.32110  -3.46494
   1  -0.00061   2.29652   1.99956
   1  -0.00100   2.46591   4.43998
 initial cartes coords mol 2
   6  -0.00019   0.34134   4.74751
   6  -0.00012  -0.92804   4.15446
   6  -0.00000  -1.04758   2.77976
   6   0.00011   0.10591   1.95125
   6   0.00021  -0.00828   0.52401
   6   0.00020   1.05044  -0.41861
   6   0.00010   0.58931  -1.71905
  16  -0.00003   1.34616  -3.29899
   6  -0.00025  -0.21918  -4.03984
   6  -0.00018  -1.28609  -3.15364
   6  -0.00000  -0.82713  -1.83568
  16   0.00011  -1.58901  -0.27289
   6   0.00006   1.38357   2.57502
   6  -0.00013   1.49277   3.95153
   1  -0.00031   0.43179   5.82720
   1  -0.00018  -1.81581   4.77426
   1  -0.00001  -2.03600   2.33576
   1   0.00015   2.09259  -0.13634
   1  -0.00039  -0.28382  -5.11916
   1  -0.00027  -2.31974  -3.46829
   1   0.00015   2.28462   1.97669
   1  -0.00023   2.47140   4.41488
 loop 1 0
 mod cartes coords mol 2
   6  -0.00019   0.34134   4.74751
   6  -0.00012  -0.92804   4.15446
   6  -0.00000  -1.04758   2.77976
   6   0.00011   0.10591   1.95125
   6   0.00021  -0.00828   0.52401
   6   0.00020   1.05044  -0.41861
   6   0.00010   0.58931  -1.71905
  16  -0.00003   1.34616  -3.29899
   6  -0.00025  -0.21918  -4.03984
   6  -0.00018  -1.28609  -3.15364
   6  -0.00000  -0.82713  -1.83568
  16   0.00011  -1.58901  -0.27289
   6   0.00006   1.38357   2.57502
   6  -0.00013   1.49277   3.95153
   1  -0.00031   0.43179   5.82720
   1  -0.00018  -1.81581   4.77426
   1  -0.00001  -2.03600   2.33576
   1   0.00015   2.09259  -0.13634
   1  -0.00039  -0.28382  -5.11916
   1  -0.00027  -2.31974  -3.46829
   1   0.00015   2.28462   1.97669
   1  -0.00023   2.47140   4.41488
 read in order, maxerr=  0.04 for atom  19
 final axis swaps:           1           1           1
 final xyz swap pattern=           1
 reorder list:
   1   2   3   4   5   6   7   8   9  10  11  12  13  14  15  16  17  18  19  20
  21  22
 axis signs=           1           1           1
  6    -0.000194  0.341340  4.747514    -0.000338  0.334144  4.774029
  6    -0.000124 -0.928041  4.154458     0.000093 -0.930433  4.162952
  6    -0.000002 -1.047578  2.779760     0.000344 -1.049840  2.789030
  6     0.000106  0.105906  1.951251     0.000225  0.111228  1.946655
  6     0.000214 -0.008278  0.524013     0.000456  0.010540  0.539200
  6     0.000198  1.050440 -0.418612     0.000608  1.074463 -0.426502
  6     0.000098  0.589311 -1.719053     0.000303  0.594926 -1.719176
 16    -0.000033  1.346158 -3.298994     0.000076  1.345445 -3.320260
  6    -0.000246 -0.219182 -4.039844    -0.000529 -0.237612 -4.073078
  6    -0.000184 -1.286093 -3.153640    -0.000525 -1.282354 -3.164027
  6    -0.000002 -0.827130 -1.835683    -0.000054 -0.824490 -1.843168
 16     0.000111 -1.589009 -0.272893     0.000015 -1.601023 -0.266038
  6     0.000055  1.383572  2.575024    -0.000268  1.393227  2.596720
  6    -0.000129  1.492771  3.951531    -0.000558  1.487149  3.972475
  1    -0.000314  0.431790  5.827197    -0.000527  0.419319  5.854249
  1    -0.000176 -1.815806  4.774264     0.000223 -1.824486  4.776776
  1    -0.000015 -2.035999  2.335762     0.000735 -2.035362  2.336504
  1     0.000155  2.092587 -0.136337     0.000968  2.116357 -0.145869
  1    -0.000393 -0.283824 -5.119156    -0.000748 -0.306301 -5.150189
  1    -0.000269 -2.319740 -3.468290    -0.000815 -2.321102 -3.464941
  1     0.000151  2.284615  1.976694    -0.000611  2.296520  1.999557
  1    -0.000231  2.471399  4.414876    -0.001004  2.465906  4.439984
 generating redundant internal coords
         300        3600          22
 Adding extra bonds for z output only
           6           6           6           6           6           6
           6          16           6           6           6          16
           6           6           1           1           1           1
           1           1           1           1
 search for int coords
   1 str   2   1   1.401
   2 str   3   2   1.380
   3 str   4   3   1.420
   4 str   5   4   1.432
   5 str   6   5   1.418
   6 str   7   6   1.380
   7 str   8   7   1.752
   8 str   9   8   1.732
   9 str  10   9   1.387
  10 str  11   7   1.421
  11 str  11  10   1.396
  12 str  12   5   1.770
  13 str  12  11   1.739
  14 str  13   4   1.422
  15 str  14   1   1.400
  16 str  14  13   1.381
  17 str  15   1   1.083
  18 str  16   2   1.083
  19 str  17   3   1.084
  20 str  18   6   1.080
  21 str  19   9   1.081
  22 str  20  10   1.080
  23 str  21  13   1.082
  24 str  22  14   1.083
 nber stretches=          24
  25 ben   1   2   3
  26 prop tor   1   2   3   4
  27 prop tor   1   2   3  17
  28 ben   1   2  16
  29 ben   1  14  13
  30 ben   1  14  22
  31 ben   2   1  14
  32 prop tor   2   1  14  13
  33 prop tor   2   1  14  22
  34 ben   2   1  15
  35 ben   2   3   4
  36 prop tor   2   3   4   5
  37 prop tor   2   3   4  13
  38 ben   2   3  17
  39 ben   3   2  16
  40 ben   3   4   5
  41 prop tor   3   4   5   6
  42 prop tor   3   4   5  12
  43 ben   3   4  13
  44 prop tor   3   4  13  14
  45 prop tor   3   4  13  21
  46 ben   4   3  17
  47 ben   4   5   6
  48 prop tor   4   5   6   7
  49 prop tor   4   5   6  18
  50 ben   4   5  12
  51 prop tor   4   5  12  11
  52 ben   4  13  14
  53 prop tor   4  13  14   1
  54 prop tor   4  13  14  22
  55 ben   4  13  21
  56 ben   5   4  13
  57 prop tor   5   4  13  14
  58 prop tor   5   4  13  21
  59 ben   5   6   7
  60 prop tor   5   6   7   8
  61 prop tor   5   6   7  11
  62 ben   5   6  18
  63 ben   5  12  11
  64 ben   6   5  12
  65 prop tor   6   5  12  11
  66 ben   6   7   8
  67 prop tor   6   7   8   9
  68 ben   6   7  11
  69 prop tor   6   7  11  10
  70 prop tor   6   7  11  12
  71 ben   7   6  18
  72 ben   7   8   9
  73 prop tor   7   8   9  10
  74 prop tor   7   8   9  19
  75 ben   7  11  10
  76 ben   7  11  12
  77 prop tor   7  11  12   5
  78 ben   8   7  11
  79 prop tor   8   7  11  10
  80 prop tor   8   7  11  12
  81 ben   8   9  10
  82 prop tor   8   9  10  11
  83 prop tor   8   9  10  20
  84 ben   8   9  19
  85 ben   9  10  11
  86 prop tor   9  10  11   7
  87 prop tor   9  10  11  12
  88 ben   9  10  20
  89 ben  10   9  19
  90 ben  10  11  12
  91 prop tor  10  11  12   5
  92 prop tor  11   7   8   9
  93 ben  11  10  20
  94 prop tor  12   5   6   7
  95 prop tor  12   5   6  18
  96 prop tor  13   4   5   6
  97 prop tor  13   4   5  12
  98 ben  13  14  22
  99 prop tor  14   1   2   3
 100 prop tor  14   1   2  16
 101 ben  14   1  15
 102 ben  14  13  21
 103 prop tor  15   1   2   3
 104 prop tor  15   1   2  16
 105 prop tor  15   1  14  13
 106 prop tor  15   1  14  22
 107 prop tor  16   2   3   4
 108 prop tor  16   2   3  17
 109 prop tor  17   3   4   5
 110 prop tor  17   3   4  13
 111 prop tor  18   6   7   8
 112 prop tor  18   6   7  11
 113 prop tor  19   9  10  11
 114 prop tor  19   9  10  20
 115 prop tor  20  10  11   7
 116 prop tor  20  10  11  12
 117 prop tor  21  13  14   1
 118 prop tor  21  13  14  22
 nber bend=              38
 nber lin bend=           0
 nber prop tor=          56
 nber impr tor=           0
 nber tot redund int=         118
 generating redundant internal coords
         300        3600          22
 search for int coords
   1 str   2   1   1.404
   2 str   3   2   1.379
   3 str   4   3   1.434
   4 str   5   4   1.411
   5 str   6   5   1.437
   6 str   7   6   1.379
   7 str   8   7   1.768
   8 str   9   8   1.753
   9 str  10   9   1.385
  10 str  11   7   1.425
  11 str  11  10   1.398
  12 str  12   5   1.802
  13 str  12  11   1.758
  14 str  13   4   1.437
  15 str  14   1   1.404
  16 str  14  13   1.379
  17 str  15   1   1.084
  18 str  16   2   1.084
  19 str  17   3   1.084
  20 str  18   6   1.079
  21 str  19   9   1.079
  22 str  20  10   1.081
  23 str  21  13   1.083
  24 str  22  14   1.085
 nber stretches=          24
  25 ben   1   2   3
  26 prop tor   1   2   3   4
  27 prop tor   1   2   3  17
  28 ben   1   2  16
  29 ben   1  14  13
  30 ben   1  14  22
  31 ben   2   1  14
  32 prop tor   2   1  14  13
  33 prop tor   2   1  14  22
  34 ben   2   1  15
  35 ben   2   3   4
  36 prop tor   2   3   4   5
  37 prop tor   2   3   4  13
  38 ben   2   3  17
  39 ben   3   2  16
  40 ben   3   4   5
  41 prop tor   3   4   5   6
  42 prop tor   3   4   5  12
  43 ben   3   4  13
  44 prop tor   3   4  13  14
  45 prop tor   3   4  13  21
  46 ben   4   3  17
  47 ben   4   5   6
  48 prop tor   4   5   6   7
  49 prop tor   4   5   6  18
  50 ben   4   5  12
  51 prop tor   4   5  12  11
  52 ben   4  13  14
  53 prop tor   4  13  14   1
  54 prop tor   4  13  14  22
  55 ben   4  13  21
  56 ben   5   4  13
  57 prop tor   5   4  13  14
  58 prop tor   5   4  13  21
  59 ben   5   6   7
  60 prop tor   5   6   7   8
  61 prop tor   5   6   7  11
  62 ben   5   6  18
  63 ben   5  12  11
  64 ben   6   5  12
  65 prop tor   6   5  12  11
  66 ben   6   7   8
  67 prop tor   6   7   8   9
  68 ben   6   7  11
  69 prop tor   6   7  11  10
  70 prop tor   6   7  11  12
  71 ben   7   6  18
  72 ben   7   8   9
  73 prop tor   7   8   9  10
  74 prop tor   7   8   9  19
  75 ben   7  11  10
  76 ben   7  11  12
  77 prop tor   7  11  12   5
  78 ben   8   7  11
  79 prop tor   8   7  11  10
  80 prop tor   8   7  11  12
  81 ben   8   9  10
  82 prop tor   8   9  10  11
  83 prop tor   8   9  10  20
  84 ben   8   9  19
  85 ben   9  10  11
  86 prop tor   9  10  11   7
  87 prop tor   9  10  11  12
  88 ben   9  10  20
  89 ben  10   9  19
  90 ben  10  11  12
  91 prop tor  10  11  12   5
  92 prop tor  11   7   8   9
  93 ben  11  10  20
  94 prop tor  12   5   6   7
  95 prop tor  12   5   6  18
  96 prop tor  13   4   5   6
  97 prop tor  13   4   5  12
  98 ben  13  14  22
  99 prop tor  14   1   2   3
 100 prop tor  14   1   2  16
 101 ben  14   1  15
 102 ben  14  13  21
 103 prop tor  15   1   2   3
 104 prop tor  15   1   2  16
 105 prop tor  15   1  14  13
 106 prop tor  15   1  14  22
 107 prop tor  16   2   3   4
 108 prop tor  16   2   3  17
 109 prop tor  17   3   4   5
 110 prop tor  17   3   4  13
 111 prop tor  18   6   7   8
 112 prop tor  18   6   7  11
 113 prop tor  19   9  10  11
 114 prop tor  19   9  10  20
 115 prop tor  20  10  11   7
 116 prop tor  20  10  11  12
 117 prop tor  21  13  14   1
 118 prop tor  21  13  14  22
 nber bend=              38
 nber lin bend=           0
 nber prop tor=          56
 nber impr tor=           0
 nber tot redund int=         118
 Eigenvalues of G in red int coords
    Gval -0.00000000 -0.00000000 -0.00000000 -0.00000000 -0.00000000 -0.00000000 -0.00000000 -0.00000000
    Gval -0.00000000 -0.00000000 -0.00000000 -0.00000000 -0.00000000 -0.00000000 -0.00000000 -0.00000000
    Gval -0.00000000 -0.00000000 -0.00000000 -0.00000000 -0.00000000 -0.00000000 -0.00000000 -0.00000000
    Gval -0.00000000 -0.00000000 -0.00000000 -0.00000000 -0.00000000 -0.00000000 -0.00000000  0.00000000
    Gval  0.00000000  0.00000000  0.00000000  0.00000000  0.00000000  0.00000000  0.00000000  0.00000000
    Gval  0.00000000  0.00000000  0.00000000  0.00000000  0.00000000  0.00000000  0.00000000  0.00000000
    Gval  0.00000000  0.00000000  0.00000000  0.00000000  0.00000000  0.00000000  0.00000000  0.00000000
    Gval  0.00000000  0.00000000  0.00000273  0.00000529  0.00001493  0.00001631  0.00002088  0.00002985
    Gval  0.00003292  0.00003957  0.00004724  0.00004850  0.00005461  0.00006276  0.00006462  0.00008931
    Gval  0.00009186  0.00010244  0.00011149  0.00011625  0.00012596  0.00015273  0.00015535  0.00018284
    Gval  0.00022304  0.00026639  0.00029690  0.00030627  0.00030836  0.00036199  0.00037536  0.00043174
    Gval  0.00053257  0.00054904  0.00059303  0.00059361  0.00059654  0.00060372  0.00061967  0.00062357
    Gval  0.00063051  0.00065187  0.00065920  0.00103930  0.00106178  0.00108204  0.00110553  0.00113833
    Gval  0.00114649  0.00116969  0.00117085  0.00118192  0.00128163  0.00144743  0.00188077  0.00208187
    Gval  0.00232913  0.00311101  0.00357479  0.00372330  0.00392239  0.00405384
  2.730577928539625E-006  2.730577928539625E-006
  5.292828548044299E-006  2.730577928539625E-006
  1.493322825678034E-005  2.730577928539625E-006
  1.630629695956801E-005  2.730577928539625E-006
  2.088193242479046E-005  2.730577928539625E-006
  2.985256315861937E-005  2.730577928539625E-006
  3.291763050887578E-005  2.730577928539625E-006
  3.956822726016750E-005  2.730577928539625E-006
  4.723923392228735E-005  2.730577928539625E-006
  4.849980713810578E-005  2.730577928539625E-006
  5.460741972721577E-005  2.730577928539625E-006
  6.275672319752726E-005  2.730577928539625E-006
  6.461920906099096E-005  2.730577928539625E-006
  8.931070297040100E-005  2.730577928539625E-006
  9.186240090968148E-005  2.730577928539625E-006
  1.024375837350176E-004  2.730577928539625E-006
  1.114879848065968E-004  2.730577928539625E-006
  1.162491972082033E-004  2.730577928539625E-006
  1.259629751540394E-004  2.730577928539625E-006
  1.527276276071990E-004  2.730577928539625E-006
  1.553460006345892E-004  2.730577928539625E-006
  1.828393759538677E-004  2.730577928539625E-006
  2.230378062456314E-004  2.730577928539625E-006
  2.663866385932321E-004  2.730577928539625E-006
  2.968985491092695E-004  2.730577928539625E-006
  3.062674421361151E-004  2.730577928539625E-006
  3.083632961331516E-004  2.730577928539625E-006
  3.619920453568048E-004  2.730577928539625E-006
  3.753568249709076E-004  2.730577928539625E-006
  4.317434773976566E-004  2.730577928539625E-006
  5.325733608867740E-004  2.730577928539625E-006
  5.490389024111357E-004  2.730577928539625E-006
  5.930348071542537E-004  2.730577928539625E-006
  5.936069990004864E-004  2.730577928539625E-006
  5.965436259549512E-004  2.730577928539625E-006
  6.037248900239236E-004  2.730577928539625E-006
  6.196742412756701E-004  2.730577928539625E-006
  6.235703368762008E-004  2.730577928539625E-006
  6.305076011398735E-004  2.730577928539625E-006
  6.518724222292976E-004  2.730577928539625E-006
  6.592010487538849E-004  2.730577928539625E-006
  1.039301730339654E-003  2.730577928539625E-006
  1.061780457804580E-003  2.730577928539625E-006
  1.082044528128368E-003  2.730577928539625E-006
  1.105525242282077E-003  2.730577928539625E-006
  1.138334531691397E-003  2.730577928539625E-006
  1.146493803546079E-003  2.730577928539625E-006
  1.169694569165901E-003  2.730577928539625E-006
  1.170847224538000E-003  2.730577928539625E-006
  1.181922921094088E-003  2.730577928539625E-006
  1.281631458075377E-003  2.730577928539625E-006
  1.447433572491779E-003  2.730577928539625E-006
  1.880767503779450E-003  2.730577928539625E-006
  2.081867780833523E-003  2.730577928539625E-006
  2.329130332138223E-003  2.730577928539625E-006
  3.111005013907089E-003  2.730577928539625E-006
  3.574791511913015E-003  2.730577928539625E-006
  3.723295570341592E-003  2.730577928539625E-006
  3.922387383403920E-003  2.730577928539625E-006
  4.053841771373233E-003  2.730577928539625E-006
 cut=1d-8, nber non-redundant internal coords=          60
 Check on Eigenvals of non-red overlap matrix:
  0.00000273  0.00000529  0.00001493  0.00001631  0.00002088  0.00002985  0.00003292  0.00003957
  0.00004724  0.00004850  0.00005461  0.00006276  0.00006462  0.00008931  0.00009186  0.00010244
  0.00011149  0.00011625  0.00012596  0.00015273  0.00015535  0.00018284  0.00022304  0.00026639
  0.00029690  0.00030627  0.00030836  0.00036199  0.00037536  0.00043174  0.00053257  0.00054904
  0.00059303  0.00059361  0.00059654  0.00060372  0.00061967  0.00062357  0.00063051  0.00065187
  0.00065920  0.00103930  0.00106178  0.00108204  0.00110553  0.00113833  0.00114649  0.00116969
  0.00117085  0.00118192  0.00128163  0.00144743  0.00188077  0.00208187  0.00232913  0.00311101
  0.00357479  0.00372330  0.00392239  0.00405384
 generating redundant internal coords
         300        3600          22
 search for int coords
   1 str   2   1   1.401
   2 str   3   2   1.380
   3 str   4   3   1.420
   4 str   5   4   1.432
   5 str   6   5   1.418
   6 str   7   6   1.380
   7 str   8   7   1.752
   8 str   9   8   1.732
   9 str  10   9   1.387
  10 str  11   7   1.421
  11 str  11  10   1.396
  12 str  12   5   1.770
  13 str  12  11   1.739
  14 str  13   4   1.422
  15 str  14   1   1.400
  16 str  14  13   1.381
  17 str  15   1   1.083
  18 str  16   2   1.083
  19 str  17   3   1.084
  20 str  18   6   1.080
  21 str  19   9   1.081
  22 str  20  10   1.080
  23 str  21  13   1.082
  24 str  22  14   1.083
 nber stretches=          24
  25 ben   1   2   3
  26 prop tor   1   2   3   4
  27 prop tor   1   2   3  17
  28 ben   1   2  16
  29 ben   1  14  13
  30 ben   1  14  22
  31 ben   2   1  14
  32 prop tor   2   1  14  13
  33 prop tor   2   1  14  22
  34 ben   2   1  15
  35 ben   2   3   4
  36 prop tor   2   3   4   5
  37 prop tor   2   3   4  13
  38 ben   2   3  17
  39 ben   3   2  16
  40 ben   3   4   5
  41 prop tor   3   4   5   6
  42 prop tor   3   4   5  12
  43 ben   3   4  13
  44 prop tor   3   4  13  14
  45 prop tor   3   4  13  21
  46 ben   4   3  17
  47 ben   4   5   6
  48 prop tor   4   5   6   7
  49 prop tor   4   5   6  18
  50 ben   4   5  12
  51 prop tor   4   5  12  11
  52 ben   4  13  14
  53 prop tor   4  13  14   1
  54 prop tor   4  13  14  22
  55 ben   4  13  21
  56 ben   5   4  13
  57 prop tor   5   4  13  14
  58 prop tor   5   4  13  21
  59 ben   5   6   7
  60 prop tor   5   6   7   8
  61 prop tor   5   6   7  11
  62 ben   5   6  18
  63 ben   5  12  11
  64 ben   6   5  12
  65 prop tor   6   5  12  11
  66 ben   6   7   8
  67 prop tor   6   7   8   9
  68 ben   6   7  11
  69 prop tor   6   7  11  10
  70 prop tor   6   7  11  12
  71 ben   7   6  18
  72 ben   7   8   9
  73 prop tor   7   8   9  10
  74 prop tor   7   8   9  19
  75 ben   7  11  10
  76 ben   7  11  12
  77 prop tor   7  11  12   5
  78 ben   8   7  11
  79 prop tor   8   7  11  10
  80 prop tor   8   7  11  12
  81 ben   8   9  10
  82 prop tor   8   9  10  11
  83 prop tor   8   9  10  20
  84 ben   8   9  19
  85 ben   9  10  11
  86 prop tor   9  10  11   7
  87 prop tor   9  10  11  12
  88 ben   9  10  20
  89 ben  10   9  19
  90 ben  10  11  12
  91 prop tor  10  11  12   5
  92 prop tor  11   7   8   9
  93 ben  11  10  20
  94 prop tor  12   5   6   7
  95 prop tor  12   5   6  18
  96 prop tor  13   4   5   6
  97 prop tor  13   4   5  12
  98 ben  13  14  22
  99 prop tor  14   1   2   3
 100 prop tor  14   1   2  16
 101 ben  14   1  15
 102 ben  14  13  21
 103 prop tor  15   1   2   3
 104 prop tor  15   1   2  16
 105 prop tor  15   1  14  13
 106 prop tor  15   1  14  22
 107 prop tor  16   2   3   4
 108 prop tor  16   2   3  17
 109 prop tor  17   3   4   5
 110 prop tor  17   3   4  13
 111 prop tor  18   6   7   8
 112 prop tor  18   6   7  11
 113 prop tor  19   9  10  11
 114 prop tor  19   9  10  20
 115 prop tor  20  10  11   7
 116 prop tor  20  10  11  12
 117 prop tor  21  13  14   1
 118 prop tor  21  13  14  22
 nber bend=              38
 nber lin bend=           0
 nber prop tor=          56
 nber impr tor=           0
 nber tot redund int=         118
 Eigenvalues of G in red int coords
    Gval -0.00000000 -0.00000000 -0.00000000 -0.00000000 -0.00000000 -0.00000000 -0.00000000 -0.00000000
    Gval -0.00000000 -0.00000000 -0.00000000 -0.00000000 -0.00000000 -0.00000000 -0.00000000 -0.00000000
    Gval -0.00000000 -0.00000000 -0.00000000 -0.00000000 -0.00000000 -0.00000000 -0.00000000 -0.00000000
    Gval -0.00000000 -0.00000000 -0.00000000  0.00000000  0.00000000  0.00000000  0.00000000  0.00000000
    Gval  0.00000000  0.00000000  0.00000000  0.00000000  0.00000000  0.00000000  0.00000000  0.00000000
    Gval  0.00000000  0.00000000  0.00000000  0.00000000  0.00000000  0.00000000  0.00000000  0.00000000
    Gval  0.00000000  0.00000000  0.00000000  0.00000000  0.00000000  0.00000000  0.00000000  0.00000000
    Gval  0.00000000  0.00000000  0.00000274  0.00000533  0.00001501  0.00001621  0.00002100  0.00003003
    Gval  0.00003313  0.00003991  0.00004721  0.00004856  0.00005473  0.00006294  0.00006483  0.00008973
    Gval  0.00009311  0.00010252  0.00011205  0.00011651  0.00012622  0.00015493  0.00015671  0.00018504
    Gval  0.00022265  0.00026869  0.00029767  0.00030982  0.00031155  0.00036505  0.00037474  0.00042876
    Gval  0.00053000  0.00055698  0.00059304  0.00059363  0.00059656  0.00060398  0.00062009  0.00062364
    Gval  0.00063077  0.00065771  0.00066015  0.00104193  0.00105636  0.00108072  0.00111035  0.00113952
    Gval  0.00114586  0.00117313  0.00117391  0.00118191  0.00128329  0.00144950  0.00188198  0.00206254
    Gval  0.00235203  0.00311010  0.00355695  0.00374852  0.00394525  0.00406307
  2.744614254607693E-006  2.744614254607693E-006
  5.330381549741834E-006  2.744614254607693E-006
  1.501200822926403E-005  2.744614254607693E-006
  1.620861311157974E-005  2.744614254607693E-006
  2.100095180611127E-005  2.744614254607693E-006
  3.002923048203261E-005  2.744614254607693E-006
  3.313218826808893E-005  2.744614254607693E-006
  3.991207793097807E-005  2.744614254607693E-006
  4.720567138836684E-005  2.744614254607693E-006
  4.855833808428539E-005  2.744614254607693E-006
  5.472751887518141E-005  2.744614254607693E-006
  6.294227223736546E-005  2.744614254607693E-006
  6.483225566114325E-005  2.744614254607693E-006
  8.973471347362658E-005  2.744614254607693E-006
  9.311052061119274E-005  2.744614254607693E-006
  1.025172545833078E-004  2.744614254607693E-006
  1.120455854227784E-004  2.744614254607693E-006
  1.165050907250629E-004  2.744614254607693E-006
  1.262183191442243E-004  2.744614254607693E-006
  1.549298754637729E-004  2.744614254607693E-006
  1.567146857711444E-004  2.744614254607693E-006
  1.850370472584977E-004  2.744614254607693E-006
  2.226520908422921E-004  2.744614254607693E-006
  2.686875729317855E-004  2.744614254607693E-006
  2.976679832372102E-004  2.744614254607693E-006
  3.098158104360650E-004  2.744614254607693E-006
  3.115491536339195E-004  2.744614254607693E-006
  3.650468709881471E-004  2.744614254607693E-006
  3.747448443711675E-004  2.744614254607693E-006
  4.287629414488872E-004  2.744614254607693E-006
  5.299980144735700E-004  2.744614254607693E-006
  5.569782951916183E-004  2.744614254607693E-006
  5.930369742836865E-004  2.744614254607693E-006
  5.936301215364205E-004  2.744614254607693E-006
  5.965562909702203E-004  2.744614254607693E-006
  6.039818918536757E-004  2.744614254607693E-006
  6.200858935076767E-004  2.744614254607693E-006
  6.236366250045654E-004  2.744614254607693E-006
  6.307677312849854E-004  2.744614254607693E-006
  6.577081442282561E-004  2.744614254607693E-006
  6.601508214377625E-004  2.744614254607693E-006
  1.041930587032967E-003  2.744614254607693E-006
  1.056357896776903E-003  2.744614254607693E-006
  1.080717018044444E-003  2.744614254607693E-006
  1.110351079383060E-003  2.744614254607693E-006
  1.139523897236053E-003  2.744614254607693E-006
  1.145861290164345E-003  2.744614254607693E-006
  1.173126506977450E-003  2.744614254607693E-006
  1.173914642767191E-003  2.744614254607693E-006
  1.181914524444908E-003  2.744614254607693E-006
  1.283293308398212E-003  2.744614254607693E-006
  1.449499909446395E-003  2.744614254607693E-006
  1.881983415942572E-003  2.744614254607693E-006
  2.062537170912114E-003  2.744614254607693E-006
  2.352025144261309E-003  2.744614254607693E-006
  3.110104578096483E-003  2.744614254607693E-006
  3.556952413000491E-003  2.744614254607693E-006
  3.748521229373167E-003  2.744614254607693E-006
  3.945246818098667E-003  2.744614254607693E-006
  4.063072212555014E-003  2.744614254607693E-006
 cut=1d-8, nber non-redundant internal coords=          60
 Check on Eigenvals of non-red overlap matrix:
  0.00000274  0.00000533  0.00001501  0.00001621  0.00002100  0.00003003  0.00003313  0.00003991
  0.00004721  0.00004856  0.00005473  0.00006294  0.00006483  0.00008973  0.00009311  0.00010252
  0.00011205  0.00011651  0.00012622  0.00015493  0.00015671  0.00018504  0.00022265  0.00026869
  0.00029767  0.00030982  0.00031155  0.00036505  0.00037474  0.00042876  0.00053000  0.00055698
  0.00059304  0.00059363  0.00059656  0.00060398  0.00062009  0.00062364  0.00063077  0.00065771
  0.00066015  0.00104193  0.00105636  0.00108072  0.00111035  0.00113952  0.00114586  0.00117313
  0.00117391  0.00118191  0.00128329  0.00144950  0.00188198  0.00206254  0.00235203  0.00311010
  0.00355695  0.00374852  0.00394525  0.00406307
 d1=
  -5.9  -7.2  -0.1   0.2  -4.1  -0.1  -1.3   0.1   1.1  -1.5   2.9   1.3   2.4  -0.6   0.0  -1.8  -0.5   1.0   0.6  -0.0
   2.4   1.2   1.5  -2.5  -1.2   1.4  -0.0   0.4   0.6  -0.5   0.0   0.0   0.0   0.0   0.2   0.3   0.3  -0.4  -0.2  -0.0
  -0.2  -0.0  -0.0   0.4  -0.7   0.1   0.6  -0.6  -0.0  -0.3  -0.0  -0.0   0.0   0.0   0.0   0.0  -0.0  -0.0   0.0  -0.0
 d2=
  -5.9   7.2   0.0  -0.1   4.2  -0.1  -1.3   0.2  -1.0   1.5   2.9  -1.4  -2.4   0.6  -0.0   1.8   0.5   0.9   0.6   0.0
   2.4  -1.3   1.5  -2.5   1.3  -1.3   0.0  -0.5  -0.6  -0.5   0.0  -0.0   0.0  -0.0  -0.2   0.3   0.3  -0.4  -0.2  -0.0
  -0.2   0.0  -0.0  -0.4  -0.7   0.1  -0.6  -0.2   0.5   0.3   0.0   0.0   0.0  -0.0  -0.0  -0.0  -0.0   0.0  -0.0   0.0
 curvilinear- renormalizn of Dush matrix done
  mol 1 sym            1  -> mol 2 sym            1

 Dushinsky matrix, ncs 2 in terms of ncs 1

   mode   freq    coeff     %      %tot     of    at

   1        -0. -0.0000     0.0     0.0   8        48.
   2        -0.  0.0000     0.0     0.0   8        48.
   3        -0.  0.0000     0.0     0.0   8        48.
   4         0.  0.0000     0.0     0.0   8        48.
   5         0. -0.0000     0.0     0.0   8        48.
   6         0.  0.0000     0.0     0.0   8        48.
   7        24.  0.6000    36.0   100.1   7        43.
                -0.7931    62.9           8        48.
   8        62. -0.7854    61.7   101.2   7        43.
                -0.6101    37.2           8        48.
   9       117. -0.9996    99.9   100.8   9       107.
  10       155.  0.9781    95.7   100.4  10       113.
  11       203.  0.9113    83.1   101.8  11       174.
                -0.3714    13.8          12       212.
  12       267. -0.9987    99.7   101.1  13       260.
  13       279.  0.3637    13.2   101.1  11       174.
                 0.9176    84.2          12       212.
  14       315.  0.9980    99.6    99.7  14       305.
  15       387. -0.9953    99.1    98.5  16       404.
  16       427.  0.9796    96.0   100.7  17       408.
  17       434.  0.9609    92.3   102.2  15       367.
  18       454. -0.9822    96.5   100.5  18       432.
  19       462.  0.9832    96.7   100.7  19       435.
  20       563.  0.9673    93.6   100.3  20       507.
  21       582.  0.9861    97.2   101.3  21       557.
  22       617.  0.5117    26.2    99.9  23       610.
                -0.8388    70.4          24       617.
  23       625.  0.9742    94.9   100.1  22       588.
  24       641.  0.8278    68.5   101.7  23       610.
                 0.5355    28.7          24       617.
  25       665.  0.9427    88.9   100.2  27       645.
  26       683.  0.9512    90.5    99.9  26       645.
  27       759. -0.9918    98.4   100.2  29       733.
  28       765. -0.9487    90.0    99.5  25       631.
  29       783.  0.9521    90.6   101.0  30       738.
  30       806. -0.9851    97.0   100.7  32       783.
  31       826. -0.9706    94.2   100.9  31       767.
  32       856.  0.9034    81.6    99.7  28       689.
  33       893.  0.9877    97.6   100.3  35       870.
  34       905. -0.9688    93.9   100.2  34       856.
  35       949.  0.9781    95.7   100.1  33       836.
  36       974. -0.9879    97.6   100.3  36       943.
  37       998.  0.9935    98.7   100.6  37       954.
  38      1007. -0.9845    96.9   100.4  39       992.
  39      1028. -0.9756    95.2   100.2  38       970.
  40      1040.  0.9945    98.9   100.1  40      1025.
  41      1099. -0.6878    47.3   100.0  41      1068.
                -0.6977    48.7          42      1089.
  42      1113. -0.5875    34.5   100.4  41      1068.
                 0.6868    47.2          42      1089.
                -0.4016    16.1          43      1129.
  43      1170.  0.3508    12.3   100.2  41      1068.
                -0.8556    73.2          43      1129.
  44      1194.  0.8241    67.9   100.2  44      1165.
                -0.5100    26.0          45      1179.
  45      1204.  0.4407    19.4   100.3  44      1165.
                 0.8323    69.3          45      1179.
  46      1224.  0.9550    91.2   100.1  46      1210.
  47      1245. -0.9626    92.7   100.0  47      1230.
  48      1336. -0.9686    93.8   100.2  48      1306.
  49      1353.  0.9501    90.3   100.0  49      1333.
  50      1373.  0.9735    94.8   100.1  50      1371.
  51      1409.  0.7819    61.1   100.5  51      1402.
                 0.5320    28.3          52      1418.
  52      1425.  0.4708    22.2   100.2  51      1402.
                -0.7828    61.3          52      1418.
  53      1445.  0.3334    11.1   100.2  51      1402.
                -0.9078    82.4          53      1432.
  54      1477. -0.8702    75.7   100.3  54      1459.
  55      1515.  0.9747    95.0   100.3  55      1496.
  56      1531. -0.6263    39.2   100.3  56      1532.
                -0.7311    53.4          57      1539.
  57      1577. -0.7190    51.7   100.3  56      1532.
                 0.6260    39.2          57      1539.
  58      1624.  0.9825    96.5   100.1  58      1635.
  59      3182.  0.8934    79.8   100.0  59      3159.
  60      3190.  0.3701    13.7   100.0  59      3159.
                -0.7878    62.1          60      3163.
                -0.4314    18.6          61      3175.
  61      3199. -0.5213    27.2   100.0  60      3163.
                 0.8002    64.0          61      3175.
  62      3207.  0.9086    82.5   100.0  62      3186.
  63      3213. -0.9525    90.7   100.0  63      3193.
  64      3226.  0.8796    77.4   100.0  64      3209.
                -0.4757    22.6          66      3242.
  65      3238. -0.9035    81.6   100.0  65      3233.
                 0.3663    13.4          66      3242.
  66      3239. -0.4316    18.6   100.0  64      3209.
                -0.4153    17.3          65      3233.
                -0.7996    63.9          66      3242.
 nber times 1st assigned=           1           0
 nber times 1st assigned=           2           0
 nber times 1st assigned=           3           0
 nber times 1st assigned=           4           0
 nber times 1st assigned=           5           0
 nber times 1st assigned=           6           0
 nber times 1st assigned=           7           0
 nber times 1st assigned=           8           6
 nber times 1st assigned=           9           0
 nber times 1st assigned=          10           0
 nber times 1st assigned=          11           0
 nber times 1st assigned=          12           0
 nber times 1st assigned=          13           0
 nber times 1st assigned=          14           0
 nber times 1st assigned=          15           0
 nber times 1st assigned=          16           0
 nber times 1st assigned=          17           0
 nber times 1st assigned=          18           0
 nber times 1st assigned=          19           0
 nber times 1st assigned=          20           0
 nber times 1st assigned=          21           0
 nber times 1st assigned=          22           0
 nber times 1st assigned=          23           0
 nber times 1st assigned=          24           0
 nber times 1st assigned=          25           0
 nber times 1st assigned=          26           0
 nber times 1st assigned=          27           0
 nber times 1st assigned=          28           0
 nber times 1st assigned=          29           0
 nber times 1st assigned=          30           0
 nber times 1st assigned=          31           0
 nber times 1st assigned=          32           0
 nber times 1st assigned=          33           0
 nber times 1st assigned=          34           0
 nber times 1st assigned=          35           0
 nber times 1st assigned=          36           0
 nber times 1st assigned=          37           0
 nber times 1st assigned=          38           0
 nber times 1st assigned=          39           0
 nber times 1st assigned=          40           0
 nber times 1st assigned=          41           0
 nber times 1st assigned=          42           0
 nber times 1st assigned=          43           0
 nber times 1st assigned=          44           0
 nber times 1st assigned=          45           0
 nber times 1st assigned=          46           0
 nber times 1st assigned=          47           0
 nber times 1st assigned=          48           0
 nber times 1st assigned=          49           0
 nber times 1st assigned=          50           0
 nber times 1st assigned=          51           0
 nber times 1st assigned=          52           0
 nber times 1st assigned=          53           0
 nber times 1st assigned=          54           0
 nber times 1st assigned=          55           0
 nber times 1st assigned=          56           0
 nber times 1st assigned=          57           0
 nber times 1st assigned=          58           0
 nber times 1st assigned=          59           0
 nber times 1st assigned=          60           0
 nber times 1st assigned=          61           0
 nber times 1st assigned=          62           0
 nber times 1st assigned=          63           0
 nber times 1st assigned=          64           0
 nber times 1st assigned=          65           0
 nber times 1st assigned=          66           0
 Dushinsky matrix written to .out file
 modes represented=   60.2019504191603     

 Dushinsky matrix, ncs 1 in terms of ncs 2

   mode   freq    coeff     %      %tot     of    at

   7        43.  0.6000    36.0   100.7   7        24.
                -0.7854    61.7           8        62.
   8        48. -0.7931    62.9   102.0   7        24.
                -0.6101    37.2           8        62.
   9       107. -0.9996    99.9   100.9   9       117.
  10       113.  0.9781    95.7   100.4  10       155.
  11       174.  0.9113    83.1   101.1  11       203.
                 0.3637    13.2          13       279.
  12       212. -0.3714    13.8   102.0  11       203.
                 0.9176    84.2          13       279.
  13       260. -0.9987    99.7   101.4  12       267.
  14       305.  0.9980    99.6    99.8  14       315.
  15       367.  0.9609    92.3   102.5  17       434.
  16       404. -0.9953    99.1    98.5  15       387.
  17       408.  0.9796    96.0   101.1  16       427.
  18       432. -0.9822    96.5   100.4  18       454.
  19       435.  0.9832    96.7   100.5  19       462.
  20       507.  0.9673    93.6    99.4  20       563.
  21       557.  0.9861    97.2   101.1  21       582.
  22       588.  0.9742    94.9    99.9  23       625.
  23       610.  0.5117    26.2   101.0  22       617.
                 0.8278    68.5          24       641.
  24       617. -0.8388    70.4   100.3  22       617.
                 0.5355    28.7          24       641.
  25       631. -0.9487    90.0    98.5  28       765.
  26       645.  0.9512    90.5   100.0  26       683.
  27       645.  0.9427    88.9    99.8  25       665.
  28       689.  0.9034    81.6    99.7  32       856.
  29       733. -0.9918    98.4   100.2  27       759.
  30       738.  0.9521    90.6   100.9  29       783.
  31       767. -0.9706    94.2   100.9  31       826.
  32       783. -0.9851    97.0   100.7  30       806.
  33       836.  0.9781    95.7    99.9  35       949.
  34       856. -0.9688    93.9   101.1  34       905.
  35       870.  0.9877    97.6   100.4  33       893.
  36       943. -0.9879    97.6   100.3  36       974.
  37       954.  0.9935    98.7   100.7  37       998.
  38       970. -0.9756    95.2   100.5  39      1028.
  39       992. -0.9845    96.9   100.4  38      1007.
  40      1025.  0.9945    98.9   100.1  40      1040.
  41      1068. -0.6878    47.3   100.4  41      1099.
                -0.5875    34.5          42      1113.
                 0.3508    12.3          43      1170.
  42      1089. -0.6977    48.7   100.1  41      1099.
                 0.6868    47.2          42      1113.
  43      1129. -0.4016    16.1   100.2  42      1113.
                -0.8556    73.2          43      1170.
  44      1165.  0.8241    67.9   100.3  44      1194.
                 0.4407    19.4          45      1204.
  45      1179. -0.5100    26.0   100.2  44      1194.
                 0.8323    69.3          45      1204.
  46      1210.  0.9550    91.2   100.1  46      1224.
  47      1230. -0.9626    92.7    99.9  47      1245.
  48      1306. -0.9686    93.8   100.2  48      1336.
  49      1333.  0.9501    90.3   100.0  49      1353.
  50      1371.  0.9735    94.8   100.1  50      1373.
  51      1402.  0.7819    61.1   100.7  51      1409.
                 0.4708    22.2          52      1425.
                 0.3334    11.1          53      1445.
  52      1418.  0.5320    28.3   100.1  51      1409.
                -0.7828    61.3          52      1425.
  53      1432. -0.9078    82.4   100.1  53      1445.
  54      1459. -0.8702    75.7   100.2  54      1477.
  55      1496.  0.9747    95.0   100.3  55      1515.
  56      1532. -0.6263    39.2   100.2  56      1531.
                -0.7190    51.7          57      1577.
  57      1539. -0.7311    53.4   100.2  56      1531.
                 0.6260    39.2          57      1577.
  58      1635.  0.9825    96.5   100.0  58      1624.
  59      3159.  0.8934    79.8   100.0  59      3182.
                 0.3701    13.7          60      3190.
  60      3163. -0.7878    62.1   100.0  60      3190.
                -0.5213    27.2          61      3199.
  61      3175. -0.4314    18.6   100.0  60      3190.
                 0.8002    64.0          61      3199.
  62      3186.  0.9086    82.5   100.0  62      3207.
  63      3193. -0.9525    90.7   100.0  63      3213.
  64      3209.  0.8796    77.4   100.0  64      3226.
                -0.4316    18.6          66      3239.
  65      3233. -0.9035    81.6   100.0  65      3238.
                -0.4153    17.3          66      3239.
  66      3242. -0.4757    22.6   100.0  64      3226.
                 0.3663    13.4          65      3238.
                -0.7996    63.9          66      3239.
 nber times 1st assigned=           1           0
 nber times 1st assigned=           2           0
 nber times 1st assigned=           3           0
 nber times 1st assigned=           4           0
 nber times 1st assigned=           5           0
 nber times 1st assigned=           6           0
 nber times 1st assigned=           7           0
 nber times 1st assigned=           8           0
 nber times 1st assigned=           9           0
 nber times 1st assigned=          10           0
 nber times 1st assigned=          11           0
 nber times 1st assigned=          12           0
 nber times 1st assigned=          13           0
 nber times 1st assigned=          14           0
 nber times 1st assigned=          15           0
 nber times 1st assigned=          16           0
 nber times 1st assigned=          17           0
 nber times 1st assigned=          18           0
 nber times 1st assigned=          19           0
 nber times 1st assigned=          20           0
 nber times 1st assigned=          21           0
 nber times 1st assigned=          22           0
 nber times 1st assigned=          23           0
 nber times 1st assigned=          24           0
 nber times 1st assigned=          25           0
 nber times 1st assigned=          26           0
 nber times 1st assigned=          27           0
 nber times 1st assigned=          28           0
 nber times 1st assigned=          29           0
 nber times 1st assigned=          30           0
 nber times 1st assigned=          31           0
 nber times 1st assigned=          32           0
 nber times 1st assigned=          33           0
 nber times 1st assigned=          34           0
 nber times 1st assigned=          35           0
 nber times 1st assigned=          36           0
 nber times 1st assigned=          37           0
 nber times 1st assigned=          38           0
 nber times 1st assigned=          39           0
 nber times 1st assigned=          40           0
 nber times 1st assigned=          41           0
 nber times 1st assigned=          42           0
 nber times 1st assigned=          43           0
 nber times 1st assigned=          44           0
 nber times 1st assigned=          45           0
 nber times 1st assigned=          46           0
 nber times 1st assigned=          47           0
 nber times 1st assigned=          48           0
 nber times 1st assigned=          49           0
 nber times 1st assigned=          50           0
 nber times 1st assigned=          51           0
 nber times 1st assigned=          52           0
 nber times 1st assigned=          53           0
 nber times 1st assigned=          54           0
 nber times 1st assigned=          55           0
 nber times 1st assigned=          56           0
 nber times 1st assigned=          57           0
 nber times 1st assigned=          58           0
 nber times 1st assigned=          59           0
 nber times 1st assigned=          60           0
 nber times 1st assigned=          61           0
 nber times 1st assigned=          62           0
 nber times 1st assigned=          63           0
 nber times 1st assigned=          64           0
 nber times 1st assigned=          65           0
 nber times 1st assigned=          66           0
 modes represented=   60.2019504191603     
 p1=
   -0.   -0.    0.   -0.    0.    0.    0.    0.    5.    0.   -0.    0.   -7.    3.   -0.   -0.   -0.    3.   -0.    0.
    0.    0.   -4.   -1.    0.    3.    0.    0.   -4.    0.    0.    0.   -0.   -0.    1.   -2.    0.    0.   -2.   -0.
   -1.    0.    0.    0.    0.   -0.    0.    0.   -0.   -0.    0.    1.   -0.    0.   -0.   -1.   -2.   -2.   -0.    0.
    0.    0.    0.   -0.   -0.    0.
 p2=
   -0.   -0.   -0.    0.   -0.    0.    0.    0.    5.   -0.    0.   -7.    0.   -3.   -0.   -0.    0.    3.    0.    0.
    0.    1.   -0.    3.    0.   -4.   -4.   -0.   -0.    0.    0.    0.   -2.   -0.   -0.   -1.   -0.   -2.    0.    0.
   -0.   -0.    0.   -0.   -0.    0.    1.    1.   -0.   -0.   -1.    1.   -0.    0.    0.   -2.    0.    1.    0.    0.
   -0.    0.    0.    0.   -0.    0.

 Displacement: in terms of nc of 1 THEN of nc of 2

   1     freq=    -0. Q= -0.000 lam=    -0.0     freq=    -0. Q= -0.000 lam=    -0.0
   2     freq=    -0. Q= -0.000 lam=    -0.0     freq=    -0. Q= -0.000 lam=    -0.0
   3     freq=    -0. Q=  0.000 lam=    -0.0     freq=    -0. Q=  0.000 lam=    -0.0
   4     freq=    -0. Q= -0.000 lam=    -0.0     freq=     0. Q= -0.000 lam=     0.0
   5     freq=     0. Q=  0.000 lam=     0.0     freq=     0. Q=  0.000 lam=     0.0
   6     freq=     0. Q=  0.000 lam=     0.0     freq=     0. Q=  0.000 lam=     0.0
   7     freq=    43. Q=  0.000 lam=     0.0     freq=    24. Q=  0.002 lam=     0.0
   8     freq=    48. Q=  0.004 lam=     0.0     freq=    62. Q=  0.003 lam=     0.0
   9     freq=   107. Q=  0.212 lam=     2.4     freq=   117. Q=  0.225 lam=     2.9
  10     freq=   113. Q=  0.002 lam=     0.0     freq=   155. Q=  0.001 lam=     0.0
  11     freq=   174. Q= -0.001 lam=     0.0     freq=   203. Q= -0.001 lam=     0.0
  12     freq=   212. Q=  0.001 lam=     0.0     freq=   267. Q=  0.460 lam=    28.3
  13     freq=   260. Q= -0.461 lam=    27.6     freq=   279. Q= -0.001 lam=     0.0
  14     freq=   305. Q=  0.191 lam=     5.6     freq=   315. Q=  0.215 lam=     7.3
  15     freq=   367. Q= -0.001 lam=     0.0     freq=   387. Q= -0.000 lam=     0.0
  16     freq=   404. Q= -0.000 lam=     0.0     freq=   427. Q= -0.004 lam=     0.0
  17     freq=   408. Q= -0.001 lam=     0.0     freq=   434. Q= -0.000 lam=     0.0
  18     freq=   432. Q=  0.277 lam=    16.6     freq=   454. Q=  0.289 lam=    19.0
  19     freq=   435. Q= -0.001 lam=     0.0     freq=   462. Q= -0.000 lam=     0.0
  20     freq=   507. Q=  0.000 lam=     0.0     freq=   563. Q=  0.000 lam=     0.0
  21     freq=   557. Q=  0.035 lam=     0.4     freq=   582. Q=  0.017 lam=     0.1
  22     freq=   588. Q=  0.000 lam=     0.0     freq=   617. Q=  0.102 lam=     3.2
  23     freq=   610. Q= -0.403 lam=    49.5     freq=   625. Q= -0.000 lam=     0.0
  24     freq=   617. Q= -0.064 lam=     1.3     freq=   641. Q= -0.325 lam=    33.9
  25     freq=   631. Q=  0.000 lam=     0.0     freq=   665. Q=  0.001 lam=     0.0
  26     freq=   645. Q=  0.323 lam=    33.7     freq=   683. Q=  0.375 lam=    48.0
  27     freq=   645. Q=  0.043 lam=     0.6     freq=   759. Q=  0.461 lam=    80.6
  28     freq=   689. Q=  0.000 lam=     0.0     freq=   765. Q=  0.001 lam=     0.0
  29     freq=   733. Q= -0.416 lam=    63.4     freq=   783. Q= -0.000 lam=     0.0
  30     freq=   738. Q=  0.000 lam=     0.0     freq=   806. Q=  0.021 lam=     0.2
  31     freq=   767. Q=  0.001 lam=     0.0     freq=   826. Q=  0.001 lam=     0.0
  32     freq=   783. Q=  0.032 lam=     0.4     freq=   856. Q=  0.001 lam=     0.0
  33     freq=   836. Q= -0.000 lam=     0.0     freq=   893. Q= -0.201 lam=    18.1
  34     freq=   856. Q= -0.000 lam=     0.0     freq=   905. Q= -0.000 lam=     0.0
  35     freq=   870. Q=  0.163 lam=    11.5     freq=   949. Q=  0.000 lam=     0.0
  36     freq=   943. Q= -0.187 lam=    16.5     freq=   974. Q= -0.129 lam=     8.1
  37     freq=   954. Q=  0.000 lam=     0.0     freq=   998. Q=  0.000 lam=     0.0
  38     freq=   970. Q=  0.000 lam=     0.0     freq=  1007. Q=  0.213 lam=    22.9
  39     freq=   992. Q= -0.191 lam=    18.1     freq=  1028. Q= -0.000 lam=     0.0
  40     freq=  1025. Q= -0.052 lam=     1.4     freq=  1040. Q= -0.038 lam=     0.8
  41     freq=  1068. Q= -0.097 lam=     5.0     freq=  1099. Q= -0.036 lam=     0.7
  42     freq=  1089. Q=  0.006 lam=     0.0     freq=  1113. Q=  0.034 lam=     0.6
  43     freq=  1129. Q=  0.034 lam=     0.6     freq=  1170. Q=  0.057 lam=     1.9
  44     freq=  1165. Q=  0.024 lam=     0.3     freq=  1194. Q=  0.038 lam=     0.9
  45     freq=  1179. Q=  0.006 lam=     0.0     freq=  1204. Q=  0.043 lam=     1.1
  46     freq=  1210. Q= -0.024 lam=     0.3     freq=  1224. Q= -0.045 lam=     1.2
  47     freq=  1230. Q=  0.053 lam=     1.7     freq=  1245. Q=  0.085 lam=     4.5
  48     freq=  1306. Q=  0.065 lam=     2.7     freq=  1336. Q=  0.087 lam=     5.0
  49     freq=  1333. Q= -0.044 lam=     1.3     freq=  1353. Q= -0.026 lam=     0.5
  50     freq=  1371. Q= -0.008 lam=     0.0     freq=  1373. Q= -0.030 lam=     0.6
  51     freq=  1402. Q=  0.020 lam=     0.3     freq=  1409. Q=  0.086 lam=     5.2
  52     freq=  1418. Q=  0.161 lam=    18.4     freq=  1425. Q=  0.179 lam=    22.9
  53     freq=  1432. Q= -0.012 lam=     0.1     freq=  1445. Q= -0.068 lam=     3.3
  54     freq=  1459. Q=  0.040 lam=     1.2     freq=  1477. Q=  0.040 lam=     1.2
  55     freq=  1496. Q= -0.047 lam=     1.7     freq=  1515. Q= -0.013 lam=     0.1
  56     freq=  1532. Q= -0.193 lam=    28.5     freq=  1531. Q= -0.332 lam=    84.6
  57     freq=  1539. Q= -0.245 lam=    46.3     freq=  1577. Q= -0.024 lam=     0.5
  58     freq=  1635. Q= -0.275 lam=    61.7     freq=  1624. Q= -0.207 lam=    34.8
  59     freq=  3159. Q= -0.012 lam=     0.2     freq=  3182. Q= -0.004 lam=     0.0
  60     freq=  3163. Q=  0.010 lam=     0.2     freq=  3190. Q=  0.014 lam=     0.3
  61     freq=  3175. Q=  0.009 lam=     0.1     freq=  3199. Q=  0.003 lam=     0.0
  62     freq=  3186. Q=  0.001 lam=     0.0     freq=  3207. Q=  0.007 lam=     0.1
  63     freq=  3193. Q=  0.015 lam=     0.4     freq=  3213. Q=  0.019 lam=     0.6
  64     freq=  3209. Q= -0.013 lam=     0.3     freq=  3226. Q= -0.024 lam=     1.0
  65     freq=  3233. Q= -0.013 lam=     0.3     freq=  3238. Q= -0.018 lam=     0.6
  66     freq=  3242. Q=  0.022 lam=     0.8     freq=  3239. Q=  0.006 lam=     0.1

 total reorg energy (cm**-1, kcal/mol)=      421.      446.      1.20      1.27
 Nber of molecules processed=           2
