 Enter ifcurve (0=recti, 1=orth curvi, 2=apprx curvi, -1 = skip
 And atom ordering flag, 0= never changes, 1= use the first order thenceforth,
  2= deduce it (does read on fail), 3= always read it
 Reading file: 
 ./conjugated_carbonyls_1_C0S0.log                                              
                                          
  Entering Gaussian System, Link 0=g16                                          
  
 Gaussian format, type: g94, g98, g03= F F F
  #P Geom=AllCheck Guess=TCheck SCRF=Check Test GenChk RB3LYP/6-311G(d,p    
 energy type= B3LYP   
 Original G94 input coords:
  8 -1.372009 -3.053616  0.000000
  6 -0.775375 -2.001508  0.000000
  6  0.775375 -2.001508  0.000000
  8  1.372009 -3.053616  0.000000
  6  1.459043 -0.684040  0.000000
  6  2.856417 -0.642590  0.000000
  6  3.491527  0.587177  0.000000
  6  2.694120  1.734964 -0.000001
  7  1.363257  1.717959  0.000000
  6  0.745661  0.531414  0.000000
  6 -0.745661  0.531414  0.000000
  7 -1.363257  1.717959  0.000000
  6 -2.694120  1.734964  0.000001
  6 -3.491527  0.587177  0.000000
  6 -2.856417 -0.642590  0.000000
  6 -1.459043 -0.684040  0.000000
  1  3.403726 -1.577621  0.000000
  1  4.571677  0.667686  0.000000
  1  3.152801  2.720174  0.000000
  1 -3.152801  2.720174  0.000000
  1 -4.571677  0.667686  0.000000
  1 -3.403726 -1.577621  0.000000
 nber atoms=          22
  SCF Done:  E(RB3LYP) =  -721.000661508     A.U. after    1 cycles             
  
          23          40 "  -721.000661508"
After scan for Atom:   Atom  AN      X      Y      Z        X      Y      Z        X      Y      Z   
After scan for Atom:   Atom  AN      X      Y      Z        X      Y      Z        X      Y      Z   
After scan for Atom:   Atom  AN      X      Y      Z        X      Y      Z        X      Y      Z   
After scan for Atom:   Atom  AN      X      Y      Z        X      Y      Z        X      Y      Z   
After scan for Atom:   Atom  AN      X      Y      Z        X      Y      Z        X      Y      Z   
After scan for Atom:   Atom  AN      X      Y      Z        X      Y      Z        X      Y      Z   
After scan for Atom:   Atom  AN      X      Y      Z        X      Y      Z        X      Y      Z   
After scan for Atom:   Atom  AN      X      Y      Z        X      Y      Z        X      Y      Z   
After scan for Atom:   Atom  AN      X      Y      Z        X      Y      Z        X      Y      Z   
After scan for Atom:   Atom  AN      X      Y      Z        X      Y      Z        X      Y      Z   
After scan for Atom:   Atom  AN      X      Y      Z        X      Y      Z        X      Y      Z   
After scan for Atom:   Atom  AN      X      Y      Z        X      Y      Z        X      Y      Z   
After scan for Atom:   Atom  AN      X      Y      Z        X      Y      Z        X      Y      Z   
After scan for Atom:   Atom  AN      X      Y      Z        X      Y      Z        X      Y      Z   
After scan for Atom:   Atom  AN      X      Y      Z        X      Y      Z        X      Y      Z   
After scan for Atom:   Atom  AN      X      Y      Z        X      Y      Z        X      Y      Z   
After scan for Atom:   Atom  AN      X      Y      Z        X      Y      Z        X      Y      Z   
After scan for Atom:   Atom  AN      X      Y      Z        X      Y      Z        X      Y      Z   
After scan for Atom:   Atom  AN      X      Y      Z        X      Y      Z        X      Y      Z   
After scan for Atom:   Atom  AN      X      Y      Z        X      Y      Z        X      Y      Z   
 g94    frequencies=
     0.0    0.0    0.0    0.0    0.0    0.0   36.9   84.2  110.1  154.3
   231.0  258.4  318.7  359.9  381.2  395.0  401.3  436.2  440.9  458.4
   564.0  572.3  623.4  632.1  680.1  713.3  766.0  778.8  831.2  833.1
   833.5  878.5  937.7  991.9  994.2 1019.8 1020.1 1021.7 1056.0 1079.9
  1105.4 1110.2 1133.9 1206.6 1230.3 1283.2 1295.7 1304.7 1312.7 1343.8
  1449.4 1453.7 1485.2 1490.8 1592.1 1606.3 1616.3 1628.0 1756.1 1781.3
  3148.5 3149.0 3187.7 3187.8 3201.5 3201.6
 g94    symmetries=
                                                 A      A      A      A
       A      A      A      A      A      A      A      A      A      A
       A      A      A      A      A      A      A      A      A      A
       A      A      A      A      A      A      A      A      A      A
       A      A      A      A      A      A      A      A      A      A
       A      A      A      A      A      A      A      A      A      A
       A      A      A      A      A      A
 atomic masses:
 15.9949 12.0000 12.0000 15.9949 12.0000 12.0000 12.0000 12.0000 14.0031 12.0000
 12.0000 14.0031 12.0000 12.0000 12.0000 12.0000  1.0078  1.0078  1.0078  1.0078
  1.0078  1.0078
 looking for force constants in 
 ./conjugated_carbonyls_1_C0S0.fchk                                             
  
 Cartesian Force Constants                  R   N=        2211                  
  
 n3=          66        2211
 g94-fc frequencies=
    -3.2   -3.1   -2.7   -0.0    0.0    0.0   36.9   84.2  110.1  154.3
   231.0  258.4  318.7  359.9  381.2  395.1  401.3  436.2  440.9  458.4
   564.0  572.3  623.4  632.1  680.1  713.3  766.0  778.8  831.3  833.1
   833.5  878.6  937.7  991.9  994.2 1019.8 1020.2 1021.7 1056.0 1079.9
  1105.4 1110.2 1133.9 1206.6 1230.3 1283.3 1295.8 1304.7 1312.8 1343.9
  1449.4 1453.7 1485.2 1490.8 1592.2 1606.3 1616.3 1628.0 1756.1 1781.4
  3148.6 3149.0 3187.8 3187.9 3201.5 3201.7
 at 99999: n3=          66
 symm operator            1 :  F  nop=           0
 symm operator            2 :  T  nop=           1
 symm operator            3 :  F  nop=           1
 symm operator            4 :  F  nop=           1
 symm operator            5 :  T  nop=           2
 symm operator            6 :  F  nop=           2
 symm operator            7 :  T  nop=           3
 swap           2           3
   1  -1.37201   0.00000  -3.05362
   2  -0.77538   0.00000  -2.00151
   3   0.77538   0.00000  -2.00151
   4   1.37201   0.00000  -3.05362
   5   1.45904   0.00000  -0.68404
   6   2.85642   0.00000  -0.64259
   7   3.49153   0.00000   0.58718
   8   2.69412  -0.00000   1.73496
   9   1.36326   0.00000   1.71796
  10   0.74566   0.00000   0.53141
  11  -0.74566   0.00000   0.53141
  12  -1.36326   0.00000   1.71796
  13  -2.69412   0.00000   1.73496
  14  -3.49153   0.00000   0.58718
  15  -2.85642   0.00000  -0.64259
  16  -1.45904   0.00000  -0.68404
  17   3.40373   0.00000  -1.57762
  18   4.57168   0.00000   0.66769
  19   3.15280   0.00000   2.72017
  20  -3.15280   0.00000   2.72017
  21  -4.57168   0.00000   0.66769
  22  -3.40373   0.00000  -1.57762
 swap           1           2
   1   0.00000  -1.37201  -3.05362
   2   0.00000  -0.77538  -2.00151
   3   0.00000   0.77538  -2.00151
   4   0.00000   1.37201  -3.05362
   5   0.00000   1.45904  -0.68404
   6   0.00000   2.85642  -0.64259
   7   0.00000   3.49153   0.58718
   8  -0.00000   2.69412   1.73496
   9   0.00000   1.36326   1.71796
  10   0.00000   0.74566   0.53141
  11   0.00000  -0.74566   0.53141
  12   0.00000  -1.36326   1.71796
  13   0.00000  -2.69412   1.73496
  14   0.00000  -3.49153   0.58718
  15   0.00000  -2.85642  -0.64259
  16   0.00000  -1.45904  -0.68404
  17   0.00000   3.40373  -1.57762
  18   0.00000   4.57168   0.66769
  19   0.00000   3.15280   2.72017
  20   0.00000  -3.15280   2.72017
  21   0.00000  -4.57168   0.66769
  22   0.00000  -3.40373  -1.57762
 The point group of the molecule is C2V
 enforcing symm op           1  jsymt=          -1          -1           1
 enforcing symm op           6  jsymt=           1          -1           1
 enforcing symm op           7  jsymt=          -1           1           1
 cartesian coord symmetries:
 A1 :   22 A2 :   11 B1 :   11 B2 :   22
 Symmetry rotation matrix:
   0.00000   0.00000   1.00000
  -1.00000   0.00000   0.00000
   0.00000  -1.00000   0.00000

 Projecting out zero-frequency components
 generating redundant internal coords
         300        3600          22
 search for int coords
   1 str   2   1   1.210
   2 str   3   2   1.551
   3 str   4   3   1.210
   4 str   5   3   1.484
   5 str   6   5   1.398
   6 str   7   6   1.384
   7 str   8   7   1.398
   8 str   9   8   1.331
   9 str  10   5   1.409
  10 str  10   9   1.338
  11 str  11  10   1.491
  12 str  12  11   1.338
  13 str  13  12   1.331
  14 str  14  13   1.398
  15 str  15  14   1.384
  16 str  16   2   1.484
  17 str  16  11   1.409
  18 str  16  15   1.398
  19 str  17   6   1.083
  20 str  18   7   1.083
  21 str  19   8   1.087
  22 str  20  13   1.087
  23 str  21  14   1.083
  24 str  22  15   1.083
 nber stretches=          24
  25 ben   1   2   3
  26 prop tor   1   2   3   4
  27 prop tor   1   2   3   5
  28 ben   1   2  16
  29 prop tor   1   2  16  11
  30 prop tor   1   2  16  15
  31 ben   2   3   4
  32 ben   2   3   5
  33 prop tor   2   3   5   6
  34 prop tor   2   3   5  10
  35 ben   2  16  11
  36 ben   2  16  15
  37 ben   3   2  16
  38 prop tor   3   2  16  11
  39 prop tor   3   2  16  15
  40 ben   3   5   6
  41 prop tor   3   5   6   7
  42 prop tor   3   5   6  17
  43 ben   3   5  10
  44 prop tor   3   5  10   9
  45 prop tor   3   5  10  11
  46 ben   4   3   5
  47 prop tor   4   3   5   6
  48 prop tor   4   3   5  10
  49 ben   5   6   7
  50 prop tor   5   6   7   8
  51 prop tor   5   6   7  18
  52 ben   5   6  17
  53 ben   5  10   9
  54 ben   5  10  11
  55 prop tor   5  10  11  12
  56 prop tor   5  10  11  16
  57 ben   6   5  10
  58 prop tor   6   5  10   9
  59 prop tor   6   5  10  11
  60 ben   6   7   8
  61 prop tor   6   7   8   9
  62 prop tor   6   7   8  19
  63 ben   6   7  18
  64 ben   7   6  17
  65 ben   7   8   9
  66 prop tor   7   8   9  10
  67 ben   7   8  19
  68 ben   8   7  18
  69 ben   8   9  10
  70 prop tor   8   9  10   5
  71 prop tor   8   9  10  11
  72 ben   9   8  19
  73 ben   9  10  11
  74 prop tor   9  10  11  12
  75 prop tor   9  10  11  16
  76 prop tor  10   5   6   7
  77 prop tor  10   5   6  17
  78 ben  10  11  12
  79 prop tor  10  11  12  13
  80 ben  10  11  16
  81 prop tor  10  11  16   2
  82 prop tor  10  11  16  15
  83 ben  11  12  13
  84 prop tor  11  12  13  14
  85 prop tor  11  12  13  20
  86 ben  11  16  15
  87 ben  12  11  16
  88 prop tor  12  11  16   2
  89 prop tor  12  11  16  15
  90 ben  12  13  14
  91 prop tor  12  13  14  15
  92 prop tor  12  13  14  21
  93 ben  12  13  20
  94 ben  13  14  15
  95 prop tor  13  14  15  16
  96 prop tor  13  14  15  22
  97 ben  13  14  21
  98 ben  14  13  20
  99 ben  14  15  16
 100 prop tor  14  15  16   2
 101 prop tor  14  15  16  11
 102 ben  14  15  22
 103 ben  15  14  21
 104 prop tor  16   2   3   4
 105 prop tor  16   2   3   5
 106 prop tor  16  11  12  13
 107 ben  16  15  22
 108 prop tor  17   6   7   8
 109 prop tor  17   6   7  18
 110 prop tor  18   7   8   9
 111 prop tor  18   7   8  19
 112 prop tor  19   8   9  10
 113 prop tor  20  13  14  15
 114 prop tor  20  13  14  21
 115 prop tor  21  14  15  16
 116 prop tor  21  14  15  22
 117 prop tor  22  15  16   2
 118 prop tor  22  15  16  11
 nber bend=              38
 nber lin bend=           0
 nber prop tor=          56
 nber impr tor=           0
 nber tot redund int=         118
 Eigenvalues of G in red int coords
    Gval -0.00000000 -0.00000000 -0.00000000 -0.00000000 -0.00000000 -0.00000000 -0.00000000 -0.00000000
    Gval -0.00000000 -0.00000000 -0.00000000 -0.00000000 -0.00000000 -0.00000000 -0.00000000 -0.00000000
    Gval -0.00000000 -0.00000000 -0.00000000 -0.00000000 -0.00000000 -0.00000000 -0.00000000 -0.00000000
    Gval -0.00000000 -0.00000000 -0.00000000 -0.00000000  0.00000000  0.00000000  0.00000000  0.00000000
    Gval  0.00000000  0.00000000  0.00000000  0.00000000  0.00000000  0.00000000  0.00000000  0.00000000
    Gval  0.00000000  0.00000000  0.00000000  0.00000000  0.00000000  0.00000000  0.00000000  0.00000000
    Gval  0.00000000  0.00000000  0.00000000  0.00000000  0.00000000  0.00000000  0.00000000  0.00000000
    Gval  0.00000000  0.00000000  0.00000701  0.00001113  0.00001201  0.00002002  0.00002155  0.00002609
    Gval  0.00003416  0.00004315  0.00004660  0.00005006  0.00005418  0.00005862  0.00006036  0.00007438
    Gval  0.00007778  0.00010079  0.00010129  0.00011065  0.00011534  0.00012558  0.00013379  0.00013440
    Gval  0.00015174  0.00019713  0.00024237  0.00024323  0.00027152  0.00028590  0.00031893  0.00036678
    Gval  0.00038046  0.00041068  0.00041987  0.00044306  0.00044882  0.00059389  0.00059390  0.00060642
    Gval  0.00060706  0.00061304  0.00064620  0.00064629  0.00068927  0.00089346  0.00091201  0.00106413
    Gval  0.00106446  0.00113490  0.00113491  0.00117435  0.00117440  0.00120594  0.00155935  0.00163063
    Gval  0.00175450  0.00214430  0.00274943  0.00276863  0.00390519  0.00390603
  7.008948385492622E-006  7.008948385492622E-006
  1.113371242894871E-005  7.008948385492622E-006
  1.200715153585259E-005  7.008948385492622E-006
  2.002459125187283E-005  7.008948385492622E-006
  2.154756938723559E-005  7.008948385492622E-006
  2.609081450955011E-005  7.008948385492622E-006
  3.416118081382130E-005  7.008948385492622E-006
  4.315344805503198E-005  7.008948385492622E-006
  4.660483535269741E-005  7.008948385492622E-006
  5.005542711305576E-005  7.008948385492622E-006
  5.417547686712584E-005  7.008948385492622E-006
  5.861880664676724E-005  7.008948385492622E-006
  6.036281814337883E-005  7.008948385492622E-006
  7.437803229637612E-005  7.008948385492622E-006
  7.777951166138572E-005  7.008948385492622E-006
  1.007898039245226E-004  7.008948385492622E-006
  1.012945221699863E-004  7.008948385492622E-006
  1.106535691366935E-004  7.008948385492622E-006
  1.153363065561563E-004  7.008948385492622E-006
  1.255792845347346E-004  7.008948385492622E-006
  1.337852155976440E-004  7.008948385492622E-006
  1.344026845661160E-004  7.008948385492622E-006
  1.517358584302393E-004  7.008948385492622E-006
  1.971311062219585E-004  7.008948385492622E-006
  2.423746727339368E-004  7.008948385492622E-006
  2.432338503612854E-004  7.008948385492622E-006
  2.715229150509875E-004  7.008948385492622E-006
  2.859040266007890E-004  7.008948385492622E-006
  3.189337871289297E-004  7.008948385492622E-006
  3.667844716299506E-004  7.008948385492622E-006
  3.804566177431905E-004  7.008948385492622E-006
  4.106770468198517E-004  7.008948385492622E-006
  4.198741917881289E-004  7.008948385492622E-006
  4.430639819780922E-004  7.008948385492622E-006
  4.488175016477977E-004  7.008948385492622E-006
  5.938900205783129E-004  7.008948385492622E-006
  5.939022141205793E-004  7.008948385492622E-006
  6.064166338606345E-004  7.008948385492622E-006
  6.070577034293900E-004  7.008948385492622E-006
  6.130424950967621E-004  7.008948385492622E-006
  6.461975177293418E-004  7.008948385492622E-006
  6.462852024156220E-004  7.008948385492622E-006
  6.892711805621398E-004  7.008948385492622E-006
  8.934577604518382E-004  7.008948385492622E-006
  9.120084555341880E-004  7.008948385492622E-006
  1.064134526060976E-003  7.008948385492622E-006
  1.064458957169267E-003  7.008948385492622E-006
  1.134904277866440E-003  7.008948385492622E-006
  1.134909087225812E-003  7.008948385492622E-006
  1.174348893980329E-003  7.008948385492622E-006
  1.174400441403937E-003  7.008948385492622E-006
  1.205936038502735E-003  7.008948385492622E-006
  1.559345526538006E-003  7.008948385492622E-006
  1.630631377782902E-003  7.008948385492622E-006
  1.754498816802407E-003  7.008948385492622E-006
  2.144303770680068E-003  7.008948385492622E-006
  2.749426539848553E-003  7.008948385492622E-006
  2.768631387947722E-003  7.008948385492622E-006
  3.905190074070940E-003  7.008948385492622E-006
  3.906027435325482E-003  7.008948385492622E-006
 cut=1d-8, nber non-redundant internal coords=          60
 Check on Eigenvals of non-red overlap matrix:
  0.00000701  0.00001113  0.00001201  0.00002002  0.00002155  0.00002609  0.00003416  0.00004315
  0.00004660  0.00005006  0.00005418  0.00005862  0.00006036  0.00007438  0.00007778  0.00010079
  0.00010129  0.00011065  0.00011534  0.00012558  0.00013379  0.00013440  0.00015174  0.00019713
  0.00024237  0.00024323  0.00027152  0.00028590  0.00031893  0.00036678  0.00038046  0.00041068
  0.00041987  0.00044306  0.00044882  0.00059389  0.00059390  0.00060642  0.00060706  0.00061304
  0.00064620  0.00064629  0.00068927  0.00089346  0.00091201  0.00106413  0.00106446  0.00113490
  0.00113491  0.00117435  0.00117440  0.00120594  0.00155935  0.00163063  0.00175450  0.00214430
  0.00274943  0.00276863  0.00390519  0.00390603
 Checking for correct frequencies
 recalc frequencies=
    -0.0    0.0    0.0    0.0    0.0    0.0   36.9   84.2  110.1  154.3
   231.0  258.4  318.7  359.9  381.2  395.1  401.3  436.2  440.9  458.4
   564.0  572.3  623.4  632.1  680.1  713.3  766.0  778.8  831.3  833.1
   833.5  878.6  937.7  991.9  994.2 1019.8 1020.2 1021.7 1056.0 1079.9
  1105.4 1110.2 1133.9 1206.6 1230.3 1283.3 1295.8 1304.7 1312.8 1343.9
  1449.4 1453.7 1485.2 1490.8 1592.2 1606.3 1616.3 1628.0 1756.1 1781.4
  3148.6 3149.0 3187.8 3187.9 3201.5 3201.7
 recalc symmetries=
     B2     B1     B2     A1     A2     B1     A2     B1     A2     B1 
     A1     A2     B2     A1     B1     B2     A1     A2     B1     A1 
     B1     A2     B2     B2     A1     B2     B1     A2     A1     B1 
     A2     A2     B2     B1     A2     A1     B1     A2     B2     A1 
     B2     A1     B2     A1     B2     B2     A1     A1     B2     A1 
     B2     A1     A1     B2     A1     B2     A1     B2     A1     B2 
     B2     A1     B2     A1     B2     A1 
 recalc freqs check OK
 Zero-point lengths:
 10.0000 10.0000 10.0000 10.0000 10.0000 10.0000 40.8380 27.0235 23.6216 19.9560
 16.3128 15.4221 13.8864 13.0676 12.6972 12.4729 12.3760 11.8700 11.8066 11.5795
 10.4391 10.3628  9.9293  9.8607  9.5063  9.2823  8.9573  8.8832  8.5986  8.5889
  8.5871  8.3640  8.0959  7.8716  7.8626  7.7632  7.7618  7.7558  7.6288  7.5441
  7.4566  7.4402  7.3622  7.1368  7.0679  6.9205  6.8870  6.8633  6.8423  6.7626
  6.5118  6.5021  6.4328  6.4208  6.2130  6.1856  6.1664  6.1443  5.9159  5.8738
  4.4181  4.4178  4.3909  4.3908  4.3814  4.3813
 highest evec of mol 1
  0.0000 -0.0014 -0.0009
  0.0000  0.0017  0.0021
  0.0000 -0.0017  0.0021
  0.0000  0.0014 -0.0009
  0.0000  0.0054  0.0004
  0.0000 -0.0813  0.1465
  0.0000 -0.1235 -0.0154
  0.0000 -0.0038 -0.0220
  0.0000  0.0008  0.0005
  0.0000  0.0011 -0.0008
  0.0000 -0.0011 -0.0008
  0.0000 -0.0008  0.0005
  0.0000  0.0038 -0.0220
  0.0000  0.1235 -0.0154
  0.0000  0.0813  0.1465
  0.0000 -0.0054  0.0004
  0.0000  0.2781 -0.4671
  0.0000  0.3947  0.0306
  0.0000  0.0229  0.0555
  0.0000 -0.0229  0.0555
  0.0000 -0.3947  0.0306
  0.0000 -0.2781 -0.4671
 generating redundant internal coords
         300        3600          22
 Adding extra bonds for z output only
           8           6           6           8           6           6
           6           6           7           6           6           7
           6           6           6           6           1           1
           1           1           1           1
 search for int coords
   1 str   2   1   1.210
   2 str   3   2   1.551
   3 str   4   3   1.210
   4 str   5   3   1.484
   5 str   6   5   1.398
   6 str   7   6   1.384
   7 str   8   7   1.398
   8 str   9   8   1.331
   9 str  10   5   1.409
  10 str  10   9   1.338
  11 str  11  10   1.491
  12 str  12  11   1.338
  13 str  13  12   1.331
  14 str  14  13   1.398
  15 str  15  14   1.384
  16 str  16   2   1.484
  17 str  16  11   1.409
  18 str  16  15   1.398
  19 str  17   6   1.083
  20 str  18   7   1.083
  21 str  19   8   1.087
  22 str  20  13   1.087
  23 str  21  14   1.083
  24 str  22  15   1.083
 nber stretches=          24
  25 ben   1   2   3
  26 prop tor   1   2   3   4
  27 prop tor   1   2   3   5
  28 ben   1   2  16
  29 prop tor   1   2  16  11
  30 prop tor   1   2  16  15
  31 ben   2   3   4
  32 ben   2   3   5
  33 prop tor   2   3   5   6
  34 prop tor   2   3   5  10
  35 ben   2  16  11
  36 ben   2  16  15
  37 ben   3   2  16
  38 prop tor   3   2  16  11
  39 prop tor   3   2  16  15
  40 ben   3   5   6
  41 prop tor   3   5   6   7
  42 prop tor   3   5   6  17
  43 ben   3   5  10
  44 prop tor   3   5  10   9
  45 prop tor   3   5  10  11
  46 ben   4   3   5
  47 prop tor   4   3   5   6
  48 prop tor   4   3   5  10
  49 ben   5   6   7
  50 prop tor   5   6   7   8
  51 prop tor   5   6   7  18
  52 ben   5   6  17
  53 ben   5  10   9
  54 ben   5  10  11
  55 prop tor   5  10  11  12
  56 prop tor   5  10  11  16
  57 ben   6   5  10
  58 prop tor   6   5  10   9
  59 prop tor   6   5  10  11
  60 ben   6   7   8
  61 prop tor   6   7   8   9
  62 prop tor   6   7   8  19
  63 ben   6   7  18
  64 ben   7   6  17
  65 ben   7   8   9
  66 prop tor   7   8   9  10
  67 ben   7   8  19
  68 ben   8   7  18
  69 ben   8   9  10
  70 prop tor   8   9  10   5
  71 prop tor   8   9  10  11
  72 ben   9   8  19
  73 ben   9  10  11
  74 prop tor   9  10  11  12
  75 prop tor   9  10  11  16
  76 prop tor  10   5   6   7
  77 prop tor  10   5   6  17
  78 ben  10  11  12
  79 prop tor  10  11  12  13
  80 ben  10  11  16
  81 prop tor  10  11  16   2
  82 prop tor  10  11  16  15
  83 ben  11  12  13
  84 prop tor  11  12  13  14
  85 prop tor  11  12  13  20
  86 ben  11  16  15
  87 ben  12  11  16
  88 prop tor  12  11  16   2
  89 prop tor  12  11  16  15
  90 ben  12  13  14
  91 prop tor  12  13  14  15
  92 prop tor  12  13  14  21
  93 ben  12  13  20
  94 ben  13  14  15
  95 prop tor  13  14  15  16
  96 prop tor  13  14  15  22
  97 ben  13  14  21
  98 ben  14  13  20
  99 ben  14  15  16
 100 prop tor  14  15  16   2
 101 prop tor  14  15  16  11
 102 ben  14  15  22
 103 ben  15  14  21
 104 prop tor  16   2   3   4
 105 prop tor  16   2   3   5
 106 prop tor  16  11  12  13
 107 ben  16  15  22
 108 prop tor  17   6   7   8
 109 prop tor  17   6   7  18
 110 prop tor  18   7   8   9
 111 prop tor  18   7   8  19
 112 prop tor  19   8   9  10
 113 prop tor  20  13  14  15
 114 prop tor  20  13  14  21
 115 prop tor  21  14  15  16
 116 prop tor  21  14  15  22
 117 prop tor  22  15  16   2
 118 prop tor  22  15  16  11
 nber bend=              38
 nber lin bend=           0
 nber prop tor=          56
 nber impr tor=           0
 nber tot redund int=         118
 Reading file: 
 ./conjugated_carbonyls_1_C-1S0.log                                             
                                          
  Entering Gaussian System, Link 0=g16                                          
  
 Gaussian format, type: g94, g98, g03= F F F
  #P Geom=AllCheck Guess=TCheck SCRF=Check Test GenChk UB3LYP/6-311G(d,p    
 energy type= B3LYP   
 Original G94 input coords:
  8 -1.405673 -3.048804  0.000000
  6 -0.740048 -1.993423  0.000000
  6  0.740048 -1.993423  0.000000
  8  1.405673 -3.048804  0.000000
  6  1.412959 -0.679107 -0.000001
  6  2.819689 -0.645577 -0.000001
  6  3.479823  0.565307  0.000000
  6  2.708224  1.740367  0.000001
  7  1.384224  1.752072 -0.000001
  6  0.730987  0.570239  0.000000
  6 -0.730987  0.570239  0.000000
  7 -1.384224  1.752072  0.000000
  6 -2.708224  1.740367 -0.000001
  6 -3.479823  0.565307  0.000000
  6 -2.819689 -0.645577  0.000001
  6 -1.412959 -0.679107  0.000000
  1  3.337560 -1.597932 -0.000001
  1  4.564085  0.621937  0.000000
  1  3.195879  2.714923  0.000001
  1 -3.195879  2.714923 -0.000001
  1 -4.564085  0.621937  0.000000
  1 -3.337560 -1.597932  0.000001
 nber atoms=          22
  SCF Done:  E(UB3LYP) =  -721.073399987     A.U. after    1 cycles             
  
          23          40 "  -721.073399987"
After scan for Atom:   Atom  AN      X      Y      Z        X      Y      Z        X      Y      Z   
After scan for Atom:   Atom  AN      X      Y      Z        X      Y      Z        X      Y      Z   
After scan for Atom:   Atom  AN      X      Y      Z        X      Y      Z        X      Y      Z   
After scan for Atom:   Atom  AN      X      Y      Z        X      Y      Z        X      Y      Z   
After scan for Atom:   Atom  AN      X      Y      Z        X      Y      Z        X      Y      Z   
After scan for Atom:   Atom  AN      X      Y      Z        X      Y      Z        X      Y      Z   
After scan for Atom:   Atom  AN      X      Y      Z        X      Y      Z        X      Y      Z   
After scan for Atom:   Atom  AN      X      Y      Z        X      Y      Z        X      Y      Z   
After scan for Atom:   Atom  AN      X      Y      Z        X      Y      Z        X      Y      Z   
After scan for Atom:   Atom  AN      X      Y      Z        X      Y      Z        X      Y      Z   
After scan for Atom:   Atom  AN      X      Y      Z        X      Y      Z        X      Y      Z   
After scan for Atom:   Atom  AN      X      Y      Z        X      Y      Z        X      Y      Z   
After scan for Atom:   Atom  AN      X      Y      Z        X      Y      Z        X      Y      Z   
After scan for Atom:   Atom  AN      X      Y      Z        X      Y      Z        X      Y      Z   
After scan for Atom:   Atom  AN      X      Y      Z        X      Y      Z        X      Y      Z   
After scan for Atom:   Atom  AN      X      Y      Z        X      Y      Z        X      Y      Z   
After scan for Atom:   Atom  AN      X      Y      Z        X      Y      Z        X      Y      Z   
After scan for Atom:   Atom  AN      X      Y      Z        X      Y      Z        X      Y      Z   
After scan for Atom:   Atom  AN      X      Y      Z        X      Y      Z        X      Y      Z   
After scan for Atom:   Atom  AN      X      Y      Z        X      Y      Z        X      Y      Z   
 g94    frequencies=
     0.0    0.0    0.0    0.0    0.0    0.0   61.7   89.9  131.7  161.5
   236.1  278.5  320.6  361.3  383.4  406.0  415.0  455.0  456.2  462.6
   579.0  591.3  615.5  634.5  678.2  709.6  741.8  754.5  812.3  814.7
   832.4  835.1  932.4  935.7  935.9  997.6  999.4 1040.9 1042.2 1074.8
  1087.2 1096.5 1118.7 1190.1 1224.8 1237.4 1271.6 1308.1 1317.4 1359.8
  1418.2 1423.3 1459.1 1485.5 1535.3 1538.9 1578.2 1593.3 1607.2 1616.9
  3097.0 3097.8 3149.5 3149.9 3184.6 3184.8
 g94    symmetries=
                                                 A      A      A      A
       A      A      A      A      A      A      A      A      A      A
       A      A      A      A      A      A      A      A      A      A
       A      A      A      A      A      A      A      A      A      A
       A      A      A      A      A      A      A      A      A      A
       A      A      A      A      A      A      A      A      A      A
       A      A      A      A      A      A
 atomic masses:
 15.9949 12.0000 12.0000 15.9949 12.0000 12.0000 12.0000 12.0000 14.0031 12.0000
 12.0000 14.0031 12.0000 12.0000 12.0000 12.0000  1.0078  1.0078  1.0078  1.0078
  1.0078  1.0078
 looking for force constants in 
 ./conjugated_carbonyls_1_C-1S0.fchk                                            
  
 Cartesian Force Constants                  R   N=        2211                  
  
 n3=          66        2211
 g94-fc frequencies=
    -2.9   -2.8   -1.8   -0.0   -0.0    0.0   61.7   89.9  131.7  161.5
   236.1  278.5  320.6  361.3  383.4  406.0  415.0  455.0  456.2  462.6
   579.0  591.3  615.5  634.5  678.2  709.6  741.8  754.5  812.3  814.7
   832.4  835.1  932.4  935.7  935.9  997.7  999.4 1040.9 1042.2 1074.8
  1087.3 1096.5 1118.7 1190.1 1224.8 1237.5 1271.6 1308.2 1317.4 1359.8
  1418.3 1423.4 1459.1 1485.6 1535.3 1538.9 1578.3 1593.4 1607.2 1616.9
  3097.1 3097.9 3149.6 3150.0 3184.7 3184.9
 at 99999: n3=          66
 symm operator            1 :  F  nop=           0
 symm operator            2 :  T  nop=           1
 symm operator            3 :  F  nop=           1
 symm operator            4 :  F  nop=           1
 symm operator            5 :  T  nop=           2
 symm operator            6 :  F  nop=           2
 symm operator            7 :  T  nop=           3
 swap           2           3
   1  -1.40567   0.00000  -3.04880
   2  -0.74005   0.00000  -1.99342
   3   0.74005   0.00000  -1.99342
   4   1.40567   0.00000  -3.04880
   5   1.41296  -0.00000  -0.67911
   6   2.81969  -0.00000  -0.64558
   7   3.47982   0.00000   0.56531
   8   2.70822   0.00000   1.74037
   9   1.38422  -0.00000   1.75207
  10   0.73099   0.00000   0.57024
  11  -0.73099   0.00000   0.57024
  12  -1.38422   0.00000   1.75207
  13  -2.70822  -0.00000   1.74037
  14  -3.47982   0.00000   0.56531
  15  -2.81969   0.00000  -0.64558
  16  -1.41296   0.00000  -0.67911
  17   3.33756  -0.00000  -1.59793
  18   4.56409   0.00000   0.62194
  19   3.19588   0.00000   2.71492
  20  -3.19588  -0.00000   2.71492
  21  -4.56409   0.00000   0.62194
  22  -3.33756   0.00000  -1.59793
 swap           1           2
   1   0.00000  -1.40567  -3.04880
   2   0.00000  -0.74005  -1.99342
   3   0.00000   0.74005  -1.99342
   4   0.00000   1.40567  -3.04880
   5  -0.00000   1.41296  -0.67911
   6  -0.00000   2.81969  -0.64558
   7   0.00000   3.47982   0.56531
   8   0.00000   2.70822   1.74037
   9  -0.00000   1.38422   1.75207
  10   0.00000   0.73099   0.57024
  11   0.00000  -0.73099   0.57024
  12   0.00000  -1.38422   1.75207
  13  -0.00000  -2.70822   1.74037
  14   0.00000  -3.47982   0.56531
  15   0.00000  -2.81969  -0.64558
  16   0.00000  -1.41296  -0.67911
  17  -0.00000   3.33756  -1.59793
  18   0.00000   4.56409   0.62194
  19   0.00000   3.19588   2.71492
  20  -0.00000  -3.19588   2.71492
  21   0.00000  -4.56409   0.62194
  22   0.00000  -3.33756  -1.59793
 The point group of the molecule is C2V
 enforcing symm op           1  jsymt=          -1          -1           1
 enforcing symm op           6  jsymt=           1          -1           1
 enforcing symm op           7  jsymt=          -1           1           1
 cartesian coord symmetries:
 A1 :   22 A2 :   11 B1 :   11 B2 :   22
 Symmetry rotation matrix:
   0.00000   0.00000   1.00000
  -1.00000   0.00000   0.00000
   0.00000  -1.00000   0.00000

 Projecting out zero-frequency components
 generating redundant internal coords
         300        3600          22
 search for int coords
   1 str   2   1   1.248
   2 str   3   2   1.480
   3 str   4   3   1.248
   4 str   5   3   1.477
   5 str   6   5   1.407
   6 str   7   6   1.379
   7 str   8   7   1.406
   8 str   9   8   1.324
   9 str  10   5   1.423
  10 str  10   9   1.350
  11 str  11  10   1.462
  12 str  12  11   1.350
  13 str  13  12   1.324
  14 str  14  13   1.406
  15 str  15  14   1.379
  16 str  16   2   1.477
  17 str  16  11   1.423
  18 str  16  15   1.407
  19 str  17   6   1.084
  20 str  18   7   1.086
  21 str  19   8   1.090
  22 str  20  13   1.090
  23 str  21  14   1.086
  24 str  22  15   1.084
 nber stretches=          24
  25 ben   1   2   3
  26 prop tor   1   2   3   4
  27 prop tor   1   2   3   5
  28 ben   1   2  16
  29 prop tor   1   2  16  11
  30 prop tor   1   2  16  15
  31 ben   2   3   4
  32 ben   2   3   5
  33 prop tor   2   3   5   6
  34 prop tor   2   3   5  10
  35 ben   2  16  11
  36 ben   2  16  15
  37 ben   3   2  16
  38 prop tor   3   2  16  11
  39 prop tor   3   2  16  15
  40 ben   3   5   6
  41 prop tor   3   5   6   7
  42 prop tor   3   5   6  17
  43 ben   3   5  10
  44 prop tor   3   5  10   9
  45 prop tor   3   5  10  11
  46 ben   4   3   5
  47 prop tor   4   3   5   6
  48 prop tor   4   3   5  10
  49 ben   5   6   7
  50 prop tor   5   6   7   8
  51 prop tor   5   6   7  18
  52 ben   5   6  17
  53 ben   5  10   9
  54 ben   5  10  11
  55 prop tor   5  10  11  12
  56 prop tor   5  10  11  16
  57 ben   6   5  10
  58 prop tor   6   5  10   9
  59 prop tor   6   5  10  11
  60 ben   6   7   8
  61 prop tor   6   7   8   9
  62 prop tor   6   7   8  19
  63 ben   6   7  18
  64 ben   7   6  17
  65 ben   7   8   9
  66 prop tor   7   8   9  10
  67 ben   7   8  19
  68 ben   8   7  18
  69 ben   8   9  10
  70 prop tor   8   9  10   5
  71 prop tor   8   9  10  11
  72 ben   9   8  19
  73 ben   9  10  11
  74 prop tor   9  10  11  12
  75 prop tor   9  10  11  16
  76 prop tor  10   5   6   7
  77 prop tor  10   5   6  17
  78 ben  10  11  12
  79 prop tor  10  11  12  13
  80 ben  10  11  16
  81 prop tor  10  11  16   2
  82 prop tor  10  11  16  15
  83 ben  11  12  13
  84 prop tor  11  12  13  14
  85 prop tor  11  12  13  20
  86 ben  11  16  15
  87 ben  12  11  16
  88 prop tor  12  11  16   2
  89 prop tor  12  11  16  15
  90 ben  12  13  14
  91 prop tor  12  13  14  15
  92 prop tor  12  13  14  21
  93 ben  12  13  20
  94 ben  13  14  15
  95 prop tor  13  14  15  16
  96 prop tor  13  14  15  22
  97 ben  13  14  21
  98 ben  14  13  20
  99 ben  14  15  16
 100 prop tor  14  15  16   2
 101 prop tor  14  15  16  11
 102 ben  14  15  22
 103 ben  15  14  21
 104 prop tor  16   2   3   4
 105 prop tor  16   2   3   5
 106 prop tor  16  11  12  13
 107 ben  16  15  22
 108 prop tor  17   6   7   8
 109 prop tor  17   6   7  18
 110 prop tor  18   7   8   9
 111 prop tor  18   7   8  19
 112 prop tor  19   8   9  10
 113 prop tor  20  13  14  15
 114 prop tor  20  13  14  21
 115 prop tor  21  14  15  16
 116 prop tor  21  14  15  22
 117 prop tor  22  15  16   2
 118 prop tor  22  15  16  11
 nber bend=              38
 nber lin bend=           0
 nber prop tor=          56
 nber impr tor=           0
 nber tot redund int=         118
 Eigenvalues of G in red int coords
    Gval -0.00000000 -0.00000000 -0.00000000 -0.00000000 -0.00000000 -0.00000000 -0.00000000 -0.00000000
    Gval -0.00000000 -0.00000000 -0.00000000 -0.00000000 -0.00000000 -0.00000000 -0.00000000 -0.00000000
    Gval -0.00000000 -0.00000000 -0.00000000 -0.00000000 -0.00000000 -0.00000000 -0.00000000 -0.00000000
    Gval -0.00000000 -0.00000000  0.00000000  0.00000000  0.00000000  0.00000000  0.00000000  0.00000000
    Gval  0.00000000  0.00000000  0.00000000  0.00000000  0.00000000  0.00000000  0.00000000  0.00000000
    Gval  0.00000000  0.00000000  0.00000000  0.00000000  0.00000000  0.00000000  0.00000000  0.00000000
    Gval  0.00000000  0.00000000  0.00000000  0.00000000  0.00000000  0.00000000  0.00000000  0.00000000
    Gval  0.00000000  0.00000000  0.00000708  0.00001105  0.00001172  0.00002011  0.00002120  0.00002570
    Gval  0.00003442  0.00004271  0.00004666  0.00004911  0.00005403  0.00005857  0.00006023  0.00007427
    Gval  0.00007803  0.00010048  0.00010085  0.00011017  0.00011539  0.00012562  0.00013142  0.00013258
    Gval  0.00015123  0.00019638  0.00024108  0.00024916  0.00026817  0.00028456  0.00032434  0.00036887
    Gval  0.00037699  0.00039647  0.00043047  0.00044218  0.00044579  0.00059387  0.00059388  0.00060634
    Gval  0.00060702  0.00061135  0.00064592  0.00064606  0.00070046  0.00089911  0.00090484  0.00105965
    Gval  0.00105998  0.00113014  0.00113015  0.00117002  0.00117007  0.00123278  0.00154657  0.00162093
    Gval  0.00173682  0.00213655  0.00272020  0.00274054  0.00388442  0.00388526
  7.084947252525214E-006  7.084947252525214E-006
  1.104824537910778E-005  7.084947252525214E-006
  1.171518227570563E-005  7.084947252525214E-006
  2.010801256192645E-005  7.084947252525214E-006
  2.119671146469980E-005  7.084947252525214E-006
  2.570138434997856E-005  7.084947252525214E-006
  3.442219192730319E-005  7.084947252525214E-006
  4.271245063922846E-005  7.084947252525214E-006
  4.666023670200694E-005  7.084947252525214E-006
  4.910926870669809E-005  7.084947252525214E-006
  5.403144442140786E-005  7.084947252525214E-006
  5.856933857963137E-005  7.084947252525214E-006
  6.022976550255555E-005  7.084947252525214E-006
  7.426852236902180E-005  7.084947252525214E-006
  7.803464789603244E-005  7.084947252525214E-006
  1.004812894791594E-004  7.084947252525214E-006
  1.008511529832285E-004  7.084947252525214E-006
  1.101694920868851E-004  7.084947252525214E-006
  1.153907401212213E-004  7.084947252525214E-006
  1.256197687160614E-004  7.084947252525214E-006
  1.314168110613416E-004  7.084947252525214E-006
  1.325793957060224E-004  7.084947252525214E-006
  1.512336194516374E-004  7.084947252525214E-006
  1.963803224813259E-004  7.084947252525214E-006
  2.410818274363150E-004  7.084947252525214E-006
  2.491582953539170E-004  7.084947252525214E-006
  2.681746721398306E-004  7.084947252525214E-006
  2.845600162516824E-004  7.084947252525214E-006
  3.243360260326761E-004  7.084947252525214E-006
  3.688674200871530E-004  7.084947252525214E-006
  3.769890161398575E-004  7.084947252525214E-006
  3.964720753774478E-004  7.084947252525214E-006
  4.304736893885399E-004  7.084947252525214E-006
  4.421831000890426E-004  7.084947252525214E-006
  4.457945195220426E-004  7.084947252525214E-006
  5.938676673209135E-004  7.084947252525214E-006
  5.938768284069228E-004  7.084947252525214E-006
  6.063446561322632E-004  7.084947252525214E-006
  6.070247157362996E-004  7.084947252525214E-006
  6.113481204054368E-004  7.084947252525214E-006
  6.459210131879216E-004  7.084947252525214E-006
  6.460624322760631E-004  7.084947252525214E-006
  7.004623586430530E-004  7.084947252525214E-006
  8.991085677735124E-004  7.084947252525214E-006
  9.048447827204611E-004  7.084947252525214E-006
  1.059651575757855E-003  7.084947252525214E-006
  1.059979030218263E-003  7.084947252525214E-006
  1.130142735639463E-003  7.084947252525214E-006
  1.130147004992614E-003  7.084947252525214E-006
  1.170020178598600E-003  7.084947252525214E-006
  1.170071566732322E-003  7.084947252525214E-006
  1.232779609170592E-003  7.084947252525214E-006
  1.546574575256286E-003  7.084947252525214E-006
  1.620933744258045E-003  7.084947252525214E-006
  1.736816817179670E-003  7.084947252525214E-006
  2.136548193697616E-003  7.084947252525214E-006
  2.720196007289874E-003  7.084947252525214E-006
  2.740539407862245E-003  7.084947252525214E-006
  3.884419758113492E-003  7.084947252525214E-006
  3.885264942050181E-003  7.084947252525214E-006
 cut=1d-8, nber non-redundant internal coords=          60
 Check on Eigenvals of non-red overlap matrix:
  0.00000708  0.00001105  0.00001172  0.00002011  0.00002120  0.00002570  0.00003442  0.00004271
  0.00004666  0.00004911  0.00005403  0.00005857  0.00006023  0.00007427  0.00007803  0.00010048
  0.00010085  0.00011017  0.00011539  0.00012562  0.00013142  0.00013258  0.00015123  0.00019638
  0.00024108  0.00024916  0.00026817  0.00028456  0.00032434  0.00036887  0.00037699  0.00039647
  0.00043047  0.00044218  0.00044579  0.00059387  0.00059388  0.00060634  0.00060702  0.00061135
  0.00064592  0.00064606  0.00070046  0.00089911  0.00090484  0.00105965  0.00105998  0.00113014
  0.00113015  0.00117002  0.00117007  0.00123278  0.00154657  0.00162093  0.00173682  0.00213655
  0.00272020  0.00274054  0.00388442  0.00388526
 Checking for correct frequencies
 recalc frequencies=
    -0.0   -0.0    0.0    0.0    0.0    0.0   61.7   89.9  131.7  161.5
   236.1  278.5  320.6  361.3  383.4  406.0  415.0  455.0  456.2  462.6
   579.0  591.3  615.5  634.5  678.2  709.6  741.8  754.5  812.3  814.7
   832.4  835.1  932.4  935.7  935.9  997.7  999.4 1040.9 1042.2 1074.8
  1087.3 1096.5 1118.7 1190.1 1224.8 1237.5 1271.6 1308.2 1317.4 1359.8
  1418.3 1423.4 1459.1 1485.6 1535.3 1538.9 1578.3 1593.4 1607.2 1616.9
  3097.1 3097.9 3149.6 3150.0 3184.7 3184.9
 recalc symmetries=
     A1     B1     B2     B2     A2     B1     A2     B1     A2     B1 
     A1     A2     B2     A1     B1     B2     A1     A2     B1     A1 
     B1     A2     B2     B2     A1     B2     A2     B1     A2     B1 
     A2     A1     B1     B2     A2     B1     A2     A1     B2     A1 
     B2     A1     B2     A1     B2     A1     B2     A1     B2     A1 
     A1     B2     B2     A1     A1     B2     B2     A1     A1     B2 
     B2     A1     B2     A1     B2     A1 
 recalc freqs check OK
 Zero-point lengths:
 10.0000 10.0000 10.0000 10.0000 10.0000 10.0000 31.5618 26.1494 21.6039 19.5069
 16.1353 14.8544 13.8453 13.0421 12.6607 12.3033 12.1691 11.6220 11.6072 11.5258
 10.3025 10.1951  9.9929  9.8416  9.5197  9.3067  9.1022  9.0254  8.6984  8.6856
  8.5924  8.5788  8.1189  8.1043  8.1037  7.8488  7.8420  7.6839  7.6793  7.5618
  7.5185  7.4867  7.4121  7.1862  7.0838  7.0474  6.9521  6.8543  6.8302  6.7228
  6.5829  6.5711  6.4901  6.4320  6.3270  6.3196  6.2403  6.2107  6.1839  6.1653
  4.4547  4.4541  4.4174  4.4172  4.3930  4.3929
 highest evec of mol 2
  0.0000  0.0020  0.0006
  0.0000 -0.0019 -0.0028
  0.0000  0.0019 -0.0028
  0.0000 -0.0020  0.0006
  0.0000 -0.0037 -0.0010
  0.0000  0.0936 -0.1746
  0.0000  0.0535  0.0107
  0.0000 -0.0002  0.0091
  0.0000  0.0006  0.0002
  0.0000 -0.0012  0.0006
  0.0000  0.0012  0.0006
  0.0000 -0.0006  0.0002
  0.0000  0.0002  0.0091
  0.0000 -0.0535  0.0107
  0.0000 -0.0936 -0.1746
  0.0000  0.0037 -0.0010
  0.0000 -0.3223  0.5716
  0.0000 -0.1630 -0.0104
  0.0000 -0.0080 -0.0193
  0.0000  0.0080 -0.0193
  0.0000  0.1630 -0.0104
  0.0000  0.3223  0.5716
 Enter nber and list of atoms to keep of mol #2
 keep list:          22           1           2           3           4
           5           6           7           8           9          10
          11          12          13          14          15          16
          17          18          19          20          21          22
 reordering atoms
           1  -1.40567300000001     
           2 -0.740048000000010     
           3  0.740047999999989     
           4   1.40567299999999     
           5   1.41295900000003     
           6   2.81968900000003     
           7   3.47982299999999     
           8   2.70822399999996     
           9   1.38422400000004     
          10  0.730986999999997     
          11 -0.730987000000002     
          12  -1.38422400000000     
          13  -2.70822399999996     
          14  -3.47982300000000     
          15  -2.81968900000005     
          16  -1.41295900000001     
          17   3.33756000000003     
          18   4.56408499999999     
          19   3.19587899999996     
          20  -3.19587899999995     
          21  -4.56408500000000     
          22  -3.33756000000005     
           1           1
           2           2
           3           3
           4           4
           5           5
           6           6
           7           7
           8           8
           9           9
          10          10
          11          11
          12          12
          13          13
          14          14
          15          15
          16          16
          17          17
          18          18
          19          19
          20          20
          21          21
          22          22
 initial cartes coords mol 1
   8  -0.00000   2.75478  -1.37201
   6  -0.00000   1.70267  -0.77537
   6   0.00000   1.70267   0.77537
   8   0.00000   2.75478   1.37201
   6   0.00000   0.38520   1.45904
   6   0.00000   0.34375   2.85642
   6   0.00000  -0.88601   3.49153
   6  -0.00000  -2.03380   2.69412
   7   0.00000  -2.01679   1.36326
   6   0.00000  -0.83025   0.74566
   6  -0.00000  -0.83025  -0.74566
   7  -0.00000  -2.01679  -1.36326
   6   0.00000  -2.03380  -2.69412
   6  -0.00000  -0.88601  -3.49153
   6  -0.00000   0.34375  -2.85642
   6  -0.00000   0.38520  -1.45904
   1   0.00000   1.27879   3.40373
   1   0.00000  -0.96652   4.57168
   1   0.00000  -3.01901   3.15280
   1  -0.00000  -3.01901  -3.15280
   1  -0.00000  -0.96652  -4.57168
   1  -0.00000   1.27879  -3.40373
 initial cartes coords mol 2
   8   0.00000   2.75922  -1.40567
   6  -0.00000   1.70384  -0.74005
   6  -0.00000   1.70384   0.74005
   8  -0.00000   2.75922   1.40567
   6   0.00000   0.38952   1.41296
   6   0.00000   0.35599   2.81969
   6  -0.00000  -0.85489   3.47982
   6  -0.00000  -2.02995   2.70822
   7   0.00000  -2.04166   1.38422
   6  -0.00000  -0.85983   0.73099
   6  -0.00000  -0.85983  -0.73099
   7  -0.00000  -2.04166  -1.38422
   6   0.00000  -2.02995  -2.70822
   6  -0.00000  -0.85489  -3.47982
   6  -0.00000   0.35599  -2.81969
   6  -0.00000   0.38952  -1.41296
   1   0.00000   1.30835   3.33756
   1  -0.00000  -0.91152   4.56408
   1  -0.00000  -3.00451   3.19588
   1   0.00000  -3.00451  -3.19588
   1   0.00000  -0.91152  -4.56408
   1  -0.00000   1.30835  -3.33756
 loop 1 0
 mod cartes coords mol 2
   8   0.00000   2.75922  -1.40567
   6  -0.00000   1.70384  -0.74005
   6  -0.00000   1.70384   0.74005
   8  -0.00000   2.75922   1.40567
   6   0.00000   0.38952   1.41296
   6   0.00000   0.35599   2.81969
   6  -0.00000  -0.85489   3.47982
   6  -0.00000  -2.02995   2.70822
   7   0.00000  -2.04166   1.38422
   6  -0.00000  -0.85983   0.73099
   6  -0.00000  -0.85983  -0.73099
   7  -0.00000  -2.04166  -1.38422
   6   0.00000  -2.02995  -2.70822
   6  -0.00000  -0.85489  -3.47982
   6  -0.00000   0.35599  -2.81969
   6  -0.00000   0.38952  -1.41296
   1   0.00000   1.30835   3.33756
   1  -0.00000  -0.91152   4.56408
   1  -0.00000  -3.00451   3.19588
   1   0.00000  -3.00451  -3.19588
   1   0.00000  -0.91152  -4.56408
   1  -0.00000   1.30835  -3.33756
 read in order, maxerr=  0.07 for atom  22
 final axis swaps:           1           1           1
 final xyz swap pattern=           1
 reorder list:
   1   2   3   4   5   6   7   8   9  10  11  12  13  14  15  16  17  18  19  20
  21  22
 axis signs=           1           1           1
  8     0.000000  2.759217 -1.405673    -0.000000  2.754781 -1.372009
  6    -0.000000  1.703836 -0.740048    -0.000000  1.702673 -0.775375
  6    -0.000000  1.703836  0.740048     0.000000  1.702673  0.775375
  8    -0.000000  2.759217  1.405673     0.000000  2.754781  1.372009
  6     0.000001  0.389520  1.412959     0.000000  0.385205  1.459043
  6     0.000001  0.355990  2.819689     0.000000  0.343755  2.856417
  6    -0.000000 -0.854894  3.479823     0.000000 -0.886012  3.491527
  6    -0.000001 -2.029954  2.708224    -0.000001 -2.033799  2.694120
  7     0.000001 -2.041659  1.384224     0.000000 -2.016794  1.363257
  6    -0.000000 -0.859826  0.730987     0.000000 -0.830249  0.745661
  6    -0.000000 -0.859826 -0.730987    -0.000000 -0.830249 -0.745661
  7    -0.000000 -2.041659 -1.384224    -0.000000 -2.016794 -1.363257
  6     0.000001 -2.029954 -2.708224     0.000001 -2.033799 -2.694120
  6    -0.000000 -0.854894 -3.479823    -0.000000 -0.886012 -3.491527
  6    -0.000001  0.355990 -2.819689    -0.000000  0.343755 -2.856417
  6    -0.000000  0.389520 -1.412959    -0.000000  0.385205 -1.459043
  1     0.000001  1.308345  3.337560     0.000000  1.278786  3.403726
  1    -0.000000 -0.911524  4.564085     0.000000 -0.966521  4.571677
  1    -0.000001 -3.004510  3.195879     0.000000 -3.019009  3.152801
  1     0.000001 -3.004510 -3.195879    -0.000000 -3.019009 -3.152801
  1     0.000000 -0.911524 -4.564085    -0.000000 -0.966521 -4.571677
  1    -0.000001  1.308345 -3.337560    -0.000000  1.278786 -3.403726
 generating redundant internal coords
         300        3600          22
 Adding extra bonds for z output only
           8           6           6           8           6           6
           6           6           7           6           6           7
           6           6           6           6           1           1
           1           1           1           1
 search for int coords
   1 str   2   1   1.248
   2 str   3   2   1.480
   3 str   4   3   1.248
   4 str   5   3   1.477
   5 str   6   5   1.407
   6 str   7   6   1.379
   7 str   8   7   1.406
   8 str   9   8   1.324
   9 str  10   5   1.423
  10 str  10   9   1.350
  11 str  11  10   1.462
  12 str  12  11   1.350
  13 str  13  12   1.324
  14 str  14  13   1.406
  15 str  15  14   1.379
  16 str  16   2   1.477
  17 str  16  11   1.423
  18 str  16  15   1.407
  19 str  17   6   1.084
  20 str  18   7   1.086
  21 str  19   8   1.090
  22 str  20  13   1.090
  23 str  21  14   1.086
  24 str  22  15   1.084
 nber stretches=          24
  25 ben   1   2   3
  26 prop tor   1   2   3   4
  27 prop tor   1   2   3   5
  28 ben   1   2  16
  29 prop tor   1   2  16  11
  30 prop tor   1   2  16  15
  31 ben   2   3   4
  32 ben   2   3   5
  33 prop tor   2   3   5   6
  34 prop tor   2   3   5  10
  35 ben   2  16  11
  36 ben   2  16  15
  37 ben   3   2  16
  38 prop tor   3   2  16  11
  39 prop tor   3   2  16  15
  40 ben   3   5   6
  41 prop tor   3   5   6   7
  42 prop tor   3   5   6  17
  43 ben   3   5  10
  44 prop tor   3   5  10   9
  45 prop tor   3   5  10  11
  46 ben   4   3   5
  47 prop tor   4   3   5   6
  48 prop tor   4   3   5  10
  49 ben   5   6   7
  50 prop tor   5   6   7   8
  51 prop tor   5   6   7  18
  52 ben   5   6  17
  53 ben   5  10   9
  54 ben   5  10  11
  55 prop tor   5  10  11  12
  56 prop tor   5  10  11  16
  57 ben   6   5  10
  58 prop tor   6   5  10   9
  59 prop tor   6   5  10  11
  60 ben   6   7   8
  61 prop tor   6   7   8   9
  62 prop tor   6   7   8  19
  63 ben   6   7  18
  64 ben   7   6  17
  65 ben   7   8   9
  66 prop tor   7   8   9  10
  67 ben   7   8  19
  68 ben   8   7  18
  69 ben   8   9  10
  70 prop tor   8   9  10   5
  71 prop tor   8   9  10  11
  72 ben   9   8  19
  73 ben   9  10  11
  74 prop tor   9  10  11  12
  75 prop tor   9  10  11  16
  76 prop tor  10   5   6   7
  77 prop tor  10   5   6  17
  78 ben  10  11  12
  79 prop tor  10  11  12  13
  80 ben  10  11  16
  81 prop tor  10  11  16   2
  82 prop tor  10  11  16  15
  83 ben  11  12  13
  84 prop tor  11  12  13  14
  85 prop tor  11  12  13  20
  86 ben  11  16  15
  87 ben  12  11  16
  88 prop tor  12  11  16   2
  89 prop tor  12  11  16  15
  90 ben  12  13  14
  91 prop tor  12  13  14  15
  92 prop tor  12  13  14  21
  93 ben  12  13  20
  94 ben  13  14  15
  95 prop tor  13  14  15  16
  96 prop tor  13  14  15  22
  97 ben  13  14  21
  98 ben  14  13  20
  99 ben  14  15  16
 100 prop tor  14  15  16   2
 101 prop tor  14  15  16  11
 102 ben  14  15  22
 103 ben  15  14  21
 104 prop tor  16   2   3   4
 105 prop tor  16   2   3   5
 106 prop tor  16  11  12  13
 107 ben  16  15  22
 108 prop tor  17   6   7   8
 109 prop tor  17   6   7  18
 110 prop tor  18   7   8   9
 111 prop tor  18   7   8  19
 112 prop tor  19   8   9  10
 113 prop tor  20  13  14  15
 114 prop tor  20  13  14  21
 115 prop tor  21  14  15  16
 116 prop tor  21  14  15  22
 117 prop tor  22  15  16   2
 118 prop tor  22  15  16  11
 nber bend=              38
 nber lin bend=           0
 nber prop tor=          56
 nber impr tor=           0
 nber tot redund int=         118
 generating redundant internal coords
         300        3600          22
 search for int coords
   1 str   2   1   1.210
   2 str   3   2   1.551
   3 str   4   3   1.210
   4 str   5   3   1.484
   5 str   6   5   1.398
   6 str   7   6   1.384
   7 str   8   7   1.398
   8 str   9   8   1.331
   9 str  10   5   1.409
  10 str  10   9   1.338
  11 str  11  10   1.491
  12 str  12  11   1.338
  13 str  13  12   1.331
  14 str  14  13   1.398
  15 str  15  14   1.384
  16 str  16   2   1.484
  17 str  16  11   1.409
  18 str  16  15   1.398
  19 str  17   6   1.083
  20 str  18   7   1.083
  21 str  19   8   1.087
  22 str  20  13   1.087
  23 str  21  14   1.083
  24 str  22  15   1.083
 nber stretches=          24
  25 ben   1   2   3
  26 prop tor   1   2   3   4
  27 prop tor   1   2   3   5
  28 ben   1   2  16
  29 prop tor   1   2  16  11
  30 prop tor   1   2  16  15
  31 ben   2   3   4
  32 ben   2   3   5
  33 prop tor   2   3   5   6
  34 prop tor   2   3   5  10
  35 ben   2  16  11
  36 ben   2  16  15
  37 ben   3   2  16
  38 prop tor   3   2  16  11
  39 prop tor   3   2  16  15
  40 ben   3   5   6
  41 prop tor   3   5   6   7
  42 prop tor   3   5   6  17
  43 ben   3   5  10
  44 prop tor   3   5  10   9
  45 prop tor   3   5  10  11
  46 ben   4   3   5
  47 prop tor   4   3   5   6
  48 prop tor   4   3   5  10
  49 ben   5   6   7
  50 prop tor   5   6   7   8
  51 prop tor   5   6   7  18
  52 ben   5   6  17
  53 ben   5  10   9
  54 ben   5  10  11
  55 prop tor   5  10  11  12
  56 prop tor   5  10  11  16
  57 ben   6   5  10
  58 prop tor   6   5  10   9
  59 prop tor   6   5  10  11
  60 ben   6   7   8
  61 prop tor   6   7   8   9
  62 prop tor   6   7   8  19
  63 ben   6   7  18
  64 ben   7   6  17
  65 ben   7   8   9
  66 prop tor   7   8   9  10
  67 ben   7   8  19
  68 ben   8   7  18
  69 ben   8   9  10
  70 prop tor   8   9  10   5
  71 prop tor   8   9  10  11
  72 ben   9   8  19
  73 ben   9  10  11
  74 prop tor   9  10  11  12
  75 prop tor   9  10  11  16
  76 prop tor  10   5   6   7
  77 prop tor  10   5   6  17
  78 ben  10  11  12
  79 prop tor  10  11  12  13
  80 ben  10  11  16
  81 prop tor  10  11  16   2
  82 prop tor  10  11  16  15
  83 ben  11  12  13
  84 prop tor  11  12  13  14
  85 prop tor  11  12  13  20
  86 ben  11  16  15
  87 ben  12  11  16
  88 prop tor  12  11  16   2
  89 prop tor  12  11  16  15
  90 ben  12  13  14
  91 prop tor  12  13  14  15
  92 prop tor  12  13  14  21
  93 ben  12  13  20
  94 ben  13  14  15
  95 prop tor  13  14  15  16
  96 prop tor  13  14  15  22
  97 ben  13  14  21
  98 ben  14  13  20
  99 ben  14  15  16
 100 prop tor  14  15  16   2
 101 prop tor  14  15  16  11
 102 ben  14  15  22
 103 ben  15  14  21
 104 prop tor  16   2   3   4
 105 prop tor  16   2   3   5
 106 prop tor  16  11  12  13
 107 ben  16  15  22
 108 prop tor  17   6   7   8
 109 prop tor  17   6   7  18
 110 prop tor  18   7   8   9
 111 prop tor  18   7   8  19
 112 prop tor  19   8   9  10
 113 prop tor  20  13  14  15
 114 prop tor  20  13  14  21
 115 prop tor  21  14  15  16
 116 prop tor  21  14  15  22
 117 prop tor  22  15  16   2
 118 prop tor  22  15  16  11
 nber bend=              38
 nber lin bend=           0
 nber prop tor=          56
 nber impr tor=           0
 nber tot redund int=         118
 Eigenvalues of G in red int coords
    Gval -0.00000000 -0.00000000 -0.00000000 -0.00000000 -0.00000000 -0.00000000 -0.00000000 -0.00000000
    Gval -0.00000000 -0.00000000 -0.00000000 -0.00000000 -0.00000000 -0.00000000 -0.00000000 -0.00000000
    Gval -0.00000000 -0.00000000 -0.00000000 -0.00000000 -0.00000000 -0.00000000 -0.00000000 -0.00000000
    Gval -0.00000000 -0.00000000 -0.00000000 -0.00000000 -0.00000000 -0.00000000  0.00000000  0.00000000
    Gval  0.00000000  0.00000000  0.00000000  0.00000000  0.00000000  0.00000000  0.00000000  0.00000000
    Gval  0.00000000  0.00000000  0.00000000  0.00000000  0.00000000  0.00000000  0.00000000  0.00000000
    Gval  0.00000000  0.00000000  0.00000000  0.00000000  0.00000000  0.00000000  0.00000000  0.00000000
    Gval  0.00000000  0.00000000  0.00000701  0.00001113  0.00001201  0.00002002  0.00002155  0.00002609
    Gval  0.00003416  0.00004315  0.00004660  0.00005006  0.00005418  0.00005862  0.00006036  0.00007438
    Gval  0.00007778  0.00010079  0.00010129  0.00011065  0.00011534  0.00012558  0.00013379  0.00013440
    Gval  0.00015174  0.00019713  0.00024237  0.00024323  0.00027152  0.00028590  0.00031893  0.00036678
    Gval  0.00038046  0.00041068  0.00041987  0.00044306  0.00044882  0.00059389  0.00059390  0.00060642
    Gval  0.00060706  0.00061304  0.00064620  0.00064629  0.00068927  0.00089346  0.00091201  0.00106413
    Gval  0.00106446  0.00113490  0.00113491  0.00117435  0.00117440  0.00120594  0.00155935  0.00163063
    Gval  0.00175450  0.00214430  0.00274943  0.00276863  0.00390519  0.00390603
  7.008948385492527E-006  7.008948385492527E-006
  1.113371242894873E-005  7.008948385492527E-006
  1.200715153585259E-005  7.008948385492527E-006
  2.002459125187278E-005  7.008948385492527E-006
  2.154756938723561E-005  7.008948385492527E-006
  2.609081450955017E-005  7.008948385492527E-006
  3.416118081382140E-005  7.008948385492527E-006
  4.315344805503171E-005  7.008948385492527E-006
  4.660483535269743E-005  7.008948385492527E-006
  5.005542711305547E-005  7.008948385492527E-006
  5.417547686712586E-005  7.008948385492527E-006
  5.861880664676725E-005  7.008948385492527E-006
  6.036281814337876E-005  7.008948385492527E-006
  7.437803229637618E-005  7.008948385492527E-006
  7.777951166138565E-005  7.008948385492527E-006
  1.007898039245223E-004  7.008948385492527E-006
  1.012945221699863E-004  7.008948385492527E-006
  1.106535691366935E-004  7.008948385492527E-006
  1.153363065561563E-004  7.008948385492527E-006
  1.255792845347348E-004  7.008948385492527E-006
  1.337852155976440E-004  7.008948385492527E-006
  1.344026845661162E-004  7.008948385492527E-006
  1.517358584302394E-004  7.008948385492527E-006
  1.971311062219583E-004  7.008948385492527E-006
  2.423746727339360E-004  7.008948385492527E-006
  2.432338503612853E-004  7.008948385492527E-006
  2.715229150509873E-004  7.008948385492527E-006
  2.859040266007888E-004  7.008948385492527E-006
  3.189337871289297E-004  7.008948385492527E-006
  3.667844716299510E-004  7.008948385492527E-006
  3.804566177431906E-004  7.008948385492527E-006
  4.106770468198508E-004  7.008948385492527E-006
  4.198741917881288E-004  7.008948385492527E-006
  4.430639819780930E-004  7.008948385492527E-006
  4.488175016477970E-004  7.008948385492527E-006
  5.938900205783127E-004  7.008948385492527E-006
  5.939022141205792E-004  7.008948385492527E-006
  6.064166338606346E-004  7.008948385492527E-006
  6.070577034293894E-004  7.008948385492527E-006
  6.130424950967592E-004  7.008948385492527E-006
  6.461975177293418E-004  7.008948385492527E-006
  6.462852024156214E-004  7.008948385492527E-006
  6.892711805621386E-004  7.008948385492527E-006
  8.934577604518360E-004  7.008948385492527E-006
  9.120084555341890E-004  7.008948385492527E-006
  1.064134526060975E-003  7.008948385492527E-006
  1.064458957169265E-003  7.008948385492527E-006
  1.134904277866441E-003  7.008948385492527E-006
  1.134909087225813E-003  7.008948385492527E-006
  1.174348893980330E-003  7.008948385492527E-006
  1.174400441403939E-003  7.008948385492527E-006
  1.205936038502734E-003  7.008948385492527E-006
  1.559345526538011E-003  7.008948385492527E-006
  1.630631377782906E-003  7.008948385492527E-006
  1.754498816802412E-003  7.008948385492527E-006
  2.144303770680069E-003  7.008948385492527E-006
  2.749426539848552E-003  7.008948385492527E-006
  2.768631387947719E-003  7.008948385492527E-006
  3.905190074070937E-003  7.008948385492527E-006
  3.906027435325479E-003  7.008948385492527E-006
 cut=1d-8, nber non-redundant internal coords=          60
 Check on Eigenvals of non-red overlap matrix:
  0.00000701  0.00001113  0.00001201  0.00002002  0.00002155  0.00002609  0.00003416  0.00004315
  0.00004660  0.00005006  0.00005418  0.00005862  0.00006036  0.00007438  0.00007778  0.00010079
  0.00010129  0.00011065  0.00011534  0.00012558  0.00013379  0.00013440  0.00015174  0.00019713
  0.00024237  0.00024323  0.00027152  0.00028590  0.00031893  0.00036678  0.00038046  0.00041068
  0.00041987  0.00044306  0.00044882  0.00059389  0.00059390  0.00060642  0.00060706  0.00061304
  0.00064620  0.00064629  0.00068927  0.00089346  0.00091201  0.00106413  0.00106446  0.00113490
  0.00113491  0.00117435  0.00117440  0.00120594  0.00155935  0.00163063  0.00175450  0.00214430
  0.00274943  0.00276863  0.00390519  0.00390603
 generating redundant internal coords
         300        3600          22
 search for int coords
   1 str   2   1   1.248
   2 str   3   2   1.480
   3 str   4   3   1.248
   4 str   5   3   1.477
   5 str   6   5   1.407
   6 str   7   6   1.379
   7 str   8   7   1.406
   8 str   9   8   1.324
   9 str  10   5   1.423
  10 str  10   9   1.350
  11 str  11  10   1.462
  12 str  12  11   1.350
  13 str  13  12   1.324
  14 str  14  13   1.406
  15 str  15  14   1.379
  16 str  16   2   1.477
  17 str  16  11   1.423
  18 str  16  15   1.407
  19 str  17   6   1.084
  20 str  18   7   1.086
  21 str  19   8   1.090
  22 str  20  13   1.090
  23 str  21  14   1.086
  24 str  22  15   1.084
 nber stretches=          24
  25 ben   1   2   3
  26 prop tor   1   2   3   4
  27 prop tor   1   2   3   5
  28 ben   1   2  16
  29 prop tor   1   2  16  11
  30 prop tor   1   2  16  15
  31 ben   2   3   4
  32 ben   2   3   5
  33 prop tor   2   3   5   6
  34 prop tor   2   3   5  10
  35 ben   2  16  11
  36 ben   2  16  15
  37 ben   3   2  16
  38 prop tor   3   2  16  11
  39 prop tor   3   2  16  15
  40 ben   3   5   6
  41 prop tor   3   5   6   7
  42 prop tor   3   5   6  17
  43 ben   3   5  10
  44 prop tor   3   5  10   9
  45 prop tor   3   5  10  11
  46 ben   4   3   5
  47 prop tor   4   3   5   6
  48 prop tor   4   3   5  10
  49 ben   5   6   7
  50 prop tor   5   6   7   8
  51 prop tor   5   6   7  18
  52 ben   5   6  17
  53 ben   5  10   9
  54 ben   5  10  11
  55 prop tor   5  10  11  12
  56 prop tor   5  10  11  16
  57 ben   6   5  10
  58 prop tor   6   5  10   9
  59 prop tor   6   5  10  11
  60 ben   6   7   8
  61 prop tor   6   7   8   9
  62 prop tor   6   7   8  19
  63 ben   6   7  18
  64 ben   7   6  17
  65 ben   7   8   9
  66 prop tor   7   8   9  10
  67 ben   7   8  19
  68 ben   8   7  18
  69 ben   8   9  10
  70 prop tor   8   9  10   5
  71 prop tor   8   9  10  11
  72 ben   9   8  19
  73 ben   9  10  11
  74 prop tor   9  10  11  12
  75 prop tor   9  10  11  16
  76 prop tor  10   5   6   7
  77 prop tor  10   5   6  17
  78 ben  10  11  12
  79 prop tor  10  11  12  13
  80 ben  10  11  16
  81 prop tor  10  11  16   2
  82 prop tor  10  11  16  15
  83 ben  11  12  13
  84 prop tor  11  12  13  14
  85 prop tor  11  12  13  20
  86 ben  11  16  15
  87 ben  12  11  16
  88 prop tor  12  11  16   2
  89 prop tor  12  11  16  15
  90 ben  12  13  14
  91 prop tor  12  13  14  15
  92 prop tor  12  13  14  21
  93 ben  12  13  20
  94 ben  13  14  15
  95 prop tor  13  14  15  16
  96 prop tor  13  14  15  22
  97 ben  13  14  21
  98 ben  14  13  20
  99 ben  14  15  16
 100 prop tor  14  15  16   2
 101 prop tor  14  15  16  11
 102 ben  14  15  22
 103 ben  15  14  21
 104 prop tor  16   2   3   4
 105 prop tor  16   2   3   5
 106 prop tor  16  11  12  13
 107 ben  16  15  22
 108 prop tor  17   6   7   8
 109 prop tor  17   6   7  18
 110 prop tor  18   7   8   9
 111 prop tor  18   7   8  19
 112 prop tor  19   8   9  10
 113 prop tor  20  13  14  15
 114 prop tor  20  13  14  21
 115 prop tor  21  14  15  16
 116 prop tor  21  14  15  22
 117 prop tor  22  15  16   2
 118 prop tor  22  15  16  11
 nber bend=              38
 nber lin bend=           0
 nber prop tor=          56
 nber impr tor=           0
 nber tot redund int=         118
 Eigenvalues of G in red int coords
    Gval -0.00000000 -0.00000000 -0.00000000 -0.00000000 -0.00000000 -0.00000000 -0.00000000 -0.00000000
    Gval -0.00000000 -0.00000000 -0.00000000 -0.00000000 -0.00000000 -0.00000000 -0.00000000 -0.00000000
    Gval -0.00000000 -0.00000000 -0.00000000 -0.00000000 -0.00000000 -0.00000000 -0.00000000 -0.00000000
    Gval -0.00000000 -0.00000000 -0.00000000  0.00000000  0.00000000  0.00000000  0.00000000  0.00000000
    Gval  0.00000000  0.00000000  0.00000000  0.00000000  0.00000000  0.00000000  0.00000000  0.00000000
    Gval  0.00000000  0.00000000  0.00000000  0.00000000  0.00000000  0.00000000  0.00000000  0.00000000
    Gval  0.00000000  0.00000000  0.00000000  0.00000000  0.00000000  0.00000000  0.00000000  0.00000000
    Gval  0.00000000  0.00000000  0.00000708  0.00001105  0.00001172  0.00002011  0.00002120  0.00002570
    Gval  0.00003442  0.00004271  0.00004666  0.00004911  0.00005403  0.00005857  0.00006023  0.00007427
    Gval  0.00007803  0.00010048  0.00010085  0.00011017  0.00011539  0.00012562  0.00013142  0.00013258
    Gval  0.00015123  0.00019638  0.00024108  0.00024916  0.00026817  0.00028456  0.00032434  0.00036887
    Gval  0.00037699  0.00039647  0.00043047  0.00044218  0.00044579  0.00059387  0.00059388  0.00060634
    Gval  0.00060702  0.00061135  0.00064592  0.00064606  0.00070046  0.00089911  0.00090484  0.00105965
    Gval  0.00105998  0.00113014  0.00113015  0.00117002  0.00117007  0.00123278  0.00154657  0.00162093
    Gval  0.00173682  0.00213655  0.00272020  0.00274054  0.00388442  0.00388526
  7.084947252525268E-006  7.084947252525268E-006
  1.104824537910771E-005  7.084947252525268E-006
  1.171518227570561E-005  7.084947252525268E-006
  2.010801256192656E-005  7.084947252525268E-006
  2.119671146469989E-005  7.084947252525268E-006
  2.570138434997862E-005  7.084947252525268E-006
  3.442219192730314E-005  7.084947252525268E-006
  4.271245063922871E-005  7.084947252525268E-006
  4.666023670200696E-005  7.084947252525268E-006
  4.910926870669820E-005  7.084947252525268E-006
  5.403144442140786E-005  7.084947252525268E-006
  5.856933857963133E-005  7.084947252525268E-006
  6.022976550255556E-005  7.084947252525268E-006
  7.426852236902178E-005  7.084947252525268E-006
  7.803464789603261E-005  7.084947252525268E-006
  1.004812894791595E-004  7.084947252525268E-006
  1.008511529832286E-004  7.084947252525268E-006
  1.101694920868851E-004  7.084947252525268E-006
  1.153907401212212E-004  7.084947252525268E-006
  1.256197687160614E-004  7.084947252525268E-006
  1.314168110613409E-004  7.084947252525268E-006
  1.325793957060227E-004  7.084947252525268E-006
  1.512336194516375E-004  7.084947252525268E-006
  1.963803224813260E-004  7.084947252525268E-006
  2.410818274363149E-004  7.084947252525268E-006
  2.491582953539169E-004  7.084947252525268E-006
  2.681746721398307E-004  7.084947252525268E-006
  2.845600162516824E-004  7.084947252525268E-006
  3.243360260326760E-004  7.084947252525268E-006
  3.688674200871528E-004  7.084947252525268E-006
  3.769890161398576E-004  7.084947252525268E-006
  3.964720753774466E-004  7.084947252525268E-006
  4.304736893885392E-004  7.084947252525268E-006
  4.421831000890417E-004  7.084947252525268E-006
  4.457945195220424E-004  7.084947252525268E-006
  5.938676673209136E-004  7.084947252525268E-006
  5.938768284069227E-004  7.084947252525268E-006
  6.063446561322615E-004  7.084947252525268E-006
  6.070247157362990E-004  7.084947252525268E-006
  6.113481204054357E-004  7.084947252525268E-006
  6.459210131879216E-004  7.084947252525268E-006
  6.460624322760623E-004  7.084947252525268E-006
  7.004623586430494E-004  7.084947252525268E-006
  8.991085677735140E-004  7.084947252525268E-006
  9.048447827204600E-004  7.084947252525268E-006
  1.059651575757853E-003  7.084947252525268E-006
  1.059979030218262E-003  7.084947252525268E-006
  1.130142735639461E-003  7.084947252525268E-006
  1.130147004992612E-003  7.084947252525268E-006
  1.170020178598600E-003  7.084947252525268E-006
  1.170071566732321E-003  7.084947252525268E-006
  1.232779609170597E-003  7.084947252525268E-006
  1.546574575256283E-003  7.084947252525268E-006
  1.620933744258047E-003  7.084947252525268E-006
  1.736816817179669E-003  7.084947252525268E-006
  2.136548193697612E-003  7.084947252525268E-006
  2.720196007289882E-003  7.084947252525268E-006
  2.740539407862254E-003  7.084947252525268E-006
  3.884419758113503E-003  7.084947252525268E-006
  3.885264942050192E-003  7.084947252525268E-006
 cut=1d-8, nber non-redundant internal coords=          60
 Check on Eigenvals of non-red overlap matrix:
  0.00000708  0.00001105  0.00001172  0.00002011  0.00002120  0.00002570  0.00003442  0.00004271
  0.00004666  0.00004911  0.00005403  0.00005857  0.00006023  0.00007427  0.00007803  0.00010048
  0.00010085  0.00011017  0.00011539  0.00012562  0.00013142  0.00013258  0.00015123  0.00019638
  0.00024108  0.00024916  0.00026817  0.00028456  0.00032434  0.00036887  0.00037699  0.00039647
  0.00043047  0.00044218  0.00044579  0.00059387  0.00059388  0.00060634  0.00060702  0.00061135
  0.00064592  0.00064606  0.00070046  0.00089911  0.00090484  0.00105965  0.00105998  0.00113014
  0.00113015  0.00117002  0.00117007  0.00123278  0.00154657  0.00162093  0.00173682  0.00213655
  0.00272020  0.00274054  0.00388442  0.00388526
 d1=
   6.5  -5.3  -0.0   0.0   7.8 -14.6   0.0  -0.0   0.0   0.0  -0.5   0.0  -3.3  -0.0  -5.3   0.0   0.6  -0.0   0.0   1.2
  -7.8   0.0  -3.5   0.0  -0.0  -0.0   1.7  -2.3   0.0  -0.0  -2.6  -0.0  -0.0   0.0  -0.5   0.0   0.2  -0.2   0.0  -0.0
  -0.4  -0.0  -0.0  -0.0   0.0  -1.0  -0.0  -0.6  -0.0  -0.6  -0.0   0.0   0.0  -0.0  -0.0   0.0   0.0  -0.0  -0.0  -0.0
 d2=
  -6.5  -6.0   0.0   0.0  -5.7  15.3  -0.0   0.0  -0.0  -0.0   0.7   0.0   3.7   0.0   5.3  -1.0  -0.0  -0.0   0.0   0.6
   0.0   8.1  -3.3  -0.0   0.0   0.0  -1.7  -2.3  -0.0   0.0  -2.5  -0.0  -0.0   0.0   0.5   0.0   0.2   0.2  -0.0  -0.0
  -0.4  -0.0   0.0  -0.0   0.0   1.0   0.0  -0.6   0.0  -0.6   0.0  -0.0  -0.0   0.0   0.0  -0.0  -0.0   0.0   0.0   0.0
 curvilinear- renormalizn of Dush matrix done
  mol 1 sym            1  -> mol 2 sym            1
  mol 1 sym            2  -> mol 2 sym            2
  mol 1 sym            3  -> mol 2 sym            3
  mol 1 sym            4  -> mol 2 sym            4

 Dushinsky matrix, ncs 2 in terms of ncs 1

   mode   freq    coeff     %      %tot     of    at

   1 A1     -0.  0.0000     0.0     0.0  11 A1    231.
   2 B1     -0.  0.0000     0.0     0.0  39 B2   1056.
   3 B2      0.  0.0000     0.0     0.0  13 B2    319.
   4 B2      0.  0.0000     0.0     0.0  13 B2    319.
   5 A2      0. -0.0000     0.0     0.0  44 A1   1207.
   6 B1      0. -0.0000     0.0     0.0  39 B2   1056.
   7 A2     62. -0.9961    99.2    97.4   7 A2     37.
   8 B1     90. -0.9977    99.5    99.5   8 B1     84.
   9 A2    132.  0.9929    98.6    99.1   9 A2    110.
  10 B1    162. -0.9959    99.2   100.8  10 B1    154.
  11 A1    236. -0.9990    99.8   100.5  11 A1    231.
  12 A2    279. -0.9922    98.5   102.8  12 A2    258.
  13 B2    321.  0.9993    99.9    95.3  13 B2    319.
  14 A1    361. -0.9988    99.8    97.2  14 A1    360.
  15 B1    383. -0.9975    99.5    97.0  15 B1    381.
  16 B2    406. -0.9987    99.7   102.4  16 B2    395.
  17 A1    415. -0.9883    97.7    98.3  17 A1    401.
  18 A2    455.  0.9876    97.5   100.6  18 A2    436.
  19 B1    456. -0.9971    99.4   100.0  19 B1    441.
  20 A1    463. -0.9904    98.1   101.5  20 A1    458.
  21 B1    579. -0.9923    98.5    98.4  21 B1    564.
  22 A2    591. -0.9911    98.2   100.5  22 A2    572.
  23 B2    615.  0.9989    99.8   100.0  23 B2    623.
  24 B2    635. -0.9983    99.7   100.8  24 B2    632.
  25 A1    678. -0.9972    99.4    99.6  25 A1    680.
  26 B2    710.  0.9978    99.6    99.1  26 B2    713.
  27 A2    742. -0.9635    92.8   102.4  28 A2    779.
  28 B1    754. -0.9903    98.1    99.2  27 B1    766.
  29 A2    812. -0.9353    87.5    99.3  31 A2    833.
                -0.3303    10.9          32 A2    879.
  30 B1    815. -0.9909    98.2    99.1  30 B1    833.
  31 A2    832.  0.3356    11.3   101.1  31 A2    833.
                -0.9077    82.4          32 A2    879.
  32 A1    835.  0.9982    99.6    99.4  29 A1    831.
  33 B1    932. -0.9500    90.2    99.2  34 B1    992.
  34 B2    936. -0.9957    99.1   102.4  33 B2    938.
  35 A2    936. -0.9620    92.5    99.4  35 A2    994.
  36 B1    998. -0.9499    90.2    99.6  37 B1   1020.
  37 A2    999. -0.9605    92.3    99.5  38 A2   1022.
  38 A1   1041.  0.8316    69.1    99.0  36 A1   1020.
                -0.5333    28.4          40 A1   1080.
  39 B2   1042.  0.9897    97.9    99.7  39 B2   1056.
  40 A1   1075. -0.4816    23.2    98.4  36 A1   1020.
                -0.8365    70.0          40 A1   1080.
  41 B2   1087.  0.9862    97.3   100.0  41 B2   1105.
  42 A1   1096. -0.9556    91.3    99.7  42 A1   1110.
  43 B2   1119.  0.9875    97.5   100.4  43 B2   1134.
  44 A1   1190.  0.9326    87.0    99.3  44 A1   1207.
  45 B2   1225. -0.9551    91.2   101.2  45 B2   1230.
  46 A1   1237.  0.4853    23.6   100.0  47 A1   1296.
                 0.7901    62.4          48 A1   1305.
  47 B2   1272.  0.8280    68.6    99.5  46 B2   1283.
                 0.4862    23.6          49 B2   1313.
  48 A1   1308.  0.7612    57.9   100.4  47 A1   1296.
                -0.5735    32.9          48 A1   1305.
  49 B2   1317.  0.4451    19.8   100.3  46 B2   1283.
                -0.8614    74.2          49 B2   1313.
  50 A1   1360.  0.9264    85.8    99.6  50 A1   1344.
  51 A1   1418. -0.9432    89.0    99.1  52 A1   1454.
  52 B2   1423.  0.9195    84.5   100.0  51 B2   1449.
  53 B2   1459.  0.3471    12.0    99.7  51 B2   1449.
                 0.8439    71.2          54 B2   1491.
  54 A1   1486.  0.9560    91.4    99.4  53 A1   1485.
  55 A1   1535. -0.8090    65.4    99.7  55 A1   1592.
                 0.4965    24.6          59 A1   1756.
  56 B2   1539.  0.4507    20.3   100.5  54 B2   1491.
                -0.4265    18.2          56 B2   1606.
                 0.3427    11.7          58 B2   1628.
                -0.6882    47.4          60 B2   1781.
  57 B2   1578. -0.8243    68.0   100.1  56 B2   1606.
                -0.5222    27.3          58 B2   1628.
  58 A1   1593.  0.3442    11.8   100.4  55 A1   1592.
                 0.5702    32.5          57 A1   1616.
                 0.7368    54.3          59 A1   1756.
  59 A1   1607.  0.4303    18.5   100.0  55 A1   1592.
                -0.7905    62.5          57 A1   1616.
                 0.4133    17.1          59 A1   1756.
  60 B2   1617.  0.3338    11.1   100.3  56 B2   1606.
                -0.7171    51.4          58 B2   1628.
                -0.6071    36.9          60 B2   1781.
  61 B2   3097.  0.9999   100.0   100.0  61 B2   3149.
  62 A1   3098.  0.9998   100.0   100.0  62 A1   3149.
  63 B2   3150. -0.9240    85.4   100.0  63 B2   3188.
                -0.3823    14.6          65 B2   3201.
  64 A1   3150. -0.9257    85.7   100.0  64 A1   3188.
                -0.3781    14.3          66 A1   3202.
  65 B2   3185.  0.3823    14.6   100.0  63 B2   3188.
                -0.9239    85.4          65 B2   3201.
  66 A1   3185.  0.3782    14.3   100.0  64 A1   3188.
                -0.9256    85.7          66 A1   3202.
 nber times 1st assigned=           1           0
 nber times 1st assigned=           2           0
 nber times 1st assigned=           3           0
 nber times 1st assigned=           4           0
 nber times 1st assigned=           5           0
 nber times 1st assigned=           6           0
 nber times 1st assigned=           7           0
 nber times 1st assigned=           8           0
 nber times 1st assigned=           9           0
 nber times 1st assigned=          10           0
 nber times 1st assigned=          12           0
 nber times 1st assigned=          13           2
 nber times 1st assigned=          14           0
 nber times 1st assigned=          15           0
 nber times 1st assigned=          16           0
 nber times 1st assigned=          17           0
 nber times 1st assigned=          18           0
 nber times 1st assigned=          19           0
 nber times 1st assigned=          20           0
 nber times 1st assigned=          21           0
 nber times 1st assigned=          22           0
 nber times 1st assigned=          23           0
 nber times 1st assigned=          24           0
 nber times 1st assigned=          25           0
 nber times 1st assigned=          26           0
 nber times 1st assigned=          27           0
 nber times 1st assigned=          28           0
 nber times 1st assigned=          29           0
 nber times 1st assigned=          30           0
 nber times 1st assigned=          31           0
 nber times 1st assigned=          32           0
 nber times 1st assigned=          33           0
 nber times 1st assigned=          34           0
 nber times 1st assigned=          35           0
 nber times 1st assigned=          36           0
 nber times 1st assigned=          37           0
 nber times 1st assigned=          38           0
 nber times 1st assigned=          39           2
 nber times 1st assigned=          40           0
 nber times 1st assigned=          41           0
 nber times 1st assigned=          42           0
 nber times 1st assigned=          43           0
 nber times 1st assigned=          45           0
 nber times 1st assigned=          46           0
 nber times 1st assigned=          47           0
 nber times 1st assigned=          48           0
 nber times 1st assigned=          49           0
 nber times 1st assigned=          50           0
 nber times 1st assigned=          51           0
 nber times 1st assigned=          52           0
 nber times 1st assigned=          53           0
 nber times 1st assigned=          54           0
 nber times 1st assigned=          55           0
 nber times 1st assigned=          56           0
 nber times 1st assigned=          57           0
 nber times 1st assigned=          58           0
 nber times 1st assigned=          59           0
 nber times 1st assigned=          60           0
 nber times 1st assigned=          61           0
 nber times 1st assigned=          62           0
 nber times 1st assigned=          63           0
 nber times 1st assigned=          64           0
 nber times 1st assigned=          65           0
 nber times 1st assigned=          66           0
 Dushinsky matrix written to .out file
 modes represented=   59.8821393612801     

 Dushinsky matrix, ncs 1 in terms of ncs 2

   mode   freq    coeff     %      %tot     of    at

   7 A2     37. -0.9961    99.2    98.2   7 A2     62.
   8 B1     84. -0.9977    99.5   100.7   8 B1     90.
   9 A2    110.  0.9929    98.6    99.9   9 A2    132.
  10 B1    154. -0.9959    99.2   101.0  10 B1    162.
  11 A1    231. -0.9990    99.8   100.6  11 A1    236.
  12 A2    258. -0.9922    98.5   102.6  12 A2    279.
  13 B2    319.  0.9993    99.9    95.7  13 B2    321.
  14 A1    360. -0.9988    99.8    97.9  14 A1    361.
  15 B1    381. -0.9975    99.5    97.1  15 B1    383.
  16 B2    395. -0.9987    99.7   103.2  16 B2    406.
  17 A1    401. -0.9883    97.7    98.9  17 A1    415.
  18 A2    436.  0.9876    97.5   100.3  18 A2    455.
  19 B1    441. -0.9971    99.4   100.0  19 B1    456.
  20 A1    458. -0.9904    98.1   101.2  20 A1    463.
  21 B1    564. -0.9923    98.5    97.5  21 B1    579.
  22 A2    572. -0.9911    98.2   100.5  22 A2    591.
  23 B2    623.  0.9989    99.8   100.4  23 B2    615.
  24 B2    632. -0.9983    99.7   100.9  24 B2    635.
  25 A1    680. -0.9972    99.4    99.5  25 A1    678.
  26 B2    713.  0.9978    99.6    99.0  26 B2    710.
  27 B1    766. -0.9903    98.1    98.8  28 B1    754.
  28 A2    779. -0.9635    92.8   101.3  27 A2    742.
  29 A1    831.  0.9982    99.6    99.3  32 A1    835.
  30 B1    833. -0.9909    98.2    98.9  30 B1    815.
  31 A2    833. -0.9353    87.5    99.3  29 A2    812.
                 0.3356    11.3          31 A2    832.
  32 A2    879. -0.3303    10.9   101.2  29 A2    812.
                -0.9077    82.4          31 A2    832.
  33 B2    938. -0.9957    99.1   101.9  34 B2    936.
  34 B1    992. -0.9500    90.2    99.3  33 B1    932.
  35 A2    994. -0.9620    92.5    99.3  35 A2    936.
  36 A1   1020.  0.8316    69.1    97.7  38 A1   1041.
                -0.4816    23.2          40 A1   1075.
  37 B1   1020. -0.9499    90.2    99.5  36 B1    998.
  38 A2   1022. -0.9605    92.3    99.6  37 A2    999.
  39 B2   1056.  0.9897    97.9    99.6  39 B2   1042.
  40 A1   1080. -0.5333    28.4    99.4  38 A1   1041.
                -0.8365    70.0          40 A1   1075.
  41 B2   1105.  0.9862    97.3   100.1  41 B2   1087.
  42 A1   1110. -0.9556    91.3    99.7  42 A1   1096.
  43 B2   1134.  0.9875    97.5   100.3  43 B2   1119.
  44 A1   1207.  0.9326    87.0    99.6  44 A1   1190.
  45 B2   1230. -0.9551    91.2   101.0  45 B2   1225.
  46 B2   1283.  0.8280    68.6    99.9  47 B2   1272.
                 0.4451    19.8          49 B2   1317.
  47 A1   1296.  0.4853    23.6    99.7  46 A1   1237.
                 0.7612    57.9          48 A1   1308.
  48 A1   1305.  0.7901    62.4    99.9  46 A1   1237.
                -0.5735    32.9          48 A1   1308.
  49 B2   1313.  0.4862    23.6    99.8  47 B2   1272.
                -0.8614    74.2          49 B2   1317.
  50 A1   1344.  0.9264    85.8    99.5  50 A1   1360.
  51 B2   1449.  0.9195    84.5   100.0  52 B2   1423.
                 0.3471    12.0          53 B2   1459.
  52 A1   1454. -0.9432    89.0    99.4  51 A1   1418.
  53 A1   1485.  0.9560    91.4    99.6  54 A1   1486.
  54 B2   1491.  0.8439    71.2    99.5  53 B2   1459.
                 0.4507    20.3          56 B2   1539.
  55 A1   1592. -0.8090    65.4    99.5  55 A1   1535.
                 0.3442    11.8          58 A1   1593.
                 0.4303    18.5          59 A1   1607.
  56 B2   1606. -0.4265    18.2   100.1  56 B2   1539.
                -0.8243    68.0          57 B2   1578.
                 0.3338    11.1          60 B2   1617.
  57 A1   1616.  0.5702    32.5    99.9  58 A1   1593.
                -0.7905    62.5          59 A1   1607.
  58 B2   1628.  0.3427    11.7   100.1  56 B2   1539.
                -0.5222    27.3          57 B2   1578.
                -0.7171    51.4          60 B2   1617.
  59 A1   1756.  0.4965    24.6   100.2  55 A1   1535.
                 0.7368    54.3          58 A1   1593.
                 0.4133    17.1          59 A1   1607.
  60 B2   1781. -0.6882    47.4   100.3  56 B2   1539.
                -0.6071    36.9          60 B2   1617.
  61 B2   3149.  0.9999   100.0   100.0  61 B2   3097.
  62 A1   3149.  0.9998   100.0   100.0  62 A1   3098.
  63 B2   3188. -0.9240    85.4   100.0  63 B2   3150.
                 0.3823    14.6          65 B2   3185.
  64 A1   3188. -0.9257    85.7   100.0  64 A1   3150.
                 0.3782    14.3          66 A1   3185.
  65 B2   3201. -0.3823    14.6   100.0  63 B2   3150.
                -0.9239    85.4          65 B2   3185.
  66 A1   3202. -0.3781    14.3   100.0  64 A1   3150.
                -0.9256    85.7          66 A1   3185.
 nber times 1st assigned=           1           0
 nber times 1st assigned=           2           0
 nber times 1st assigned=           3           0
 nber times 1st assigned=           4           0
 nber times 1st assigned=           5           0
 nber times 1st assigned=           6           0
 nber times 1st assigned=           7           0
 nber times 1st assigned=           8           0
 nber times 1st assigned=           9           0
 nber times 1st assigned=          10           0
 nber times 1st assigned=          11           0
 nber times 1st assigned=          12           0
 nber times 1st assigned=          13           0
 nber times 1st assigned=          14           0
 nber times 1st assigned=          15           0
 nber times 1st assigned=          16           0
 nber times 1st assigned=          17           0
 nber times 1st assigned=          18           0
 nber times 1st assigned=          19           0
 nber times 1st assigned=          20           0
 nber times 1st assigned=          21           0
 nber times 1st assigned=          22           0
 nber times 1st assigned=          23           0
 nber times 1st assigned=          24           0
 nber times 1st assigned=          25           0
 nber times 1st assigned=          26           0
 nber times 1st assigned=          27           0
 nber times 1st assigned=          28           0
 nber times 1st assigned=          29           0
 nber times 1st assigned=          30           0
 nber times 1st assigned=          31           0
 nber times 1st assigned=          32           0
 nber times 1st assigned=          33           0
 nber times 1st assigned=          34           0
 nber times 1st assigned=          35           0
 nber times 1st assigned=          36           0
 nber times 1st assigned=          37           0
 nber times 1st assigned=          38           0
 nber times 1st assigned=          39           0
 nber times 1st assigned=          40           0
 nber times 1st assigned=          41           0
 nber times 1st assigned=          42           0
 nber times 1st assigned=          43           0
 nber times 1st assigned=          44           0
 nber times 1st assigned=          45           0
 nber times 1st assigned=          46           0
 nber times 1st assigned=          47           0
 nber times 1st assigned=          48           0
 nber times 1st assigned=          49           0
 nber times 1st assigned=          50           0
 nber times 1st assigned=          51           0
 nber times 1st assigned=          52           0
 nber times 1st assigned=          53           0
 nber times 1st assigned=          54           0
 nber times 1st assigned=          55           0
 nber times 1st assigned=          56           0
 nber times 1st assigned=          57           0
 nber times 1st assigned=          58           0
 nber times 1st assigned=          59           0
 nber times 1st assigned=          60           0
 nber times 1st assigned=          61           0
 nber times 1st assigned=          62           0
 nber times 1st assigned=          63           0
 nber times 1st assigned=          64           0
 nber times 1st assigned=          65           0
 nber times 1st assigned=          66           0
 modes represented=   59.8821393612801     
 p1=
    0.    0.    0.   -0.    0.    0.   -0.   -0.   -0.    0.  -12.    0.    0.   13.    0.   -0.    7.    0.   -0.   -6.
    0.   -0.   -0.   -0.   -1.   -0.   -0.    0.    1.    0.   -0.    0.    0.    0.    0.    5.    0.   -0.    0.    1.
    0.    1.    0.   -1.   -0.   -0.   -1.    2.   -0.    0.   -0.    2.    0.    0.    1.    0.   -1.   -0.    6.   -0.
   -0.   -0.   -0.   -0.   -0.   -0.
 p2=
    0.    0.    0.    0.    0.   -0.   -0.   -0.    0.    0.  -12.    0.    0.   13.    0.    0.    8.   -0.   -0.   -5.
    0.   -0.   -0.    0.   -1.   -0.    0.   -0.   -0.    0.    0.   -1.    0.   -0.    0.    0.   -0.   -3.    0.    2.
    0.    2.    0.    1.    0.   -1.   -0.    2.   -0.   -0.    1.   -0.    0.    0.   -3.    0.   -0.   -4.   -4.    0.
    0.    0.   -0.   -0.    0.   -0.

 Displacement: in terms of nc of 1 THEN of nc of 2

   1 B2  freq=    -0. Q=  0.000 lam=    -0.0 A1  freq=    -0. Q=  0.000 lam=    -0.0
   2 B1  freq=     0. Q=  0.000 lam=     0.0 B1  freq=    -0. Q=  0.000 lam=    -0.0
   3 B2  freq=     0. Q=  0.000 lam=     0.0 B2  freq=     0. Q=  0.000 lam=     0.0
   4 A1  freq=     0. Q= -0.000 lam=     0.0 B2  freq=     0. Q= -0.000 lam=     0.0
   5 A2  freq=     0. Q=  0.000 lam=     0.0 A2  freq=     0. Q=  0.000 lam=     0.0
   6 B1  freq=     0. Q=  0.000 lam=     0.0 B1  freq=     0. Q=  0.000 lam=     0.0
   7 A2  freq=    37. Q= -0.000 lam=     0.0 A2  freq=    62. Q= -0.000 lam=     0.0
   8 B1  freq=    84. Q= -0.000 lam=     0.0 B1  freq=    90. Q= -0.000 lam=     0.0
   9 A2  freq=   110. Q= -0.000 lam=     0.0 A2  freq=   132. Q= -0.000 lam=     0.0
  10 B1  freq=   154. Q=  0.000 lam=     0.0 B1  freq=   162. Q=  0.000 lam=     0.0
  11 A1  freq=   231. Q= -0.738 lam=    62.9 A1  freq=   236. Q= -0.724 lam=    61.8
  12 A2  freq=   258. Q=  0.000 lam=     0.0 A2  freq=   279. Q=  0.000 lam=     0.0
  13 B2  freq=   319. Q=  0.000 lam=     0.0 B2  freq=   321. Q=  0.000 lam=     0.0
  14 A1  freq=   360. Q=  0.994 lam=   178.0 A1  freq=   361. Q=  1.016 lam=   186.4
  15 B1  freq=   381. Q=  0.000 lam=     0.0 B1  freq=   383. Q=  0.000 lam=     0.0
  16 B2  freq=   395. Q= -0.000 lam=     0.0 B2  freq=   406. Q= -0.000 lam=     0.0
  17 A1  freq=   401. Q=  0.593 lam=    70.6 A1  freq=   415. Q=  0.680 lam=    95.9
  18 A2  freq=   436. Q=  0.000 lam=     0.0 A2  freq=   455. Q=  0.000 lam=     0.0
  19 B1  freq=   441. Q= -0.000 lam=     0.0 B1  freq=   456. Q= -0.000 lam=     0.0
  20 A1  freq=   458. Q= -0.521 lam=    62.2 A1  freq=   463. Q= -0.439 lam=    44.6
  21 B1  freq=   564. Q=  0.000 lam=     0.0 B1  freq=   579. Q=  0.000 lam=     0.0
  22 A2  freq=   572. Q= -0.000 lam=     0.0 A2  freq=   591. Q= -0.000 lam=     0.0
  23 B2  freq=   623. Q= -0.000 lam=     0.0 B2  freq=   615. Q= -0.000 lam=     0.0
  24 B2  freq=   632. Q= -0.000 lam=     0.0 B2  freq=   635. Q= -0.000 lam=     0.0
  25 A1  freq=   680. Q= -0.107 lam=     3.9 A1  freq=   678. Q= -0.124 lam=     5.2
  26 B2  freq=   713. Q= -0.000 lam=     0.0 B2  freq=   710. Q= -0.000 lam=     0.0
  27 B1  freq=   766. Q= -0.000 lam=     0.0 A2  freq=   742. Q= -0.000 lam=     0.0
  28 A2  freq=   779. Q=  0.000 lam=     0.0 B1  freq=   754. Q=  0.000 lam=     0.0
  29 A1  freq=   831. Q=  0.112 lam=     5.2 A2  freq=   812. Q=  0.000 lam=     0.0
  30 B1  freq=   833. Q=  0.000 lam=     0.0 B1  freq=   815. Q=  0.000 lam=     0.0
  31 A2  freq=   833. Q= -0.000 lam=     0.0 A2  freq=   832. Q= -0.000 lam=     0.0
  32 A2  freq=   879. Q=  0.000 lam=     0.0 A1  freq=   835. Q=  0.087 lam=     3.2
  33 B2  freq=   938. Q=  0.000 lam=     0.0 B1  freq=   932. Q=  0.000 lam=     0.0
  34 B1  freq=   992. Q=  0.000 lam=     0.0 B2  freq=   936. Q=  0.000 lam=     0.0
  35 A2  freq=   994. Q=  0.000 lam=     0.0 A2  freq=   936. Q=  0.000 lam=     0.0
  36 A1  freq=  1020. Q=  0.595 lam=   180.3 B1  freq=   998. Q=  0.000 lam=     0.0
  37 B1  freq=  1020. Q=  0.000 lam=     0.0 A2  freq=   999. Q=  0.000 lam=     0.0
  38 A2  freq=  1022. Q= -0.000 lam=     0.0 A1  freq=  1041. Q= -0.423 lam=    93.1
  39 B2  freq=  1056. Q=  0.000 lam=     0.0 B2  freq=  1042. Q=  0.000 lam=     0.0
  40 A1  freq=  1080. Q=  0.116 lam=     7.2 A1  freq=  1075. Q=  0.327 lam=    57.3
  41 B2  freq=  1105. Q=  0.000 lam=     0.0 B2  freq=  1087. Q=  0.000 lam=     0.0
  42 A1  freq=  1110. Q=  0.136 lam=    10.2 A1  freq=  1096. Q=  0.243 lam=    32.5
  43 B2  freq=  1134. Q=  0.000 lam=     0.0 B2  freq=  1119. Q=  0.000 lam=     0.0
  44 A1  freq=  1207. Q= -0.111 lam=     7.5 A1  freq=  1190. Q= -0.165 lam=    16.2
  45 B2  freq=  1230. Q= -0.000 lam=     0.0 B2  freq=  1225. Q= -0.000 lam=     0.0
  46 B2  freq=  1283. Q= -0.000 lam=     0.0 A1  freq=  1237. Q= -0.187 lam=    21.6
  47 A1  freq=  1296. Q= -0.075 lam=     3.6 B2  freq=  1272. Q= -0.000 lam=     0.0
  48 A1  freq=  1305. Q=  0.286 lam=    53.2 A1  freq=  1308. Q=  0.269 lam=    47.3
  49 B2  freq=  1313. Q= -0.000 lam=     0.0 B2  freq=  1317. Q= -0.000 lam=     0.0
  50 A1  freq=  1344. Q=  0.018 lam=     0.2 A1  freq=  1360. Q=  0.018 lam=     0.2
  51 B2  freq=  1449. Q= -0.000 lam=     0.0 A1  freq=  1418. Q= -0.207 lam=    30.3
  52 A1  freq=  1454. Q=  0.325 lam=    77.0 B2  freq=  1423. Q=  0.000 lam=     0.0
  53 A1  freq=  1485. Q=  0.034 lam=     0.9 B2  freq=  1459. Q=  0.000 lam=     0.0
  54 B2  freq=  1491. Q=  0.000 lam=     0.0 A1  freq=  1486. Q=  0.075 lam=     4.2
  55 A1  freq=  1592. Q=  0.132 lam=    14.0 A1  freq=  1535. Q=  0.474 lam=   172.2
  56 B2  freq=  1606. Q=  0.000 lam=     0.0 B2  freq=  1539. Q=  0.000 lam=     0.0
  57 A1  freq=  1616. Q= -0.183 lam=    27.1 B2  freq=  1578. Q= -0.000 lam=     0.0
  58 B2  freq=  1628. Q= -0.000 lam=     0.0 A1  freq=  1593. Q= -0.690 lam=   379.3
  59 A1  freq=  1756. Q=  1.008 lam=   891.3 A1  freq=  1607. Q=  0.676 lam=   367.7
  60 B2  freq=  1781. Q= -0.000 lam=     0.0 B2  freq=  1617. Q= -0.000 lam=     0.0
  61 B2  freq=  3149. Q= -0.000 lam=     0.0 B2  freq=  3097. Q= -0.000 lam=     0.0
  62 A1  freq=  3149. Q= -0.025 lam=     1.0 A1  freq=  3098. Q= -0.022 lam=     0.7
  63 B2  freq=  3188. Q= -0.000 lam=     0.0 B2  freq=  3150. Q= -0.000 lam=     0.0
  64 A1  freq=  3188. Q= -0.025 lam=     1.0 A1  freq=  3150. Q= -0.035 lam=     1.9
  65 B2  freq=  3201. Q= -0.000 lam=     0.0 B2  freq=  3185. Q= -0.000 lam=     0.0
  66 A1  freq=  3202. Q= -0.032 lam=     1.7 A1  freq=  3185. Q= -0.021 lam=     0.7

 total reorg energy (cm**-1, kcal/mol)=     1659.     1622.      4.74      4.64
 Nber of molecules processed=           2
