 Enter ifcurve (0=recti, 1=orth curvi, 2=apprx curvi, -1 = skip
 And atom ordering flag, 0= never changes, 1= use the first order thenceforth,
  2= deduce it (does read on fail), 3= always read it
 Reading file: 
 ./PDI_4_C0S1.log                                                               
                                          
  Entering Gaussian System, Link 0=g16                                          
  
 Gaussian format, type: g94, g98, g03= F F F
  #P Geom=AllCheck Guess=TCheck SCRF=Check GenChk RB3LYP TD(FC,Read)/6-3    
 energy type= TD      
 Original G94 input coords:
  6  1.128543  0.007095 -0.096629
  6  2.583564  0.025405 -0.066117
  6  3.782973  0.036315 -0.043684
  7  5.144659  0.045736 -0.016529
  6  5.807363 -1.204084  0.158940
  8  5.171521 -2.229881  0.277399
  6  7.279296 -1.154477  0.184642
  6  7.984222 -2.352653  0.355588
  6  9.362825 -2.355702  0.386183
  6 10.114028 -1.156444  0.246835
  6 11.554592 -1.147430  0.277616
  6 12.318468 -2.335122  0.449849
  6 13.697949 -2.311870  0.477478
  6 14.390252 -1.103272  0.334746
  6 15.868758 -1.114791  0.369451
  8 16.489218 -2.157048  0.520041
  7 16.525043  0.113150  0.223386
  6 18.022427  0.150370  0.252656
  6 18.573077 -0.284442  1.614702
  6 18.631193 -0.616511 -0.925792
  6 15.859619  1.340928  0.047287
  8 16.473747  2.389321 -0.076698
  6 14.382639  1.311261  0.018384
  6 13.681676  2.511208 -0.154206
  6 12.302050  2.517416 -0.185188
  6 11.545979  1.320721 -0.045035
  6 10.105391  1.311832 -0.075011
  6  9.345431  2.501094 -0.246234
  6  7.966785  2.480490 -0.273270
  6  7.270401  1.273617 -0.131218
  6  5.798296  1.304113 -0.166849
  8  5.154515  2.321154 -0.313489
  6  7.981247  0.064246  0.041493
  6  9.410236  0.073301  0.071312
  6 12.247244  0.091069  0.131047
  6 13.674733  0.099788  0.161418
  1  0.760536 -1.015816 -0.216384
  1  0.746359  0.602062 -0.931062
  1  0.705499  0.411226  0.827678
  1  7.418072 -3.268979  0.462149
  1  9.872598 -3.299123  0.519752
  1 11.817970 -3.286220  0.563218
  1 14.273089 -3.219250  0.609010
  1 18.244149  1.206912  0.119629
  1 18.396352 -1.342833  1.801752
  1 18.119444  0.299647  2.419605
  1 19.650770 -0.101029  1.636906
  1 18.457203 -1.688501 -0.842222
  1 19.709799 -0.438321 -0.946068
  1 18.217422 -0.261715 -1.873274
  1 14.249835  3.426089 -0.261582
  1 11.795322  3.462410 -0.320030
  1  9.848216  3.450999 -0.358903
  1  7.394185  3.389679 -0.403895
 nber atoms=          54
  Total Energy, E(TD-HF/TD-DFT) =  -1564.79306861                               
  
          32          49 "  -1564.79306861"
After scan for Atom:   Atom  AN      X      Y      Z        X      Y      Z        X      Y      Z   
After scan for Atom:   Atom  AN      X      Y      Z        X      Y      Z        X      Y      Z   
After scan for Atom:   Atom  AN      X      Y      Z        X      Y      Z        X      Y      Z   
After scan for Atom:   Atom  AN      X      Y      Z        X      Y      Z        X      Y      Z   
After scan for Atom:   Atom  AN      X      Y      Z        X      Y      Z        X      Y      Z   
After scan for Atom:   Atom  AN      X      Y      Z        X      Y      Z        X      Y      Z   
After scan for Atom:   Atom  AN      X      Y      Z        X      Y      Z        X      Y      Z   
After scan for Atom:   Atom  AN      X      Y      Z        X      Y      Z        X      Y      Z   
After scan for Atom:   Atom  AN      X      Y      Z        X      Y      Z        X      Y      Z   
After scan for Atom:   Atom  AN      X      Y      Z        X      Y      Z        X      Y      Z   
After scan for Atom:   Atom  AN      X      Y      Z        X      Y      Z        X      Y      Z   
After scan for Atom:   Atom  AN      X      Y      Z        X      Y      Z        X      Y      Z   
After scan for Atom:   Atom  AN      X      Y      Z        X      Y      Z        X      Y      Z   
After scan for Atom:   Atom  AN      X      Y      Z        X      Y      Z        X      Y      Z   
After scan for Atom:   Atom  AN      X      Y      Z        X      Y      Z        X      Y      Z   
After scan for Atom:   Atom  AN      X      Y      Z        X      Y      Z        X      Y      Z   
After scan for Atom:   Atom  AN      X      Y      Z        X      Y      Z        X      Y      Z   
After scan for Atom:   Atom  AN      X      Y      Z        X      Y      Z        X      Y      Z   
After scan for Atom:   Atom  AN      X      Y      Z        X      Y      Z        X      Y      Z   
After scan for Atom:   Atom  AN      X      Y      Z        X      Y      Z        X      Y      Z   
After scan for Atom:   Atom  AN      X      Y      Z        X      Y      Z        X      Y      Z   
After scan for Atom:   Atom  AN      X      Y      Z        X      Y      Z        X      Y      Z   
After scan for Atom:   Atom  AN      X      Y      Z        X      Y      Z        X      Y      Z   
After scan for Atom:   Atom  AN      X      Y      Z        X      Y      Z        X      Y      Z   
After scan for Atom:   Atom  AN      X      Y      Z        X      Y      Z        X      Y      Z   
After scan for Atom:   Atom  AN      X      Y      Z        X      Y      Z        X      Y      Z   
After scan for Atom:   Atom  AN      X      Y      Z        X      Y      Z        X      Y      Z   
After scan for Atom:   Atom  AN      X      Y      Z        X      Y      Z        X      Y      Z   
After scan for Atom:   Atom  AN      X      Y      Z        X      Y      Z        X      Y      Z   
After scan for Atom:   Atom  AN      X      Y      Z        X      Y      Z        X      Y      Z   
After scan for Atom:   Atom  AN      X      Y      Z        X      Y      Z        X      Y      Z   
After scan for Atom:   Atom  AN      X      Y      Z        X      Y      Z        X      Y      Z   
After scan for Atom:   Atom  AN      X      Y      Z        X      Y      Z        X      Y      Z   
After scan for Atom:   Atom  AN      X      Y      Z        X      Y      Z        X      Y      Z   
After scan for Atom:   Atom  AN      X      Y      Z        X      Y      Z        X      Y      Z   
After scan for Atom:   Atom  AN      X      Y      Z        X      Y      Z        X      Y      Z   
After scan for Atom:   Atom  AN      X      Y      Z        X      Y      Z        X      Y      Z   
After scan for Atom:   Atom  AN      X      Y      Z        X      Y      Z        X      Y      Z   
After scan for Atom:   Atom  AN      X      Y      Z        X      Y      Z        X      Y      Z   
After scan for Atom:   Atom  AN      X      Y      Z        X      Y      Z        X      Y      Z   
After scan for Atom:   Atom  AN      X      Y      Z        X      Y      Z        X      Y      Z   
After scan for Atom:   Atom  AN      X      Y      Z        X      Y      Z        X      Y      Z   
After scan for Atom:   Atom  AN      X      Y      Z        X      Y      Z        X      Y      Z   
After scan for Atom:   Atom  AN      X      Y      Z        X      Y      Z        X      Y      Z   
After scan for Atom:   Atom  AN      X      Y      Z        X      Y      Z        X      Y      Z   
After scan for Atom:   Atom  AN      X      Y      Z        X      Y      Z        X      Y      Z   
After scan for Atom:   Atom  AN      X      Y      Z        X      Y      Z        X      Y      Z   
After scan for Atom:   Atom  AN      X      Y      Z        X      Y      Z        X      Y      Z   
After scan for Atom:   Atom  AN      X      Y      Z        X      Y      Z        X      Y      Z   
After scan for Atom:   Atom  AN      X      Y      Z        X      Y      Z        X      Y      Z   
After scan for Atom:   Atom  AN      X      Y      Z        X      Y      Z        X      Y      Z   
After scan for Atom:   Atom  AN      X      Y      Z        X      Y      Z        X      Y      Z   
 g94    frequencies=
     0.0    0.0    0.0    0.0    0.0    0.0    8.3   18.8   28.7   37.5
    52.4   55.1   62.6   76.3   89.3  100.7  109.7  136.9  167.8  180.9
   183.1  191.8  200.5  210.4  234.2  235.5  256.2  269.5  278.0  280.4
   298.5  301.8  326.2  337.0  351.3  382.3  392.2  417.1  429.2  432.8
   438.4  443.3  448.0  467.8  470.0  477.9  484.9  500.8  504.6  505.7
   524.6  549.7  572.3  574.0  580.6  604.3  615.8  634.4  651.7  675.2
   702.5  703.0  714.6  722.9  747.5  757.0  757.4  763.8  793.4  806.8
   808.6  812.5  813.8  826.1  826.9  831.6  850.0  901.3  919.7  925.9
   945.3  956.7  973.7  974.5  976.3  987.7  988.4 1052.6 1053.7 1061.5
  1076.4 1092.6 1121.3 1136.9 1141.0 1155.5 1162.0 1169.2 1185.7 1192.4
  1197.5 1224.1 1230.3 1235.7 1243.8 1273.8 1301.4 1317.4 1322.2 1350.0
  1362.7 1365.4 1378.5 1382.0 1391.6 1400.2 1401.9 1416.3 1419.6 1430.2
  1439.0 1443.5 1459.8 1462.5 1475.6 1480.7 1485.0 1491.7 1497.6 1505.1
  1509.0 1522.4 1546.3 1554.5 1558.0 1576.8 1597.2 1599.0 1621.9 1685.6
  1722.9 1725.3 1755.6 2386.2 3023.2 3034.3 3038.3 3079.6 3084.9 3092.3
  3095.5 3112.4 3132.3 3142.7 3198.3 3198.6 3204.9 3205.1 3213.0 3213.1
  3224.4 3224.8
 g94    symmetries=
                                                 A      A      A      A
       A      A      A      A      A      A      A      A      A      A
       A      A      A      A      A      A      A      A      A      A
       A      A      A      A      A      A      A      A      A      A
       A      A      A      A      A      A      A      A      A      A
       A      A      A      A      A      A      A      A      A      A
       A      A      A      A      A      A      A      A      A      A
       A      A      A      A      A      A      A      A      A      A
       A      A      A      A      A      A      A      A      A      A
       A      A      A      A      A      A      A      A      A      A
       A      A      A      A      A      A      A      A      A      A
       A      A      A      A      A      A      A      A      A      A
       A      A      A      A      A      A      A      A      A      A
       A      A      A      A      A      A      A      A      A      A
       A      A      A      A      A      A      A      A      A      A
       A      A      A      A      A      A      A      A      A      A
       A      A
 atomic masses:
 12.0000 12.0000 12.0000 14.0031 12.0000 15.9949 12.0000 12.0000 12.0000 12.0000
 12.0000 12.0000 12.0000 12.0000 12.0000 15.9949 14.0031 12.0000 12.0000 12.0000
 12.0000 15.9949 12.0000 12.0000 12.0000 12.0000 12.0000 12.0000 12.0000 12.0000
 12.0000 15.9949 12.0000 12.0000 12.0000 12.0000  1.0078  1.0078  1.0078  1.0078
  1.0078  1.0078  1.0078  1.0078  1.0078  1.0078  1.0078  1.0078  1.0078  1.0078
  1.0078  1.0078  1.0078  1.0078
 looking for force constants in 
 ./PDI_4_C0S1.fchk                                                              
  
 Cartesian Force Constants                  R   N=       13203                  
  
 n3=         162       13203
 g94-fc frequencies=
    -1.7   -0.1   -0.0    0.0    0.0    3.6    8.3   18.9   28.7   37.5
    52.4   55.1   62.6   76.3   89.3  100.7  109.7  137.0  167.8  180.9
   183.1  191.8  200.5  210.4  234.2  235.5  256.2  269.5  278.0  280.4
   298.5  301.8  326.2  337.0  351.3  382.3  392.2  417.1  429.2  432.9
   438.5  443.3  448.1  467.8  470.0  477.9  484.9  500.8  504.6  505.7
   524.6  549.7  572.3  574.0  580.6  604.3  615.8  634.4  651.7  675.2
   702.6  703.0  714.7  722.9  747.6  757.0  757.5  763.8  793.4  806.8
   808.6  812.5  813.8  826.1  826.9  831.6  850.0  901.3  919.7  925.9
   945.4  956.7  973.7  974.6  976.3  987.7  988.4 1052.6 1053.7 1061.5
  1076.4 1092.7 1121.4 1136.9 1141.0 1155.5 1162.1 1169.3 1185.8 1192.4
  1197.5 1224.1 1230.4 1235.7 1243.8 1273.8 1301.4 1317.5 1322.3 1350.0
  1362.7 1365.4 1378.5 1382.1 1391.6 1400.3 1401.9 1416.3 1419.6 1430.3
  1439.1 1443.5 1459.8 1462.6 1475.7 1480.7 1485.0 1491.7 1497.6 1505.2
  1509.1 1522.4 1546.4 1554.5 1558.0 1576.8 1597.2 1599.0 1621.9 1685.7
  1722.9 1725.3 1755.7 2386.2 3023.3 3034.3 3038.4 3079.6 3085.0 3092.3
  3095.5 3112.5 3132.4 3142.8 3198.3 3198.7 3205.0 3205.2 3213.1 3213.1
  3224.5 3224.8
 at 99999: n3=         162
 symm operator            1 :  F  nop=           0
 symm operator            2 :  F  nop=           0
 symm operator            3 :  F  nop=           0
 symm operator            4 :  F  nop=           0
 symm operator            5 :  F  nop=           0
 symm operator            6 :  F  nop=           0
 symm operator            7 :  F  nop=           0
 The point group of the molecule is  C1
 Symmetry rotation matrix:
   1.00000   0.00000   0.00000
   0.00000   1.00000   0.00000
   0.00000   0.00000   1.00000

 Projecting out zero-frequency components
 generating redundant internal coords
         300        3600          54
 search for int coords
   1 str   2   1   1.455
   2 str   3   2   1.200
   3 str   4   3   1.362
   4 str   5   4   1.425
   5 str   6   5   1.213
   6 str   7   5   1.473
   7 str   8   7   1.401
   8 str   9   8   1.379
   9 str  10   9   1.422
  10 str  11  10   1.441
  11 str  12  11   1.423
  12 str  13  12   1.380
  13 str  14  13   1.400
  14 str  15  14   1.479
  15 str  16  15   1.222
  16 str  17  15   1.400
  17 str  18  17   1.498
  18 str  19  18   1.532
  19 str  20  18   1.532
  20 str  21  17   1.408
  21 str  22  21   1.221
  22 str  23  21   1.478
  23 str  24  23   1.400
  24 str  25  24   1.380
  25 str  26  25   1.422
  26 str  27  26   1.441
  27 str  28  27   1.422
  28 str  29  28   1.379
  29 str  30  29   1.401
  30 str  31   4   1.426
  31 str  31  30   1.473
  32 str  32  31   1.213
  33 str  33   7   1.414
  34 str  33  30   1.413
  35 str  34  10   1.428
  36 str  34  27   1.428
  37 str  34  33   1.429
  38 str  35  11   1.427
  39 str  35  26   1.426
  40 str  36  14   1.410
  41 str  36  23   1.410
  42 str  36  35   1.428
  43 str  37   1   1.094
  44 str  38   1   1.094
  45 str  39   1   1.094
  46 str  40   8   1.082
  47 str  41   9   1.081
  48 str  42  12   1.081
  49 str  43  13   1.082
  50 str  44  18   1.088
  51 str  45  19   1.089
  52 str  46  19   1.093
  53 str  47  19   1.093
  54 str  48  20   1.089
  55 str  49  20   1.093
  56 str  50  20   1.093
  57 str  51  24   1.082
  58 str  52  25   1.081
  59 str  53  28   1.081
  60 str  54  29   1.082
 nber stretches=          60
  61 lin ben   1   2   3
  63 ben   2   1  37
  64 ben   2   1  38
  65 ben   2   1  39
 Extend lin bond           1           1           2           4
  66 lin ben   2   3   4
  68 ben   3   4   5
  69 prop tor   3   4   5   6
  70 prop tor   3   4   5   7
  71 ben   3   4  31
  72 prop tor   3   4  31  30
  73 prop tor   3   4  31  32
  74 ben   4   5   6
  75 ben   4   5   7
  76 prop tor   4   5   7   8
  77 prop tor   4   5   7  33
  78 ben   4  31  30
  79 ben   4  31  32
  80 ben   5   4  31
  81 prop tor   5   4  31  30
  82 prop tor   5   4  31  32
  83 ben   5   7   8
  84 prop tor   5   7   8   9
  85 prop tor   5   7   8  40
  86 ben   5   7  33
  87 prop tor   5   7  33  30
  88 prop tor   5   7  33  34
  89 ben   6   5   7
  90 prop tor   6   5   7   8
  91 prop tor   6   5   7  33
  92 ben   7   8   9
  93 prop tor   7   8   9  10
  94 prop tor   7   8   9  41
  95 ben   7   8  40
  96 ben   7  33  30
  97 ben   7  33  34
  98 prop tor   7  33  34  10
  99 prop tor   7  33  34  27
 100 ben   8   7  33
 101 prop tor   8   7  33  30
 102 prop tor   8   7  33  34
 103 ben   8   9  10
 104 prop tor   8   9  10  11
 105 prop tor   8   9  10  34
 106 ben   8   9  41
 107 ben   9   8  40
 108 ben   9  10  11
 109 prop tor   9  10  11  12
 110 prop tor   9  10  11  35
 111 ben   9  10  34
 112 prop tor   9  10  34  27
 113 prop tor   9  10  34  33
 114 ben  10   9  41
 115 ben  10  11  12
 116 prop tor  10  11  12  13
 117 prop tor  10  11  12  42
 118 ben  10  11  35
 119 prop tor  10  11  35  26
 120 prop tor  10  11  35  36
 121 ben  10  34  27
 122 ben  10  34  33
 123 ben  11  10  34
 124 prop tor  11  10  34  27
 125 prop tor  11  10  34  33
 126 ben  11  12  13
 127 prop tor  11  12  13  14
 128 prop tor  11  12  13  43
 129 ben  11  12  42
 130 ben  11  35  26
 131 ben  11  35  36
 132 prop tor  11  35  36  14
 133 prop tor  11  35  36  23
 134 ben  12  11  35
 135 prop tor  12  11  35  26
 136 prop tor  12  11  35  36
 137 ben  12  13  14
 138 prop tor  12  13  14  15
 139 prop tor  12  13  14  36
 140 ben  12  13  43
 141 ben  13  12  42
 142 ben  13  14  15
 143 prop tor  13  14  15  16
 144 prop tor  13  14  15  17
 145 ben  13  14  36
 146 prop tor  13  14  36  23
 147 prop tor  13  14  36  35
 148 ben  14  13  43
 149 ben  14  15  16
 150 ben  14  15  17
 151 prop tor  14  15  17  18
 152 prop tor  14  15  17  21
 153 ben  14  36  23
 154 ben  14  36  35
 155 ben  15  14  36
 156 prop tor  15  14  36  23
 157 prop tor  15  14  36  35
 158 ben  15  17  18
 159 prop tor  15  17  18  19
 160 prop tor  15  17  18  20
 161 prop tor  15  17  18  44
 162 ben  15  17  21
 163 prop tor  15  17  21  22
 164 prop tor  15  17  21  23
 165 ben  16  15  17
 166 prop tor  16  15  17  18
 167 prop tor  16  15  17  21
 168 ben  17  18  19
 169 prop tor  17  18  19  45
 170 prop tor  17  18  19  46
 171 prop tor  17  18  19  47
 172 ben  17  18  20
 173 prop tor  17  18  20  48
 174 prop tor  17  18  20  49
 175 prop tor  17  18  20  50
 176 ben  17  18  44
 177 ben  17  21  22
 178 ben  17  21  23
 179 prop tor  17  21  23  24
 180 prop tor  17  21  23  36
 181 ben  18  17  21
 182 prop tor  18  17  21  22
 183 prop tor  18  17  21  23
 184 ben  18  19  45
 185 ben  18  19  46
 186 ben  18  19  47
 187 ben  18  20  48
 188 ben  18  20  49
 189 ben  18  20  50
 190 ben  19  18  20
 191 prop tor  19  18  20  48
 192 prop tor  19  18  20  49
 193 prop tor  19  18  20  50
 194 ben  19  18  44
 195 prop tor  20  18  19  45
 196 prop tor  20  18  19  46
 197 prop tor  20  18  19  47
 198 ben  20  18  44
 199 prop tor  21  17  18  19
 200 prop tor  21  17  18  20
 201 prop tor  21  17  18  44
 202 ben  21  23  24
 203 prop tor  21  23  24  25
 204 prop tor  21  23  24  51
 205 ben  21  23  36
 206 prop tor  21  23  36  14
 207 prop tor  21  23  36  35
 208 ben  22  21  23
 209 prop tor  22  21  23  24
 210 prop tor  22  21  23  36
 211 ben  23  24  25
 212 prop tor  23  24  25  26
 213 prop tor  23  24  25  52
 214 ben  23  24  51
 215 ben  23  36  35
 216 ben  24  23  36
 217 prop tor  24  23  36  14
 218 prop tor  24  23  36  35
 219 ben  24  25  26
 220 prop tor  24  25  26  27
 221 prop tor  24  25  26  35
 222 ben  24  25  52
 223 ben  25  24  51
 224 ben  25  26  27
 225 prop tor  25  26  27  28
 226 prop tor  25  26  27  34
 227 ben  25  26  35
 228 prop tor  25  26  35  11
 229 prop tor  25  26  35  36
 230 ben  26  25  52
 231 ben  26  27  28
 232 prop tor  26  27  28  29
 233 prop tor  26  27  28  53
 234 ben  26  27  34
 235 prop tor  26  27  34  10
 236 prop tor  26  27  34  33
 237 ben  26  35  36
 238 prop tor  26  35  36  14
 239 prop tor  26  35  36  23
 240 ben  27  26  35
 241 prop tor  27  26  35  11
 242 prop tor  27  26  35  36
 243 ben  27  28  29
 244 prop tor  27  28  29  30
 245 prop tor  27  28  29  54
 246 ben  27  28  53
 247 ben  27  34  33
 248 ben  28  27  34
 249 prop tor  28  27  34  10
 250 prop tor  28  27  34  33
 251 ben  28  29  30
 252 prop tor  28  29  30  31
 253 prop tor  28  29  30  33
 254 ben  28  29  54
 255 ben  29  28  53
 256 ben  29  30  31
 257 prop tor  29  30  31   4
 258 prop tor  29  30  31  32
 259 ben  29  30  33
 260 prop tor  29  30  33   7
 261 prop tor  29  30  33  34
 262 ben  30  29  54
 263 ben  30  31  32
 264 ben  30  33  34
 265 prop tor  30  33  34  10
 266 prop tor  30  33  34  27
 267 prop tor  31   4   5   6
 268 prop tor  31   4   5   7
 269 ben  31  30  33
 270 prop tor  31  30  33   7
 271 prop tor  31  30  33  34
 272 prop tor  33   7   8   9
 273 prop tor  33   7   8  40
 274 prop tor  33  30  31   4
 275 prop tor  33  30  31  32
 276 prop tor  34  10  11  12
 277 prop tor  34  10  11  35
 278 prop tor  34  27  28  29
 279 prop tor  34  27  28  53
 280 prop tor  35  11  12  13
 281 prop tor  35  11  12  42
 282 prop tor  35  26  27  28
 283 prop tor  35  26  27  34
 284 prop tor  36  14  15  16
 285 prop tor  36  14  15  17
 286 prop tor  36  23  24  25
 287 prop tor  36  23  24  51
 288 prop tor  37   1   2   3
 289 ben  37   1  38
 290 ben  37   1  39
 291 prop tor  38   1   2   3
 292 ben  38   1  39
 293 prop tor  39   1   2   3
 294 prop tor  40   8   9  10
 295 prop tor  40   8   9  41
 296 prop tor  41   9  10  11
 297 prop tor  41   9  10  34
 298 prop tor  42  12  13  14
 299 prop tor  42  12  13  43
 300 prop tor  43  13  14  15
 301 prop tor  43  13  14  36
 302 prop tor  44  18  19  45
 303 prop tor  44  18  19  46
 304 prop tor  44  18  19  47
 305 prop tor  44  18  20  48
 306 prop tor  44  18  20  49
 307 prop tor  44  18  20  50
 308 ben  45  19  46
 309 ben  45  19  47
 310 ben  46  19  47
 311 ben  48  20  49
 312 ben  48  20  50
 313 ben  49  20  50
 314 prop tor  51  24  25  26
 315 prop tor  51  24  25  52
 316 prop tor  52  25  26  27
 317 prop tor  52  25  26  35
 318 prop tor  53  28  29  30
 319 prop tor  53  28  29  54
 320 prop tor  54  29  30  31
 321 prop tor  54  29  30  33
 322 lin bend prop tor   2   1   4   3
 323 lin bend prop tor   2   1   4   5
 324 lin bend prop tor   2   1   4  31
 325 lin bend prop tor  37   1   4   3
 326 lin bend prop tor  37   1   4   5
 327 lin bend prop tor  37   1   4  31
 328 lin bend prop tor  38   1   4   3
 329 lin bend prop tor  38   1   4   5
 330 lin bend prop tor  38   1   4  31
 331 lin bend prop tor  39   1   4   3
 332 lin bend prop tor  39   1   4   5
 333 lin bend prop tor  39   1   4  31
 nber bend=             106
 nber lin bend=           1
 nber prop tor=         167
 nber impr tor=           0
 nber tot redund int=         333
 Eigenvalues of G in red int coords
    Gval -0.00000000 -0.00000000 -0.00000000 -0.00000000 -0.00000000 -0.00000000 -0.00000000 -0.00000000
    Gval -0.00000000 -0.00000000 -0.00000000 -0.00000000 -0.00000000 -0.00000000 -0.00000000 -0.00000000
    Gval -0.00000000 -0.00000000 -0.00000000 -0.00000000 -0.00000000 -0.00000000 -0.00000000 -0.00000000
    Gval -0.00000000 -0.00000000 -0.00000000 -0.00000000 -0.00000000 -0.00000000 -0.00000000 -0.00000000
    Gval -0.00000000 -0.00000000 -0.00000000 -0.00000000 -0.00000000 -0.00000000 -0.00000000 -0.00000000
    Gval -0.00000000 -0.00000000 -0.00000000 -0.00000000 -0.00000000 -0.00000000 -0.00000000 -0.00000000
    Gval -0.00000000 -0.00000000 -0.00000000 -0.00000000 -0.00000000 -0.00000000 -0.00000000 -0.00000000
    Gval -0.00000000 -0.00000000 -0.00000000 -0.00000000 -0.00000000 -0.00000000 -0.00000000 -0.00000000
    Gval -0.00000000 -0.00000000 -0.00000000 -0.00000000 -0.00000000 -0.00000000 -0.00000000 -0.00000000
    Gval -0.00000000 -0.00000000 -0.00000000 -0.00000000 -0.00000000 -0.00000000 -0.00000000 -0.00000000
    Gval -0.00000000 -0.00000000 -0.00000000 -0.00000000 -0.00000000 -0.00000000  0.00000000  0.00000000
    Gval  0.00000000  0.00000000  0.00000000  0.00000000  0.00000000  0.00000000  0.00000000  0.00000000
    Gval  0.00000000  0.00000000  0.00000000  0.00000000  0.00000000  0.00000000  0.00000000  0.00000000
    Gval  0.00000000  0.00000000  0.00000000  0.00000000  0.00000000  0.00000000  0.00000000  0.00000000
    Gval  0.00000000  0.00000000  0.00000000  0.00000000  0.00000000  0.00000000  0.00000000  0.00000000
    Gval  0.00000000  0.00000000  0.00000000  0.00000000  0.00000000  0.00000000  0.00000000  0.00000000
    Gval  0.00000000  0.00000000  0.00000000  0.00000000  0.00000000  0.00000000  0.00000000  0.00000000
    Gval  0.00000000  0.00000000  0.00000000  0.00000000  0.00000000  0.00000000  0.00000000  0.00000000
    Gval  0.00000000  0.00000000  0.00000000  0.00000000  0.00000000  0.00000000  0.00000000  0.00000000
    Gval  0.00000000  0.00000000  0.00000000  0.00000000  0.00000000  0.00000000  0.00000000  0.00000000
    Gval  0.00000000  0.00000000  0.00000000  0.00000000  0.00000000  0.00000000  0.00000000  0.00000000
    Gval  0.00000000  0.00000000  0.00000000  0.00000000  0.00000000  0.00000000  0.00000000  0.00000000
    Gval  0.00000000  0.00000085  0.00000200  0.00000243  0.00000291  0.00000614  0.00000696  0.00000875
    Gval  0.00000993  0.00001107  0.00001114  0.00001554  0.00001626  0.00001718  0.00001779  0.00001835
    Gval  0.00002051  0.00002155  0.00002372  0.00002398  0.00002542  0.00002981  0.00003451  0.00003579
    Gval  0.00003667  0.00003994  0.00004648  0.00004884  0.00005132  0.00005299  0.00005541  0.00005899
    Gval  0.00006233  0.00006751  0.00006847  0.00007170  0.00007405  0.00008137  0.00008245  0.00008503
    Gval  0.00008666  0.00009194  0.00009405  0.00009479  0.00009596  0.00011402  0.00012197  0.00012249
    Gval  0.00013452  0.00013648  0.00013747  0.00014062  0.00014981  0.00015609  0.00015948  0.00016847
    Gval  0.00016936  0.00018147  0.00020041  0.00022211  0.00022756  0.00023024  0.00024550  0.00027279
    Gval  0.00028477  0.00029033  0.00029860  0.00032562  0.00034169  0.00036044  0.00038133  0.00038954
    Gval  0.00039095  0.00039702  0.00040872  0.00041832  0.00042475  0.00043174  0.00043520  0.00044064
    Gval  0.00044200  0.00046210  0.00046630  0.00046889  0.00049509  0.00052749  0.00053435  0.00053716
    Gval  0.00053940  0.00054887  0.00055410  0.00055485  0.00055601  0.00055658  0.00055719  0.00058930
    Gval  0.00059849  0.00059923  0.00059956  0.00059984  0.00060219  0.00061245  0.00064074  0.00064422
    Gval  0.00064500  0.00064681  0.00066725  0.00068265  0.00069070  0.00069774  0.00075117  0.00080679
    Gval  0.00091204  0.00094109  0.00109330  0.00109422  0.00109492  0.00109541  0.00114299  0.00115059
    Gval  0.00116544  0.00116562  0.00116591  0.00116618  0.00117125  0.00117204  0.00118609  0.00119971
    Gval  0.00129535  0.00131647  0.00134202  0.00151387  0.00152217  0.00172359  0.00175768  0.00191420
    Gval  0.00228026  0.00234039  0.00252161  0.00252264  0.00255878  0.00278896  0.00292192  0.00302350
    Gval  0.00304206  0.00308127  0.00309622  0.00342747  0.00354797  0.00367472  0.00367656  0.00372144
    Gval  0.00372320  0.00394502  0.79435494 17.00874137 37.75368712
  8.471186650271756E-007  8.471186650271756E-007
  2.004139803110382E-006  8.471186650271756E-007
  2.428651562987870E-006  8.471186650271756E-007
  2.913794796004527E-006  8.471186650271756E-007
  6.141913062540187E-006  8.471186650271756E-007
  6.963369554739017E-006  8.471186650271756E-007
  8.754174653221743E-006  8.471186650271756E-007
  9.932311117999731E-006  8.471186650271756E-007
  1.106938636510796E-005  8.471186650271756E-007
  1.113596815273314E-005  8.471186650271756E-007
  1.553853529140081E-005  8.471186650271756E-007
  1.626214870979139E-005  8.471186650271756E-007
  1.718313997926333E-005  8.471186650271756E-007
  1.779439975654843E-005  8.471186650271756E-007
  1.834571875046170E-005  8.471186650271756E-007
  2.050949086443338E-005  8.471186650271756E-007
  2.155477352245699E-005  8.471186650271756E-007
  2.372191599135993E-005  8.471186650271756E-007
  2.397534693847724E-005  8.471186650271756E-007
  2.542288555579478E-005  8.471186650271756E-007
  2.980726952335330E-005  8.471186650271756E-007
  3.450545518401625E-005  8.471186650271756E-007
  3.579446793240718E-005  8.471186650271756E-007
  3.666503730799272E-005  8.471186650271756E-007
  3.994015714569368E-005  8.471186650271756E-007
  4.648486995428648E-005  8.471186650271756E-007
  4.883785009747374E-005  8.471186650271756E-007
  5.132130323674122E-005  8.471186650271756E-007
  5.299084540209891E-005  8.471186650271756E-007
  5.541374433665699E-005  8.471186650271756E-007
  5.898658613769302E-005  8.471186650271756E-007
  6.232822608013576E-005  8.471186650271756E-007
  6.751133305234145E-005  8.471186650271756E-007
  6.847139772082542E-005  8.471186650271756E-007
  7.170336466431071E-005  8.471186650271756E-007
  7.405144219944305E-005  8.471186650271756E-007
  8.136897330749012E-005  8.471186650271756E-007
  8.244614503153638E-005  8.471186650271756E-007
  8.502778515624330E-005  8.471186650271756E-007
  8.665879910897131E-005  8.471186650271756E-007
  9.193902742511101E-005  8.471186650271756E-007
  9.404901291889498E-005  8.471186650271756E-007
  9.479231207358362E-005  8.471186650271756E-007
  9.595950444862378E-005  8.471186650271756E-007
  1.140183965675961E-004  8.471186650271756E-007
  1.219723078828704E-004  8.471186650271756E-007
  1.224913698896474E-004  8.471186650271756E-007
  1.345225465626943E-004  8.471186650271756E-007
  1.364758498510644E-004  8.471186650271756E-007
  1.374730171492235E-004  8.471186650271756E-007
  1.406231584456586E-004  8.471186650271756E-007
  1.498138896755956E-004  8.471186650271756E-007
  1.560902090396161E-004  8.471186650271756E-007
  1.594790676829973E-004  8.471186650271756E-007
  1.684671494728385E-004  8.471186650271756E-007
  1.693599290939101E-004  8.471186650271756E-007
  1.814668571448744E-004  8.471186650271756E-007
  2.004141350475871E-004  8.471186650271756E-007
  2.221135641295235E-004  8.471186650271756E-007
  2.275562851762877E-004  8.471186650271756E-007
  2.302429038640417E-004  8.471186650271756E-007
  2.455035079390324E-004  8.471186650271756E-007
  2.727881657487899E-004  8.471186650271756E-007
  2.847748592185159E-004  8.471186650271756E-007
  2.903330078541418E-004  8.471186650271756E-007
  2.985981315092510E-004  8.471186650271756E-007
  3.256154238807225E-004  8.471186650271756E-007
  3.416945433233392E-004  8.471186650271756E-007
  3.604423831090379E-004  8.471186650271756E-007
  3.813281797267320E-004  8.471186650271756E-007
  3.895380990629200E-004  8.471186650271756E-007
  3.909499961136767E-004  8.471186650271756E-007
  3.970210624522498E-004  8.471186650271756E-007
  4.087214708391345E-004  8.471186650271756E-007
  4.183185364727562E-004  8.471186650271756E-007
  4.247482847942824E-004  8.471186650271756E-007
  4.317401965893186E-004  8.471186650271756E-007
  4.352013051022229E-004  8.471186650271756E-007
  4.406365054892873E-004  8.471186650271756E-007
  4.420033316833661E-004  8.471186650271756E-007
  4.621001893009964E-004  8.471186650271756E-007
  4.663029552745357E-004  8.471186650271756E-007
  4.688864667907137E-004  8.471186650271756E-007
  4.950863141975579E-004  8.471186650271756E-007
  5.274944542397517E-004  8.471186650271756E-007
  5.343491521270344E-004  8.471186650271756E-007
  5.371611060053746E-004  8.471186650271756E-007
  5.393986255604635E-004  8.471186650271756E-007
  5.488718533566515E-004  8.471186650271756E-007
  5.540991679022077E-004  8.471186650271756E-007
  5.548454965321297E-004  8.471186650271756E-007
  5.560149615752797E-004  8.471186650271756E-007
  5.565822987752206E-004  8.471186650271756E-007
  5.571880734045973E-004  8.471186650271756E-007
  5.893017826900204E-004  8.471186650271756E-007
  5.984917346123477E-004  8.471186650271756E-007
  5.992317574251328E-004  8.471186650271756E-007
  5.995638249857231E-004  8.471186650271756E-007
  5.998425886201618E-004  8.471186650271756E-007
  6.021877312055172E-004  8.471186650271756E-007
  6.124472123690382E-004  8.471186650271756E-007
  6.407412708438063E-004  8.471186650271756E-007
  6.442249594107700E-004  8.471186650271756E-007
  6.449988867959318E-004  8.471186650271756E-007
  6.468111930140377E-004  8.471186650271756E-007
  6.672525090602270E-004  8.471186650271756E-007
  6.826538781004944E-004  8.471186650271756E-007
  6.906983308199180E-004  8.471186650271756E-007
  6.977441230275502E-004  8.471186650271756E-007
  7.511662168850597E-004  8.471186650271756E-007
  8.067850715185942E-004  8.471186650271756E-007
  9.120401291307847E-004  8.471186650271756E-007
  9.410949928260498E-004  8.471186650271756E-007
  1.093295941451090E-003  8.471186650271756E-007
  1.094223702013869E-003  8.471186650271756E-007
  1.094920047433263E-003  8.471186650271756E-007
  1.095412594586658E-003  8.471186650271756E-007
  1.142985623571044E-003  8.471186650271756E-007
  1.150589432254405E-003  8.471186650271756E-007
  1.165441352728094E-003  8.471186650271756E-007
  1.165624173345554E-003  8.471186650271756E-007
  1.165914826537413E-003  8.471186650271756E-007
  1.166180435020342E-003  8.471186650271756E-007
  1.171251392280791E-003  8.471186650271756E-007
  1.172038057146162E-003  8.471186650271756E-007
  1.186085059639670E-003  8.471186650271756E-007
  1.199712443269641E-003  8.471186650271756E-007
  1.295349853930353E-003  8.471186650271756E-007
  1.316472650958420E-003  8.471186650271756E-007
  1.342024012801143E-003  8.471186650271756E-007
  1.513865830805659E-003  8.471186650271756E-007
  1.522167909763785E-003  8.471186650271756E-007
  1.723586721451601E-003  8.471186650271756E-007
  1.757678961319519E-003  8.471186650271756E-007
  1.914198009527959E-003  8.471186650271756E-007
  2.280259777696741E-003  8.471186650271756E-007
  2.340385811218809E-003  8.471186650271756E-007
  2.521608072907300E-003  8.471186650271756E-007
  2.522641002707719E-003  8.471186650271756E-007
  2.558776041216839E-003  8.471186650271756E-007
  2.788960958639171E-003  8.471186650271756E-007
  2.921920850784783E-003  8.471186650271756E-007
  3.023497348577322E-003  8.471186650271756E-007
  3.042059609294107E-003  8.471186650271756E-007
  3.081271579699569E-003  8.471186650271756E-007
  3.096224541737589E-003  8.471186650271756E-007
  3.427468530189617E-003  8.471186650271756E-007
  3.547967835310210E-003  8.471186650271756E-007
  3.674715402038461E-003  8.471186650271756E-007
  3.676556376307879E-003  8.471186650271756E-007
  3.721443512689525E-003  8.471186650271756E-007
  3.723204198352121E-003  8.471186650271756E-007
  3.945023663313036E-003  8.471186650271756E-007
  0.794354938485151       8.471186650271756E-007
   17.0087413652541       8.471186650271756E-007
   37.7536871241879       8.471186650271756E-007
 cut=1d-8, nber non-redundant internal coords=         156
 Check on Eigenvals of non-red overlap matrix:
  0.00000085  0.00000200  0.00000243  0.00000291  0.00000614  0.00000696  0.00000875  0.00000993
  0.00001107  0.00001114  0.00001554  0.00001626  0.00001718  0.00001779  0.00001835  0.00002051
  0.00002155  0.00002372  0.00002398  0.00002542  0.00002981  0.00003451  0.00003579  0.00003667
  0.00003994  0.00004648  0.00004884  0.00005132  0.00005299  0.00005541  0.00005899  0.00006233
  0.00006751  0.00006847  0.00007170  0.00007405  0.00008137  0.00008245  0.00008503  0.00008666
  0.00009194  0.00009405  0.00009479  0.00009596  0.00011402  0.00012197  0.00012249  0.00013452
  0.00013648  0.00013747  0.00014062  0.00014981  0.00015609  0.00015948  0.00016847  0.00016936
  0.00018147  0.00020041  0.00022211  0.00022756  0.00023024  0.00024550  0.00027279  0.00028477
  0.00029033  0.00029860  0.00032562  0.00034169  0.00036044  0.00038133  0.00038954  0.00039095
  0.00039702  0.00040872  0.00041832  0.00042475  0.00043174  0.00043520  0.00044064  0.00044200
  0.00046210  0.00046630  0.00046889  0.00049509  0.00052749  0.00053435  0.00053716  0.00053940
  0.00054887  0.00055410  0.00055485  0.00055601  0.00055658  0.00055719  0.00058930  0.00059849
  0.00059923  0.00059956  0.00059984  0.00060219  0.00061245  0.00064074  0.00064422  0.00064500
  0.00064681  0.00066725  0.00068265  0.00069070  0.00069774  0.00075117  0.00080679  0.00091204
  0.00094109  0.00109330  0.00109422  0.00109492  0.00109541  0.00114299  0.00115059  0.00116544
  0.00116562  0.00116591  0.00116618  0.00117125  0.00117204  0.00118609  0.00119971  0.00129535
  0.00131647  0.00134202  0.00151387  0.00152217  0.00172359  0.00175768  0.00191420  0.00228026
  0.00234039  0.00252161  0.00252264  0.00255878  0.00278896  0.00292192  0.00302350  0.00304206
  0.00308127  0.00309622  0.00342747  0.00354797  0.00367472  0.00367656  0.00372144  0.00372320
  0.00394502  0.79435494 17.00874137 37.75368712
 Checking for correct frequencies
 recalc frequencies=
    -0.0   -0.0   -0.0    0.0    0.0    0.0    8.3   18.8   28.7   37.5
    52.4   55.1   62.6   76.3   89.3  100.7  109.7  137.0  167.8  180.9
   183.1  191.8  200.5  210.4  234.2  235.5  256.2  269.5  278.0  280.4
   298.5  301.8  326.2  337.0  351.3  382.3  392.2  417.1  429.2  432.9
   438.5  443.3  448.1  467.8  470.0  477.9  484.9  500.8  504.6  505.7
   524.6  549.7  572.3  574.0  580.6  604.3  615.8  634.4  651.7  675.2
   702.6  703.0  714.7  722.9  747.6  757.0  757.5  763.8  793.4  806.8
   808.6  812.5  813.8  826.1  826.9  831.6  850.0  901.3  919.7  925.9
   945.4  956.7  973.7  974.6  976.3  987.7  988.4 1052.6 1053.7 1061.5
  1076.4 1092.7 1121.4 1136.9 1141.0 1155.5 1162.1 1169.3 1185.8 1192.4
  1197.5 1224.1 1230.4 1235.7 1243.8 1273.8 1301.4 1317.5 1322.3 1350.0
  1362.7 1365.4 1378.5 1382.1 1391.6 1400.3 1401.9 1416.3 1419.6 1430.3
  1439.1 1443.5 1459.8 1462.6 1475.7 1480.7 1485.0 1491.7 1497.6 1505.2
  1509.1 1522.4 1546.4 1554.5 1558.0 1576.8 1597.2 1599.0 1621.9 1685.7
  1722.9 1725.3 1755.7 2386.2 3023.3 3034.3 3038.4 3079.6 3085.0 3092.3
  3095.5 3112.5 3132.4 3142.8 3198.3 3198.7 3205.0 3205.2 3213.1 3213.1
  3224.5 3224.8
 recalc symmetries=
                                                                       
                                                                       
                                                                       
                                                                       
                                                                       
                                                                       
                                                                       
                                                                       
                                                                       
                                                                       
                                                                       
                                                                       
                                                                       
                                                                       
                                                                       
                                                                       
               
 recalc freqs check OK
 Zero-point lengths:
 10.0000 10.0000 10.0000 10.0000 10.0000 10.0000 85.9967 57.1075 46.2804 40.4692
 34.2561 33.3930 31.3254 28.3820 26.2327 24.7053 23.6704 21.1842 19.1365 18.4312
 18.3206 17.9004 17.5072 17.0899 16.2002 16.1562 15.4888 15.1012 14.8679 14.8056
 14.3496 14.2708 13.7256 13.5050 13.2275 12.6787 12.5182 12.1393 11.9659 11.9159
 11.8394 11.7746 11.7120 11.4616 11.4352 11.3400 11.2583 11.0781 11.0363 11.0241
 10.8239 10.5739 10.3630 10.3478 10.2888 10.0850  9.9903  9.8428  9.7113  9.5409
  9.3531  9.3499  9.2735  9.2206  9.0672  9.0106  9.0078  8.9701  8.8013  8.7277
  8.7183  8.6970  8.6902  8.6253  8.6211  8.5966  8.5034  8.2576  8.1746  8.1473
  8.0630  8.0150  7.9448  7.9413  7.9341  7.8882  7.8855  7.6411  7.6373  7.6092
  7.5563  7.4998  7.4032  7.3525  7.3393  7.2930  7.2724  7.2500  7.1994  7.1792
  7.1639  7.0858  7.0677  7.0523  7.0294  6.9461  6.8721  6.8301  6.8177  6.7472
  6.7158  6.7090  6.6771  6.6685  6.6456  6.6251  6.6212  6.5875  6.5798  6.5552
  6.5351  6.5251  6.4885  6.4824  6.4536  6.4426  6.4332  6.4187  6.4061  6.3901
  6.3818  6.3537  6.3043  6.2879  6.2808  6.2432  6.2032  6.1996  6.1558  6.0382
  5.9726  5.9684  5.9166  5.0750  4.5087  4.5005  4.4975  4.4673  4.4635  4.4581
  4.4558  4.4437  4.4295  4.4222  4.3836  4.3834  4.3791  4.3789  4.3736  4.3735
  4.3658  4.3656
 highest evec of mol 1
  0.0000 -0.0000 -0.0000
 -0.0000 -0.0000 -0.0000
  0.0001  0.0000 -0.0000
 -0.0004 -0.0000 -0.0000
  0.0005  0.0008 -0.0001
 -0.0000 -0.0004  0.0001
  0.0017 -0.0029  0.0004
  0.0408  0.0574 -0.0066
 -0.0849  0.1493 -0.0212
 -0.0029 -0.0024  0.0002
  0.0028 -0.0021  0.0003
  0.0791  0.1431 -0.0170
 -0.0402  0.0557 -0.0082
 -0.0017 -0.0027  0.0003
 -0.0005  0.0009 -0.0001
 -0.0000 -0.0005  0.0001
  0.0004 -0.0001  0.0000
 -0.0002 -0.0001  0.0000
 -0.0000 -0.0000 -0.0000
 -0.0000 -0.0000  0.0000
 -0.0004 -0.0004  0.0000
  0.0000  0.0002 -0.0000
 -0.0007  0.0014 -0.0002
 -0.0199 -0.0285  0.0033
  0.0388 -0.0691  0.0099
  0.0015  0.0011 -0.0001
 -0.0016  0.0013 -0.0002
 -0.0404 -0.0730  0.0086
  0.0200 -0.0280  0.0041
  0.0008  0.0014 -0.0002
  0.0003 -0.0004  0.0001
 -0.0000  0.0002 -0.0000
  0.0002 -0.0000  0.0000
  0.0002 -0.0006  0.0001
 -0.0002 -0.0005  0.0001
 -0.0002 -0.0001  0.0000
 -0.0001 -0.0001 -0.0000
 -0.0001  0.0001 -0.0001
 -0.0001  0.0001  0.0001
 -0.1148 -0.1878  0.0219
  0.2826 -0.5038  0.0716
 -0.2643 -0.4833  0.0574
  0.1142 -0.1825  0.0264
  0.0002  0.0004 -0.0001
 -0.0000 -0.0000 -0.0000
 -0.0000  0.0000  0.0000
  0.0003  0.0000  0.0000
 -0.0000  0.0000  0.0000
  0.0003  0.0000 -0.0000
 -0.0000  0.0000 -0.0001
  0.0572  0.0933 -0.0110
 -0.1299  0.2333 -0.0334
  0.1351  0.2460 -0.0291
 -0.0569  0.0913 -0.0131
 generating redundant internal coords
         300        3600          54
 Adding extra bonds for z output only
           6           6           6           7           6           8
           6           6           6           6           6           6
           6           6           6           8           7           6
           6           6           6           8           6           6
           6           6           6           6           6           6
           6           8           6           6           6           6
           1           1           1           1           1           1
           1           1           1           1           1           1
           1           1           1           1           1           1
 search for int coords
   1 str   2   1   1.455
   2 str   3   2   1.200
   3 str   4   3   1.362
   4 str   5   4   1.425
   5 str   6   5   1.213
   6 str   7   5   1.473
   7 str   8   7   1.401
   8 str   9   8   1.379
   9 str  10   9   1.422
  10 str  11  10   1.441
  11 str  12  11   1.423
  12 str  13  12   1.380
  13 str  14  13   1.400
  14 str  15  14   1.479
  15 str  16  15   1.222
  16 str  17  15   1.400
  17 str  18  17   1.498
  18 str  19  18   1.532
  19 str  20  18   1.532
  20 str  21  17   1.408
  21 str  22  21   1.221
  22 str  23  21   1.478
  23 str  24  23   1.400
  24 str  25  24   1.380
  25 str  26  25   1.422
  26 str  27  26   1.441
  27 str  28  27   1.422
  28 str  29  28   1.379
  29 str  30  29   1.401
  30 str  31   4   1.426
  31 str  31  30   1.473
  32 str  32  31   1.213
  33 str  33   7   1.414
  34 str  33  30   1.413
  35 str  34  10   1.428
  36 str  34  27   1.428
  37 str  34  33   1.429
  38 str  35  11   1.427
  39 str  35  26   1.426
  40 str  36  14   1.410
  41 str  36  23   1.410
  42 str  36  35   1.428
  43 str  37   1   1.094
  44 str  38   1   1.094
  45 str  39   1   1.094
  46 str  40   8   1.082
  47 str  41   9   1.081
  48 str  42  12   1.081
  49 str  43  13   1.082
  50 str  44  18   1.088
  51 str  45  19   1.089
  52 str  46  19   1.093
  53 str  47  19   1.093
  54 str  48  20   1.089
  55 str  49  20   1.093
  56 str  50  20   1.093
  57 str  51  24   1.082
  58 str  52  25   1.081
  59 str  53  28   1.081
  60 str  54  29   1.082
 nber stretches=          60
  61 lin ben   1   2   3
  63 ben   2   1  37
  64 ben   2   1  38
  65 ben   2   1  39
 Extend lin bond           1           1           2           4
  66 lin ben   2   3   4
  68 ben   3   4   5
  69 prop tor   3   4   5   6
  70 prop tor   3   4   5   7
  71 ben   3   4  31
  72 prop tor   3   4  31  30
  73 prop tor   3   4  31  32
  74 ben   4   5   6
  75 ben   4   5   7
  76 prop tor   4   5   7   8
  77 prop tor   4   5   7  33
  78 ben   4  31  30
  79 ben   4  31  32
  80 ben   5   4  31
  81 prop tor   5   4  31  30
  82 prop tor   5   4  31  32
  83 ben   5   7   8
  84 prop tor   5   7   8   9
  85 prop tor   5   7   8  40
  86 ben   5   7  33
  87 prop tor   5   7  33  30
  88 prop tor   5   7  33  34
  89 ben   6   5   7
  90 prop tor   6   5   7   8
  91 prop tor   6   5   7  33
  92 ben   7   8   9
  93 prop tor   7   8   9  10
  94 prop tor   7   8   9  41
  95 ben   7   8  40
  96 ben   7  33  30
  97 ben   7  33  34
  98 prop tor   7  33  34  10
  99 prop tor   7  33  34  27
 100 ben   8   7  33
 101 prop tor   8   7  33  30
 102 prop tor   8   7  33  34
 103 ben   8   9  10
 104 prop tor   8   9  10  11
 105 prop tor   8   9  10  34
 106 ben   8   9  41
 107 ben   9   8  40
 108 ben   9  10  11
 109 prop tor   9  10  11  12
 110 prop tor   9  10  11  35
 111 ben   9  10  34
 112 prop tor   9  10  34  27
 113 prop tor   9  10  34  33
 114 ben  10   9  41
 115 ben  10  11  12
 116 prop tor  10  11  12  13
 117 prop tor  10  11  12  42
 118 ben  10  11  35
 119 prop tor  10  11  35  26
 120 prop tor  10  11  35  36
 121 ben  10  34  27
 122 ben  10  34  33
 123 ben  11  10  34
 124 prop tor  11  10  34  27
 125 prop tor  11  10  34  33
 126 ben  11  12  13
 127 prop tor  11  12  13  14
 128 prop tor  11  12  13  43
 129 ben  11  12  42
 130 ben  11  35  26
 131 ben  11  35  36
 132 prop tor  11  35  36  14
 133 prop tor  11  35  36  23
 134 ben  12  11  35
 135 prop tor  12  11  35  26
 136 prop tor  12  11  35  36
 137 ben  12  13  14
 138 prop tor  12  13  14  15
 139 prop tor  12  13  14  36
 140 ben  12  13  43
 141 ben  13  12  42
 142 ben  13  14  15
 143 prop tor  13  14  15  16
 144 prop tor  13  14  15  17
 145 ben  13  14  36
 146 prop tor  13  14  36  23
 147 prop tor  13  14  36  35
 148 ben  14  13  43
 149 ben  14  15  16
 150 ben  14  15  17
 151 prop tor  14  15  17  18
 152 prop tor  14  15  17  21
 153 ben  14  36  23
 154 ben  14  36  35
 155 ben  15  14  36
 156 prop tor  15  14  36  23
 157 prop tor  15  14  36  35
 158 ben  15  17  18
 159 prop tor  15  17  18  19
 160 prop tor  15  17  18  20
 161 prop tor  15  17  18  44
 162 ben  15  17  21
 163 prop tor  15  17  21  22
 164 prop tor  15  17  21  23
 165 ben  16  15  17
 166 prop tor  16  15  17  18
 167 prop tor  16  15  17  21
 168 ben  17  18  19
 169 prop tor  17  18  19  45
 170 prop tor  17  18  19  46
 171 prop tor  17  18  19  47
 172 ben  17  18  20
 173 prop tor  17  18  20  48
 174 prop tor  17  18  20  49
 175 prop tor  17  18  20  50
 176 ben  17  18  44
 177 ben  17  21  22
 178 ben  17  21  23
 179 prop tor  17  21  23  24
 180 prop tor  17  21  23  36
 181 ben  18  17  21
 182 prop tor  18  17  21  22
 183 prop tor  18  17  21  23
 184 ben  18  19  45
 185 ben  18  19  46
 186 ben  18  19  47
 187 ben  18  20  48
 188 ben  18  20  49
 189 ben  18  20  50
 190 ben  19  18  20
 191 prop tor  19  18  20  48
 192 prop tor  19  18  20  49
 193 prop tor  19  18  20  50
 194 ben  19  18  44
 195 prop tor  20  18  19  45
 196 prop tor  20  18  19  46
 197 prop tor  20  18  19  47
 198 ben  20  18  44
 199 prop tor  21  17  18  19
 200 prop tor  21  17  18  20
 201 prop tor  21  17  18  44
 202 ben  21  23  24
 203 prop tor  21  23  24  25
 204 prop tor  21  23  24  51
 205 ben  21  23  36
 206 prop tor  21  23  36  14
 207 prop tor  21  23  36  35
 208 ben  22  21  23
 209 prop tor  22  21  23  24
 210 prop tor  22  21  23  36
 211 ben  23  24  25
 212 prop tor  23  24  25  26
 213 prop tor  23  24  25  52
 214 ben  23  24  51
 215 ben  23  36  35
 216 ben  24  23  36
 217 prop tor  24  23  36  14
 218 prop tor  24  23  36  35
 219 ben  24  25  26
 220 prop tor  24  25  26  27
 221 prop tor  24  25  26  35
 222 ben  24  25  52
 223 ben  25  24  51
 224 ben  25  26  27
 225 prop tor  25  26  27  28
 226 prop tor  25  26  27  34
 227 ben  25  26  35
 228 prop tor  25  26  35  11
 229 prop tor  25  26  35  36
 230 ben  26  25  52
 231 ben  26  27  28
 232 prop tor  26  27  28  29
 233 prop tor  26  27  28  53
 234 ben  26  27  34
 235 prop tor  26  27  34  10
 236 prop tor  26  27  34  33
 237 ben  26  35  36
 238 prop tor  26  35  36  14
 239 prop tor  26  35  36  23
 240 ben  27  26  35
 241 prop tor  27  26  35  11
 242 prop tor  27  26  35  36
 243 ben  27  28  29
 244 prop tor  27  28  29  30
 245 prop tor  27  28  29  54
 246 ben  27  28  53
 247 ben  27  34  33
 248 ben  28  27  34
 249 prop tor  28  27  34  10
 250 prop tor  28  27  34  33
 251 ben  28  29  30
 252 prop tor  28  29  30  31
 253 prop tor  28  29  30  33
 254 ben  28  29  54
 255 ben  29  28  53
 256 ben  29  30  31
 257 prop tor  29  30  31   4
 258 prop tor  29  30  31  32
 259 ben  29  30  33
 260 prop tor  29  30  33   7
 261 prop tor  29  30  33  34
 262 ben  30  29  54
 263 ben  30  31  32
 264 ben  30  33  34
 265 prop tor  30  33  34  10
 266 prop tor  30  33  34  27
 267 prop tor  31   4   5   6
 268 prop tor  31   4   5   7
 269 ben  31  30  33
 270 prop tor  31  30  33   7
 271 prop tor  31  30  33  34
 272 prop tor  33   7   8   9
 273 prop tor  33   7   8  40
 274 prop tor  33  30  31   4
 275 prop tor  33  30  31  32
 276 prop tor  34  10  11  12
 277 prop tor  34  10  11  35
 278 prop tor  34  27  28  29
 279 prop tor  34  27  28  53
 280 prop tor  35  11  12  13
 281 prop tor  35  11  12  42
 282 prop tor  35  26  27  28
 283 prop tor  35  26  27  34
 284 prop tor  36  14  15  16
 285 prop tor  36  14  15  17
 286 prop tor  36  23  24  25
 287 prop tor  36  23  24  51
 288 prop tor  37   1   2   3
 289 ben  37   1  38
 290 ben  37   1  39
 291 prop tor  38   1   2   3
 292 ben  38   1  39
 293 prop tor  39   1   2   3
 294 prop tor  40   8   9  10
 295 prop tor  40   8   9  41
 296 prop tor  41   9  10  11
 297 prop tor  41   9  10  34
 298 prop tor  42  12  13  14
 299 prop tor  42  12  13  43
 300 prop tor  43  13  14  15
 301 prop tor  43  13  14  36
 302 prop tor  44  18  19  45
 303 prop tor  44  18  19  46
 304 prop tor  44  18  19  47
 305 prop tor  44  18  20  48
 306 prop tor  44  18  20  49
 307 prop tor  44  18  20  50
 308 ben  45  19  46
 309 ben  45  19  47
 310 ben  46  19  47
 311 ben  48  20  49
 312 ben  48  20  50
 313 ben  49  20  50
 314 prop tor  51  24  25  26
 315 prop tor  51  24  25  52
 316 prop tor  52  25  26  27
 317 prop tor  52  25  26  35
 318 prop tor  53  28  29  30
 319 prop tor  53  28  29  54
 320 prop tor  54  29  30  31
 321 prop tor  54  29  30  33
 322 lin bend prop tor   2   1   4   3
 323 lin bend prop tor   2   1   4   5
 324 lin bend prop tor   2   1   4  31
 325 lin bend prop tor  37   1   4   3
 326 lin bend prop tor  37   1   4   5
 327 lin bend prop tor  37   1   4  31
 328 lin bend prop tor  38   1   4   3
 329 lin bend prop tor  38   1   4   5
 330 lin bend prop tor  38   1   4  31
 331 lin bend prop tor  39   1   4   3
 332 lin bend prop tor  39   1   4   5
 333 lin bend prop tor  39   1   4  31
 nber bend=             106
 nber lin bend=           1
 nber prop tor=         167
 nber impr tor=           0
 nber tot redund int=         333
 Reading file: 
 ./PDI_4_C-1S0.log                                                              
                                          
  Entering Gaussian System, Link 0=g16                                          
  
 Gaussian format, type: g94, g98, g03= F F F
  #P Geom=AllCheck Guess=TCheck SCRF=Check GenChk UB3LYP/6-311G(d,p) Fre    
 energy type= B3LYP   
 Original G94 input coords:
  6  1.268356 -0.113697 -0.182164
  6  2.724155 -0.089917 -0.154132
  6  3.924346 -0.077473 -0.129945
  7  5.282972 -0.068198 -0.101866
  6  5.944210 -1.328538  0.083100
  8  5.280278 -2.343638  0.206106
  6  7.400663 -1.273970  0.107374
  6  8.116863 -2.464024  0.284199
  6  9.494467 -2.464887  0.314359
  6 10.244436 -1.273812  0.169322
  6 11.691612 -1.265296  0.200073
  6 12.452955 -2.444894  0.377495
  6 13.832155 -2.424806  0.405219
  6 14.536168 -1.224992  0.257286
  6 15.998805 -1.240854  0.292021
  8 16.647688 -2.274722  0.447626
  7 16.654404 -0.005537  0.138104
  6 18.141546  0.033113  0.166431
  6 18.701519 -0.393713  1.528846
  6 18.758962 -0.738996 -1.005980
  6 15.990652  1.231255 -0.045574
  8 16.632822  2.271510 -0.173422
  6 14.529298  1.197209 -0.073131
  6 13.817479  2.388764 -0.251141
  6 12.438370  2.392426 -0.281654
  6 11.684028  1.203834 -0.136078
  6 10.237021  1.195388 -0.166131
  6  9.479803  2.377626 -0.342784
  6  8.102270  2.360581 -0.370151
  6  7.393262  1.162170 -0.223003
  6  5.936491  1.199843 -0.259473
  8  5.266624  2.207182 -0.410270
  6  8.100427 -0.051782 -0.043132
  6  9.538091 -0.043371 -0.013094
  6 12.387835 -0.026562  0.046745
  6 13.823575 -0.018108  0.077083
  1  0.840743  0.501392  0.616550
  1  0.896917 -1.134813 -0.049549
  1  0.878304  0.260304 -1.134593
  1  7.555157 -3.383271  0.396497
  1 10.004357 -3.408099  0.453201
  1 11.951769 -3.395643  0.496010
  1 14.401971 -3.335663  0.541938
  1 18.363142  1.089458  0.027563
  1 18.510880 -1.448467  1.722872
  1 18.251353  0.200135  2.328974
  1 19.782061 -0.218109  1.547624
  1 18.571078 -1.808414 -0.919098
  1 19.840274 -0.568001 -1.023089
  1 18.348252 -0.383609 -1.954940
  1 14.380960  3.306748 -0.363994
  1 11.931492  3.337233 -0.421478
  1  9.983917  3.326799 -0.460502
  1  7.534979  3.273188 -0.506050
 nber atoms=          54
  SCF Done:  E(UB3LYP) =  -1564.97443374     A.U. after    1 cycles             
  
          23          40 "  -1564.97443374"
After scan for Atom:   Atom  AN      X      Y      Z        X      Y      Z        X      Y      Z   
After scan for Atom:   Atom  AN      X      Y      Z        X      Y      Z        X      Y      Z   
After scan for Atom:   Atom  AN      X      Y      Z        X      Y      Z        X      Y      Z   
After scan for Atom:   Atom  AN      X      Y      Z        X      Y      Z        X      Y      Z   
After scan for Atom:   Atom  AN      X      Y      Z        X      Y      Z        X      Y      Z   
After scan for Atom:   Atom  AN      X      Y      Z        X      Y      Z        X      Y      Z   
After scan for Atom:   Atom  AN      X      Y      Z        X      Y      Z        X      Y      Z   
After scan for Atom:   Atom  AN      X      Y      Z        X      Y      Z        X      Y      Z   
After scan for Atom:   Atom  AN      X      Y      Z        X      Y      Z        X      Y      Z   
After scan for Atom:   Atom  AN      X      Y      Z        X      Y      Z        X      Y      Z   
After scan for Atom:   Atom  AN      X      Y      Z        X      Y      Z        X      Y      Z   
After scan for Atom:   Atom  AN      X      Y      Z        X      Y      Z        X      Y      Z   
After scan for Atom:   Atom  AN      X      Y      Z        X      Y      Z        X      Y      Z   
After scan for Atom:   Atom  AN      X      Y      Z        X      Y      Z        X      Y      Z   
After scan for Atom:   Atom  AN      X      Y      Z        X      Y      Z        X      Y      Z   
After scan for Atom:   Atom  AN      X      Y      Z        X      Y      Z        X      Y      Z   
After scan for Atom:   Atom  AN      X      Y      Z        X      Y      Z        X      Y      Z   
After scan for Atom:   Atom  AN      X      Y      Z        X      Y      Z        X      Y      Z   
After scan for Atom:   Atom  AN      X      Y      Z        X      Y      Z        X      Y      Z   
After scan for Atom:   Atom  AN      X      Y      Z        X      Y      Z        X      Y      Z   
After scan for Atom:   Atom  AN      X      Y      Z        X      Y      Z        X      Y      Z   
After scan for Atom:   Atom  AN      X      Y      Z        X      Y      Z        X      Y      Z   
After scan for Atom:   Atom  AN      X      Y      Z        X      Y      Z        X      Y      Z   
After scan for Atom:   Atom  AN      X      Y      Z        X      Y      Z        X      Y      Z   
After scan for Atom:   Atom  AN      X      Y      Z        X      Y      Z        X      Y      Z   
After scan for Atom:   Atom  AN      X      Y      Z        X      Y      Z        X      Y      Z   
After scan for Atom:   Atom  AN      X      Y      Z        X      Y      Z        X      Y      Z   
After scan for Atom:   Atom  AN      X      Y      Z        X      Y      Z        X      Y      Z   
After scan for Atom:   Atom  AN      X      Y      Z        X      Y      Z        X      Y      Z   
After scan for Atom:   Atom  AN      X      Y      Z        X      Y      Z        X      Y      Z   
After scan for Atom:   Atom  AN      X      Y      Z        X      Y      Z        X      Y      Z   
After scan for Atom:   Atom  AN      X      Y      Z        X      Y      Z        X      Y      Z   
After scan for Atom:   Atom  AN      X      Y      Z        X      Y      Z        X      Y      Z   
After scan for Atom:   Atom  AN      X      Y      Z        X      Y      Z        X      Y      Z   
After scan for Atom:   Atom  AN      X      Y      Z        X      Y      Z        X      Y      Z   
After scan for Atom:   Atom  AN      X      Y      Z        X      Y      Z        X      Y      Z   
After scan for Atom:   Atom  AN      X      Y      Z        X      Y      Z        X      Y      Z   
After scan for Atom:   Atom  AN      X      Y      Z        X      Y      Z        X      Y      Z   
After scan for Atom:   Atom  AN      X      Y      Z        X      Y      Z        X      Y      Z   
After scan for Atom:   Atom  AN      X      Y      Z        X      Y      Z        X      Y      Z   
After scan for Atom:   Atom  AN      X      Y      Z        X      Y      Z        X      Y      Z   
After scan for Atom:   Atom  AN      X      Y      Z        X      Y      Z        X      Y      Z   
After scan for Atom:   Atom  AN      X      Y      Z        X      Y      Z        X      Y      Z   
After scan for Atom:   Atom  AN      X      Y      Z        X      Y      Z        X      Y      Z   
After scan for Atom:   Atom  AN      X      Y      Z        X      Y      Z        X      Y      Z   
After scan for Atom:   Atom  AN      X      Y      Z        X      Y      Z        X      Y      Z   
After scan for Atom:   Atom  AN      X      Y      Z        X      Y      Z        X      Y      Z   
After scan for Atom:   Atom  AN      X      Y      Z        X      Y      Z        X      Y      Z   
After scan for Atom:   Atom  AN      X      Y      Z        X      Y      Z        X      Y      Z   
After scan for Atom:   Atom  AN      X      Y      Z        X      Y      Z        X      Y      Z   
After scan for Atom:   Atom  AN      X      Y      Z        X      Y      Z        X      Y      Z   
After scan for Atom:   Atom  AN      X      Y      Z        X      Y      Z        X      Y      Z   
 g94    frequencies=
     0.0    0.0    0.0    0.0    0.0    0.0    9.9   19.7   24.8   38.0
    54.4   58.4   64.6   80.2   92.2  103.0  115.1  139.9  170.5  182.4
   186.4  197.3  203.4  213.2  234.0  234.6  264.8  268.8  270.2  281.5
   295.7  300.6  337.7  344.2  358.2  391.4  393.8  417.8  434.5  437.8
   443.2  453.9  462.7  468.7  471.4  477.1  501.2  505.5  515.3  516.9
   523.9  549.1  579.4  584.6  591.6  622.8  625.2  654.6  663.7  707.8
   718.7  726.9  745.8  748.1  751.6  764.9  779.1  797.5  797.8  808.8
   809.9  815.7  817.1  827.0  829.9  830.0  852.1  907.8  928.7  941.9
   953.5  964.0  967.6  972.4  976.8  980.4  983.4 1052.9 1055.3 1064.8
  1074.1 1086.1 1097.6 1139.8 1144.8 1154.3 1160.0 1173.5 1184.5 1195.5
  1199.7 1223.9 1233.6 1244.6 1254.5 1273.1 1296.3 1313.3 1317.3 1346.8
  1354.0 1365.4 1370.2 1382.9 1387.4 1391.8 1396.5 1406.1 1417.0 1422.8
  1435.4 1462.4 1467.8 1472.0 1478.6 1481.3 1482.3 1484.7 1493.6 1507.5
  1524.0 1530.0 1562.0 1571.9 1575.3 1589.8 1608.7 1617.0 1627.1 1665.1
  1702.3 1707.4 1739.4 2383.1 3008.8 3021.9 3027.4 3057.3 3066.2 3080.2
  3083.2 3104.0 3129.2 3138.2 3182.2 3182.4 3189.6 3189.9 3199.6 3199.8
  3212.4 3212.7
 g94    symmetries=
                                                 A      A      A      A
       A      A      A      A      A      A      A      A      A      A
       A      A      A      A      A      A      A      A      A      A
       A      A      A      A      A      A      A      A      A      A
       A      A      A      A      A      A      A      A      A      A
       A      A      A      A      A      A      A      A      A      A
       A      A      A      A      A      A      A      A      A      A
       A      A      A      A      A      A      A      A      A      A
       A      A      A      A      A      A      A      A      A      A
       A      A      A      A      A      A      A      A      A      A
       A      A      A      A      A      A      A      A      A      A
       A      A      A      A      A      A      A      A      A      A
       A      A      A      A      A      A      A      A      A      A
       A      A      A      A      A      A      A      A      A      A
       A      A      A      A      A      A      A      A      A      A
       A      A      A      A      A      A      A      A      A      A
       A      A
 atomic masses:
 12.0000 12.0000 12.0000 14.0031 12.0000 15.9949 12.0000 12.0000 12.0000 12.0000
 12.0000 12.0000 12.0000 12.0000 12.0000 15.9949 14.0031 12.0000 12.0000 12.0000
 12.0000 15.9949 12.0000 12.0000 12.0000 12.0000 12.0000 12.0000 12.0000 12.0000
 12.0000 15.9949 12.0000 12.0000 12.0000 12.0000  1.0078  1.0078  1.0078  1.0078
  1.0078  1.0078  1.0078  1.0078  1.0078  1.0078  1.0078  1.0078  1.0078  1.0078
  1.0078  1.0078  1.0078  1.0078
 looking for force constants in 
 ./PDI_4_C-1S0.fchk                                                             
  
 Cartesian Force Constants                  R   N=       13203                  
  
 n3=         162       13203
 g94-fc frequencies=
    -1.5   -0.5   -0.0    0.0    0.0    3.7   10.0   19.7   24.8   38.0
    54.4   58.4   64.6   80.2   92.2  103.0  115.1  139.9  170.5  182.4
   186.4  197.3  203.4  213.2  234.0  234.6  264.8  268.8  270.2  281.5
   295.7  300.6  337.7  344.2  358.2  391.4  393.8  417.8  434.5  437.8
   443.2  453.9  462.7  468.7  471.4  477.1  501.2  505.5  515.3  516.9
   523.9  549.1  579.4  584.6  591.6  622.8  625.3  654.6  663.7  707.8
   718.7  726.9  745.8  748.1  751.6  764.9  779.1  797.5  797.8  808.8
   809.9  815.7  817.1  827.1  829.9  830.0  852.1  907.8  928.7  941.9
   953.6  964.1  967.6  972.4  976.8  980.5  983.4 1052.9 1055.4 1064.8
  1074.2 1086.1 1097.6 1139.8 1144.9 1154.4 1160.0 1173.5 1184.5 1195.6
  1199.7 1223.9 1233.6 1244.6 1254.5 1273.1 1296.4 1313.3 1317.3 1346.8
  1354.0 1365.4 1370.2 1382.9 1387.4 1391.8 1396.5 1406.1 1417.0 1422.8
  1435.5 1462.5 1467.9 1472.1 1478.6 1481.3 1482.4 1484.7 1493.6 1507.5
  1524.0 1530.0 1562.0 1571.9 1575.4 1589.8 1608.7 1617.1 1627.1 1665.1
  1702.3 1707.5 1739.4 2383.1 3008.9 3022.0 3027.5 3057.4 3066.2 3080.3
  3083.3 3104.1 3129.3 3138.3 3182.3 3182.5 3189.7 3189.9 3199.6 3199.9
  3212.4 3212.8
 at 99999: n3=         162
 symm operator            1 :  F  nop=           0
 symm operator            2 :  F  nop=           0
 symm operator            3 :  F  nop=           0
 symm operator            4 :  F  nop=           0
 symm operator            5 :  F  nop=           0
 symm operator            6 :  F  nop=           0
 symm operator            7 :  F  nop=           0
 The point group of the molecule is  C1
 Symmetry rotation matrix:
   1.00000   0.00000   0.00000
   0.00000   1.00000   0.00000
   0.00000   0.00000   1.00000

 Projecting out zero-frequency components
 generating redundant internal coords
         300        3600          54
 search for int coords
   1 str   2   1   1.456
   2 str   3   2   1.200
   3 str   4   3   1.359
   4 str   5   4   1.435
   5 str   6   5   1.219
   6 str   7   5   1.458
   7 str   8   7   1.400
   8 str   9   8   1.378
   9 str  10   9   1.415
  10 str  11  10   1.448
  11 str  12  11   1.415
  12 str  13  12   1.380
  13 str  14  13   1.399
  14 str  15  14   1.463
  15 str  16  15   1.231
  16 str  17  15   1.407
  17 str  18  17   1.488
  18 str  19  18   1.534
  19 str  20  18   1.534
  20 str  21  17   1.416
  21 str  22  21   1.229
  22 str  23  21   1.462
  23 str  24  23   1.399
  24 str  25  24   1.379
  25 str  26  25   1.415
  26 str  27  26   1.447
  27 str  28  27   1.415
  28 str  29  28   1.378
  29 str  30  29   1.400
  30 str  31   4   1.435
  31 str  31  30   1.458
  32 str  32  31   1.219
  33 str  33   7   1.416
  34 str  33  30   1.416
  35 str  34  10   1.430
  36 str  34  27   1.431
  37 str  34  33   1.438
  38 str  35  11   1.429
  39 str  35  26   1.429
  40 str  36  14   1.413
  41 str  36  23   1.413
  42 str  36  35   1.436
  43 str  37   1   1.095
  44 str  38   1   1.095
  45 str  39   1   1.095
  46 str  40   8   1.083
  47 str  41   9   1.081
  48 str  42  12   1.081
  49 str  43  13   1.083
  50 str  44  18   1.088
  51 str  45  19   1.089
  52 str  46  19   1.093
  53 str  47  19   1.095
  54 str  48  20   1.089
  55 str  49  20   1.095
  56 str  50  20   1.093
  57 str  51  24   1.083
  58 str  52  25   1.081
  59 str  53  28   1.081
  60 str  54  29   1.083
 nber stretches=          60
  61 lin ben   1   2   3
  63 ben   2   1  37
  64 ben   2   1  38
  65 ben   2   1  39
 Extend lin bond           1           1           2           4
  66 lin ben   2   3   4
  68 ben   3   4   5
  69 prop tor   3   4   5   6
  70 prop tor   3   4   5   7
  71 ben   3   4  31
  72 prop tor   3   4  31  30
  73 prop tor   3   4  31  32
  74 ben   4   5   6
  75 ben   4   5   7
  76 prop tor   4   5   7   8
  77 prop tor   4   5   7  33
  78 ben   4  31  30
  79 ben   4  31  32
  80 ben   5   4  31
  81 prop tor   5   4  31  30
  82 prop tor   5   4  31  32
  83 ben   5   7   8
  84 prop tor   5   7   8   9
  85 prop tor   5   7   8  40
  86 ben   5   7  33
  87 prop tor   5   7  33  30
  88 prop tor   5   7  33  34
  89 ben   6   5   7
  90 prop tor   6   5   7   8
  91 prop tor   6   5   7  33
  92 ben   7   8   9
  93 prop tor   7   8   9  10
  94 prop tor   7   8   9  41
  95 ben   7   8  40
  96 ben   7  33  30
  97 ben   7  33  34
  98 prop tor   7  33  34  10
  99 prop tor   7  33  34  27
 100 ben   8   7  33
 101 prop tor   8   7  33  30
 102 prop tor   8   7  33  34
 103 ben   8   9  10
 104 prop tor   8   9  10  11
 105 prop tor   8   9  10  34
 106 ben   8   9  41
 107 ben   9   8  40
 108 ben   9  10  11
 109 prop tor   9  10  11  12
 110 prop tor   9  10  11  35
 111 ben   9  10  34
 112 prop tor   9  10  34  27
 113 prop tor   9  10  34  33
 114 ben  10   9  41
 115 ben  10  11  12
 116 prop tor  10  11  12  13
 117 prop tor  10  11  12  42
 118 ben  10  11  35
 119 prop tor  10  11  35  26
 120 prop tor  10  11  35  36
 121 ben  10  34  27
 122 ben  10  34  33
 123 ben  11  10  34
 124 prop tor  11  10  34  27
 125 prop tor  11  10  34  33
 126 ben  11  12  13
 127 prop tor  11  12  13  14
 128 prop tor  11  12  13  43
 129 ben  11  12  42
 130 ben  11  35  26
 131 ben  11  35  36
 132 prop tor  11  35  36  14
 133 prop tor  11  35  36  23
 134 ben  12  11  35
 135 prop tor  12  11  35  26
 136 prop tor  12  11  35  36
 137 ben  12  13  14
 138 prop tor  12  13  14  15
 139 prop tor  12  13  14  36
 140 ben  12  13  43
 141 ben  13  12  42
 142 ben  13  14  15
 143 prop tor  13  14  15  16
 144 prop tor  13  14  15  17
 145 ben  13  14  36
 146 prop tor  13  14  36  23
 147 prop tor  13  14  36  35
 148 ben  14  13  43
 149 ben  14  15  16
 150 ben  14  15  17
 151 prop tor  14  15  17  18
 152 prop tor  14  15  17  21
 153 ben  14  36  23
 154 ben  14  36  35
 155 ben  15  14  36
 156 prop tor  15  14  36  23
 157 prop tor  15  14  36  35
 158 ben  15  17  18
 159 prop tor  15  17  18  19
 160 prop tor  15  17  18  20
 161 prop tor  15  17  18  44
 162 ben  15  17  21
 163 prop tor  15  17  21  22
 164 prop tor  15  17  21  23
 165 ben  16  15  17
 166 prop tor  16  15  17  18
 167 prop tor  16  15  17  21
 168 ben  17  18  19
 169 prop tor  17  18  19  45
 170 prop tor  17  18  19  46
 171 prop tor  17  18  19  47
 172 ben  17  18  20
 173 prop tor  17  18  20  48
 174 prop tor  17  18  20  49
 175 prop tor  17  18  20  50
 176 ben  17  18  44
 177 ben  17  21  22
 178 ben  17  21  23
 179 prop tor  17  21  23  24
 180 prop tor  17  21  23  36
 181 ben  18  17  21
 182 prop tor  18  17  21  22
 183 prop tor  18  17  21  23
 184 ben  18  19  45
 185 ben  18  19  46
 186 ben  18  19  47
 187 ben  18  20  48
 188 ben  18  20  49
 189 ben  18  20  50
 190 ben  19  18  20
 191 prop tor  19  18  20  48
 192 prop tor  19  18  20  49
 193 prop tor  19  18  20  50
 194 ben  19  18  44
 195 prop tor  20  18  19  45
 196 prop tor  20  18  19  46
 197 prop tor  20  18  19  47
 198 ben  20  18  44
 199 prop tor  21  17  18  19
 200 prop tor  21  17  18  20
 201 prop tor  21  17  18  44
 202 ben  21  23  24
 203 prop tor  21  23  24  25
 204 prop tor  21  23  24  51
 205 ben  21  23  36
 206 prop tor  21  23  36  14
 207 prop tor  21  23  36  35
 208 ben  22  21  23
 209 prop tor  22  21  23  24
 210 prop tor  22  21  23  36
 211 ben  23  24  25
 212 prop tor  23  24  25  26
 213 prop tor  23  24  25  52
 214 ben  23  24  51
 215 ben  23  36  35
 216 ben  24  23  36
 217 prop tor  24  23  36  14
 218 prop tor  24  23  36  35
 219 ben  24  25  26
 220 prop tor  24  25  26  27
 221 prop tor  24  25  26  35
 222 ben  24  25  52
 223 ben  25  24  51
 224 ben  25  26  27
 225 prop tor  25  26  27  28
 226 prop tor  25  26  27  34
 227 ben  25  26  35
 228 prop tor  25  26  35  11
 229 prop tor  25  26  35  36
 230 ben  26  25  52
 231 ben  26  27  28
 232 prop tor  26  27  28  29
 233 prop tor  26  27  28  53
 234 ben  26  27  34
 235 prop tor  26  27  34  10
 236 prop tor  26  27  34  33
 237 ben  26  35  36
 238 prop tor  26  35  36  14
 239 prop tor  26  35  36  23
 240 ben  27  26  35
 241 prop tor  27  26  35  11
 242 prop tor  27  26  35  36
 243 ben  27  28  29
 244 prop tor  27  28  29  30
 245 prop tor  27  28  29  54
 246 ben  27  28  53
 247 ben  27  34  33
 248 ben  28  27  34
 249 prop tor  28  27  34  10
 250 prop tor  28  27  34  33
 251 ben  28  29  30
 252 prop tor  28  29  30  31
 253 prop tor  28  29  30  33
 254 ben  28  29  54
 255 ben  29  28  53
 256 ben  29  30  31
 257 prop tor  29  30  31   4
 258 prop tor  29  30  31  32
 259 ben  29  30  33
 260 prop tor  29  30  33   7
 261 prop tor  29  30  33  34
 262 ben  30  29  54
 263 ben  30  31  32
 264 ben  30  33  34
 265 prop tor  30  33  34  10
 266 prop tor  30  33  34  27
 267 prop tor  31   4   5   6
 268 prop tor  31   4   5   7
 269 ben  31  30  33
 270 prop tor  31  30  33   7
 271 prop tor  31  30  33  34
 272 prop tor  33   7   8   9
 273 prop tor  33   7   8  40
 274 prop tor  33  30  31   4
 275 prop tor  33  30  31  32
 276 prop tor  34  10  11  12
 277 prop tor  34  10  11  35
 278 prop tor  34  27  28  29
 279 prop tor  34  27  28  53
 280 prop tor  35  11  12  13
 281 prop tor  35  11  12  42
 282 prop tor  35  26  27  28
 283 prop tor  35  26  27  34
 284 prop tor  36  14  15  16
 285 prop tor  36  14  15  17
 286 prop tor  36  23  24  25
 287 prop tor  36  23  24  51
 288 prop tor  37   1   2   3
 289 ben  37   1  38
 290 ben  37   1  39
 291 prop tor  38   1   2   3
 292 ben  38   1  39
 293 prop tor  39   1   2   3
 294 prop tor  40   8   9  10
 295 prop tor  40   8   9  41
 296 prop tor  41   9  10  11
 297 prop tor  41   9  10  34
 298 prop tor  42  12  13  14
 299 prop tor  42  12  13  43
 300 prop tor  43  13  14  15
 301 prop tor  43  13  14  36
 302 prop tor  44  18  19  45
 303 prop tor  44  18  19  46
 304 prop tor  44  18  19  47
 305 prop tor  44  18  20  48
 306 prop tor  44  18  20  49
 307 prop tor  44  18  20  50
 308 ben  45  19  46
 309 ben  45  19  47
 310 ben  46  19  47
 311 ben  48  20  49
 312 ben  48  20  50
 313 ben  49  20  50
 314 prop tor  51  24  25  26
 315 prop tor  51  24  25  52
 316 prop tor  52  25  26  27
 317 prop tor  52  25  26  35
 318 prop tor  53  28  29  30
 319 prop tor  53  28  29  54
 320 prop tor  54  29  30  31
 321 prop tor  54  29  30  33
 322 lin bend prop tor   2   1   4   3
 323 lin bend prop tor   2   1   4   5
 324 lin bend prop tor   2   1   4  31
 325 lin bend prop tor  37   1   4   3
 326 lin bend prop tor  37   1   4   5
 327 lin bend prop tor  37   1   4  31
 328 lin bend prop tor  38   1   4   3
 329 lin bend prop tor  38   1   4   5
 330 lin bend prop tor  38   1   4  31
 331 lin bend prop tor  39   1   4   3
 332 lin bend prop tor  39   1   4   5
 333 lin bend prop tor  39   1   4  31
 nber bend=             106
 nber lin bend=           1
 nber prop tor=         167
 nber impr tor=           0
 nber tot redund int=         333
 Eigenvalues of G in red int coords
    Gval -0.00000000 -0.00000000 -0.00000000 -0.00000000 -0.00000000 -0.00000000 -0.00000000 -0.00000000
    Gval -0.00000000 -0.00000000 -0.00000000 -0.00000000 -0.00000000 -0.00000000 -0.00000000 -0.00000000
    Gval -0.00000000 -0.00000000 -0.00000000 -0.00000000 -0.00000000 -0.00000000 -0.00000000 -0.00000000
    Gval -0.00000000 -0.00000000 -0.00000000 -0.00000000 -0.00000000 -0.00000000 -0.00000000 -0.00000000
    Gval -0.00000000 -0.00000000 -0.00000000 -0.00000000 -0.00000000 -0.00000000 -0.00000000 -0.00000000
    Gval -0.00000000 -0.00000000 -0.00000000 -0.00000000 -0.00000000 -0.00000000 -0.00000000 -0.00000000
    Gval -0.00000000 -0.00000000 -0.00000000 -0.00000000 -0.00000000 -0.00000000 -0.00000000 -0.00000000
    Gval -0.00000000 -0.00000000 -0.00000000 -0.00000000 -0.00000000 -0.00000000 -0.00000000 -0.00000000
    Gval -0.00000000 -0.00000000 -0.00000000 -0.00000000 -0.00000000 -0.00000000 -0.00000000 -0.00000000
    Gval -0.00000000 -0.00000000 -0.00000000 -0.00000000 -0.00000000 -0.00000000 -0.00000000 -0.00000000
    Gval -0.00000000 -0.00000000  0.00000000  0.00000000  0.00000000  0.00000000  0.00000000  0.00000000
    Gval  0.00000000  0.00000000  0.00000000  0.00000000  0.00000000  0.00000000  0.00000000  0.00000000
    Gval  0.00000000  0.00000000  0.00000000  0.00000000  0.00000000  0.00000000  0.00000000  0.00000000
    Gval  0.00000000  0.00000000  0.00000000  0.00000000  0.00000000  0.00000000  0.00000000  0.00000000
    Gval  0.00000000  0.00000000  0.00000000  0.00000000  0.00000000  0.00000000  0.00000000  0.00000000
    Gval  0.00000000  0.00000000  0.00000000  0.00000000  0.00000000  0.00000000  0.00000000  0.00000000
    Gval  0.00000000  0.00000000  0.00000000  0.00000000  0.00000000  0.00000000  0.00000000  0.00000000
    Gval  0.00000000  0.00000000  0.00000000  0.00000000  0.00000000  0.00000000  0.00000000  0.00000000
    Gval  0.00000000  0.00000000  0.00000000  0.00000000  0.00000000  0.00000000  0.00000000  0.00000000
    Gval  0.00000000  0.00000000  0.00000000  0.00000000  0.00000000  0.00000000  0.00000000  0.00000000
    Gval  0.00000000  0.00000000  0.00000000  0.00000000  0.00000000  0.00000000  0.00000000  0.00000000
    Gval  0.00000000  0.00000000  0.00000000  0.00000000  0.00000000  0.00000000  0.00000000  0.00000000
    Gval  0.00000000  0.00000082  0.00000202  0.00000241  0.00000263  0.00000590  0.00000689  0.00000877
    Gval  0.00000987  0.00001087  0.00001111  0.00001548  0.00001601  0.00001713  0.00001775  0.00001831
    Gval  0.00002054  0.00002152  0.00002360  0.00002392  0.00002535  0.00002980  0.00003293  0.00003473
    Gval  0.00003598  0.00003996  0.00004643  0.00004894  0.00005111  0.00005289  0.00005517  0.00005889
    Gval  0.00006218  0.00006715  0.00006849  0.00007167  0.00007396  0.00008144  0.00008237  0.00008483
    Gval  0.00008649  0.00009138  0.00009377  0.00009456  0.00009597  0.00011287  0.00012045  0.00012250
    Gval  0.00013431  0.00013634  0.00013733  0.00014048  0.00014979  0.00015592  0.00015957  0.00016572
    Gval  0.00016850  0.00018175  0.00020173  0.00021493  0.00022235  0.00022724  0.00023111  0.00026743
    Gval  0.00028535  0.00028629  0.00029661  0.00032557  0.00034304  0.00035512  0.00036120  0.00038510
    Gval  0.00038907  0.00039260  0.00040932  0.00041429  0.00041871  0.00042341  0.00042973  0.00043579
    Gval  0.00043996  0.00044224  0.00046238  0.00046724  0.00046790  0.00049379  0.00052853  0.00053315
    Gval  0.00053739  0.00053916  0.00055319  0.00055533  0.00055584  0.00055610  0.00055695  0.00055869
    Gval  0.00058769  0.00059854  0.00059926  0.00059959  0.00059987  0.00060221  0.00061331  0.00064141
    Gval  0.00064488  0.00064574  0.00064750  0.00066672  0.00069006  0.00069606  0.00071668  0.00075479
    Gval  0.00081423  0.00091651  0.00095345  0.00109231  0.00109325  0.00109392  0.00109444  0.00114770
    Gval  0.00116366  0.00116394  0.00116414  0.00116448  0.00116542  0.00116555  0.00116963  0.00119404
    Gval  0.00119406  0.00128931  0.00131430  0.00141903  0.00151697  0.00157481  0.00174211  0.00175132
    Gval  0.00190706  0.00227283  0.00233889  0.00251907  0.00252319  0.00255573  0.00277736  0.00292497
    Gval  0.00302035  0.00304160  0.00308339  0.00308727  0.00342006  0.00356625  0.00365906  0.00366086
    Gval  0.00370714  0.00370867  0.00392486  6.03110166 17.18128897
  8.178429196564542E-007  8.178429196564542E-007
  2.015785900489847E-006  8.178429196564542E-007
  2.410515997777438E-006  8.178429196564542E-007
  2.634190561579605E-006  8.178429196564542E-007
  5.902727174391705E-006  8.178429196564542E-007
  6.892863190558597E-006  8.178429196564542E-007
  8.772768138720635E-006  8.178429196564542E-007
  9.869785779095288E-006  8.178429196564542E-007
  1.087094323933836E-005  8.178429196564542E-007
  1.110988584024410E-005  8.178429196564542E-007
  1.547872123583229E-005  8.178429196564542E-007
  1.601253200066781E-005  8.178429196564542E-007
  1.712549752275598E-005  8.178429196564542E-007
  1.775257075628009E-005  8.178429196564542E-007
  1.831041939305459E-005  8.178429196564542E-007
  2.053946543903695E-005  8.178429196564542E-007
  2.151869890200765E-005  8.178429196564542E-007
  2.360440538505299E-005  8.178429196564542E-007
  2.392454279911147E-005  8.178429196564542E-007
  2.535209669571184E-005  8.178429196564542E-007
  2.980060364525963E-005  8.178429196564542E-007
  3.293433824333525E-005  8.178429196564542E-007
  3.472738535271803E-005  8.178429196564542E-007
  3.597758963946896E-005  8.178429196564542E-007
  3.996338762329347E-005  8.178429196564542E-007
  4.643452196096738E-005  8.178429196564542E-007
  4.893620739253128E-005  8.178429196564542E-007
  5.110808322514944E-005  8.178429196564542E-007
  5.289485831399507E-005  8.178429196564542E-007
  5.516911902407982E-005  8.178429196564542E-007
  5.889447979585576E-005  8.178429196564542E-007
  6.218372685384249E-005  8.178429196564542E-007
  6.715339788309900E-005  8.178429196564542E-007
  6.849418153927416E-005  8.178429196564542E-007
  7.166729753127923E-005  8.178429196564542E-007
  7.395975836437126E-005  8.178429196564542E-007
  8.143609566514670E-005  8.178429196564542E-007
  8.237389541010907E-005  8.178429196564542E-007
  8.482882497022874E-005  8.178429196564542E-007
  8.649074138317686E-005  8.178429196564542E-007
  9.137888891457138E-005  8.178429196564542E-007
  9.377384424124104E-005  8.178429196564542E-007
  9.455936915080012E-005  8.178429196564542E-007
  9.596754935770232E-005  8.178429196564542E-007
  1.128662684946126E-004  8.178429196564542E-007
  1.204458153330512E-004  8.178429196564542E-007
  1.224986589840225E-004  8.178429196564542E-007
  1.343131583208203E-004  8.178429196564542E-007
  1.363446607946646E-004  8.178429196564542E-007
  1.373334963238758E-004  8.178429196564542E-007
  1.404783607103803E-004  8.178429196564542E-007
  1.497909915725322E-004  8.178429196564542E-007
  1.559246972546738E-004  8.178429196564542E-007
  1.595710729939420E-004  8.178429196564542E-007
  1.657157954732203E-004  8.178429196564542E-007
  1.684989176930009E-004  8.178429196564542E-007
  1.817484102878401E-004  8.178429196564542E-007
  2.017320982296990E-004  8.178429196564542E-007
  2.149335181346632E-004  8.178429196564542E-007
  2.223474327760242E-004  8.178429196564542E-007
  2.272395064837292E-004  8.178429196564542E-007
[...]
 nber times 1st assigned=          83           0
 nber times 1st assigned=          84           0
 nber times 1st assigned=          85           0
 nber times 1st assigned=          86           0
 nber times 1st assigned=          87           0
 nber times 1st assigned=          88           0
 nber times 1st assigned=          89           0
 nber times 1st assigned=          90           0
 nber times 1st assigned=          91           0
 nber times 1st assigned=          92           0
 nber times 1st assigned=          93           0
 nber times 1st assigned=          94           0
 nber times 1st assigned=          95           0
 nber times 1st assigned=          96           0
 nber times 1st assigned=          97           0
 nber times 1st assigned=          98           0
 nber times 1st assigned=          99           0
 nber times 1st assigned=         100           0
 nber times 1st assigned=         101           0
 nber times 1st assigned=         102           0
 nber times 1st assigned=         103           0
 nber times 1st assigned=         104           0
 nber times 1st assigned=         105           0
 nber times 1st assigned=         106           0
 nber times 1st assigned=         107           0
 nber times 1st assigned=         108           0
 nber times 1st assigned=         109           0
 nber times 1st assigned=         110           0
 nber times 1st assigned=         111           0
 nber times 1st assigned=         112           0
 nber times 1st assigned=         113           0
 nber times 1st assigned=         114           0
 nber times 1st assigned=         115           0
 nber times 1st assigned=         116           0
 nber times 1st assigned=         117           0
 nber times 1st assigned=         118           0
 nber times 1st assigned=         119           0
 nber times 1st assigned=         120           0
 nber times 1st assigned=         121           0
 nber times 1st assigned=         122           0
 nber times 1st assigned=         123           0
 nber times 1st assigned=         124           0
 nber times 1st assigned=         125           0
 nber times 1st assigned=         126           0
 nber times 1st assigned=         127           0
 nber times 1st assigned=         128           0
 nber times 1st assigned=         129           0
 nber times 1st assigned=         130           0
 nber times 1st assigned=         131           0
 nber times 1st assigned=         132           0
 nber times 1st assigned=         133           0
 nber times 1st assigned=         134           0
 nber times 1st assigned=         135           0
 nber times 1st assigned=         136           0
 nber times 1st assigned=         137           0
 nber times 1st assigned=         138           0
 nber times 1st assigned=         139           0
 nber times 1st assigned=         140           0
 nber times 1st assigned=         141           0
 nber times 1st assigned=         142           0
 nber times 1st assigned=         143           0
 nber times 1st assigned=         144           0
 nber times 1st assigned=         145           0
 nber times 1st assigned=         146           0
 nber times 1st assigned=         147           0
 nber times 1st assigned=         148           0
 nber times 1st assigned=         149           0
 nber times 1st assigned=         150           0
 nber times 1st assigned=         151           0
 nber times 1st assigned=         152           0
 nber times 1st assigned=         153           0
 nber times 1st assigned=         154           0
 nber times 1st assigned=         155           0
 nber times 1st assigned=         156           0
 nber times 1st assigned=         157           0
 nber times 1st assigned=         158           0
 nber times 1st assigned=         159           0
 nber times 1st assigned=         160           0
 nber times 1st assigned=         161           0
 nber times 1st assigned=         162           0
 modes represented=   177.996043519501     
 p1=
   -0.    0.    0.   -0.    0.    0. -176.   -5.    0.    3.   13.    1.    1.    0.    0.   -0.   -2.   -3.    0.    2.
   -1.   -1.   -1.   -0.   -0.    1.   -0.   -3.   -2.    2.   -2.   -0.   -1.   -7.   -1.   -0.    0.   -0.   -2.   -4.
    1.    0.   -0.    1.   -0.    2.   -0.    0.    0.    0.    2.    0.   -0.    0.   -2.   -0.   -0.   -0.   -0.   -0.
   -0.   -0.    0.    1.   -0.   -0.   -0.    0.   -1.   -1.   -0.    1.    0.   -0.   -0.    0.   -2.    1.   -1.   -0.
   -0.   -0.   -1.    0.   -0.    0.   -0.    2.   -2.    0.    1.    0.    0.    0.    2.   -0.   -0.   -0.   -0.    0.
    0.    1.   -0.    0.    0.    1.    1.   -0.   -0.    0.   -0.    0.    2.    0.   -0.   -0.   -0.   -0.   -0.   -0.
    1.    0.   -0.   -0.    0.    0.   -0.    0.   -0.   -0.   -0.    0.   -0.   -1.    0.    0.    0.   -0.   -0.   -0.
   -0.   -1.   -1.    0.   -0.   -0.   -0.    0.   -0.    0.   -0.    0.    0.   -0.   -0.   -0.    0.   -0.    0.   -0.
    0.    0.
 p2=
    0.    0.    0.   -0.    0.    0. -177.    7.   -2.    3.    0.   -1.   -1.   -0.   -0.    0.   -1.    6.   -0.    1.
    2.   -0.   -2.    1.   -1.   -0.   -0.    3.   -1.    3.   -0.    0.   -7.    0.   -1.    0.    0.    0.   -4.   -3.
    1.   -0.   -1.    2.    1.    2.   -0.   -0.   -0.    0.   -2.    0.   -0.   -2.    0.    0.    0.    0.   -0.   -0.
    0.   -1.    0.   -0.   -0.   -0.    0.   -1.   -0.   -0.    1.    1.   -0.   -0.   -0.    0.    2.    1.    1.    0.
   -0.    0.    0.    0.    0.    0.    1.    1.    2.    0.   -1.   -0.   -0.   -2.    0.   -0.   -0.   -0.    0.   -0.
    0.   -0.    0.    0.   -0.   -1.    1.   -0.    1.   -0.    0.    0.    2.    0.    0.   -0.    0.   -0.    0.   -0.
    1.   -0.   -0.   -0.   -1.    0.    0.    0.   -0.    0.   -0.    0.   -0.    1.    0.   -0.   -0.    0.   -0.   -0.
    1.   -0.   -1.    0.    0.    0.    0.    0.    0.    0.    0.   -0.    0.   -0.   -0.   -0.    0.    0.    0.    0.
   -0.   -0.

 Displacement: in terms of nc of 1 THEN of nc of 2

   1     freq=    -0. Q= -0.000 lam=    -0.0     freq=    -0. Q= -0.000 lam=    -0.0
   2     freq=    -0. Q=  0.000 lam=    -0.0     freq=    -0. Q=  0.000 lam=    -0.0
   3     freq=    -0. Q=  0.000 lam=    -0.0     freq=    -0. Q=  0.000 lam=    -0.0
   4     freq=     0. Q= -0.000 lam=     0.0     freq=    -0. Q= -0.000 lam=    -0.0
   5     freq=     0. Q=  0.000 lam=     0.0     freq=     0. Q=  0.000 lam=     0.0
   6     freq=     0. Q=  0.000 lam=     0.0     freq=     0. Q=  0.000 lam=     0.0
   7     freq=     8. Q= -2.048 lam=    17.4     freq=    10. Q= -2.247 lam=    25.1
   8     freq=    19. Q= -0.088 lam=     0.1     freq=    20. Q= -0.130 lam=     0.2
   9     freq=    29. Q=  0.002 lam=     0.0     freq=    25. Q=  0.048 lam=     0.0
  10     freq=    38. Q=  0.068 lam=     0.1     freq=    38. Q=  0.081 lam=     0.1
  11     freq=    52. Q=  0.367 lam=     3.5     freq=    54. Q=  0.011 lam=     0.0
  12     freq=    55. Q=  0.029 lam=     0.0     freq=    58. Q=  0.016 lam=     0.0
  13     freq=    63. Q=  0.028 lam=     0.0     freq=    65. Q=  0.022 lam=     0.0
  14     freq=    76. Q=  0.008 lam=     0.0     freq=    80. Q=  0.011 lam=     0.0
  15     freq=    89. Q=  0.003 lam=     0.0     freq=    92. Q=  0.003 lam=     0.0
  16     freq=   101. Q= -0.006 lam=     0.0     freq=   103. Q= -0.015 lam=     0.0
  17     freq=   110. Q= -0.078 lam=     0.3     freq=   115. Q= -0.036 lam=     0.1
  18     freq=   137. Q= -0.151 lam=     1.6     freq=   140. Q= -0.268 lam=     5.0
  19     freq=   168. Q=  0.001 lam=     0.0     freq=   170. Q=  0.018 lam=     0.0
  20     freq=   181. Q=  0.103 lam=     1.0     freq=   182. Q=  0.081 lam=     0.6
  21     freq=   183. Q= -0.038 lam=     0.1     freq=   186. Q= -0.124 lam=     1.4
  22     freq=   192. Q= -0.058 lam=     0.3     freq=   197. Q= -0.011 lam=     0.0
  23     freq=   201. Q= -0.037 lam=     0.1     freq=   203. Q= -0.090 lam=     0.8
  24     freq=   210. Q= -0.022 lam=     0.1     freq=   213. Q= -0.038 lam=     0.2
  25     freq=   234. Q= -0.009 lam=     0.0     freq=   234. Q= -0.067 lam=     0.5
  26     freq=   235. Q=  0.079 lam=     0.7     freq=   235. Q=  0.015 lam=     0.0
  27     freq=   256. Q= -0.000 lam=     0.0     freq=   265. Q= -0.002 lam=     0.0
  28     freq=   269. Q= -0.186 lam=     4.7     freq=   269. Q= -0.173 lam=     4.0
  29     freq=   278. Q= -0.123 lam=     2.1     freq=   270. Q= -0.056 lam=     0.4
  30     freq=   280. Q=  0.115 lam=     1.8     freq=   281. Q=  0.184 lam=     4.8
  31     freq=   298. Q= -0.131 lam=     2.6     freq=   296. Q= -0.030 lam=     0.1
  32     freq=   302. Q= -0.001 lam=     0.0     freq=   301. Q= -0.000 lam=     0.0
  33     freq=   326. Q= -0.041 lam=     0.3     freq=   338. Q= -0.495 lam=    41.3
  34     freq=   337. Q= -0.500 lam=    42.0     freq=   344. Q= -0.030 lam=     0.2
  35     freq=   351. Q= -0.068 lam=     0.8     freq=   358. Q= -0.052 lam=     0.5
  36     freq=   382. Q= -0.022 lam=     0.1     freq=   391. Q= -0.014 lam=     0.0
  37     freq=   392. Q=  0.035 lam=     0.2     freq=   394. Q=  0.014 lam=     0.0
  38     freq=   417. Q= -0.001 lam=     0.0     freq=   418. Q= -0.001 lam=     0.0
  39     freq=   429. Q= -0.128 lam=     3.5     freq=   434. Q= -0.312 lam=    21.1
  40     freq=   433. Q= -0.377 lam=    30.7     freq=   438. Q= -0.243 lam=    12.9
  41     freq=   438. Q=  0.101 lam=     2.3     freq=   443. Q=  0.064 lam=     0.9
  42     freq=   443. Q=  0.037 lam=     0.3     freq=   454. Q=  0.008 lam=     0.0
  43     freq=   448. Q= -0.017 lam=     0.1     freq=   463. Q= -0.045 lam=     0.5
  44     freq=   468. Q=  0.113 lam=     3.0     freq=   469. Q=  0.199 lam=     9.3
  45     freq=   470. Q= -0.042 lam=     0.4     freq=   471. Q= -0.047 lam=     0.5
  46     freq=   478. Q=  0.220 lam=    11.5     freq=   477. Q=  0.195 lam=     9.1
  47     freq=   485. Q= -0.004 lam=     0.0     freq=   501. Q= -0.024 lam=     0.1
  48     freq=   501. Q=  0.007 lam=     0.0     freq=   506. Q=  0.003 lam=     0.0
  49     freq=   505. Q=  0.022 lam=     0.1     freq=   515. Q=  0.007 lam=     0.0
  50     freq=   506. Q=  0.000 lam=     0.0     freq=   517. Q=  0.001 lam=     0.0
  51     freq=   525. Q=  0.194 lam=     9.8     freq=   524. Q=  0.175 lam=     8.0
  52     freq=   550. Q=  0.008 lam=     0.0     freq=   549. Q=  0.004 lam=     0.0
  53     freq=   572. Q= -0.003 lam=     0.0     freq=   579. Q= -0.002 lam=     0.0
  54     freq=   574. Q=  0.001 lam=     0.0     freq=   585. Q=  0.154 lam=     7.0
  55     freq=   581. Q= -0.146 lam=     6.2     freq=   592. Q= -0.003 lam=     0.0
  56     freq=   604. Q= -0.001 lam=     0.0     freq=   623. Q= -0.000 lam=     0.0
  57     freq=   616. Q= -0.013 lam=     0.1     freq=   625. Q= -0.014 lam=     0.1
  58     freq=   634. Q= -0.002 lam=     0.0     freq=   655. Q= -0.001 lam=     0.0
  59     freq=   652. Q= -0.000 lam=     0.0     freq=   664. Q= -0.000 lam=     0.0
  60     freq=   675. Q= -0.001 lam=     0.0     freq=   708. Q= -0.018 lam=     0.1
  61     freq=   703. Q= -0.001 lam=     0.0     freq=   719. Q= -0.004 lam=     0.0
  62     freq=   703. Q= -0.019 lam=     0.1     freq=   727. Q= -0.103 lam=     3.9
  63     freq=   715. Q=  0.007 lam=     0.0     freq=   746. Q=  0.001 lam=     0.0
  64     freq=   723. Q=  0.096 lam=     3.3     freq=   748. Q=  0.002 lam=     0.0
  65     freq=   748. Q= -0.003 lam=     0.0     freq=   752. Q= -0.002 lam=     0.0
  66     freq=   757. Q= -0.003 lam=     0.0     freq=   765. Q= -0.001 lam=     0.0
  67     freq=   757. Q= -0.002 lam=     0.0     freq=   779. Q= -0.004 lam=     0.0
  68     freq=   764. Q=  0.002 lam=     0.0     freq=   798. Q=  0.104 lam=     4.3
  69     freq=   793. Q= -0.109 lam=     4.7     freq=   798. Q= -0.004 lam=     0.0
  70     freq=   807. Q= -0.171 lam=    11.8     freq=   809. Q= -0.004 lam=     0.0
  71     freq=   809. Q= -0.003 lam=     0.0     freq=   810. Q= -0.160 lam=    10.3
  72     freq=   813. Q=  0.115 lam=     5.4     freq=   816. Q=  0.110 lam=     5.0
  73     freq=   814. Q=  0.004 lam=     0.0     freq=   817. Q=  0.001 lam=     0.0
  74     freq=   826. Q= -0.001 lam=     0.0     freq=   827. Q= -0.001 lam=     0.0
  75     freq=   827. Q= -0.010 lam=     0.0     freq=   830. Q= -0.002 lam=     0.0
  76     freq=   832. Q=  0.001 lam=     0.0     freq=   830. Q=  0.003 lam=     0.0
  77     freq=   850. Q= -0.221 lam=    20.7     freq=   852. Q= -0.221 lam=    20.8
  78     freq=   901. Q=  0.079 lam=     2.8     freq=   908. Q=  0.064 lam=     1.9
  79     freq=   920. Q= -0.063 lam=     1.8     freq=   929. Q= -0.091 lam=     3.9
  80     freq=   926. Q= -0.052 lam=     1.2     freq=   942. Q= -0.000 lam=     0.0
  81     freq=   945. Q= -0.000 lam=     0.0     freq=   954. Q= -0.000 lam=     0.0
  82     freq=   957. Q= -0.000 lam=     0.0     freq=   964. Q= -0.001 lam=     0.0
  83     freq=   974. Q= -0.063 lam=     1.9     freq=   968. Q= -0.000 lam=     0.0
  84     freq=   975. Q=  0.001 lam=     0.0     freq=   972. Q=  0.044 lam=     0.9
  85     freq=   976. Q= -0.000 lam=     0.0     freq=   977. Q= -0.001 lam=     0.0
  86     freq=   988. Q=  0.001 lam=     0.0     freq=   980. Q=  0.000 lam=     0.0
  87     freq=   988. Q= -0.000 lam=     0.0     freq=   983. Q= -0.067 lam=     2.2
  88     freq=  1053. Q=  0.225 lam=    26.7     freq=  1053. Q=  0.080 lam=     3.3
  89     freq=  1054. Q= -0.219 lam=    25.3     freq=  1055. Q= -0.311 lam=    51.1
  90     freq=  1061. Q=  0.026 lam=     0.4     freq=  1065. Q=  0.046 lam=     1.1
  91     freq=  1076. Q=  0.100 lam=     5.3     freq=  1074. Q=  0.094 lam=     4.7
  92     freq=  1093. Q=  0.053 lam=     1.6     freq=  1086. Q=  0.017 lam=     0.1
  93     freq=  1121. Q=  0.006 lam=     0.0     freq=  1098. Q=  0.022 lam=     0.3
  94     freq=  1137. Q=  0.026 lam=     0.4     freq=  1140. Q=  0.211 lam=    25.5
  95     freq=  1141. Q=  0.215 lam=    26.4     freq=  1145. Q=  0.006 lam=     0.0
  96     freq=  1156. Q= -0.000 lam=     0.0     freq=  1154. Q= -0.000 lam=     0.0
  97     freq=  1162. Q= -0.036 lam=     0.8     freq=  1160. Q= -0.045 lam=     1.2
  98     freq=  1169. Q= -0.008 lam=     0.0     freq=  1173. Q= -0.007 lam=     0.0
  99     freq=  1186. Q= -0.017 lam=     0.2     freq=  1184. Q= -0.002 lam=     0.0
 100     freq=  1192. Q=  0.006 lam=     0.0     freq=  1196. Q=  0.004 lam=     0.0
 101     freq=  1198. Q=  0.003 lam=     0.0     freq=  1200. Q=  0.007 lam=     0.0
 102     freq=  1224. Q=  0.077 lam=     3.7     freq=  1224. Q=  0.048 lam=     1.4
 103     freq=  1230. Q= -0.010 lam=     0.1     freq=  1234. Q= -0.064 lam=     2.5
 104     freq=  1236. Q=  0.033 lam=     0.7     freq=  1245. Q=  0.001 lam=     0.0
 105     freq=  1244. Q=  0.008 lam=     0.0     freq=  1255. Q=  0.003 lam=     0.0
 106     freq=  1274. Q=  0.168 lam=    18.0     freq=  1273. Q=  0.170 lam=    18.5
 107     freq=  1301. Q=  0.168 lam=    18.4     freq=  1296. Q=  0.157 lam=    16.0
 108     freq=  1317. Q= -0.002 lam=     0.0     freq=  1313. Q= -0.007 lam=     0.0
 109     freq=  1322. Q= -0.073 lam=     3.5     freq=  1317. Q= -0.088 lam=     5.1
 110     freq=  1350. Q=  0.025 lam=     0.4     freq=  1347. Q=  0.042 lam=     1.2
 111     freq=  1363. Q= -0.040 lam=     1.1     freq=  1354. Q= -0.005 lam=     0.0
 112     freq=  1365. Q=  0.011 lam=     0.1     freq=  1365. Q=  0.016 lam=     0.2
 113     freq=  1378. Q=  0.267 lam=    49.1     freq=  1370. Q=  0.227 lam=    35.2
 114     freq=  1382. Q=  0.003 lam=     0.0     freq=  1383. Q=  0.000 lam=     0.0
 115     freq=  1392. Q= -0.021 lam=     0.3     freq=  1387. Q= -0.003 lam=     0.0
 116     freq=  1400. Q= -0.000 lam=     0.0     freq=  1392. Q= -0.027 lam=     0.5
 117     freq=  1402. Q= -0.005 lam=     0.0     freq=  1397. Q= -0.001 lam=     0.0
 118     freq=  1416. Q= -0.058 lam=     2.4     freq=  1406. Q= -0.055 lam=     2.2
 119     freq=  1420. Q= -0.015 lam=     0.1     freq=  1417. Q= -0.057 lam=     2.3
 120     freq=  1430. Q= -0.039 lam=     1.1     freq=  1423. Q= -0.026 lam=     0.5
 121     freq=  1439. Q=  0.112 lam=     9.1     freq=  1435. Q=  0.131 lam=    12.3
 122     freq=  1443. Q=  0.014 lam=     0.1     freq=  1462. Q=  0.023 lam=     0.4
 123     freq=  1460. Q= -0.024 lam=     0.4     freq=  1468. Q= -0.003 lam=     0.0
 124     freq=  1463. Q= -0.004 lam=     0.0     freq=  1472. Q= -0.002 lam=     0.0
 125     freq=  1476. Q=  0.048 lam=     1.7     freq=  1479. Q=  0.086 lam=     5.4
 126     freq=  1481. Q=  0.048 lam=     1.7     freq=  1481. Q=  0.041 lam=     1.2
 127     freq=  1485. Q= -0.000 lam=     0.0     freq=  1482. Q= -0.000 lam=     0.0
 128     freq=  1492. Q=  0.050 lam=     1.8     freq=  1485. Q=  0.016 lam=     0.2
 129     freq=  1498. Q= -0.040 lam=     1.2     freq=  1494. Q= -0.040 lam=     1.2
 130     freq=  1505. Q= -0.000 lam=     0.0     freq=  1507. Q= -0.000 lam=     0.0
 131     freq=  1509. Q= -0.006 lam=     0.0     freq=  1524. Q= -0.026 lam=     0.5
 132     freq=  1522. Q=  0.025 lam=     0.5     freq=  1530. Q=  0.010 lam=     0.1
 133     freq=  1546. Q= -0.017 lam=     0.2     freq=  1562. Q= -0.005 lam=     0.0
 134     freq=  1554. Q= -0.181 lam=    25.4     freq=  1572. Q= -0.192 lam=    29.0
 135     freq=  1558. Q=  0.040 lam=     1.2     freq=  1575. Q=  0.004 lam=     0.0
 136     freq=  1577. Q=  0.010 lam=     0.1     freq=  1590. Q=  0.008 lam=     0.1
 137     freq=  1597. Q=  0.001 lam=     0.0     freq=  1609. Q=  0.002 lam=     0.0
 138     freq=  1599. Q= -0.008 lam=     0.1     freq=  1617. Q= -0.060 lam=     2.9
 139     freq=  1622. Q= -0.025 lam=     0.5     freq=  1627. Q= -0.000 lam=     0.0
 140     freq=  1686. Q= -0.005 lam=     0.0     freq=  1665. Q= -0.008 lam=     0.0
 141     freq=  1723. Q= -0.001 lam=     0.0     freq=  1702. Q= -0.202 lam=    34.6
 142     freq=  1725. Q= -0.189 lam=    30.7     freq=  1707. Q= -0.002 lam=     0.0
 143     freq=  1756. Q= -0.204 lam=    36.5     freq=  1739. Q= -0.243 lam=    51.5
 144     freq=  2386. Q=  0.012 lam=     0.2     freq=  2383. Q=  0.012 lam=     0.2
 145     freq=  3023. Q= -0.016 lam=     0.4     freq=  3009. Q= -0.015 lam=     0.3
 146     freq=  3034. Q= -0.000 lam=     0.0     freq=  3022. Q= -0.000 lam=     0.0
 147     freq=  3038. Q= -0.017 lam=     0.4     freq=  3027. Q= -0.018 lam=     0.5
 148     freq=  3080. Q=  0.011 lam=     0.2     freq=  3057. Q=  0.024 lam=     0.8
 149     freq=  3085. Q= -0.014 lam=     0.3     freq=  3066. Q= -0.003 lam=     0.0
 150     freq=  3092. Q=  0.000 lam=     0.0     freq=  3080. Q=  0.000 lam=     0.0
 151     freq=  3095. Q= -0.014 lam=     0.3     freq=  3083. Q= -0.012 lam=     0.2
 152     freq=  3112. Q=  0.007 lam=     0.1     freq=  3104. Q=  0.009 lam=     0.1
 153     freq=  3132. Q=  0.000 lam=     0.0     freq=  3129. Q=  0.000 lam=     0.0
 154     freq=  3143. Q= -0.009 lam=     0.1     freq=  3138. Q= -0.007 lam=     0.1
 155     freq=  3198. Q= -0.001 lam=     0.0     freq=  3182. Q= -0.001 lam=     0.0
 156     freq=  3199. Q= -0.000 lam=     0.0     freq=  3182. Q= -0.000 lam=     0.0
 157     freq=  3205. Q=  0.001 lam=     0.0     freq=  3190. Q=  0.004 lam=     0.0
 158     freq=  3205. Q= -0.009 lam=     0.1     freq=  3190. Q= -0.008 lam=     0.1
 159     freq=  3213. Q=  0.001 lam=     0.0     freq=  3200. Q=  0.000 lam=     0.0
 160     freq=  3213. Q= -0.001 lam=     0.0     freq=  3200. Q= -0.001 lam=     0.0
 161     freq=  3224. Q=  0.006 lam=     0.1     freq=  3212. Q=  0.003 lam=     0.0
 162     freq=  3225. Q=  0.017 lam=     0.4     freq=  3213. Q=  0.017 lam=     0.5

 total reorg energy (cm**-1, kcal/mol)=      502.      524.      1.44      1.50
 Nber of molecules processed=           2
