 Enter ifcurve (0=recti, 1=orth curvi, 2=apprx curvi, -1 = skip
 And atom ordering flag, 0= never changes, 1= use the first order thenceforth,
  2= deduce it (does read on fail), 3= always read it
 Reading file: 
 ./CDT-A_3_C0S2.log                                                             
                                          
  Entering Gaussian System, Link 0=g16                                          
  
 Gaussian format, type: g94, g98, g03= F F F
  #P Geom=AllCheck Guess=TCheck SCRF=Check GenChk RB3LYP TD(FC,Read)/6-3    
 energy type= TD      
 Original G94 input coords:
  6 16.022364 21.653050 19.177419
  6 14.590676 21.224658 19.515330
  6 13.817761 22.265687 20.331645
  7 13.833921 20.807828 18.291525
  6 13.421745 19.463711 18.223217
  8 13.668914 18.672499 19.120281
  6 12.675078 19.046136 17.018574
  6 12.246426 17.717416 16.911019
  6 11.547249 17.295611 15.798500
  6 11.238037 18.181868 14.729961
  6 10.509064 17.755683 13.562235
  6 10.049908 16.419364 13.402590
  6  9.353284 16.023215 12.280163
  6  9.076613 16.937171 11.255704
  6  8.327949 16.469921 10.073296
  8  7.941765 15.324877  9.950762
  7  8.075967 17.436931  9.066210
  6  7.363444 17.015053  7.912060
  6  7.885826 16.501148  6.757349
  6  6.876758 16.187025  5.817038
  6  6.805517 15.614893  4.416335
  6  5.312992 15.616420  4.156728
  6  4.439910 15.245172  3.102996
  6  3.127060 15.471492  3.420869
 16  2.931972 16.145836  5.021576
  6  4.643521 16.118633  5.256727
  6  5.603497 16.468752  6.276055
 16  5.607846 17.125699  7.871221
  6  8.487663 18.792832  9.125944
  8  8.233798 19.563814  8.222368
  6  9.231814 19.197739 10.334334
  6  9.662021 20.525922 10.444619
  6 10.359716 20.945522 11.557803
  6 10.666049 20.056531 12.624597
  6 11.394152 20.483002 13.792846
  6 11.853034 21.819356 13.956451
  6 12.549632 22.213918 15.080523
  6 12.826449 21.297267 16.101905
  6 13.575430 21.753961 17.292405
  8 13.952481 22.912031 17.396374
  6 12.390805 19.960990 15.983431
  6 11.668572 19.538510 14.826191
  6 10.234520 18.699367 12.527024
  6  9.511512 18.276635 11.368425
  1 16.576643 21.804141 20.107758
  1 16.041521 22.580407 18.606414
  1 16.534865 20.873717 18.607493
  1 14.640430 20.307132 20.097408
  1 13.746537 23.217501 19.806844
  1 14.335250 22.428159 21.281061
  1 12.810002 21.908394 20.558735
  1 12.478034 17.036826 17.720030
  1 11.232441 16.262859 15.750330
  1 10.244565 15.686798 14.172871
  1  9.005718 15.004637 12.164913
  1  8.948918 16.363592  6.612336
  1  7.230586 14.606323  4.362700
  1  7.348904 16.232462  3.692380
  1  4.751482 14.830788  2.152993
  1  2.249936 15.287525  2.820285
  1  9.431262 21.207465  9.636025
  1 10.675388 21.977795 11.608705
  1 11.657480 22.554173 13.188462
  1 12.895785 23.232561 15.198742
 nber atoms=          64
  Total Energy, E(TD-HF/TD-DFT) =  -2591.14715115                               
  
          32          49 "  -2591.14715115"
After scan for Atom:   Atom  AN      X      Y      Z        X      Y      Z        X      Y      Z   
After scan for Atom:   Atom  AN      X      Y      Z        X      Y      Z        X      Y      Z   
After scan for Atom:   Atom  AN      X      Y      Z        X      Y      Z        X      Y      Z   
After scan for Atom:   Atom  AN      X      Y      Z        X      Y      Z        X      Y      Z   
After scan for Atom:   Atom  AN      X      Y      Z        X      Y      Z        X      Y      Z   
After scan for Atom:   Atom  AN      X      Y      Z        X      Y      Z        X      Y      Z   
After scan for Atom:   Atom  AN      X      Y      Z        X      Y      Z        X      Y      Z   
After scan for Atom:   Atom  AN      X      Y      Z        X      Y      Z        X      Y      Z   
After scan for Atom:   Atom  AN      X      Y      Z        X      Y      Z        X      Y      Z   
After scan for Atom:   Atom  AN      X      Y      Z        X      Y      Z        X      Y      Z   
After scan for Atom:   Atom  AN      X      Y      Z        X      Y      Z        X      Y      Z   
After scan for Atom:   Atom  AN      X      Y      Z        X      Y      Z        X      Y      Z   
After scan for Atom:   Atom  AN      X      Y      Z        X      Y      Z        X      Y      Z   
After scan for Atom:   Atom  AN      X      Y      Z        X      Y      Z        X      Y      Z   
After scan for Atom:   Atom  AN      X      Y      Z        X      Y      Z        X      Y      Z   
After scan for Atom:   Atom  AN      X      Y      Z        X      Y      Z        X      Y      Z   
After scan for Atom:   Atom  AN      X      Y      Z        X      Y      Z        X      Y      Z   
After scan for Atom:   Atom  AN      X      Y      Z        X      Y      Z        X      Y      Z   
After scan for Atom:   Atom  AN      X      Y      Z        X      Y      Z        X      Y      Z   
After scan for Atom:   Atom  AN      X      Y      Z        X      Y      Z        X      Y      Z   
After scan for Atom:   Atom  AN      X      Y      Z        X      Y      Z        X      Y      Z   
After scan for Atom:   Atom  AN      X      Y      Z        X      Y      Z        X      Y      Z   
After scan for Atom:   Atom  AN      X      Y      Z        X      Y      Z        X      Y      Z   
After scan for Atom:   Atom  AN      X      Y      Z        X      Y      Z        X      Y      Z   
After scan for Atom:   Atom  AN      X      Y      Z        X      Y      Z        X      Y      Z   
After scan for Atom:   Atom  AN      X      Y      Z        X      Y      Z        X      Y      Z   
After scan for Atom:   Atom  AN      X      Y      Z        X      Y      Z        X      Y      Z   
After scan for Atom:   Atom  AN      X      Y      Z        X      Y      Z        X      Y      Z   
After scan for Atom:   Atom  AN      X      Y      Z        X      Y      Z        X      Y      Z   
After scan for Atom:   Atom  AN      X      Y      Z        X      Y      Z        X      Y      Z   
After scan for Atom:   Atom  AN      X      Y      Z        X      Y      Z        X      Y      Z   
After scan for Atom:   Atom  AN      X      Y      Z        X      Y      Z        X      Y      Z   
After scan for Atom:   Atom  AN      X      Y      Z        X      Y      Z        X      Y      Z   
After scan for Atom:   Atom  AN      X      Y      Z        X      Y      Z        X      Y      Z   
After scan for Atom:   Atom  AN      X      Y      Z        X      Y      Z        X      Y      Z   
After scan for Atom:   Atom  AN      X      Y      Z        X      Y      Z        X      Y      Z   
After scan for Atom:   Atom  AN      X      Y      Z        X      Y      Z        X      Y      Z   
After scan for Atom:   Atom  AN      X      Y      Z        X      Y      Z        X      Y      Z   
After scan for Atom:   Atom  AN      X      Y      Z        X      Y      Z        X      Y      Z   
After scan for Atom:   Atom  AN      X      Y      Z        X      Y      Z        X      Y      Z   
After scan for Atom:   Atom  AN      X      Y      Z        X      Y      Z        X      Y      Z   
After scan for Atom:   Atom  AN      X      Y      Z        X      Y      Z        X      Y      Z   
After scan for Atom:   Atom  AN      X      Y      Z        X      Y      Z        X      Y      Z   
After scan for Atom:   Atom  AN      X      Y      Z        X      Y      Z        X      Y      Z   
After scan for Atom:   Atom  AN      X      Y      Z        X      Y      Z        X      Y      Z   
After scan for Atom:   Atom  AN      X      Y      Z        X      Y      Z        X      Y      Z   
After scan for Atom:   Atom  AN      X      Y      Z        X      Y      Z        X      Y      Z   
After scan for Atom:   Atom  AN      X      Y      Z        X      Y      Z        X      Y      Z   
After scan for Atom:   Atom  AN      X      Y      Z        X      Y      Z        X      Y      Z   
After scan for Atom:   Atom  AN      X      Y      Z        X      Y      Z        X      Y      Z   
After scan for Atom:   Atom  AN      X      Y      Z        X      Y      Z        X      Y      Z   
After scan for Atom:   Atom  AN      X      Y      Z        X      Y      Z        X      Y      Z   
After scan for Atom:   Atom  AN      X      Y      Z        X      Y      Z        X      Y      Z   
After scan for Atom:   Atom  AN      X      Y      Z        X      Y      Z        X      Y      Z   
After scan for Atom:   Atom  AN      X      Y      Z        X      Y      Z        X      Y      Z   
After scan for Atom:   Atom  AN      X      Y      Z        X      Y      Z        X      Y      Z   
After scan for Atom:   Atom  AN      X      Y      Z        X      Y      Z        X      Y      Z   
After scan for Atom:   Atom  AN      X      Y      Z        X      Y      Z        X      Y      Z   
After scan for Atom:   Atom  AN      X      Y      Z        X      Y      Z        X      Y      Z   
After scan for Atom:   Atom  AN      X      Y      Z        X      Y      Z        X      Y      Z   
After scan for Atom:   Atom  AN      X      Y      Z        X      Y      Z        X      Y      Z   
After scan for Atom:   Atom  AN      X      Y      Z        X      Y      Z        X      Y      Z   
 g94    frequencies=
     0.0    0.0    0.0    0.0    0.0    0.0   10.8   14.4   20.7   29.5
    30.8   54.5   58.5   76.4   80.4   89.0   93.5  106.6  118.9  130.8
   141.7  167.9  178.1  186.5  193.2  207.1  216.0  221.9  233.6  234.9
   238.5  252.6  256.2  280.2  299.6  301.9  320.9  335.6  354.2  374.8
   389.2  392.8  417.3  431.2  436.0  437.1  439.0  447.3  455.9  470.5
   474.0  483.2  487.4  498.9  506.2  508.0  528.9  536.8  547.3  569.8
   570.7  573.4  578.2  579.1  605.2  611.6  615.7  633.2  635.2  652.8
   670.0  679.4  697.6  699.5  706.7  713.6  713.8  722.3  752.8  754.0
   759.6  761.7  773.0  801.5  808.4  812.4  815.1  819.2  824.3  828.6
   832.7  845.8  849.0  876.7  902.1  919.8  931.1  936.3  945.0  946.6
   956.7  969.0  974.6  976.4  987.9  988.5 1001.1 1008.4 1061.1 1073.9
  1093.0 1109.9 1120.4 1135.4 1143.8 1148.8 1155.3 1160.9 1170.0 1173.6
  1185.6 1195.9 1200.0 1211.7 1224.2 1232.4 1234.3 1242.1 1250.3 1265.7
  1297.2 1311.8 1318.4 1345.2 1351.5 1361.1 1366.0 1374.9 1382.1 1391.4
  1400.1 1402.8 1403.8 1416.1 1429.2 1431.1 1438.1 1441.7 1444.6 1457.1
  1460.1 1466.2 1470.9 1484.9 1491.8 1497.5 1505.1 1510.8 1522.4 1532.3
  1546.4 1554.4 1568.8 1570.6 1581.0 1599.2 1599.3 1622.6 1685.6 1715.8
  1725.1 1749.4 3027.5 3034.2 3038.3 3055.3 3092.2 3095.4 3112.3 3132.4
  3142.7 3198.2 3198.5 3199.2 3204.8 3205.0 3209.2 3212.9 3213.0 3224.3
  3224.5 3245.9
 g94    symmetries=
                                                 A      A      A      A
       A      A      A      A      A      A      A      A      A      A
       A      A      A      A      A      A      A      A      A      A
       A      A      A      A      A      A      A      A      A      A
       A      A      A      A      A      A      A      A      A      A
       A      A      A      A      A      A      A      A      A      A
       A      A      A      A      A      A      A      A      A      A
       A      A      A      A      A      A      A      A      A      A
       A      A      A      A      A      A      A      A      A      A
       A      A      A      A      A      A      A      A      A      A
       A      A      A      A      A      A      A      A      A      A
       A      A      A      A      A      A      A      A      A      A
       A      A      A      A      A      A      A      A      A      A
       A      A      A      A      A      A      A      A      A      A
       A      A      A      A      A      A      A      A      A      A
       A      A      A      A      A      A      A      A      A      A
       A      A      A      A      A      A      A      A      A      A
       A      A      A      A      A      A      A      A      A      A
       A      A      A      A      A      A      A      A      A      A
       A      A
 atomic masses:
 12.0000 12.0000 12.0000 14.0031 12.0000 15.9949 12.0000 12.0000 12.0000 12.0000
 12.0000 12.0000 12.0000 12.0000 12.0000 15.9949 14.0031 12.0000 12.0000 12.0000
 12.0000 12.0000 12.0000 12.0000 31.9721 12.0000 12.0000 31.9721 12.0000 15.9949
 12.0000 12.0000 12.0000 12.0000 12.0000 12.0000 12.0000 12.0000 12.0000 15.9949
 12.0000 12.0000 12.0000 12.0000  1.0078  1.0078  1.0078  1.0078  1.0078  1.0078
  1.0078  1.0078  1.0078  1.0078  1.0078  1.0078  1.0078  1.0078  1.0078  1.0078
  1.0078  1.0078  1.0078  1.0078
 looking for force constants in 
 ./CDT-A_3_C0S2.fchk                                                            
  
 Cartesian Force Constants                  R   N=       18528                  
  
 n3=         192       18528
 g94-fc frequencies=
    -1.4   -0.8   -0.0    0.0    0.0    0.6   10.8   14.4   20.7   29.5
    30.8   54.5   58.5   76.4   80.4   89.0   93.5  106.6  118.9  130.8
   141.7  167.9  178.1  186.5  193.2  207.1  216.0  221.9  233.6  234.9
   238.5  252.6  256.2  280.2  299.6  301.9  320.9  335.6  354.3  374.9
   389.2  392.9  417.4  431.2  436.0  437.1  439.0  447.3  455.9  470.5
   474.1  483.2  487.4  498.9  506.3  508.0  528.9  536.8  547.4  569.8
   570.7  573.5  578.2  579.1  605.2  611.6  615.7  633.2  635.3  652.8
   670.0  679.4  697.6  699.5  706.7  713.7  713.8  722.3  752.8  754.0
   759.6  761.7  773.0  801.5  808.4  812.4  815.2  819.3  824.3  828.6
   832.7  845.8  849.0  876.7  902.1  919.8  931.1  936.3  945.1  946.6
   956.7  969.1  974.7  976.5  987.9  988.5 1001.1 1008.4 1061.1 1073.9
  1093.0 1110.0 1120.5 1135.4 1143.8 1148.8 1155.3 1161.0 1170.1 1173.6
  1185.6 1195.9 1200.1 1211.7 1224.2 1232.5 1234.3 1242.1 1250.3 1265.7
  1297.3 1311.9 1318.4 1345.2 1351.6 1361.1 1366.1 1374.9 1382.2 1391.5
  1400.1 1402.9 1403.8 1416.2 1429.2 1431.1 1438.1 1441.7 1444.7 1457.2
  1460.1 1466.3 1471.0 1485.0 1491.8 1497.6 1505.2 1510.9 1522.4 1532.3
  1546.5 1554.5 1568.8 1570.7 1581.0 1599.2 1599.3 1622.7 1685.7 1715.8
  1725.1 1749.5 3027.6 3034.2 3038.4 3055.4 3092.2 3095.4 3112.4 3132.4
  3142.8 3198.2 3198.6 3199.2 3204.9 3205.1 3209.3 3212.9 3213.1 3224.4
  3224.6 3246.0
 at 99999: n3=         192
 symm operator            1 :  F  nop=           0
 symm operator            2 :  F  nop=           0
 symm operator            3 :  F  nop=           0
 symm operator            4 :  F  nop=           0
 symm operator            5 :  F  nop=           0
 symm operator            6 :  F  nop=           0
 symm operator            7 :  F  nop=           0
 The point group of the molecule is  C1
 Symmetry rotation matrix:
   1.00000   0.00000   0.00000
   0.00000   1.00000   0.00000
   0.00000   0.00000   1.00000

 Projecting out zero-frequency components
 generating redundant internal coords
         300        3600          64
 search for int coords
   1 str   2   1   1.532
   2 str   3   2   1.532
   3 str   4   2   1.498
   4 str   5   4   1.408
   5 str   6   5   1.221
   6 str   7   5   1.478
   7 str   8   7   1.400
   8 str   9   8   1.380
   9 str  10   9   1.422
  10 str  11  10   1.441
  11 str  12  11   1.422
  12 str  13  12   1.379
  13 str  14  13   1.400
  14 str  15  14   1.475
  15 str  16  15   1.215
  16 str  17  15   1.419
  17 str  18  17   1.420
  18 str  19  18   1.368
  19 str  20  19   1.415
  20 str  21  20   1.515
  21 str  22  21   1.515
  22 str  23  22   1.418
  23 str  24  23   1.370
  24 str  25  24   1.748
  25 str  26  22   1.382
  26 str  26  25   1.728
  27 str  27  20   1.382
  28 str  27  26   1.443
  29 str  28  18   1.760
  30 str  28  27   1.725
  31 str  29  17   1.418
  32 str  30  29   1.215
  33 str  31  29   1.476
  34 str  32  31   1.400
  35 str  33  32   1.379
  36 str  34  33   1.422
  37 str  35  34   1.441
  38 str  36  35   1.422
  39 str  37  36   1.380
  40 str  38  37   1.400
  41 str  39   4   1.400
  42 str  39  38   1.479
  43 str  40  39   1.222
  44 str  41   7   1.410
  45 str  41  38   1.410
  46 str  42  10   1.427
  47 str  42  35   1.427
  48 str  42  41   1.428
  49 str  43  11   1.427
  50 str  43  34   1.427
  51 str  44  14   1.413
  52 str  44  31   1.413
  53 str  44  43   1.430
  54 str  45   1   1.093
  55 str  46   1   1.089
  56 str  47   1   1.093
  57 str  48   2   1.088
  58 str  49   3   1.089
  59 str  50   3   1.093
  60 str  51   3   1.093
  61 str  52   8   1.082
  62 str  53   9   1.081
  63 str  54  12   1.081
  64 str  55  13   1.082
  65 str  56  19   1.082
  66 str  57  21   1.096
  67 str  58  21   1.096
  68 str  59  23   1.082
  69 str  60  24   1.079
  70 str  61  32   1.082
  71 str  62  33   1.081
  72 str  63  36   1.081
  73 str  64  37   1.082
 nber stretches=          73
  74 ben   1   2   3
  75 prop tor   1   2   3  49
  76 prop tor   1   2   3  50
  77 prop tor   1   2   3  51
  78 ben   1   2   4
  79 prop tor   1   2   4   5
  80 prop tor   1   2   4  39
  81 ben   1   2  48
  82 ben   2   1  45
  83 ben   2   1  46
  84 ben   2   1  47
  85 ben   2   3  49
  86 ben   2   3  50
  87 ben   2   3  51
  88 ben   2   4   5
  89 prop tor   2   4   5   6
  90 prop tor   2   4   5   7
  91 ben   2   4  39
  92 prop tor   2   4  39  38
  93 prop tor   2   4  39  40
  94 ben   3   2   4
  95 prop tor   3   2   4   5
  96 prop tor   3   2   4  39
  97 ben   3   2  48
  98 prop tor   4   2   3  49
  99 prop tor   4   2   3  50
 100 prop tor   4   2   3  51
 101 ben   4   2  48
 102 ben   4   5   6
 103 ben   4   5   7
 104 prop tor   4   5   7   8
 105 prop tor   4   5   7  41
 106 ben   4  39  38
 107 ben   4  39  40
 108 ben   5   4  39
 109 prop tor   5   4  39  38
 110 prop tor   5   4  39  40
 111 ben   5   7   8
 112 prop tor   5   7   8   9
 113 prop tor   5   7   8  52
 114 ben   5   7  41
 115 prop tor   5   7  41  38
 116 prop tor   5   7  41  42
 117 ben   6   5   7
 118 prop tor   6   5   7   8
 119 prop tor   6   5   7  41
 120 ben   7   8   9
 121 prop tor   7   8   9  10
 122 prop tor   7   8   9  53
 123 ben   7   8  52
 124 ben   7  41  38
 125 ben   7  41  42
 126 prop tor   7  41  42  10
 127 prop tor   7  41  42  35
 128 ben   8   7  41
 129 prop tor   8   7  41  38
 130 prop tor   8   7  41  42
 131 ben   8   9  10
 132 prop tor   8   9  10  11
 133 prop tor   8   9  10  42
 134 ben   8   9  53
 135 ben   9   8  52
 136 ben   9  10  11
 137 prop tor   9  10  11  12
 138 prop tor   9  10  11  43
 139 ben   9  10  42
 140 prop tor   9  10  42  35
 141 prop tor   9  10  42  41
 142 ben  10   9  53
 143 ben  10  11  12
 144 prop tor  10  11  12  13
 145 prop tor  10  11  12  54
 146 ben  10  11  43
 147 prop tor  10  11  43  34
 148 prop tor  10  11  43  44
 149 ben  10  42  35
 150 ben  10  42  41
 151 ben  11  10  42
 152 prop tor  11  10  42  35
 153 prop tor  11  10  42  41
 154 ben  11  12  13
 155 prop tor  11  12  13  14
 156 prop tor  11  12  13  55
 157 ben  11  12  54
 158 ben  11  43  34
 159 ben  11  43  44
 160 prop tor  11  43  44  14
 161 prop tor  11  43  44  31
 162 ben  12  11  43
 163 prop tor  12  11  43  34
 164 prop tor  12  11  43  44
 165 ben  12  13  14
 166 prop tor  12  13  14  15
 167 prop tor  12  13  14  44
 168 ben  12  13  55
 169 ben  13  12  54
 170 ben  13  14  15
 171 prop tor  13  14  15  16
 172 prop tor  13  14  15  17
 173 ben  13  14  44
 174 prop tor  13  14  44  31
 175 prop tor  13  14  44  43
 176 ben  14  13  55
 177 ben  14  15  16
 178 ben  14  15  17
 179 prop tor  14  15  17  18
 180 prop tor  14  15  17  29
 181 ben  14  44  31
 182 ben  14  44  43
 183 ben  15  14  44
 184 prop tor  15  14  44  31
 185 prop tor  15  14  44  43
 186 ben  15  17  18
 187 prop tor  15  17  18  19
 188 prop tor  15  17  18  28
 189 ben  15  17  29
 190 prop tor  15  17  29  30
 191 prop tor  15  17  29  31
 192 ben  16  15  17
 193 prop tor  16  15  17  18
 194 prop tor  16  15  17  29
 195 ben  17  18  19
 196 prop tor  17  18  19  20
 197 prop tor  17  18  19  56
 198 ben  17  18  28
 199 prop tor  17  18  28  27
 200 ben  17  29  30
 201 ben  17  29  31
 202 prop tor  17  29  31  32
 203 prop tor  17  29  31  44
 204 ben  18  17  29
 205 prop tor  18  17  29  30
 206 prop tor  18  17  29  31
 207 ben  18  19  20
 208 prop tor  18  19  20  21
 209 prop tor  18  19  20  27
 210 ben  18  19  56
 211 ben  18  28  27
 212 ben  19  18  28
 213 prop tor  19  18  28  27
 214 ben  19  20  21
 215 prop tor  19  20  21  22
 216 prop tor  19  20  21  57
 217 prop tor  19  20  21  58
 218 ben  19  20  27
 219 prop tor  19  20  27  26
 220 prop tor  19  20  27  28
 221 ben  20  19  56
 222 ben  20  21  22
 223 prop tor  20  21  22  23
 224 prop tor  20  21  22  26
 225 ben  20  21  57
 226 ben  20  21  58
 227 ben  20  27  26
 228 ben  20  27  28
 229 prop tor  20  27  28  18
 230 ben  21  20  27
 231 prop tor  21  20  27  26
 232 prop tor  21  20  27  28
 233 ben  21  22  23
 234 prop tor  21  22  23  24
 235 prop tor  21  22  23  59
 236 ben  21  22  26
 237 prop tor  21  22  26  25
 238 prop tor  21  22  26  27
 239 ben  22  21  57
 240 ben  22  21  58
 241 ben  22  23  24
 242 prop tor  22  23  24  25
 243 prop tor  22  23  24  60
 244 ben  22  23  59
 245 ben  22  26  25
 246 ben  22  26  27
 247 prop tor  22  26  27  20
 248 prop tor  22  26  27  28
 249 ben  23  22  26
 250 prop tor  23  22  26  25
 251 prop tor  23  22  26  27
 252 ben  23  24  25
 253 prop tor  23  24  25  26
 254 ben  23  24  60
 255 ben  24  23  59
 256 ben  24  25  26
 257 prop tor  24  25  26  22
 258 prop tor  24  25  26  27
 259 ben  25  24  60
 260 ben  25  26  27
 261 prop tor  25  26  27  20
 262 prop tor  25  26  27  28
 263 prop tor  26  22  23  24
 264 prop tor  26  22  23  59
 265 ben  26  27  28
 266 prop tor  26  27  28  18
 267 prop tor  27  20  21  22
 268 prop tor  27  20  21  57
 269 prop tor  27  20  21  58
 270 prop tor  28  18  19  20
 271 prop tor  28  18  19  56
 272 prop tor  29  17  18  19
 273 prop tor  29  17  18  28
 274 ben  29  31  32
 275 prop tor  29  31  32  33
 276 prop tor  29  31  32  61
 277 ben  29  31  44
 278 prop tor  29  31  44  14
 279 prop tor  29  31  44  43
 280 ben  30  29  31
 281 prop tor  30  29  31  32
 282 prop tor  30  29  31  44
 283 ben  31  32  33
 284 prop tor  31  32  33  34
 285 prop tor  31  32  33  62
 286 ben  31  32  61
 287 ben  31  44  43
 288 ben  32  31  44
 289 prop tor  32  31  44  14
 290 prop tor  32  31  44  43
 291 ben  32  33  34
 292 prop tor  32  33  34  35
 293 prop tor  32  33  34  43
 294 ben  32  33  62
 295 ben  33  32  61
 296 ben  33  34  35
 297 prop tor  33  34  35  36
 298 prop tor  33  34  35  42
 299 ben  33  34  43
 300 prop tor  33  34  43  11
 301 prop tor  33  34  43  44
 302 ben  34  33  62
 303 ben  34  35  36
 304 prop tor  34  35  36  37
 305 prop tor  34  35  36  63
 306 ben  34  35  42
 307 prop tor  34  35  42  10
 308 prop tor  34  35  42  41
 309 ben  34  43  44
 310 prop tor  34  43  44  14
 311 prop tor  34  43  44  31
 312 ben  35  34  43
 313 prop tor  35  34  43  11
 314 prop tor  35  34  43  44
 315 ben  35  36  37
 316 prop tor  35  36  37  38
 317 prop tor  35  36  37  64
 318 ben  35  36  63
 319 ben  35  42  41
 320 ben  36  35  42
 321 prop tor  36  35  42  10
 322 prop tor  36  35  42  41
 323 ben  36  37  38
 324 prop tor  36  37  38  39
 325 prop tor  36  37  38  41
 326 ben  36  37  64
 327 ben  37  36  63
 328 ben  37  38  39
 329 prop tor  37  38  39   4
 330 prop tor  37  38  39  40
 331 ben  37  38  41
 332 prop tor  37  38  41   7
 333 prop tor  37  38  41  42
 334 ben  38  37  64
 335 ben  38  39  40
 336 ben  38  41  42
 337 prop tor  38  41  42  10
 338 prop tor  38  41  42  35
 339 prop tor  39   4   5   6
 340 prop tor  39   4   5   7
 341 ben  39  38  41
 342 prop tor  39  38  41   7
 343 prop tor  39  38  41  42
 344 prop tor  41   7   8   9
 345 prop tor  41   7   8  52
 346 prop tor  41  38  39   4
 347 prop tor  41  38  39  40
 348 prop tor  42  10  11  12
 349 prop tor  42  10  11  43
 350 prop tor  42  35  36  37
 351 prop tor  42  35  36  63
 352 prop tor  43  11  12  13
 353 prop tor  43  11  12  54
 354 prop tor  43  34  35  36
 355 prop tor  43  34  35  42
 356 prop tor  44  14  15  16
 357 prop tor  44  14  15  17
 358 prop tor  44  31  32  33
 359 prop tor  44  31  32  61
 360 prop tor  45   1   2   3
 361 prop tor  45   1   2   4
 362 prop tor  45   1   2  48
 363 ben  45   1  46
 364 ben  45   1  47
 365 prop tor  46   1   2   3
 366 prop tor  46   1   2   4
 367 prop tor  46   1   2  48
 368 ben  46   1  47
 369 prop tor  47   1   2   3
 370 prop tor  47   1   2   4
 371 prop tor  47   1   2  48
 372 prop tor  48   2   3  49
 373 prop tor  48   2   3  50
 374 prop tor  48   2   3  51
 375 prop tor  48   2   4   5
 376 prop tor  48   2   4  39
 377 ben  49   3  50
 378 ben  49   3  51
 379 ben  50   3  51
 380 prop tor  52   8   9  10
 381 prop tor  52   8   9  53
 382 prop tor  53   9  10  11
 383 prop tor  53   9  10  42
 384 prop tor  54  12  13  14
 385 prop tor  54  12  13  55
 386 prop tor  55  13  14  15
 387 prop tor  55  13  14  44
 388 prop tor  56  19  20  21
 389 prop tor  56  19  20  27
 390 prop tor  57  21  22  23
 391 prop tor  57  21  22  26
 392 ben  57  21  58
 393 prop tor  58  21  22  23
 394 prop tor  58  21  22  26
 395 prop tor  59  23  24  25
 396 prop tor  59  23  24  60
 397 prop tor  60  24  25  26
 398 prop tor  61  32  33  34
 399 prop tor  61  32  33  62
 400 prop tor  62  33  34  35
 401 prop tor  62  33  34  43
 402 prop tor  63  36  37  38
 403 prop tor  63  36  37  64
 404 prop tor  64  37  38  39
 405 prop tor  64  37  38  41
 nber bend=             128
 nber lin bend=           0
 nber prop tor=         204
 nber impr tor=           0
 nber tot redund int=         405
 Eigenvalues of G in red int coords
    Gval -0.00000000 -0.00000000 -0.00000000 -0.00000000 -0.00000000 -0.00000000 -0.00000000 -0.00000000
    Gval -0.00000000 -0.00000000 -0.00000000 -0.00000000 -0.00000000 -0.00000000 -0.00000000 -0.00000000
    Gval -0.00000000 -0.00000000 -0.00000000 -0.00000000 -0.00000000 -0.00000000 -0.00000000 -0.00000000
    Gval -0.00000000 -0.00000000 -0.00000000 -0.00000000 -0.00000000 -0.00000000 -0.00000000 -0.00000000
    Gval -0.00000000 -0.00000000 -0.00000000 -0.00000000 -0.00000000 -0.00000000 -0.00000000 -0.00000000
    Gval -0.00000000 -0.00000000 -0.00000000 -0.00000000 -0.00000000 -0.00000000 -0.00000000 -0.00000000
    Gval -0.00000000 -0.00000000 -0.00000000 -0.00000000 -0.00000000 -0.00000000 -0.00000000 -0.00000000
    Gval -0.00000000 -0.00000000 -0.00000000 -0.00000000 -0.00000000 -0.00000000 -0.00000000 -0.00000000
    Gval -0.00000000 -0.00000000 -0.00000000 -0.00000000 -0.00000000 -0.00000000 -0.00000000 -0.00000000
    Gval -0.00000000 -0.00000000 -0.00000000 -0.00000000 -0.00000000 -0.00000000 -0.00000000 -0.00000000
    Gval -0.00000000 -0.00000000 -0.00000000 -0.00000000 -0.00000000 -0.00000000 -0.00000000 -0.00000000
    Gval -0.00000000 -0.00000000 -0.00000000 -0.00000000 -0.00000000 -0.00000000 -0.00000000 -0.00000000
    Gval -0.00000000 -0.00000000 -0.00000000 -0.00000000 -0.00000000 -0.00000000 -0.00000000 -0.00000000
    Gval -0.00000000 -0.00000000 -0.00000000 -0.00000000 -0.00000000 -0.00000000 -0.00000000 -0.00000000
    Gval -0.00000000  0.00000000  0.00000000  0.00000000  0.00000000  0.00000000  0.00000000  0.00000000
    Gval  0.00000000  0.00000000  0.00000000  0.00000000  0.00000000  0.00000000  0.00000000  0.00000000
    Gval  0.00000000  0.00000000  0.00000000  0.00000000  0.00000000  0.00000000  0.00000000  0.00000000
    Gval  0.00000000  0.00000000  0.00000000  0.00000000  0.00000000  0.00000000  0.00000000  0.00000000
    Gval  0.00000000  0.00000000  0.00000000  0.00000000  0.00000000  0.00000000  0.00000000  0.00000000
    Gval  0.00000000  0.00000000  0.00000000  0.00000000  0.00000000  0.00000000  0.00000000  0.00000000
    Gval  0.00000000  0.00000000  0.00000000  0.00000000  0.00000000  0.00000000  0.00000000  0.00000000
    Gval  0.00000000  0.00000000  0.00000000  0.00000000  0.00000000  0.00000000  0.00000000  0.00000000
    Gval  0.00000000  0.00000000  0.00000000  0.00000000  0.00000000  0.00000000  0.00000000  0.00000000
    Gval  0.00000000  0.00000000  0.00000000  0.00000000  0.00000000  0.00000000  0.00000000  0.00000000
    Gval  0.00000000  0.00000000  0.00000000  0.00000000  0.00000000  0.00000000  0.00000000  0.00000000
    Gval  0.00000000  0.00000000  0.00000000  0.00000000  0.00000000  0.00000000  0.00000000  0.00000000
    Gval  0.00000000  0.00000000  0.00000000  0.00000000  0.00000000  0.00000000  0.00000000  0.00000000
    Gval  0.00000000  0.00000000  0.00000000  0.00000030  0.00000038  0.00000122  0.00000179  0.00000273
    Gval  0.00000417  0.00000515  0.00000580  0.00000767  0.00000927  0.00001095  0.00001252  0.00001294
    Gval  0.00001511  0.00001552  0.00001642  0.00001758  0.00001827  0.00001929  0.00001944  0.00002168
    Gval  0.00002396  0.00002472  0.00002481  0.00002561  0.00002737  0.00003004  0.00003460  0.00003676
    Gval  0.00003898  0.00003994  0.00004769  0.00004884  0.00005100  0.00005114  0.00005300  0.00005529
    Gval  0.00005713  0.00005954  0.00006130  0.00006759  0.00006986  0.00007188  0.00007289  0.00007292
    Gval  0.00008032  0.00008150  0.00008245  0.00008466  0.00008712  0.00008790  0.00009317  0.00009323
    Gval  0.00009498  0.00010042  0.00010305  0.00011118  0.00011786  0.00012247  0.00013375  0.00013526
    Gval  0.00013602  0.00013728  0.00014038  0.00015512  0.00015618  0.00015863  0.00015975  0.00016564
    Gval  0.00018135  0.00018750  0.00019785  0.00020647  0.00021828  0.00022199  0.00022834  0.00023018
    Gval  0.00025382  0.00027308  0.00028558  0.00028589  0.00029023  0.00029948  0.00030279  0.00030807
    Gval  0.00034159  0.00036022  0.00036908  0.00037377  0.00037969  0.00038544  0.00038683  0.00039080
    Gval  0.00039230  0.00040050  0.00042281  0.00042405  0.00042760  0.00043214  0.00043554  0.00044080
    Gval  0.00044199  0.00046201  0.00046611  0.00046883  0.00048574  0.00049493  0.00053385  0.00053716
    Gval  0.00054486  0.00055409  0.00055598  0.00055601  0.00057865  0.00058332  0.00059676  0.00059849
    Gval  0.00059924  0.00059956  0.00059985  0.00060219  0.00060925  0.00062108  0.00062409  0.00063144
    Gval  0.00064073  0.00064423  0.00064499  0.00064682  0.00067023  0.00069377  0.00069772  0.00079541
    Gval  0.00081332  0.00093306  0.00098331  0.00101316  0.00108137  0.00109325  0.00109418  0.00109488
    Gval  0.00109538  0.00110476  0.00114208  0.00114296  0.00116542  0.00116559  0.00116589  0.00116615
    Gval  0.00117117  0.00117176  0.00118436  0.00120736  0.00126159  0.00129534  0.00133665  0.00137495
    Gval  0.00138168  0.00148205  0.00156325  0.00166023  0.00171515  0.00177955  0.00191839  0.00195224
    Gval  0.00208437  0.00228009  0.00233910  0.00252106  0.00252505  0.00255985  0.00266389  0.00278920
    Gval  0.00292190  0.00302345  0.00302505  0.00304208  0.00308128  0.00309612  0.00367503  0.00367680
    Gval  0.00372173  0.00372341  0.00374113  0.00394496  0.00408077
  2.972923465801342E-007  2.972923465801342E-007
  3.755233322395468E-007  2.972923465801342E-007
  1.223471863569670E-006  2.972923465801342E-007
  1.785606816274430E-006  2.972923465801342E-007
  2.727341567595876E-006  2.972923465801342E-007
  4.171930578946278E-006  2.972923465801342E-007
  5.154740545903344E-006  2.972923465801342E-007
  5.796719066902118E-006  2.972923465801342E-007
  7.668056229635358E-006  2.972923465801342E-007
  9.274769465012040E-006  2.972923465801342E-007
  1.095119693971016E-005  2.972923465801342E-007
  1.251671173198825E-005  2.972923465801342E-007
  1.294134390362094E-005  2.972923465801342E-007
  1.510510280113252E-005  2.972923465801342E-007
  1.551884951554214E-005  2.972923465801342E-007
  1.642489244172407E-005  2.972923465801342E-007
  1.758167159252045E-005  2.972923465801342E-007
  1.827184435430192E-005  2.972923465801342E-007
  1.928665674035907E-005  2.972923465801342E-007
  1.943911314007133E-005  2.972923465801342E-007
  2.167666142631576E-005  2.972923465801342E-007
  2.395959904719953E-005  2.972923465801342E-007
  2.471627022708638E-005  2.972923465801342E-007
  2.480648571823426E-005  2.972923465801342E-007
  2.560835774807287E-005  2.972923465801342E-007
  2.737053955178097E-005  2.972923465801342E-007
  3.004250808816328E-005  2.972923465801342E-007
  3.460150536133611E-005  2.972923465801342E-007
  3.675794568213443E-005  2.972923465801342E-007
  3.897884225437843E-005  2.972923465801342E-007
  3.994043452954557E-005  2.972923465801342E-007
  4.768679716782438E-005  2.972923465801342E-007
  4.883769667586464E-005  2.972923465801342E-007
  5.100470337154258E-005  2.972923465801342E-007
  5.114058995578489E-005  2.972923465801342E-007
  5.299622497978216E-005  2.972923465801342E-007
  5.528926263409381E-005  2.972923465801342E-007
  5.713139733573663E-005  2.972923465801342E-007
  5.953523286657961E-005  2.972923465801342E-007
  6.129827948601153E-005  2.972923465801342E-007
  6.758761333560129E-005  2.972923465801342E-007
  6.985950673808634E-005  2.972923465801342E-007
  7.188171337252961E-005  2.972923465801342E-007
  7.288529199437354E-005  2.972923465801342E-007
  7.292339526509307E-005  2.972923465801342E-007
  8.031688121916889E-005  2.972923465801342E-007
  8.150117738666648E-005  2.972923465801342E-007
  8.245013609060450E-005  2.972923465801342E-007
  8.466011533263289E-005  2.972923465801342E-007
  8.711890246781016E-005  2.972923465801342E-007
  8.790302114586177E-005  2.972923465801342E-007
  9.316657508881959E-005  2.972923465801342E-007
  9.322783190960526E-005  2.972923465801342E-007
  9.497506944455609E-005  2.972923465801342E-007
  1.004171312783062E-004  2.972923465801342E-007
  1.030541440568059E-004  2.972923465801342E-007
  1.111756305234787E-004  2.972923465801342E-007
  1.178577692143889E-004  2.972923465801342E-007
  1.224709162863470E-004  2.972923465801342E-007
  1.337546517742198E-004  2.972923465801342E-007
  1.352567706227554E-004  2.972923465801342E-007
  1.360216671762523E-004  2.972923465801342E-007
  1.372754761792155E-004  2.972923465801342E-007
  1.403791497662116E-004  2.972923465801342E-007
  1.551152059467795E-004  2.972923465801342E-007
  1.561832693503233E-004  2.972923465801342E-007
  1.586294562239625E-004  2.972923465801342E-007
  1.597544043399423E-004  2.972923465801342E-007
  1.656398561147817E-004  2.972923465801342E-007
  1.813530672608317E-004  2.972923465801342E-007
  1.874986556262750E-004  2.972923465801342E-007
  1.978477145482794E-004  2.972923465801342E-007
  2.064717043277396E-004  2.972923465801342E-007
  2.182810364326469E-004  2.972923465801342E-007
  2.219866409473842E-004  2.972923465801342E-007
  2.283379423751524E-004  2.972923465801342E-007
  2.301771819393186E-004  2.972923465801342E-007
  2.538211384368386E-004  2.972923465801342E-007
  2.730807230581959E-004  2.972923465801342E-007
  2.855830576212410E-004  2.972923465801342E-007
  2.858860766399389E-004  2.972923465801342E-007
  2.902315229365648E-004  2.972923465801342E-007
  2.994804843754398E-004  2.972923465801342E-007
  3.027904083204571E-004  2.972923465801342E-007
  3.080710433622269E-004  2.972923465801342E-007
  3.415926499977726E-004  2.972923465801342E-007
  3.602248753170073E-004  2.972923465801342E-007
  3.690751710443174E-004  2.972923465801342E-007
  3.737696311926800E-004  2.972923465801342E-007
  3.796870787744025E-004  2.972923465801342E-007
  3.854438932651947E-004  2.972923465801342E-007
  3.868313083555691E-004  2.972923465801342E-007
  3.908027382960525E-004  2.972923465801342E-007
  3.922989505187169E-004  2.972923465801342E-007
  4.004969518751161E-004  2.972923465801342E-007
  4.228051930288060E-004  2.972923465801342E-007
  4.240479956468616E-004  2.972923465801342E-007
  4.275973831083546E-004  2.972923465801342E-007
  4.321445012847142E-004  2.972923465801342E-007
  4.355436947298854E-004  2.972923465801342E-007
  4.408022175336458E-004  2.972923465801342E-007
  4.419860855848569E-004  2.972923465801342E-007
  4.620094599247574E-004  2.972923465801342E-007
  4.661050123793816E-004  2.972923465801342E-007
  4.688265730197135E-004  2.972923465801342E-007
  4.857359913231855E-004  2.972923465801342E-007
  4.949326993284038E-004  2.972923465801342E-007
  5.338489433904938E-004  2.972923465801342E-007
  5.371632461244970E-004  2.972923465801342E-007
  5.448582397915225E-004  2.972923465801342E-007
  5.540889793010095E-004  2.972923465801342E-007
  5.559764596988431E-004  2.972923465801342E-007
  5.560124471662418E-004  2.972923465801342E-007
  5.786478457698888E-004  2.972923465801342E-007
  5.833228233148003E-004  2.972923465801342E-007
  5.967592900764915E-004  2.972923465801342E-007
  5.984896266254570E-004  2.972923465801342E-007
  5.992365467880940E-004  2.972923465801342E-007
  5.995623364590225E-004  2.972923465801342E-007
  5.998468537593452E-004  2.972923465801342E-007
  6.021870092350531E-004  2.972923465801342E-007
  6.092521273813498E-004  2.972923465801342E-007
  6.210811189809967E-004  2.972923465801342E-007
  6.240924023083637E-004  2.972923465801342E-007
  6.314400371086702E-004  2.972923465801342E-007
  6.407319570947732E-004  2.972923465801342E-007
  6.442321434240391E-004  2.972923465801342E-007
  6.449890008096736E-004  2.972923465801342E-007
  6.468178409470019E-004  2.972923465801342E-007
  6.702294326468714E-004  2.972923465801342E-007
  6.937713574589375E-004  2.972923465801342E-007
  6.977225220984178E-004  2.972923465801342E-007
  7.954061988647019E-004  2.972923465801342E-007
  8.133156088973805E-004  2.972923465801342E-007
  9.330578618220282E-004  2.972923465801342E-007
  9.833086786214232E-004  2.972923465801342E-007
  1.013164707632238E-003  2.972923465801342E-007
  1.081368556101058E-003  2.972923465801342E-007
  1.093253725095287E-003  2.972923465801342E-007
  1.094183015942850E-003  2.972923465801342E-007
  1.094882629339046E-003  2.972923465801342E-007
  1.095378499500985E-003  2.972923465801342E-007
  1.104760859071036E-003  2.972923465801342E-007
  1.142079583534782E-003  2.972923465801342E-007
  1.142961045273437E-003  2.972923465801342E-007
  1.165417941985734E-003  2.972923465801342E-007
  1.165592682998884E-003  2.972923465801342E-007
  1.165888017652599E-003  2.972923465801342E-007
  1.166146763096994E-003  2.972923465801342E-007
  1.171172563202811E-003  2.972923465801342E-007
  1.171759950048284E-003  2.972923465801342E-007
  1.184357063566631E-003  2.972923465801342E-007
  1.207356046499916E-003  2.972923465801342E-007
  1.261591540824974E-003  2.972923465801342E-007
  1.295339818642843E-003  2.972923465801342E-007
  1.336654908197835E-003  2.972923465801342E-007
  1.374951428344384E-003  2.972923465801342E-007
  1.381676393675682E-003  2.972923465801342E-007
  1.482045687518740E-003  2.972923465801342E-007
  1.563249499884223E-003  2.972923465801342E-007
  1.660230624597247E-003  2.972923465801342E-007
  1.715146663777115E-003  2.972923465801342E-007
  1.779553142239472E-003  2.972923465801342E-007
  1.918392945480796E-003  2.972923465801342E-007
  1.952244885628658E-003  2.972923465801342E-007
  2.084368335718115E-003  2.972923465801342E-007
  2.280086008819163E-003  2.972923465801342E-007
  2.339098783570538E-003  2.972923465801342E-007
  2.521064138135267E-003  2.972923465801342E-007
  2.525046186961146E-003  2.972923465801342E-007
  2.559848860023063E-003  2.972923465801342E-007
  2.663885121158889E-003  2.972923465801342E-007
  2.789199940835892E-003  2.972923465801342E-007
  2.921903482762323E-003  2.972923465801342E-007
  3.023446976769267E-003  2.972923465801342E-007
  3.025053497851454E-003  2.972923465801342E-007
  3.042077375003252E-003  2.972923465801342E-007
  3.081279086959576E-003  2.972923465801342E-007
  3.096118258037450E-003  2.972923465801342E-007
  3.675034584928749E-003  2.972923465801342E-007
  3.676796101975702E-003  2.972923465801342E-007
  3.721726601697163E-003  2.972923465801342E-007
  3.723405725233384E-003  2.972923465801342E-007
  3.741133150216471E-003  2.972923465801342E-007
  3.944959211045145E-003  2.972923465801342E-007
  4.080768706214228E-003  2.972923465801342E-007
 cut=1d-8, nber non-redundant internal coords=         186
 Check on Eigenvals of non-red overlap matrix:
  0.00000030  0.00000038  0.00000122  0.00000179  0.00000273  0.00000417  0.00000515  0.00000580
  0.00000767  0.00000927  0.00001095  0.00001252  0.00001294  0.00001511  0.00001552  0.00001642
  0.00001758  0.00001827  0.00001929  0.00001944  0.00002168  0.00002396  0.00002472  0.00002481
  0.00002561  0.00002737  0.00003004  0.00003460  0.00003676  0.00003898  0.00003994  0.00004769
  0.00004884  0.00005100  0.00005114  0.00005300  0.00005529  0.00005713  0.00005954  0.00006130
  0.00006759  0.00006986  0.00007188  0.00007289  0.00007292  0.00008032  0.00008150  0.00008245
  0.00008466  0.00008712  0.00008790  0.00009317  0.00009323  0.00009498  0.00010042  0.00010305
  0.00011118  0.00011786  0.00012247  0.00013375  0.00013526  0.00013602  0.00013728  0.00014038
  0.00015512  0.00015618  0.00015863  0.00015975  0.00016564  0.00018135  0.00018750  0.00019785
  0.00020647  0.00021828  0.00022199  0.00022834  0.00023018  0.00025382  0.00027308  0.00028558
  0.00028589  0.00029023  0.00029948  0.00030279  0.00030807  0.00034159  0.00036022  0.00036908
  0.00037377  0.00037969  0.00038544  0.00038683  0.00039080  0.00039230  0.00040050  0.00042281
  0.00042405  0.00042760  0.00043214  0.00043554  0.00044080  0.00044199  0.00046201  0.00046611
  0.00046883  0.00048574  0.00049493  0.00053385  0.00053716  0.00054486  0.00055409  0.00055598
  0.00055601  0.00057865  0.00058332  0.00059676  0.00059849  0.00059924  0.00059956  0.00059985
  0.00060219  0.00060925  0.00062108  0.00062409  0.00063144  0.00064073  0.00064423  0.00064499
  0.00064682  0.00067023  0.00069377  0.00069772  0.00079541  0.00081332  0.00093306  0.00098331
  0.00101316  0.00108137  0.00109325  0.00109418  0.00109488  0.00109538  0.00110476  0.00114208
  0.00114296  0.00116542  0.00116559  0.00116589  0.00116615  0.00117117  0.00117176  0.00118436
  0.00120736  0.00126159  0.00129534  0.00133665  0.00137495  0.00138168  0.00148205  0.00156325
  0.00166023  0.00171515  0.00177955  0.00191839  0.00195224  0.00208437  0.00228009  0.00233910
  0.00252106  0.00252505  0.00255985  0.00266389  0.00278920  0.00292190  0.00302345  0.00302505
  0.00304208  0.00308128  0.00309612  0.00367503  0.00367680  0.00372173  0.00372341  0.00374113
  0.00394496  0.00408077
 Checking for correct frequencies
 recalc frequencies=
    -0.0   -0.0    0.0    0.0    0.0    0.0   10.8   14.4   20.7   29.5
    30.8   54.5   58.5   76.4   80.4   89.0   93.5  106.6  118.9  130.8
   141.7  167.9  178.1  186.5  193.2  207.1  216.0  221.9  233.6  234.9
   238.5  252.6  256.2  280.2  299.6  301.9  320.9  335.6  354.3  374.9
   389.2  392.9  417.4  431.2  436.0  437.1  439.0  447.3  455.9  470.5
   474.1  483.2  487.4  498.9  506.3  508.0  528.9  536.8  547.4  569.8
   570.7  573.5  578.2  579.1  605.2  611.6  615.7  633.2  635.3  652.8
   670.0  679.4  697.6  699.5  706.7  713.7  713.8  722.3  752.8  754.0
   759.6  761.7  773.0  801.5  808.4  812.4  815.2  819.3  824.3  828.6
   832.7  845.8  849.0  876.7  902.1  919.8  931.1  936.3  945.1  946.6
   956.7  969.1  974.7  976.5  987.9  988.5 1001.1 1008.4 1061.1 1073.9
  1093.0 1110.0 1120.5 1135.4 1143.8 1148.8 1155.3 1161.0 1170.1 1173.6
  1185.6 1195.9 1200.1 1211.7 1224.2 1232.5 1234.3 1242.1 1250.3 1265.7
  1297.3 1311.9 1318.4 1345.2 1351.6 1361.1 1366.1 1374.9 1382.2 1391.5
  1400.1 1402.9 1403.8 1416.2 1429.2 1431.1 1438.1 1441.7 1444.7 1457.2
  1460.1 1466.3 1471.0 1485.0 1491.8 1497.6 1505.2 1510.9 1522.4 1532.3
  1546.5 1554.5 1568.8 1570.7 1581.0 1599.2 1599.3 1622.7 1685.7 1715.8
  1725.1 1749.5 3027.6 3034.2 3038.4 3055.4 3092.2 3095.4 3112.4 3132.4
  3142.8 3198.2 3198.6 3199.2 3204.9 3205.1 3209.3 3212.9 3213.1 3224.4
  3224.6 3246.0
 recalc symmetries=
                                                                       
                                                                       
                                                                       
                                                                       
                                                                       
                                                                       
                                                                       
                                                                       
                                                                       
                                                                       
                                                                       
                                                                       
                                                                       
                                                                       
                                                                       
                                                                       
                                                                       
                                                                       
                                                                       
               
 recalc freqs check OK
 Zero-point lengths:
 10.0000 10.0000 10.0000 10.0000 10.0000 10.0000 75.4223 65.3767 54.4699 45.6343
 44.6383 33.5946 32.4200 28.3596 27.6458 26.2749 25.6410 24.0164 22.7320 21.6774
 20.8234 19.1311 18.5777 18.1541 17.8346 17.2266 16.8671 16.6436 16.2202 16.1768
 16.0539 15.5978 15.4881 14.8105 14.3229 14.2678 13.8401 13.5331 13.1717 12.8046
 12.5665 12.5078 12.1351 11.9385 11.8725 11.8574 11.8317 11.7222 11.6112 11.4291
 11.3863 11.2775 11.2297 11.0987 11.0182 10.9996 10.7795 10.7005 10.5964 10.3854
 10.3770 10.3525 10.3098 10.3017 10.0773 10.0247  9.9907  9.8522  9.8360  9.7032
  9.5777  9.5112  9.3862  9.3733  9.3256  9.2801  9.2791  9.2244  9.0357  9.0281
  8.9949  8.9826  8.9168  8.7567  8.7191  8.6977  8.6831  8.6613  8.6350  8.6125
  8.5912  8.5244  8.5081  8.3728  8.2542  8.1743  8.1244  8.1017  8.0643  8.0576
  8.0149  7.9638  7.9409  7.9336  7.8876  7.8849  7.8352  7.8069  7.6107  7.5651
  7.4987  7.4411  7.4062  7.3574  7.3303  7.3143  7.2936  7.2759  7.2475  7.2365
  7.1998  7.1687  7.1564  7.1219  7.0855  7.0617  7.0563  7.0342  7.0110  6.9683
  6.8831  6.8446  6.8277  6.7593  6.7434  6.7196  6.7075  6.6858  6.6683  6.6460
  6.6254  6.6189  6.6166  6.5878  6.5577  6.5533  6.5374  6.5291  6.5225  6.4945
  6.4879  6.4742  6.4639  6.4334  6.4185  6.4063  6.3900  6.3780  6.3537  6.3332
  6.3041  6.2879  6.2590  6.2554  6.2349  6.1993  6.1990  6.1543  6.0382  5.9850
  5.9688  5.9271  4.5055  4.5006  4.4976  4.4850  4.4582  4.4559  4.4437  4.4295
  4.4222  4.3837  4.3835  4.3830  4.3791  4.3790  4.3762  4.3736  4.3736  4.3659
  4.3657  4.3513
 highest evec of mol 1
  0.0000  0.0000  0.0000
  0.0000 -0.0000  0.0000
  0.0000 -0.0000  0.0000
 -0.0000 -0.0000 -0.0000
  0.0000  0.0000  0.0000
 -0.0000  0.0000 -0.0000
 -0.0000 -0.0000 -0.0000
  0.0000 -0.0000  0.0000
 -0.0000 -0.0000 -0.0000
  0.0000 -0.0000  0.0000
 -0.0000 -0.0000 -0.0000
  0.0000 -0.0000  0.0000
 -0.0000 -0.0000 -0.0000
 -0.0000  0.0000 -0.0000
  0.0000 -0.0000  0.0000
 -0.0000  0.0000 -0.0000
  0.0000  0.0000  0.0000
 -0.0002 -0.0000 -0.0000
  0.0003 -0.0001 -0.0001
  0.0003 -0.0000 -0.0000
  0.0001  0.0001  0.0002
 -0.0030 -0.0021 -0.0056
 -0.0326  0.0252  0.0554
  0.2427  0.0447  0.1512
  0.0007 -0.0008 -0.0019
 -0.0031 -0.0004 -0.0016
 -0.0004  0.0001  0.0001
  0.0000  0.0000  0.0001
  0.0000  0.0000 -0.0000
 -0.0000 -0.0000 -0.0000
 -0.0000 -0.0000 -0.0000
 -0.0000  0.0000 -0.0000
  0.0000  0.0000  0.0000
 -0.0000 -0.0000 -0.0000
  0.0000  0.0000  0.0000
 -0.0000  0.0000 -0.0000
  0.0000  0.0000  0.0000
 -0.0000 -0.0000 -0.0000
  0.0000  0.0000  0.0000
 -0.0000 -0.0000 -0.0000
 -0.0000 -0.0000 -0.0000
  0.0000  0.0000  0.0000
 -0.0000 -0.0000 -0.0000
 -0.0000 -0.0000 -0.0000
 -0.0000 -0.0000 -0.0000
  0.0000  0.0000  0.0000
  0.0000 -0.0000 -0.0000
 -0.0000  0.0000 -0.0000
  0.0000  0.0000  0.0000
 -0.0000 -0.0000 -0.0000
  0.0000  0.0000  0.0000
 -0.0000  0.0000 -0.0000
  0.0000  0.0001  0.0000
 -0.0000  0.0001 -0.0001
  0.0000  0.0001  0.0000
 -0.0009  0.0001  0.0001
  0.0003 -0.0001  0.0001
  0.0003  0.0001  0.0001
  0.0552 -0.0697 -0.1594
 -0.7638 -0.1586 -0.5191
  0.0000 -0.0001  0.0001
 -0.0000 -0.0001 -0.0000
  0.0000 -0.0000  0.0000
 -0.0000 -0.0000 -0.0000
 generating redundant internal coords
         300        3600          64
 Adding extra bonds for z output only
           6           6           6           7           6           8
           6           6           6           6           6           6
           6           6           6           8           7           6
           6           6           6           6           6           6
          16           6           6          16           6           8
           6           6           6           6           6           6
           6           6           6           8           6           6
           6           6           1           1           1           1
           1           1           1           1           1           1
           1           1           1           1           1           1
           1           1           1           1
 search for int coords
   1 str   2   1   1.532
   2 str   3   2   1.532
   3 str   4   2   1.498
   4 str   5   4   1.408
   5 str   6   5   1.221
   6 str   7   5   1.478
   7 str   8   7   1.400
   8 str   9   8   1.380
   9 str  10   9   1.422
  10 str  11  10   1.441
  11 str  12  11   1.422
  12 str  13  12   1.379
  13 str  14  13   1.400
  14 str  15  14   1.475
  15 str  16  15   1.215
  16 str  17  15   1.419
  17 str  18  17   1.420
  18 str  19  18   1.368
  19 str  20  19   1.415
  20 str  21  20   1.515
  21 str  22  21   1.515
  22 str  23  22   1.418
  23 str  24  23   1.370
  24 str  25  24   1.748
  25 str  26  22   1.382
  26 str  26  25   1.728
  27 str  27  20   1.382
  28 str  27  26   1.443
  29 str  28  18   1.760
  30 str  28  27   1.725
  31 str  29  17   1.418
  32 str  30  29   1.215
  33 str  31  29   1.476
  34 str  32  31   1.400
  35 str  33  32   1.379
  36 str  34  33   1.422
  37 str  35  34   1.441
  38 str  36  35   1.422
  39 str  37  36   1.380
  40 str  38  37   1.400
  41 str  39   4   1.400
  42 str  39  38   1.479
  43 str  40  39   1.222
  44 str  41   7   1.410
  45 str  41  38   1.410
  46 str  42  10   1.427
  47 str  42  35   1.427
  48 str  42  41   1.428
  49 str  43  11   1.427
  50 str  43  34   1.427
  51 str  44  14   1.413
  52 str  44  31   1.413
  53 str  44  43   1.430
  54 str  45   1   1.093
  55 str  46   1   1.089
  56 str  47   1   1.093
  57 str  48   2   1.088
  58 str  49   3   1.089
  59 str  50   3   1.093
  60 str  51   3   1.093
  61 str  52   8   1.082
  62 str  53   9   1.081
  63 str  54  12   1.081
  64 str  55  13   1.082
  65 str  56  19   1.082
  66 str  57  21   1.096
  67 str  58  21   1.096
  68 str  59  23   1.082
  69 str  60  24   1.079
  70 str  61  32   1.082
  71 str  62  33   1.081
  72 str  63  36   1.081
  73 str  64  37   1.082
 nber stretches=          73
  74 ben   1   2   3
  75 prop tor   1   2   3  49
  76 prop tor   1   2   3  50
  77 prop tor   1   2   3  51
  78 ben   1   2   4
  79 prop tor   1   2   4   5
  80 prop tor   1   2   4  39
  81 ben   1   2  48
  82 ben   2   1  45
  83 ben   2   1  46
  84 ben   2   1  47
  85 ben   2   3  49
  86 ben   2   3  50
  87 ben   2   3  51
  88 ben   2   4   5
  89 prop tor   2   4   5   6
  90 prop tor   2   4   5   7
  91 ben   2   4  39
  92 prop tor   2   4  39  38
  93 prop tor   2   4  39  40
  94 ben   3   2   4
  95 prop tor   3   2   4   5
  96 prop tor   3   2   4  39
  97 ben   3   2  48
  98 prop tor   4   2   3  49
  99 prop tor   4   2   3  50
 100 prop tor   4   2   3  51
 101 ben   4   2  48
 102 ben   4   5   6
 103 ben   4   5   7
 104 prop tor   4   5   7   8
 105 prop tor   4   5   7  41
 106 ben   4  39  38
 107 ben   4  39  40
 108 ben   5   4  39
 109 prop tor   5   4  39  38
 110 prop tor   5   4  39  40
 111 ben   5   7   8
 112 prop tor   5   7   8   9
 113 prop tor   5   7   8  52
 114 ben   5   7  41
 115 prop tor   5   7  41  38
 116 prop tor   5   7  41  42
 117 ben   6   5   7
 118 prop tor   6   5   7   8
 119 prop tor   6   5   7  41
 120 ben   7   8   9
 121 prop tor   7   8   9  10
 122 prop tor   7   8   9  53
 123 ben   7   8  52
 124 ben   7  41  38
 125 ben   7  41  42
 126 prop tor   7  41  42  10
 127 prop tor   7  41  42  35
 128 ben   8   7  41
 129 prop tor   8   7  41  38
 130 prop tor   8   7  41  42
 131 ben   8   9  10
 132 prop tor   8   9  10  11
 133 prop tor   8   9  10  42
 134 ben   8   9  53
 135 ben   9   8  52
 136 ben   9  10  11
 137 prop tor   9  10  11  12
 138 prop tor   9  10  11  43
 139 ben   9  10  42
 140 prop tor   9  10  42  35
 141 prop tor   9  10  42  41
 142 ben  10   9  53
 143 ben  10  11  12
 144 prop tor  10  11  12  13
 145 prop tor  10  11  12  54
 146 ben  10  11  43
 147 prop tor  10  11  43  34
 148 prop tor  10  11  43  44
 149 ben  10  42  35
 150 ben  10  42  41
 151 ben  11  10  42
 152 prop tor  11  10  42  35
 153 prop tor  11  10  42  41
 154 ben  11  12  13
 155 prop tor  11  12  13  14
 156 prop tor  11  12  13  55
 157 ben  11  12  54
 158 ben  11  43  34
 159 ben  11  43  44
 160 prop tor  11  43  44  14
 161 prop tor  11  43  44  31
 162 ben  12  11  43
 163 prop tor  12  11  43  34
 164 prop tor  12  11  43  44
 165 ben  12  13  14
 166 prop tor  12  13  14  15
 167 prop tor  12  13  14  44
 168 ben  12  13  55
 169 ben  13  12  54
 170 ben  13  14  15
 171 prop tor  13  14  15  16
 172 prop tor  13  14  15  17
 173 ben  13  14  44
 174 prop tor  13  14  44  31
 175 prop tor  13  14  44  43
 176 ben  14  13  55
 177 ben  14  15  16
 178 ben  14  15  17
 179 prop tor  14  15  17  18
 180 prop tor  14  15  17  29
 181 ben  14  44  31
 182 ben  14  44  43
 183 ben  15  14  44
 184 prop tor  15  14  44  31
 185 prop tor  15  14  44  43
 186 ben  15  17  18
 187 prop tor  15  17  18  19
 188 prop tor  15  17  18  28
 189 ben  15  17  29
 190 prop tor  15  17  29  30
 191 prop tor  15  17  29  31
 192 ben  16  15  17
 193 prop tor  16  15  17  18
 194 prop tor  16  15  17  29
 195 ben  17  18  19
 196 prop tor  17  18  19  20
 197 prop tor  17  18  19  56
 198 ben  17  18  28
 199 prop tor  17  18  28  27
 200 ben  17  29  30
 201 ben  17  29  31
 202 prop tor  17  29  31  32
 203 prop tor  17  29  31  44
 204 ben  18  17  29
 205 prop tor  18  17  29  30
 206 prop tor  18  17  29  31
 207 ben  18  19  20
 208 prop tor  18  19  20  21
 209 prop tor  18  19  20  27
 210 ben  18  19  56
 211 ben  18  28  27
 212 ben  19  18  28
 213 prop tor  19  18  28  27
 214 ben  19  20  21
 215 prop tor  19  20  21  22
 216 prop tor  19  20  21  57
 217 prop tor  19  20  21  58
 218 ben  19  20  27
 219 prop tor  19  20  27  26
 220 prop tor  19  20  27  28
 221 ben  20  19  56
 222 ben  20  21  22
 223 prop tor  20  21  22  23
 224 prop tor  20  21  22  26
 225 ben  20  21  57
 226 ben  20  21  58
 227 ben  20  27  26
 228 ben  20  27  28
 229 prop tor  20  27  28  18
 230 ben  21  20  27
 231 prop tor  21  20  27  26
 232 prop tor  21  20  27  28
 233 ben  21  22  23
 234 prop tor  21  22  23  24
 235 prop tor  21  22  23  59
 236 ben  21  22  26
 237 prop tor  21  22  26  25
 238 prop tor  21  22  26  27
 239 ben  22  21  57
 240 ben  22  21  58
 241 ben  22  23  24
 242 prop tor  22  23  24  25
 243 prop tor  22  23  24  60
 244 ben  22  23  59
 245 ben  22  26  25
 246 ben  22  26  27
 247 prop tor  22  26  27  20
 248 prop tor  22  26  27  28
 249 ben  23  22  26
 250 prop tor  23  22  26  25
 251 prop tor  23  22  26  27
 252 ben  23  24  25
 253 prop tor  23  24  25  26
 254 ben  23  24  60
 255 ben  24  23  59
 256 ben  24  25  26
 257 prop tor  24  25  26  22
 258 prop tor  24  25  26  27
 259 ben  25  24  60
 260 ben  25  26  27
 261 prop tor  25  26  27  20
 262 prop tor  25  26  27  28
 263 prop tor  26  22  23  24
 264 prop tor  26  22  23  59
 265 ben  26  27  28
 266 prop tor  26  27  28  18
 267 prop tor  27  20  21  22
 268 prop tor  27  20  21  57
 269 prop tor  27  20  21  58
 270 prop tor  28  18  19  20
 271 prop tor  28  18  19  56
 272 prop tor  29  17  18  19
 273 prop tor  29  17  18  28
 274 ben  29  31  32
 275 prop tor  29  31  32  33
 276 prop tor  29  31  32  61
 277 ben  29  31  44
 278 prop tor  29  31  44  14
 279 prop tor  29  31  44  43
 280 ben  30  29  31
 281 prop tor  30  29  31  32
 282 prop tor  30  29  31  44
 283 ben  31  32  33
 284 prop tor  31  32  33  34
 285 prop tor  31  32  33  62
 286 ben  31  32  61
 287 ben  31  44  43
 288 ben  32  31  44
 289 prop tor  32  31  44  14
 290 prop tor  32  31  44  43
 291 ben  32  33  34
 292 prop tor  32  33  34  35
 293 prop tor  32  33  34  43
 294 ben  32  33  62
 295 ben  33  32  61
 296 ben  33  34  35
 297 prop tor  33  34  35  36
 298 prop tor  33  34  35  42
 299 ben  33  34  43
 300 prop tor  33  34  43  11
 301 prop tor  33  34  43  44
 302 ben  34  33  62
 303 ben  34  35  36
 304 prop tor  34  35  36  37
 305 prop tor  34  35  36  63
 306 ben  34  35  42
 307 prop tor  34  35  42  10
 308 prop tor  34  35  42  41
 309 ben  34  43  44
 310 prop tor  34  43  44  14
 311 prop tor  34  43  44  31
 312 ben  35  34  43
 313 prop tor  35  34  43  11
 314 prop tor  35  34  43  44
 315 ben  35  36  37
 316 prop tor  35  36  37  38
 317 prop tor  35  36  37  64
 318 ben  35  36  63
 319 ben  35  42  41
 320 ben  36  35  42
 321 prop tor  36  35  42  10
 322 prop tor  36  35  42  41
 323 ben  36  37  38
 324 prop tor  36  37  38  39
 325 prop tor  36  37  38  41
 326 ben  36  37  64
 327 ben  37  36  63
 328 ben  37  38  39
 329 prop tor  37  38  39   4
 330 prop tor  37  38  39  40
 331 ben  37  38  41
 332 prop tor  37  38  41   7
 333 prop tor  37  38  41  42
 334 ben  38  37  64
 335 ben  38  39  40
 336 ben  38  41  42
 337 prop tor  38  41  42  10
 338 prop tor  38  41  42  35
 339 prop tor  39   4   5   6
 340 prop tor  39   4   5   7
 341 ben  39  38  41
 342 prop tor  39  38  41   7
 343 prop tor  39  38  41  42
 344 prop tor  41   7   8   9
 345 prop tor  41   7   8  52
 346 prop tor  41  38  39   4
 347 prop tor  41  38  39  40
 348 prop tor  42  10  11  12
 349 prop tor  42  10  11  43
 350 prop tor  42  35  36  37
 351 prop tor  42  35  36  63
 352 prop tor  43  11  12  13
 353 prop tor  43  11  12  54
 354 prop tor  43  34  35  36
 355 prop tor  43  34  35  42
 356 prop tor  44  14  15  16
 357 prop tor  44  14  15  17
 358 prop tor  44  31  32  33
 359 prop tor  44  31  32  61
 360 prop tor  45   1   2   3
 361 prop tor  45   1   2   4
 362 prop tor  45   1   2  48
 363 ben  45   1  46
 364 ben  45   1  47
 365 prop tor  46   1   2   3
 366 prop tor  46   1   2   4
 367 prop tor  46   1   2  48
 368 ben  46   1  47
 369 prop tor  47   1   2   3
 370 prop tor  47   1   2   4
 371 prop tor  47   1   2  48
 372 prop tor  48   2   3  49
 373 prop tor  48   2   3  50
 374 prop tor  48   2   3  51
 375 prop tor  48   2   4   5
 376 prop tor  48   2   4  39
 377 ben  49   3  50
 378 ben  49   3  51
 379 ben  50   3  51
 380 prop tor  52   8   9  10
 381 prop tor  52   8   9  53
 382 prop tor  53   9  10  11
 383 prop tor  53   9  10  42
 384 prop tor  54  12  13  14
 385 prop tor  54  12  13  55
 386 prop tor  55  13  14  15
 387 prop tor  55  13  14  44
 388 prop tor  56  19  20  21
 389 prop tor  56  19  20  27
 390 prop tor  57  21  22  23
 391 prop tor  57  21  22  26
 392 ben  57  21  58
 393 prop tor  58  21  22  23
 394 prop tor  58  21  22  26
 395 prop tor  59  23  24  25
 396 prop tor  59  23  24  60
 397 prop tor  60  24  25  26
 398 prop tor  61  32  33  34
 399 prop tor  61  32  33  62
 400 prop tor  62  33  34  35
 401 prop tor  62  33  34  43
 402 prop tor  63  36  37  38
 403 prop tor  63  36  37  64
 404 prop tor  64  37  38  39
 405 prop tor  64  37  38  41
 nber bend=             128
 nber lin bend=           0
 nber prop tor=         204
 nber impr tor=           0
 nber tot redund int=         405
 Reading file: 
 ./CDT-A_3_C0S1.log                                                             
                                          
  Entering Gaussian System, Link 0=g16                                          
  
 Gaussian format, type: g94, g98, g03= F F F
  #P Geom=AllCheck Guess=TCheck SCRF=Check GenChk RB3LYP TD(FC,Read)/6-3    
 energy type= TD      
 Original G94 input coords:
  6 16.056280 21.901234 18.994765
  6 14.737087 21.232378 19.396895
  6 13.908008 22.068020 20.378539
  7 13.937764 20.819054 18.205310
  6 13.721199 19.434301 18.033693
  8 14.171947 18.621750 18.830253
  6 12.934828 19.021858 16.861320
  6 12.692496 17.664958 16.645385
  6 11.957474 17.243873 15.552904
  6 11.424167 18.157683 14.616370
  6 10.655231 17.731115 13.468983
  6 10.378139 16.362717 13.214741
  6  9.648835 15.965243 12.123735
  6  9.151037 16.908453 11.203301
  6  8.396043 16.422323 10.074266
  8  8.117646 15.255244  9.880459
  7  7.951395 17.448797  9.112915
  6  7.320860 17.063629  7.930270
  6  7.232722 15.758651  7.408259
  6  6.513414 15.720257  6.226868
  6  6.097609 14.655154  5.236508
  6  5.347689 15.479573  4.215099
  6  4.668187 15.262855  3.012154
  6  4.161486 16.439806  2.491974
 16  4.507424 17.838847  3.466966
  6  5.351815 16.837155  4.602977
  6  6.044513 16.984738  5.817511
 16  6.515523 18.267067  6.895479
  6  8.120955 18.864735  9.359301
  8  7.615254 19.651531  8.571405
  6  8.886434 19.250854 10.517931
  6  9.113705 20.619244 10.751129
  6  9.841144 21.032248 11.838793
  6 10.381127 20.105696 12.766727
  6 11.152694 20.533608 13.915277
  6 11.425488 21.894145 14.177307
  6 12.164354 22.290414 15.277166
  6 12.668628 21.347680 16.172162
  6 13.451740 21.804691 17.333105
  8 13.674075 22.991964 17.536205
  6 12.423627 19.975058 15.954221
  6 11.659709 19.551543 14.817344
  6 10.151399 18.711281 12.560021
  6  9.392961 18.284673 11.410294
  1 16.668143 22.052898 19.888780
  1 15.887174 22.865817 18.517982
  1 16.618537 21.260802 18.310041
  1 14.972262 20.284572 19.876225
  1 13.650520 23.039738 19.959284
  1 14.485599 22.221755 21.294727
  1 12.987820 21.542971 20.648168
  1 13.095432 16.953653 17.355039
  1 11.796223 16.182806 15.425236
  1 10.744318 15.605235 13.892172
  1  9.443572 14.917556 11.946494
  1  7.666490 14.916786  7.914929
  1  5.463840 13.891074  5.697715
  1  6.958688 14.139055  4.800265
  1  4.540423 14.305503  2.526371
  1  3.598313 16.566035  1.579871
  1  8.705710 21.337212 10.051511
  1  9.998262 22.091195 11.981431
  1 11.055589 22.659004 13.509277
  1 12.367427 23.336633 15.467306
 nber atoms=          64
  Total Energy, E(TD-HF/TD-DFT) =  -2591.20073941                               
  
          32          49 "  -2591.20073941"
After scan for Atom:   Atom  AN      X      Y      Z        X      Y      Z        X      Y      Z   
After scan for Atom:   Atom  AN      X      Y      Z        X      Y      Z        X      Y      Z   
After scan for Atom:   Atom  AN      X      Y      Z        X      Y      Z        X      Y      Z   
After scan for Atom:   Atom  AN      X      Y      Z        X      Y      Z        X      Y      Z   
After scan for Atom:   Atom  AN      X      Y      Z        X      Y      Z        X      Y      Z   
After scan for Atom:   Atom  AN      X      Y      Z        X      Y      Z        X      Y      Z   
After scan for Atom:   Atom  AN      X      Y      Z        X      Y      Z        X      Y      Z   
After scan for Atom:   Atom  AN      X      Y      Z        X      Y      Z        X      Y      Z   
After scan for Atom:   Atom  AN      X      Y      Z        X      Y      Z        X      Y      Z   
After scan for Atom:   Atom  AN      X      Y      Z        X      Y      Z        X      Y      Z   
After scan for Atom:   Atom  AN      X      Y      Z        X      Y      Z        X      Y      Z   
After scan for Atom:   Atom  AN      X      Y      Z        X      Y      Z        X      Y      Z   
After scan for Atom:   Atom  AN      X      Y      Z        X      Y      Z        X      Y      Z   
After scan for Atom:   Atom  AN      X      Y      Z        X      Y      Z        X      Y      Z   
After scan for Atom:   Atom  AN      X      Y      Z        X      Y      Z        X      Y      Z   
After scan for Atom:   Atom  AN      X      Y      Z        X      Y      Z        X      Y      Z   
After scan for Atom:   Atom  AN      X      Y      Z        X      Y      Z        X      Y      Z   
After scan for Atom:   Atom  AN      X      Y      Z        X      Y      Z        X      Y      Z   
After scan for Atom:   Atom  AN      X      Y      Z        X      Y      Z        X      Y      Z   
After scan for Atom:   Atom  AN      X      Y      Z        X      Y      Z        X      Y      Z   
After scan for Atom:   Atom  AN      X      Y      Z        X      Y      Z        X      Y      Z   
After scan for Atom:   Atom  AN      X      Y      Z        X      Y      Z        X      Y      Z   
After scan for Atom:   Atom  AN      X      Y      Z        X      Y      Z        X      Y      Z   
After scan for Atom:   Atom  AN      X      Y      Z        X      Y      Z        X      Y      Z   
After scan for Atom:   Atom  AN      X      Y      Z        X      Y      Z        X      Y      Z   
After scan for Atom:   Atom  AN      X      Y      Z        X      Y      Z        X      Y      Z   
After scan for Atom:   Atom  AN      X      Y      Z        X      Y      Z        X      Y      Z   
After scan for Atom:   Atom  AN      X      Y      Z        X      Y      Z        X      Y      Z   
After scan for Atom:   Atom  AN      X      Y      Z        X      Y      Z        X      Y      Z   
After scan for Atom:   Atom  AN      X      Y      Z        X      Y      Z        X      Y      Z   
After scan for Atom:   Atom  AN      X      Y      Z        X      Y      Z        X      Y      Z   
After scan for Atom:   Atom  AN      X      Y      Z        X      Y      Z        X      Y      Z   
After scan for Atom:   Atom  AN      X      Y      Z        X      Y      Z        X      Y      Z   
After scan for Atom:   Atom  AN      X      Y      Z        X      Y      Z        X      Y      Z   
After scan for Atom:   Atom  AN      X      Y      Z        X      Y      Z        X      Y      Z   
After scan for Atom:   Atom  AN      X      Y      Z        X      Y      Z        X      Y      Z   
After scan for Atom:   Atom  AN      X      Y      Z        X      Y      Z        X      Y      Z   
After scan for Atom:   Atom  AN      X      Y      Z        X      Y      Z        X      Y      Z   
After scan for Atom:   Atom  AN      X      Y      Z        X      Y      Z        X      Y      Z   
After scan for Atom:   Atom  AN      X      Y      Z        X      Y      Z        X      Y      Z   
After scan for Atom:   Atom  AN      X      Y      Z        X      Y      Z        X      Y      Z   
After scan for Atom:   Atom  AN      X      Y      Z        X      Y      Z        X      Y      Z   
After scan for Atom:   Atom  AN      X      Y      Z        X      Y      Z        X      Y      Z   
After scan for Atom:   Atom  AN      X      Y      Z        X      Y      Z        X      Y      Z   
After scan for Atom:   Atom  AN      X      Y      Z        X      Y      Z        X      Y      Z   
After scan for Atom:   Atom  AN      X      Y      Z        X      Y      Z        X      Y      Z   
After scan for Atom:   Atom  AN      X      Y      Z        X      Y      Z        X      Y      Z   
After scan for Atom:   Atom  AN      X      Y      Z        X      Y      Z        X      Y      Z   
After scan for Atom:   Atom  AN      X      Y      Z        X      Y      Z        X      Y      Z   
After scan for Atom:   Atom  AN      X      Y      Z        X      Y      Z        X      Y      Z   
After scan for Atom:   Atom  AN      X      Y      Z        X      Y      Z        X      Y      Z   
After scan for Atom:   Atom  AN      X      Y      Z        X      Y      Z        X      Y      Z   
After scan for Atom:   Atom  AN      X      Y      Z        X      Y      Z        X      Y      Z   
After scan for Atom:   Atom  AN      X      Y      Z        X      Y      Z        X      Y      Z   
After scan for Atom:   Atom  AN      X      Y      Z        X      Y      Z        X      Y      Z   
After scan for Atom:   Atom  AN      X      Y      Z        X      Y      Z        X      Y      Z   
After scan for Atom:   Atom  AN      X      Y      Z        X      Y      Z        X      Y      Z   
After scan for Atom:   Atom  AN      X      Y      Z        X      Y      Z        X      Y      Z   
After scan for Atom:   Atom  AN      X      Y      Z        X      Y      Z        X      Y      Z   
After scan for Atom:   Atom  AN      X      Y      Z        X      Y      Z        X      Y      Z   
After scan for Atom:   Atom  AN      X      Y      Z        X      Y      Z        X      Y      Z   
After scan for Atom:   Atom  AN      X      Y      Z        X      Y      Z        X      Y      Z   
 g94    frequencies=
     0.0    0.0    0.0    0.0    0.0    0.0    9.5   16.5   26.9   28.4
    48.1   53.8   58.6   70.0   83.9   89.5  102.6  110.6  132.6  145.7
   161.7  168.8  177.2  183.8  195.1  213.0  220.0  234.8  235.9  252.0
   255.6  259.7  275.9  292.4  297.2  312.1  331.4  338.4  365.0  377.4
   398.2  409.9  417.7  426.1  435.7  443.3  453.5  460.2  464.0  465.7
   472.6  493.9  501.3  501.8  511.3  516.1  530.7  546.2  553.7  573.9
   579.8  583.2  587.6  600.5  605.7  623.2  628.0  648.5  650.5  662.3
   668.4  691.3  711.2  718.4  727.2  728.9  746.6  748.1  758.0  765.6
   770.7  786.3  804.2  811.0  816.8  820.1  823.0  825.8  828.8  834.0
   844.5  848.6  874.9  899.3  903.2  922.1  944.4  949.1  951.0  955.9
   957.6  972.2  976.4  978.5  985.8  989.5  990.1  996.4 1001.9 1068.0
  1079.9 1095.1 1102.0 1134.0 1150.6 1155.4 1160.7 1165.3 1174.4 1174.9
  1190.3 1201.7 1203.7 1217.8 1226.8 1231.3 1236.9 1252.7 1272.2 1282.2
  1295.7 1302.6 1322.6 1333.8 1354.2 1364.4 1365.7 1374.2 1379.8 1384.1
  1394.2 1398.2 1400.0 1412.4 1427.1 1431.4 1439.0 1442.3 1462.3 1467.2
  1469.9 1478.9 1484.2 1486.9 1488.1 1490.7 1496.5 1506.5 1523.5 1537.8
  1554.1 1559.4 1575.7 1589.8 1616.7 1620.5 1626.4 1638.8 1685.4 1721.6
  1764.1 2031.0 3030.1 3034.7 3043.4 3073.3 3087.4 3090.6 3109.7 3131.7
  3141.6 3193.4 3193.9 3200.6 3200.8 3209.3 3209.4 3217.6 3223.5 3224.7
  3248.6 3291.5
 g94    symmetries=
                                                 A      A      A      A
       A      A      A      A      A      A      A      A      A      A
       A      A      A      A      A      A      A      A      A      A
       A      A      A      A      A      A      A      A      A      A
       A      A      A      A      A      A      A      A      A      A
       A      A      A      A      A      A      A      A      A      A
       A      A      A      A      A      A      A      A      A      A
       A      A      A      A      A      A      A      A      A      A
       A      A      A      A      A      A      A      A      A      A
       A      A      A      A      A      A      A      A      A      A
       A      A      A      A      A      A      A      A      A      A
       A      A      A      A      A      A      A      A      A      A
       A      A      A      A      A      A      A      A      A      A
       A      A      A      A      A      A      A      A      A      A
       A      A      A      A      A      A      A      A      A      A
       A      A      A      A      A      A      A      A      A      A
       A      A      A      A      A      A      A      A      A      A
       A      A      A      A      A      A      A      A      A      A
       A      A      A      A      A      A      A      A      A      A
       A      A
 atomic masses:
 12.0000 12.0000 12.0000 14.0031 12.0000 15.9949 12.0000 12.0000 12.0000 12.0000
 12.0000 12.0000 12.0000 12.0000 12.0000 15.9949 14.0031 12.0000 12.0000 12.0000
 12.0000 12.0000 12.0000 12.0000 31.9721 12.0000 12.0000 31.9721 12.0000 15.9949
 12.0000 12.0000 12.0000 12.0000 12.0000 12.0000 12.0000 12.0000 12.0000 15.9949
 12.0000 12.0000 12.0000 12.0000  1.0078  1.0078  1.0078  1.0078  1.0078  1.0078
  1.0078  1.0078  1.0078  1.0078  1.0078  1.0078  1.0078  1.0078  1.0078  1.0078
  1.0078  1.0078  1.0078  1.0078
 looking for force constants in 
 ./CDT-A_3_C0S1.fchk                                                            
  
 Cartesian Force Constants                  R   N=       18528                  
  
 n3=         192       18528
 g94-fc frequencies=
    -0.0    0.0    0.0    0.9    1.3    3.4    9.5   16.5   26.9   28.4
    48.1   53.8   58.6   70.0   83.9   89.5  102.6  110.6  132.6  145.7
   161.7  168.8  177.2  183.8  195.1  213.0  220.0  234.8  235.9  252.0
   255.6  259.7  275.9  292.4  297.2  312.1  331.5  338.4  365.0  377.4
   398.2  409.9  417.7  426.1  435.7  443.3  453.5  460.2  464.0  465.7
   472.6  493.9  501.3  501.8  511.3  516.1  530.8  546.2  553.7  573.9
   579.8  583.2  587.6  600.5  605.7  623.2  628.0  648.5  650.5  662.3
   668.4  691.4  711.3  718.4  727.2  728.9  746.6  748.1  758.0  765.6
   770.7  786.3  804.2  811.0  816.9  820.1  823.1  825.8  828.8  834.0
   844.6  848.6  874.9  899.3  903.2  922.1  944.4  949.1  951.1  955.9
   957.6  972.2  976.4  978.5  985.9  989.5  990.1  996.4 1001.9 1068.0
  1079.9 1095.1 1102.0 1134.0 1150.7 1155.5 1160.7 1165.3 1174.4 1175.0
  1190.3 1201.7 1203.7 1217.8 1226.8 1231.3 1236.9 1252.7 1272.2 1282.2
  1295.7 1302.7 1322.7 1333.8 1354.2 1364.4 1365.7 1374.2 1379.8 1384.1
  1394.2 1398.2 1400.0 1412.5 1427.1 1431.4 1439.0 1442.3 1462.3 1467.2
  1469.9 1478.9 1484.2 1486.9 1488.1 1490.7 1496.5 1506.6 1523.6 1537.8
  1554.2 1559.5 1575.7 1589.8 1616.7 1620.5 1626.4 1638.9 1685.5 1721.6
  1764.1 2031.1 3030.2 3034.7 3043.4 3073.3 3087.5 3090.7 3109.8 3131.8
  3141.6 3193.5 3194.0 3200.7 3200.9 3209.4 3209.4 3217.7 3223.5 3224.8
  3248.7 3291.5
 at 99999: n3=         192
 symm operator            1 :  F  nop=           0
 symm operator            2 :  F  nop=           0
 symm operator            3 :  F  nop=           0
 symm operator            4 :  F  nop=           0
 symm operator            5 :  F  nop=           0
 symm operator            6 :  F  nop=           0
 symm operator            7 :  F  nop=           0
 The point group of the molecule is  C1
 Symmetry rotation matrix:
   1.00000   0.00000   0.00000
   0.00000   1.00000   0.00000
   0.00000   0.00000   1.00000

 Projecting out zero-frequency components
 generating redundant internal coords
         300        3600          64
 search for int coords
   1 str   2   1   1.533
   2 str   3   2   1.533
   3 str   4   2   1.493
   4 str   5   4   1.412
   5 str   6   5   1.224
   6 str   7   5   1.471
   7 str   8   7   1.395
   8 str   9   8   1.382
   9 str  10   9   1.413
  10 str  11  10   1.446
  11 str  12  11   1.419
  12 str  13  12   1.371
  13 str  14  13   1.409
  14 str  15  14   1.443
  15 str  16  15   1.215
  16 str  17  15   1.475
  17 str  18  17   1.394
  18 str  19  18   1.408
  19 str  20  19   1.384
  20 str  21  20   1.513
  21 str  22  21   1.512
  22 str  23  22   1.398
  23 str  24  23   1.383
  24 str  25  24   1.740
  25 str  26  22   1.412
  26 str  26  25   1.734
  27 str  27  20   1.409
  28 str  27  26   1.406
  29 str  28  18   1.780
  30 str  28  27   1.740
  31 str  29  17   1.447
  32 str  30  28   2.436
  33 str  30  29   1.223
  34 str  31  29   1.441
  35 str  32  31   1.407
  36 str  33  32   1.372
  37 str  34  33   1.418
  38 str  35  34   1.448
  39 str  36  35   1.412
  40 str  37  36   1.383
  41 str  38  37   1.394
  42 str  39   4   1.403
  43 str  39  38   1.473
  44 str  40  39   1.225
  45 str  41   7   1.412
  46 str  41  38   1.411
  47 str  42  10   1.428
  48 str  42  35   1.427
  49 str  42  41   1.434
  50 str  43  11   1.429
  51 str  43  34   1.428
  52 str  44  14   1.413
  53 str  44  31   1.409
  54 str  44  43   1.442
  55 str  45   1   1.094
  56 str  46   1   1.089
  57 str  47   1   1.093
  58 str  48   2   1.088
  59 str  49   3   1.089
  60 str  50   3   1.094
  61 str  51   3   1.093
  62 str  52   8   1.083
  63 str  53   9   1.081
  64 str  54  12   1.080
  65 str  55  13   1.082
  66 str  56  19   1.074
  67 str  57  21   1.095
  68 str  58  21   1.095
  69 str  59  23   1.081
  70 str  60  24   1.079
  71 str  61  32   1.082
  72 str  62  33   1.080
  73 str  63  36   1.081
  74 str  64  37   1.083
 nber stretches=          74
  75 ben   1   2   3
  76 prop tor   1   2   3  49
  77 prop tor   1   2   3  50
  78 prop tor   1   2   3  51
  79 ben   1   2   4
  80 prop tor   1   2   4   5
  81 prop tor   1   2   4  39
  82 ben   1   2  48
  83 ben   2   1  45
  84 ben   2   1  46
  85 ben   2   1  47
  86 ben   2   3  49
  87 ben   2   3  50
  88 ben   2   3  51
  89 ben   2   4   5
  90 prop tor   2   4   5   6
  91 prop tor   2   4   5   7
  92 ben   2   4  39
  93 prop tor   2   4  39  38
  94 prop tor   2   4  39  40
  95 ben   3   2   4
  96 prop tor   3   2   4   5
  97 prop tor   3   2   4  39
  98 ben   3   2  48
  99 prop tor   4   2   3  49
 100 prop tor   4   2   3  50
 101 prop tor   4   2   3  51
 102 ben   4   2  48
 103 ben   4   5   6
 104 ben   4   5   7
 105 prop tor   4   5   7   8
 106 prop tor   4   5   7  41
 107 ben   4  39  38
 108 ben   4  39  40
 109 ben   5   4  39
 110 prop tor   5   4  39  38
 111 prop tor   5   4  39  40
 112 ben   5   7   8
 113 prop tor   5   7   8   9
 114 prop tor   5   7   8  52
 115 ben   5   7  41
 116 prop tor   5   7  41  38
 117 prop tor   5   7  41  42
 118 ben   6   5   7
 119 prop tor   6   5   7   8
 120 prop tor   6   5   7  41
 121 ben   7   8   9
 122 prop tor   7   8   9  10
 123 prop tor   7   8   9  53
 124 ben   7   8  52
 125 ben   7  41  38
 126 ben   7  41  42
 127 prop tor   7  41  42  10
 128 prop tor   7  41  42  35
 129 ben   8   7  41
 130 prop tor   8   7  41  38
 131 prop tor   8   7  41  42
 132 ben   8   9  10
 133 prop tor   8   9  10  11
 134 prop tor   8   9  10  42
 135 ben   8   9  53
 136 ben   9   8  52
 137 ben   9  10  11
 138 prop tor   9  10  11  12
 139 prop tor   9  10  11  43
 140 ben   9  10  42
 141 prop tor   9  10  42  35
 142 prop tor   9  10  42  41
 143 ben  10   9  53
 144 ben  10  11  12
 145 prop tor  10  11  12  13
 146 prop tor  10  11  12  54
 147 ben  10  11  43
 148 prop tor  10  11  43  34
 149 prop tor  10  11  43  44
 150 ben  10  42  35
 151 ben  10  42  41
 152 ben  11  10  42
 153 prop tor  11  10  42  35
 154 prop tor  11  10  42  41
 155 ben  11  12  13
 156 prop tor  11  12  13  14
 157 prop tor  11  12  13  55
 158 ben  11  12  54
 159 ben  11  43  34
 160 ben  11  43  44
 161 prop tor  11  43  44  14
 162 prop tor  11  43  44  31
 163 ben  12  11  43
 164 prop tor  12  11  43  34
 165 prop tor  12  11  43  44
 166 ben  12  13  14
 167 prop tor  12  13  14  15
 168 prop tor  12  13  14  44
 169 ben  12  13  55
 170 ben  13  12  54
 171 ben  13  14  15
 172 prop tor  13  14  15  16
 173 prop tor  13  14  15  17
 174 ben  13  14  44
 175 prop tor  13  14  44  31
 176 prop tor  13  14  44  43
 177 ben  14  13  55
 178 ben  14  15  16
 179 ben  14  15  17
 180 prop tor  14  15  17  18
 181 prop tor  14  15  17  29
 182 ben  14  44  31
 183 ben  14  44  43
 184 ben  15  14  44
 185 prop tor  15  14  44  31
 186 prop tor  15  14  44  43
 187 ben  15  17  18
 188 prop tor  15  17  18  19
 189 prop tor  15  17  18  28
 190 ben  15  17  29
 191 prop tor  15  17  29  30
 192 prop tor  15  17  29  31
 193 ben  16  15  17
[...]
 321 ben  34  43  44
 322 prop tor  34  43  44  14
 323 prop tor  34  43  44  31
 324 ben  35  34  43
 325 prop tor  35  34  43  11
 326 prop tor  35  34  43  44
 327 ben  35  36  37
 328 prop tor  35  36  37  38
 329 prop tor  35  36  37  64
 330 ben  35  36  63
 331 ben  35  42  41
 332 ben  36  35  42
 333 prop tor  36  35  42  10
 334 prop tor  36  35  42  41
 335 ben  36  37  38
 336 prop tor  36  37  38  39
 337 prop tor  36  37  38  41
 338 ben  36  37  64
 339 ben  37  36  63
 340 ben  37  38  39
 341 prop tor  37  38  39   4
 342 prop tor  37  38  39  40
 343 ben  37  38  41
 344 prop tor  37  38  41   7
 345 prop tor  37  38  41  42
 346 ben  38  37  64
 347 ben  38  39  40
 348 ben  38  41  42
 349 prop tor  38  41  42  10
 350 prop tor  38  41  42  35
 351 prop tor  39   4   5   6
 352 prop tor  39   4   5   7
 353 ben  39  38  41
 354 prop tor  39  38  41   7
 355 prop tor  39  38  41  42
 356 prop tor  41   7   8   9
 357 prop tor  41   7   8  52
 358 prop tor  41  38  39   4
 359 prop tor  41  38  39  40
 360 prop tor  42  10  11  12
 361 prop tor  42  10  11  43
 362 prop tor  42  35  36  37
 363 prop tor  42  35  36  63
 364 prop tor  43  11  12  13
 365 prop tor  43  11  12  54
 366 prop tor  43  34  35  36
 367 prop tor  43  34  35  42
 368 prop tor  44  14  15  16
 369 prop tor  44  14  15  17
 370 prop tor  44  31  32  33
 371 prop tor  44  31  32  61
 372 prop tor  45   1   2   3
 373 prop tor  45   1   2   4
 374 prop tor  45   1   2  48
 375 ben  45   1  46
 376 ben  45   1  47
 377 prop tor  46   1   2   3
 378 prop tor  46   1   2   4
 379 prop tor  46   1   2  48
 380 ben  46   1  47
 381 prop tor  47   1   2   3
 382 prop tor  47   1   2   4
 383 prop tor  47   1   2  48
 384 prop tor  48   2   3  49
 385 prop tor  48   2   3  50
 386 prop tor  48   2   3  51
 387 prop tor  48   2   4   5
 388 prop tor  48   2   4  39
 389 ben  49   3  50
 390 ben  49   3  51
 391 ben  50   3  51
 392 prop tor  52   8   9  10
 393 prop tor  52   8   9  53
 394 prop tor  53   9  10  11
 395 prop tor  53   9  10  42
 396 prop tor  54  12  13  14
 397 prop tor  54  12  13  55
 398 prop tor  55  13  14  15
 399 prop tor  55  13  14  44
 400 prop tor  56  19  20  21
 401 prop tor  56  19  20  27
 402 prop tor  57  21  22  23
 403 prop tor  57  21  22  26
 404 ben  57  21  58
 405 prop tor  58  21  22  23
 406 prop tor  58  21  22  26
 407 prop tor  59  23  24  25
 408 prop tor  59  23  24  60
 409 prop tor  60  24  25  26
 410 prop tor  61  32  33  34
 411 prop tor  61  32  33  62
 412 prop tor  62  33  34  35
 413 prop tor  62  33  34  43
 414 prop tor  63  36  37  38
 415 prop tor  63  36  37  64
 416 prop tor  64  37  38  39
 417 prop tor  64  37  38  41
 nber bend=             131
 nber lin bend=           0
 nber prop tor=         212
 nber impr tor=           0
 nber tot redund int=         417
 Eigenvalues of G in red int coords
    Gval -0.00000000 -0.00000000 -0.00000000 -0.00000000 -0.00000000 -0.00000000 -0.00000000 -0.00000000
    Gval -0.00000000 -0.00000000 -0.00000000 -0.00000000 -0.00000000 -0.00000000 -0.00000000 -0.00000000
    Gval -0.00000000 -0.00000000 -0.00000000 -0.00000000 -0.00000000 -0.00000000 -0.00000000 -0.00000000
    Gval -0.00000000 -0.00000000 -0.00000000 -0.00000000 -0.00000000 -0.00000000 -0.00000000 -0.00000000
    Gval -0.00000000 -0.00000000 -0.00000000 -0.00000000 -0.00000000 -0.00000000 -0.00000000 -0.00000000
    Gval -0.00000000 -0.00000000 -0.00000000 -0.00000000 -0.00000000 -0.00000000 -0.00000000 -0.00000000
    Gval -0.00000000 -0.00000000 -0.00000000 -0.00000000 -0.00000000 -0.00000000 -0.00000000 -0.00000000
    Gval -0.00000000 -0.00000000 -0.00000000 -0.00000000 -0.00000000 -0.00000000 -0.00000000 -0.00000000
    Gval -0.00000000 -0.00000000 -0.00000000 -0.00000000 -0.00000000 -0.00000000 -0.00000000 -0.00000000
    Gval -0.00000000 -0.00000000 -0.00000000 -0.00000000 -0.00000000 -0.00000000 -0.00000000 -0.00000000
    Gval -0.00000000 -0.00000000 -0.00000000 -0.00000000 -0.00000000 -0.00000000 -0.00000000 -0.00000000
    Gval -0.00000000 -0.00000000 -0.00000000 -0.00000000 -0.00000000 -0.00000000 -0.00000000 -0.00000000
    Gval -0.00000000 -0.00000000 -0.00000000 -0.00000000 -0.00000000 -0.00000000 -0.00000000 -0.00000000
    Gval -0.00000000 -0.00000000 -0.00000000 -0.00000000 -0.00000000 -0.00000000 -0.00000000 -0.00000000
    Gval -0.00000000 -0.00000000 -0.00000000 -0.00000000 -0.00000000 -0.00000000 -0.00000000 -0.00000000
    Gval  0.00000000  0.00000000  0.00000000  0.00000000  0.00000000  0.00000000  0.00000000  0.00000000
    Gval  0.00000000  0.00000000  0.00000000  0.00000000  0.00000000  0.00000000  0.00000000  0.00000000
    Gval  0.00000000  0.00000000  0.00000000  0.00000000  0.00000000  0.00000000  0.00000000  0.00000000
    Gval  0.00000000  0.00000000  0.00000000  0.00000000  0.00000000  0.00000000  0.00000000  0.00000000
    Gval  0.00000000  0.00000000  0.00000000  0.00000000  0.00000000  0.00000000  0.00000000  0.00000000
    Gval  0.00000000  0.00000000  0.00000000  0.00000000  0.00000000  0.00000000  0.00000000  0.00000000
    Gval  0.00000000  0.00000000  0.00000000  0.00000000  0.00000000  0.00000000  0.00000000  0.00000000
    Gval  0.00000000  0.00000000  0.00000000  0.00000000  0.00000000  0.00000000  0.00000000  0.00000000
    Gval  0.00000000  0.00000000  0.00000000  0.00000000  0.00000000  0.00000000  0.00000000  0.00000000
    Gval  0.00000000  0.00000000  0.00000000  0.00000000  0.00000000  0.00000000  0.00000000  0.00000000
    Gval  0.00000000  0.00000000  0.00000000  0.00000000  0.00000000  0.00000000  0.00000000  0.00000000
    Gval  0.00000000  0.00000000  0.00000000  0.00000000  0.00000000  0.00000000  0.00000000  0.00000000
    Gval  0.00000000  0.00000000  0.00000000  0.00000000  0.00000000  0.00000000  0.00000000  0.00000000
    Gval  0.00000000  0.00000000  0.00000000  0.00000000  0.00000000  0.00000000  0.00000000  0.00000034
    Gval  0.00000077  0.00000139  0.00000179  0.00000433  0.00000446  0.00000514  0.00000703  0.00000867
    Gval  0.00000918  0.00001223  0.00001356  0.00001421  0.00001610  0.00001769  0.00001824  0.00001838
    Gval  0.00001979  0.00002124  0.00002266  0.00002401  0.00002497  0.00002534  0.00002921  0.00003022
    Gval  0.00003632  0.00003756  0.00003995  0.00004117  0.00004489  0.00004782  0.00004879  0.00005108
    Gval  0.00005300  0.00005380  0.00005649  0.00005855  0.00005920  0.00006210  0.00006754  0.00007015
    Gval  0.00007150  0.00007286  0.00007561  0.00008159  0.00008220  0.00008352  0.00008518  0.00008663
    Gval  0.00008785  0.00009385  0.00009634  0.00009812  0.00010072  0.00010458  0.00011622  0.00012088
    Gval  0.00012510  0.00012610  0.00013629  0.00013812  0.00013839  0.00014044  0.00014793  0.00015681
    Gval  0.00015955  0.00016699  0.00016738  0.00018291  0.00018397  0.00020136  0.00020375  0.00021561
    Gval  0.00022431  0.00022872  0.00023029  0.00023701  0.00026704  0.00028381  0.00029213  0.00029509
    Gval  0.00030017  0.00030274  0.00034423  0.00034606  0.00035427  0.00036600  0.00037147  0.00038289
    Gval  0.00038662  0.00038994  0.00039286  0.00039719  0.00041795  0.00042111  0.00042810  0.00043121
    Gval  0.00043283  0.00043580  0.00044202  0.00044254  0.00045596  0.00046432  0.00046992  0.00047208
    Gval  0.00049471  0.00053109  0.00053447  0.00053727  0.00055373  0.00055538  0.00055595  0.00055893
    Gval  0.00058322  0.00059674  0.00059852  0.00059925  0.00059957  0.00059986  0.00060221  0.00060888
    Gval  0.00062432  0.00062592  0.00062925  0.00064140  0.00064488  0.00064570  0.00064746  0.00067058
    Gval  0.00069361  0.00069712  0.00079879  0.00080344  0.00086029  0.00094625  0.00098749  0.00108274
    Gval  0.00109380  0.00109473  0.00109546  0.00109595  0.00109769  0.00114582  0.00115777  0.00116445
    Gval  0.00116497  0.00116658  0.00116724  0.00116903  0.00116960  0.00118279  0.00120034  0.00125302
    Gval  0.00129259  0.00129951  0.00138092  0.00145331  0.00150662  0.00162446  0.00165569  0.00167320
    Gval  0.00173657  0.00184835  0.00194366  0.00206937  0.00227924  0.00234492  0.00252216  0.00254006
    Gval  0.00256898  0.00266438  0.00276113  0.00278288  0.00292459  0.00302238  0.00302939  0.00304251
    Gval  0.00308272  0.00309253  0.00366417  0.00366996  0.00371207  0.00371765  0.00379385  0.00393461
    Gval  0.00408135
  3.367809240497095E-007  3.367809240497095E-007
  7.715184087225101E-007  3.367809240497095E-007
  1.392343343633463E-006  3.367809240497095E-007
  1.791206892413346E-006  3.367809240497095E-007
  4.330792968959231E-006  3.367809240497095E-007
  4.456280412330354E-006  3.367809240497095E-007
  5.143887752717197E-006  3.367809240497095E-007
  7.029102547188849E-006  3.367809240497095E-007
  8.669641009106170E-006  3.367809240497095E-007
  9.177286263424242E-006  3.367809240497095E-007
  1.223489273197940E-005  3.367809240497095E-007
  1.356372130776770E-005  3.367809240497095E-007
  1.421338189671710E-005  3.367809240497095E-007
  1.610051185852458E-005  3.367809240497095E-007
  1.768640191195234E-005  3.367809240497095E-007
  1.824007827107358E-005  3.367809240497095E-007
  1.838274061351463E-005  3.367809240497095E-007
  1.979472455395486E-005  3.367809240497095E-007
  2.123728454704385E-005  3.367809240497095E-007
  2.265506205013062E-005  3.367809240497095E-007
  2.400618478993109E-005  3.367809240497095E-007
  2.497278900063594E-005  3.367809240497095E-007
  2.533608348094903E-005  3.367809240497095E-007
  2.921290884886127E-005  3.367809240497095E-007
  3.022393025052463E-005  3.367809240497095E-007
  3.631880933944000E-005  3.367809240497095E-007
  3.755957028577616E-005  3.367809240497095E-007
  3.994858368758591E-005  3.367809240497095E-007
  4.117252960630445E-005  3.367809240497095E-007
  4.488844864028118E-005  3.367809240497095E-007
  4.781667568225422E-005  3.367809240497095E-007
  4.879070163159356E-005  3.367809240497095E-007
  5.108447384752514E-005  3.367809240497095E-007
  5.300218208818227E-005  3.367809240497095E-007
  5.379736367297257E-005  3.367809240497095E-007
  5.648849431478231E-005  3.367809240497095E-007
  5.855072812431454E-005  3.367809240497095E-007
  5.919997848879248E-005  3.367809240497095E-007
  6.209569321242955E-005  3.367809240497095E-007
  6.754094641948305E-005  3.367809240497095E-007
  7.015020717213825E-005  3.367809240497095E-007
  7.149749179795614E-005  3.367809240497095E-007
  7.285607852663677E-005  3.367809240497095E-007
  7.561036435369988E-005  3.367809240497095E-007
  8.159399626992794E-005  3.367809240497095E-007
  8.219750483634138E-005  3.367809240497095E-007
  8.351675884961800E-005  3.367809240497095E-007
  8.517563655480093E-005  3.367809240497095E-007
  8.663103352523184E-005  3.367809240497095E-007
  8.785178017379031E-005  3.367809240497095E-007
  9.384896395498834E-005  3.367809240497095E-007
  9.633608212029485E-005  3.367809240497095E-007
  9.812404485653811E-005  3.367809240497095E-007
  1.007216319748353E-004  3.367809240497095E-007
  1.045766629729813E-004  3.367809240497095E-007
  1.162204490535342E-004  3.367809240497095E-007
  1.208839231745765E-004  3.367809240497095E-007
  1.250970215065824E-004  3.367809240497095E-007
  1.261041812497827E-004  3.367809240497095E-007
  1.362931773367762E-004  3.367809240497095E-007
  1.381230103077416E-004  3.367809240497095E-007
  1.383914423450588E-004  3.367809240497095E-007
  1.404415520909878E-004  3.367809240497095E-007
  1.479320066847358E-004  3.367809240497095E-007
  1.568146695962374E-004  3.367809240497095E-007
  1.595544362155866E-004  3.367809240497095E-007
  1.669892761006883E-004  3.367809240497095E-007
  1.673786175930592E-004  3.367809240497095E-007
  1.829143382363063E-004  3.367809240497095E-007
  1.839734508872146E-004  3.367809240497095E-007
  2.013628258159562E-004  3.367809240497095E-007
  2.037470258487639E-004  3.367809240497095E-007
  2.156062037966053E-004  3.367809240497095E-007
  2.243091830436142E-004  3.367809240497095E-007
  2.287191507222972E-004  3.367809240497095E-007
  2.302939778679305E-004  3.367809240497095E-007
  2.370054302900253E-004  3.367809240497095E-007
  2.670404161708047E-004  3.367809240497095E-007
  2.838054271635149E-004  3.367809240497095E-007
  2.921300048280420E-004  3.367809240497095E-007
  2.950935635012433E-004  3.367809240497095E-007
  3.001654398697089E-004  3.367809240497095E-007
  3.027373337078276E-004  3.367809240497095E-007
  3.442345727923553E-004  3.367809240497095E-007
  3.460575939687204E-004  3.367809240497095E-007
  3.542703528834946E-004  3.367809240497095E-007
  3.659972688861799E-004  3.367809240497095E-007
  3.714709527323127E-004  3.367809240497095E-007
  3.828865244381673E-004  3.367809240497095E-007
  3.866189069902410E-004  3.367809240497095E-007
  3.899436063204393E-004  3.367809240497095E-007
  3.928632739719991E-004  3.367809240497095E-007
  3.971944100346280E-004  3.367809240497095E-007
  4.179474565653560E-004  3.367809240497095E-007
  4.211082188777923E-004  3.367809240497095E-007
  4.281033257355674E-004  3.367809240497095E-007
  4.312051736478921E-004  3.367809240497095E-007
  4.328284812837300E-004  3.367809240497095E-007
  4.358013150842768E-004  3.367809240497095E-007
  4.420219276956843E-004  3.367809240497095E-007
  4.425389427875683E-004  3.367809240497095E-007
  4.559630631920025E-004  3.367809240497095E-007
  4.643158544058993E-004  3.367809240497095E-007
  4.699225273445442E-004  3.367809240497095E-007
  4.720766753313393E-004  3.367809240497095E-007
  4.947068844328050E-004  3.367809240497095E-007
  5.310910566075906E-004  3.367809240497095E-007
  5.344664402171734E-004  3.367809240497095E-007
  5.372711582446422E-004  3.367809240497095E-007
  5.537302547919235E-004  3.367809240497095E-007
  5.553841270892804E-004  3.367809240497095E-007
  5.559466584563154E-004  3.367809240497095E-007
  5.589320671741294E-004  3.367809240497095E-007
  5.832222444316503E-004  3.367809240497095E-007
  5.967375382169368E-004  3.367809240497095E-007
  5.985190222463374E-004  3.367809240497095E-007
  5.992481085346724E-004  3.367809240497095E-007
  5.995741604991939E-004  3.367809240497095E-007
  5.998583733415271E-004  3.367809240497095E-007
  6.022097556269239E-004  3.367809240497095E-007
  6.088804669592437E-004  3.367809240497095E-007
  6.243194453751616E-004  3.367809240497095E-007
  6.259226581067175E-004  3.367809240497095E-007
  6.292522261667823E-004  3.367809240497095E-007
  6.414023650979593E-004  3.367809240497095E-007
  6.448837665472299E-004  3.367809240497095E-007
  6.457018396333945E-004  3.367809240497095E-007
  6.474599924966989E-004  3.367809240497095E-007
  6.705790999294377E-004  3.367809240497095E-007
  6.936117385558301E-004  3.367809240497095E-007
  6.971183175575409E-004  3.367809240497095E-007
  7.987902265695031E-004  3.367809240497095E-007
  8.034375957383201E-004  3.367809240497095E-007
  8.602878706373908E-004  3.367809240497095E-007
  9.462523215209662E-004  3.367809240497095E-007
  9.874887974270765E-004  3.367809240497095E-007
  1.082739405491289E-003  3.367809240497095E-007
  1.093802221413543E-003  3.367809240497095E-007
  1.094726024153922E-003  3.367809240497095E-007
  1.095460581170640E-003  3.367809240497095E-007
  1.095949047683133E-003  3.367809240497095E-007
  1.097690179336619E-003  3.367809240497095E-007
  1.145818161883267E-003  3.367809240497095E-007
  1.157769803478241E-003  3.367809240497095E-007
  1.164446886315779E-003  3.367809240497095E-007
  1.164966971165926E-003  3.367809240497095E-007
  1.166579609733668E-003  3.367809240497095E-007
  1.167239301714089E-003  3.367809240497095E-007
  1.169025192248356E-003  3.367809240497095E-007
  1.169604848577640E-003  3.367809240497095E-007
  1.182792096001904E-003  3.367809240497095E-007
  1.200338117318775E-003  3.367809240497095E-007
  1.253023066931289E-003  3.367809240497095E-007
  1.292585098135988E-003  3.367809240497095E-007
  1.299508209751609E-003  3.367809240497095E-007
  1.380924381407539E-003  3.367809240497095E-007
  1.453311454603468E-003  3.367809240497095E-007
  1.506615820127970E-003  3.367809240497095E-007
  1.624460499106147E-003  3.367809240497095E-007
  1.655686101216147E-003  3.367809240497095E-007
  1.673198738410860E-003  3.367809240497095E-007
  1.736572120599163E-003  3.367809240497095E-007
  1.848351855061462E-003  3.367809240497095E-007
  1.943661442536503E-003  3.367809240497095E-007
  2.069369446578213E-003  3.367809240497095E-007
  2.279236746230283E-003  3.367809240497095E-007
  2.344916662108608E-003  3.367809240497095E-007
  2.522164678021620E-003  3.367809240497095E-007
  2.540062671626499E-003  3.367809240497095E-007
  2.568982267612561E-003  3.367809240497095E-007
  2.664383890473824E-003  3.367809240497095E-007
  2.761127760381723E-003  3.367809240497095E-007
  2.782877782127460E-003  3.367809240497095E-007
  2.924590148276535E-003  3.367809240497095E-007
  3.022381988925863E-003  3.367809240497095E-007
  3.029385461854944E-003  3.367809240497095E-007
  3.042514214716786E-003  3.367809240497095E-007
  3.082717200089833E-003  3.367809240497095E-007
  3.092525506394803E-003  3.367809240497095E-007
  3.664165433185384E-003  3.367809240497095E-007
  3.669964242577314E-003  3.367809240497095E-007
  3.712074154151129E-003  3.367809240497095E-007
  3.717652447398190E-003  3.367809240497095E-007
  3.793854282498898E-003  3.367809240497095E-007
  3.934609558454599E-003  3.367809240497095E-007
  4.081347519165896E-003  3.367809240497095E-007
 cut=1d-8, nber non-redundant internal coords=         186
 Check on Eigenvals of non-red overlap matrix:
  0.00000034  0.00000077  0.00000139  0.00000179  0.00000433  0.00000446  0.00000514  0.00000703
  0.00000867  0.00000918  0.00001223  0.00001356  0.00001421  0.00001610  0.00001769  0.00001824
  0.00001838  0.00001979  0.00002124  0.00002266  0.00002401  0.00002497  0.00002534  0.00002921
  0.00003022  0.00003632  0.00003756  0.00003995  0.00004117  0.00004489  0.00004782  0.00004879
  0.00005108  0.00005300  0.00005380  0.00005649  0.00005855  0.00005920  0.00006210  0.00006754
  0.00007015  0.00007150  0.00007286  0.00007561  0.00008159  0.00008220  0.00008352  0.00008518
  0.00008663  0.00008785  0.00009385  0.00009634  0.00009812  0.00010072  0.00010458  0.00011622
  0.00012088  0.00012510  0.00012610  0.00013629  0.00013812  0.00013839  0.00014044  0.00014793
  0.00015681  0.00015955  0.00016699  0.00016738  0.00018291  0.00018397  0.00020136  0.00020375
  0.00021561  0.00022431  0.00022872  0.00023029  0.00023701  0.00026704  0.00028381  0.00029213
  0.00029509  0.00030017  0.00030274  0.00034423  0.00034606  0.00035427  0.00036600  0.00037147
  0.00038289  0.00038662  0.00038994  0.00039286  0.00039719  0.00041795  0.00042111  0.00042810
  0.00043121  0.00043283  0.00043580  0.00044202  0.00044254  0.00045596  0.00046432  0.00046992
  0.00047208  0.00049471  0.00053109  0.00053447  0.00053727  0.00055373  0.00055538  0.00055595
  0.00055893  0.00058322  0.00059674  0.00059852  0.00059925  0.00059957  0.00059986  0.00060221
  0.00060888  0.00062432  0.00062592  0.00062925  0.00064140  0.00064488  0.00064570  0.00064746
  0.00067058  0.00069361  0.00069712  0.00079879  0.00080344  0.00086029  0.00094625  0.00098749
  0.00108274  0.00109380  0.00109473  0.00109546  0.00109595  0.00109769  0.00114582  0.00115777
  0.00116445  0.00116497  0.00116658  0.00116724  0.00116903  0.00116960  0.00118279  0.00120034
  0.00125302  0.00129259  0.00129951  0.00138092  0.00145331  0.00150662  0.00162446  0.00165569
  0.00167320  0.00173657  0.00184835  0.00194366  0.00206937  0.00227924  0.00234492  0.00252216
  0.00254006  0.00256898  0.00266438  0.00276113  0.00278288  0.00292459  0.00302238  0.00302939
  0.00304251  0.00308272  0.00309253  0.00366417  0.00366996  0.00371207  0.00371765  0.00379385
  0.00393461  0.00408135
 int defn changed for coord          32
          30          29           0           0
          30          28           0           0
