 Enter ifcurve (0=recti, 1=orth curvi, 2=apprx curvi, -1 = skip
 And atom ordering flag, 0= never changes, 1= use the first order thenceforth,
  2= deduce it (does read on fail), 3= always read it
 Reading file: 
 ./TT-BT_1_C0S0.log                                                             
                                          
  Entering Gaussian System, Link 0=g16                                          
  
 Gaussian format, type: g94, g98, g03= F F F
  #P Geom=AllCheck Guess=TCheck SCRF=Check GenChk RB3LYP/6-311G(d,p) Fre    
 energy type= B3LYP   
 Original G94 input coords:
  6  1.124034  0.063293  0.062774
  6  0.283229 -0.992856  0.062594
  6 -1.159140 -0.926391  0.062883
  7 -1.907707 -1.989814  0.062808
  6 -3.248362 -1.674927  0.063131
  6 -4.296496 -2.606086  0.063140
  6 -5.604968 -2.148770  0.063485
  6 -5.887456 -0.773715  0.063822
  6 -4.864762  0.168092  0.063819
  6 -3.549262 -0.291911  0.063473
 16 -2.057016  0.624232  0.063371
  6  2.565335 -0.004010  0.062481
  6  3.402661 -1.100230  0.061903
  6  4.764989 -0.726979  0.061771
 16  6.279016 -1.594981  0.061127
  6  7.165752 -0.087354  0.061503
  6  6.361802  1.015113  0.062115
  6  4.988139  0.647802  0.062259
 16  3.481200  1.511801  0.062918
  1  0.700822  1.064744  0.063183
  1  0.660044 -2.010049  0.062219
  1 -4.060645 -3.663139  0.062879
  1 -6.422533 -2.860233  0.063497
  1 -6.918223 -0.438632  0.064089
  1 -5.088679  1.227908  0.064082
  1  3.044695 -2.120130  0.061570
  1  8.244529 -0.116468  0.061260
  1  6.735833  2.029171  0.062435
 nber atoms=          28
  SCF Done:  E(RB3LYP) =  -1826.54297761     A.U. after    1 cycles             
  
          23          40 "  -1826.54297761"
After scan for Atom:   Atom  AN      X      Y      Z        X      Y      Z        X      Y      Z   
After scan for Atom:   Atom  AN      X      Y      Z        X      Y      Z        X      Y      Z   
After scan for Atom:   Atom  AN      X      Y      Z        X      Y      Z        X      Y      Z   
After scan for Atom:   Atom  AN      X      Y      Z        X      Y      Z        X      Y      Z   
After scan for Atom:   Atom  AN      X      Y      Z        X      Y      Z        X      Y      Z   
After scan for Atom:   Atom  AN      X      Y      Z        X      Y      Z        X      Y      Z   
After scan for Atom:   Atom  AN      X      Y      Z        X      Y      Z        X      Y      Z   
After scan for Atom:   Atom  AN      X      Y      Z        X      Y      Z        X      Y      Z   
After scan for Atom:   Atom  AN      X      Y      Z        X      Y      Z        X      Y      Z   
After scan for Atom:   Atom  AN      X      Y      Z        X      Y      Z        X      Y      Z   
After scan for Atom:   Atom  AN      X      Y      Z        X      Y      Z        X      Y      Z   
After scan for Atom:   Atom  AN      X      Y      Z        X      Y      Z        X      Y      Z   
After scan for Atom:   Atom  AN      X      Y      Z        X      Y      Z        X      Y      Z   
After scan for Atom:   Atom  AN      X      Y      Z        X      Y      Z        X      Y      Z   
After scan for Atom:   Atom  AN      X      Y      Z        X      Y      Z        X      Y      Z   
After scan for Atom:   Atom  AN      X      Y      Z        X      Y      Z        X      Y      Z   
After scan for Atom:   Atom  AN      X      Y      Z        X      Y      Z        X      Y      Z   
After scan for Atom:   Atom  AN      X      Y      Z        X      Y      Z        X      Y      Z   
After scan for Atom:   Atom  AN      X      Y      Z        X      Y      Z        X      Y      Z   
After scan for Atom:   Atom  AN      X      Y      Z        X      Y      Z        X      Y      Z   
After scan for Atom:   Atom  AN      X      Y      Z        X      Y      Z        X      Y      Z   
After scan for Atom:   Atom  AN      X      Y      Z        X      Y      Z        X      Y      Z   
After scan for Atom:   Atom  AN      X      Y      Z        X      Y      Z        X      Y      Z   
After scan for Atom:   Atom  AN      X      Y      Z        X      Y      Z        X      Y      Z   
After scan for Atom:   Atom  AN      X      Y      Z        X      Y      Z        X      Y      Z   
After scan for Atom:   Atom  AN      X      Y      Z        X      Y      Z        X      Y      Z   
 g94    frequencies=
     0.0    0.0    0.0    0.0    0.0    0.0   17.3   31.0   41.4   69.5
   123.5  164.2  176.3  194.8  198.0  205.9  289.9  318.3  344.6  382.7
   438.7  443.3  456.5  465.9  497.5  509.3  516.1  559.7  577.3  619.2
   620.6  622.7  649.6  678.7  705.2  715.1  737.1  762.7  774.5  795.4
   828.6  853.3  860.3  867.8  879.2  887.1  925.9  952.3  975.2  990.6
  1037.6 1073.6 1100.3 1129.4 1143.4 1176.8 1183.5 1213.7 1234.8 1265.2
  1290.4 1311.5 1344.8 1351.9 1359.2 1387.2 1455.2 1461.5 1487.7 1498.8
  1522.5 1548.9 1595.5 1629.8 1663.1 3138.7 3168.6 3173.6 3180.5 3191.1
  3198.5 3214.9 3215.9 3244.6
 g94    symmetries=
                                                 A      A      A      A
       A      A      A      A      A      A      A      A      A      A
       A      A      A      A      A      A      A      A      A      A
       A      A      A      A      A      A      A      A      A      A
       A      A      A      A      A      A      A      A      A      A
       A      A      A      A      A      A      A      A      A      A
       A      A      A      A      A      A      A      A      A      A
       A      A      A      A      A      A      A      A      A      A
       A      A      A      A
 atomic masses:
 12.0000 12.0000 12.0000 14.0031 12.0000 12.0000 12.0000 12.0000 12.0000 12.0000
 31.9721 12.0000 12.0000 12.0000 31.9721 12.0000 12.0000 12.0000 31.9721  1.0078
  1.0078  1.0078  1.0078  1.0078  1.0078  1.0078  1.0078  1.0078
 looking for force constants in 
 ./TT-BT_1_C0S0.fchk                                                            
  
 Cartesian Force Constants                  R   N=        3570                  
  
 n3=          84        3570
 g94-fc frequencies=
    -0.0   -0.0    0.0    1.5    1.6    3.9   17.4   31.0   41.4   69.5
   123.5  164.2  176.3  194.8  198.0  205.9  289.9  318.4  344.6  382.7
   438.7  443.4  456.5  465.9  497.5  509.3  516.1  559.7  577.3  619.2
   620.6  622.7  649.7  678.8  705.2  715.2  737.1  762.7  774.5  795.4
   828.6  853.3  860.3  867.9  879.2  887.1  925.9  952.3  975.2  990.6
  1037.6 1073.6 1100.4 1129.4 1143.4 1176.8 1183.5 1213.7 1234.8 1265.2
  1290.5 1311.5 1344.8 1352.0 1359.2 1387.2 1455.3 1461.5 1487.7 1498.8
  1522.5 1548.9 1595.5 1629.8 1663.1 3138.8 3168.7 3173.7 3180.5 3191.2
  3198.5 3215.0 3216.0 3244.7
 at 99999: n3=          84
 symm operator            1 :  F  nop=           0
 symm operator            2 :  F  nop=           0
 symm operator            3 :  F  nop=           0
 symm operator            4 :  F  nop=           0
 symm operator            5 :  F  nop=           0
 symm operator            6 :  F  nop=           0
 symm operator            7 :  F  nop=           0
 The point group of the molecule is  C1
 Symmetry rotation matrix:
   1.00000   0.00000   0.00000
   0.00000   1.00000   0.00000
   0.00000   0.00000   1.00000

 Projecting out zero-frequency components
 generating redundant internal coords
         300        3600          28
 search for int coords
   1 str   2   1   1.350
   2 str   3   2   1.444
   3 str   4   3   1.300
   4 str   5   4   1.377
   5 str   6   5   1.402
   6 str   7   6   1.386
   7 str   8   7   1.404
   8 str   9   8   1.390
   9 str  10   5   1.415
  10 str  10   9   1.394
  11 str  11   3   1.792
  12 str  11  10   1.751
  13 str  12   1   1.443
  14 str  13  12   1.379
  15 str  14  13   1.413
  16 str  15  14   1.745
  17 str  16  15   1.749
  18 str  17  16   1.364
  19 str  18  14   1.393
  20 str  18  17   1.422
  21 str  19  12   1.771
  22 str  19  18   1.737
  23 str  20   1   1.087
  24 str  21   2   1.085
  25 str  22   6   1.083
  26 str  23   7   1.084
  27 str  24   8   1.084
  28 str  25   9   1.083
  29 str  26  13   1.081
  30 str  27  16   1.079
  31 str  28  17   1.081
 nber stretches=          31
  32 ben   1   2   3
  33 prop tor   1   2   3   4
  34 prop tor   1   2   3  11
  35 ben   1   2  21
  36 ben   1  12  13
  37 prop tor   1  12  13  14
  38 prop tor   1  12  13  26
  39 ben   1  12  19
  40 prop tor   1  12  19  18
  41 ben   2   1  12
  42 prop tor   2   1  12  13
  43 prop tor   2   1  12  19
  44 ben   2   1  20
  45 ben   2   3   4
  46 prop tor   2   3   4   5
  47 ben   2   3  11
  48 prop tor   2   3  11  10
  49 ben   3   2  21
  50 ben   3   4   5
  51 prop tor   3   4   5   6
  52 prop tor   3   4   5  10
  53 ben   3  11  10
  54 ben   4   3  11
  55 prop tor   4   3  11  10
  56 ben   4   5   6
  57 prop tor   4   5   6   7
  58 prop tor   4   5   6  22
  59 ben   4   5  10
  60 prop tor   4   5  10   9
  61 prop tor   4   5  10  11
  62 ben   5   6   7
  63 prop tor   5   6   7   8
  64 prop tor   5   6   7  23
  65 ben   5   6  22
  66 ben   5  10   9
  67 ben   5  10  11
  68 prop tor   5  10  11   3
  69 ben   6   5  10
  70 prop tor   6   5  10   9
  71 prop tor   6   5  10  11
  72 ben   6   7   8
  73 prop tor   6   7   8   9
  74 prop tor   6   7   8  24
  75 ben   6   7  23
  76 ben   7   6  22
  77 ben   7   8   9
  78 prop tor   7   8   9  10
  79 prop tor   7   8   9  25
  80 ben   7   8  24
  81 ben   8   7  23
  82 ben   8   9  10
  83 prop tor   8   9  10   5
  84 prop tor   8   9  10  11
  85 ben   8   9  25
  86 ben   9   8  24
  87 ben   9  10  11
  88 prop tor   9  10  11   3
  89 prop tor  10   5   6   7
  90 prop tor  10   5   6  22
  91 ben  10   9  25
  92 prop tor  11   3   4   5
  93 prop tor  12   1   2   3
  94 prop tor  12   1   2  21
  95 ben  12   1  20
  96 ben  12  13  14
  97 prop tor  12  13  14  15
  98 prop tor  12  13  14  18
  99 ben  12  13  26
 100 ben  12  19  18
 101 ben  13  12  19
 102 prop tor  13  12  19  18
 103 ben  13  14  15
 104 prop tor  13  14  15  16
 105 ben  13  14  18
 106 prop tor  13  14  18  17
 107 prop tor  13  14  18  19
 108 ben  14  13  26
 109 ben  14  15  16
 110 prop tor  14  15  16  17
 111 prop tor  14  15  16  27
 112 ben  14  18  17
 113 ben  14  18  19
 114 prop tor  14  18  19  12
 115 ben  15  14  18
 116 prop tor  15  14  18  17
 117 prop tor  15  14  18  19
 118 ben  15  16  17
 119 prop tor  15  16  17  18
 120 prop tor  15  16  17  28
 121 ben  15  16  27
 122 ben  16  17  18
 123 prop tor  16  17  18  14
 124 prop tor  16  17  18  19
 125 ben  16  17  28
 126 ben  17  16  27
 127 ben  17  18  19
 128 prop tor  17  18  19  12
 129 prop tor  18  14  15  16
 130 ben  18  17  28
 131 prop tor  19  12  13  14
 132 prop tor  19  12  13  26
 133 prop tor  20   1   2   3
 134 prop tor  20   1   2  21
 135 prop tor  20   1  12  13
 136 prop tor  20   1  12  19
 137 prop tor  21   2   3   4
 138 prop tor  21   2   3  11
 139 prop tor  22   6   7   8
 140 prop tor  22   6   7  23
 141 prop tor  23   7   8   9
 142 prop tor  23   7   8  24
 143 prop tor  24   8   9  10
 144 prop tor  24   8   9  25
 145 prop tor  25   9  10   5
 146 prop tor  25   9  10  11
 147 prop tor  26  13  14  15
 148 prop tor  26  13  14  18
 149 prop tor  27  16  17  18
 150 prop tor  27  16  17  28
 151 prop tor  28  17  18  14
 152 prop tor  28  17  18  19
 nber bend=              49
 nber lin bend=           0
 nber prop tor=          72
 nber impr tor=           0
 nber tot redund int=         152
 Eigenvalues of G in red int coords
    Gval -0.00000000 -0.00000000 -0.00000000 -0.00000000 -0.00000000 -0.00000000 -0.00000000 -0.00000000
    Gval -0.00000000 -0.00000000 -0.00000000 -0.00000000 -0.00000000 -0.00000000 -0.00000000 -0.00000000
    Gval -0.00000000 -0.00000000 -0.00000000 -0.00000000 -0.00000000 -0.00000000 -0.00000000 -0.00000000
    Gval -0.00000000 -0.00000000 -0.00000000 -0.00000000 -0.00000000 -0.00000000 -0.00000000 -0.00000000
    Gval -0.00000000 -0.00000000 -0.00000000 -0.00000000  0.00000000  0.00000000  0.00000000  0.00000000
    Gval  0.00000000  0.00000000  0.00000000  0.00000000  0.00000000  0.00000000  0.00000000  0.00000000
    Gval  0.00000000  0.00000000  0.00000000  0.00000000  0.00000000  0.00000000  0.00000000  0.00000000
    Gval  0.00000000  0.00000000  0.00000000  0.00000000  0.00000000  0.00000000  0.00000000  0.00000000
    Gval  0.00000000  0.00000000  0.00000000  0.00000000  0.00000000  0.00000000  0.00000000  0.00000000
    Gval  0.00000000  0.00000000  0.00000064  0.00000194  0.00000323  0.00000510  0.00000803  0.00001567
    Gval  0.00001985  0.00002218  0.00002389  0.00002859  0.00003321  0.00003538  0.00004134  0.00004677
    Gval  0.00004954  0.00005217  0.00006083  0.00006148  0.00007656  0.00008452  0.00008684  0.00009250
    Gval  0.00009942  0.00011338  0.00012124  0.00012604  0.00012631  0.00013959  0.00015573  0.00015686
    Gval  0.00019217  0.00020640  0.00021848  0.00025184  0.00026369  0.00030363  0.00031457  0.00032214
    Gval  0.00032607  0.00036061  0.00039036  0.00039972  0.00041162  0.00046433  0.00059315  0.00059632
    Gval  0.00059660  0.00059752  0.00061828  0.00062063  0.00062475  0.00063088  0.00065361  0.00065530
    Gval  0.00065981  0.00078692  0.00089329  0.00105444  0.00106349  0.00108136  0.00112099  0.00112255
    Gval  0.00114256  0.00116317  0.00116407  0.00117164  0.00118668  0.00129302  0.00163446  0.00180143
    Gval  0.00208317  0.00270063  0.00276341  0.00319937  0.00356975  0.00357433  0.00397209  0.00402219
  6.356909794603242E-007  6.356909794603242E-007
  1.943074370724138E-006  6.356909794603242E-007
  3.229780490628040E-006  6.356909794603242E-007
  5.096846714888147E-006  6.356909794603242E-007
  8.032630308543896E-006  6.356909794603242E-007
  1.567072051738553E-005  6.356909794603242E-007
  1.984568342245085E-005  6.356909794603242E-007
  2.218376789939839E-005  6.356909794603242E-007
  2.389209635330132E-005  6.356909794603242E-007
  2.859199559868454E-005  6.356909794603242E-007
  3.320795326847769E-005  6.356909794603242E-007
  3.537702521144908E-005  6.356909794603242E-007
  4.134195441735596E-005  6.356909794603242E-007
  4.677124923973829E-005  6.356909794603242E-007
  4.953888447444830E-005  6.356909794603242E-007
  5.216992046160468E-005  6.356909794603242E-007
  6.083307773502685E-005  6.356909794603242E-007
  6.148145073820406E-005  6.356909794603242E-007
  7.655859923235438E-005  6.356909794603242E-007
  8.452291580882628E-005  6.356909794603242E-007
  8.684465138571289E-005  6.356909794603242E-007
  9.249812079627590E-005  6.356909794603242E-007
  9.941813264685531E-005  6.356909794603242E-007
  1.133772466051491E-004  6.356909794603242E-007
  1.212398122955849E-004  6.356909794603242E-007
  1.260417475167820E-004  6.356909794603242E-007
  1.263106669650329E-004  6.356909794603242E-007
  1.395865822434278E-004  6.356909794603242E-007
  1.557268569335791E-004  6.356909794603242E-007
  1.568563652781004E-004  6.356909794603242E-007
  1.921660974577269E-004  6.356909794603242E-007
  2.063993882853235E-004  6.356909794603242E-007
  2.184771922903637E-004  6.356909794603242E-007
  2.518448388727994E-004  6.356909794603242E-007
  2.636858565156276E-004  6.356909794603242E-007
  3.036286233658915E-004  6.356909794603242E-007
  3.145690453160308E-004  6.356909794603242E-007
  3.221369190164000E-004  6.356909794603242E-007
  3.260660963318355E-004  6.356909794603242E-007
  3.606061440927050E-004  6.356909794603242E-007
  3.903590255392377E-004  6.356909794603242E-007
  3.997225552180644E-004  6.356909794603242E-007
  4.116199065489479E-004  6.356909794603242E-007
  4.643287743979766E-004  6.356909794603242E-007
  5.931537649089999E-004  6.356909794603242E-007
  5.963161409719419E-004  6.356909794603242E-007
  5.966010367362448E-004  6.356909794603242E-007
  5.975164357594322E-004  6.356909794603242E-007
  6.182751805519801E-004  6.356909794603242E-007
  6.206314434101556E-004  6.356909794603242E-007
  6.247529615250765E-004  6.356909794603242E-007
  6.308849612689287E-004  6.356909794603242E-007
  6.536087647635597E-004  6.356909794603242E-007
  6.553039960804965E-004  6.356909794603242E-007
  6.598105236052302E-004  6.356909794603242E-007
  7.869242686731364E-004  6.356909794603242E-007
  8.932893282974791E-004  6.356909794603242E-007
  1.054435139402846E-003  6.356909794603242E-007
  1.063491731433791E-003  6.356909794603242E-007
  1.081361091036481E-003  6.356909794603242E-007
  1.120986940319228E-003  6.356909794603242E-007
  1.122549493657937E-003  6.356909794603242E-007
  1.142559448574713E-003  6.356909794603242E-007
  1.163172214157824E-003  6.356909794603242E-007
  1.164072619988647E-003  6.356909794603242E-007
  1.171643350453975E-003  6.356909794603242E-007
  1.186683313573651E-003  6.356909794603242E-007
  1.293017357270746E-003  6.356909794603242E-007
  1.634462325677670E-003  6.356909794603242E-007
  1.801425585153340E-003  6.356909794603242E-007
  2.083167271920032E-003  6.356909794603242E-007
  2.700626541341433E-003  6.356909794603242E-007
  2.763406662139625E-003  6.356909794603242E-007
  3.199369102710786E-003  6.356909794603242E-007
  3.569751006552403E-003  6.356909794603242E-007
  3.574329484452247E-003  6.356909794603242E-007
  3.972091769909336E-003  6.356909794603242E-007
  4.022194288790925E-003  6.356909794603242E-007
 cut=1d-8, nber non-redundant internal coords=          78
 Check on Eigenvals of non-red overlap matrix:
  0.00000064  0.00000194  0.00000323  0.00000510  0.00000803  0.00001567  0.00001985  0.00002218
  0.00002389  0.00002859  0.00003321  0.00003538  0.00004134  0.00004677  0.00004954  0.00005217
  0.00006083  0.00006148  0.00007656  0.00008452  0.00008684  0.00009250  0.00009942  0.00011338
  0.00012124  0.00012604  0.00012631  0.00013959  0.00015573  0.00015686  0.00019217  0.00020640
  0.00021848  0.00025184  0.00026369  0.00030363  0.00031457  0.00032214  0.00032607  0.00036061
  0.00039036  0.00039972  0.00041162  0.00046433  0.00059315  0.00059632  0.00059660  0.00059752
  0.00061828  0.00062063  0.00062475  0.00063088  0.00065361  0.00065530  0.00065981  0.00078692
  0.00089329  0.00105444  0.00106349  0.00108136  0.00112099  0.00112255  0.00114256  0.00116317
  0.00116407  0.00117164  0.00118668  0.00129302  0.00163446  0.00180143  0.00208317  0.00270063
  0.00276341  0.00319937  0.00356975  0.00357433  0.00397209  0.00402219
 Checking for correct frequencies
 recalc frequencies=
    -0.0   -0.0   -0.0    0.0    0.0    0.0   17.3   31.0   41.4   69.5
   123.5  164.2  176.3  194.8  198.0  205.9  289.9  318.4  344.6  382.7
   438.7  443.4  456.5  465.9  497.5  509.3  516.1  559.7  577.3  619.2
   620.6  622.7  649.7  678.8  705.2  715.2  737.1  762.7  774.5  795.4
   828.6  853.3  860.3  867.9  879.2  887.1  925.9  952.3  975.2  990.6
  1037.6 1073.6 1100.4 1129.4 1143.4 1176.8 1183.5 1213.7 1234.8 1265.2
  1290.5 1311.5 1344.8 1352.0 1359.2 1387.2 1455.3 1461.5 1487.7 1498.8
  1522.5 1548.9 1595.5 1629.8 1663.1 3138.8 3168.7 3173.7 3180.5 3191.2
  3198.5 3215.0 3216.0 3244.7
 recalc symmetries=
                                                                       
                                                                       
                                                                       
                                                                       
                                                                       
                                                                       
                                                                       
                                                                       
                             
 recalc freqs check OK
 Zero-point lengths:
 10.0000 10.0000 10.0000 10.0000 10.0000 10.0000 59.5247 44.5077 38.5360 29.7287
 22.3066 19.3487 18.6724 17.7629 17.6180 17.2782 14.5603 13.8944 13.3549 12.6720
 11.8359 11.7739 11.6026 11.4859 11.1148 10.9848 10.9129 10.4791 10.3176  9.9626
  9.9512  9.9346  9.7264  9.5157  9.3358  9.2704  9.1313  8.9765  8.9081  8.7900
  8.6123  8.4867  8.4521  8.4153  8.3609  8.3233  8.1473  8.0336  7.9386  7.8767
  7.6963  7.5661  7.4735  7.3767  7.3316  7.2268  7.2062  7.1160  7.0549  6.9697
  6.9012  6.8455  6.7602  6.7423  6.7243  6.6562  6.4986  6.4847  6.4274  6.4036
  6.3535  6.2991  6.2065  6.1408  6.0790  4.4250  4.4041  4.4006  4.3959  4.3885
  4.3835  4.3723  4.3716  4.3522
 highest evec of mol 1
 -0.0001  0.0000 -0.0000
  0.0000 -0.0001 -0.0000
 -0.0001  0.0000  0.0000
 -0.0000 -0.0000 -0.0000
  0.0000 -0.0000 -0.0000
 -0.0000 -0.0001 -0.0000
 -0.0000 -0.0001 -0.0000
 -0.0000  0.0000  0.0000
 -0.0000  0.0001  0.0000
  0.0000  0.0000 -0.0000
 -0.0000 -0.0000  0.0000
 -0.0002  0.0003  0.0000
 -0.0008 -0.0025 -0.0000
  0.0035  0.0002 -0.0000
  0.0008  0.0022  0.0000
 -0.2813  0.0224  0.0001
 -0.0216 -0.0991 -0.0000
  0.0074  0.0024 -0.0000
 -0.0004  0.0001  0.0000
  0.0002 -0.0003 -0.0000
 -0.0000  0.0002  0.0000
 -0.0001  0.0002  0.0000
  0.0002  0.0002 -0.0000
  0.0001 -0.0000 -0.0000
  0.0001 -0.0002 -0.0000
  0.0024  0.0068  0.0000
  0.9084 -0.0283 -0.0002
  0.0979  0.2726  0.0001
 generating redundant internal coords
         300        3600          28
 Adding extra bonds for z output only
           6           6           6           7           6           6
           6           6           6           6          16           6
           6           6          16           6           6           6
          16           1           1           1           1           1
           1           1           1           1
 search for int coords
   1 str   2   1   1.350
   2 str   3   2   1.444
   3 str   4   3   1.300
   4 str   5   4   1.377
   5 str   6   5   1.402
   6 str   7   6   1.386
   7 str   8   7   1.404
   8 str   9   8   1.390
   9 str  10   5   1.415
  10 str  10   9   1.394
  11 str  11   3   1.792
  12 str  11  10   1.751
  13 str  12   1   1.443
  14 str  13  12   1.379
  15 str  14  13   1.413
  16 str  15  14   1.745
  17 str  16  15   1.749
  18 str  17  16   1.364
  19 str  18  14   1.393
  20 str  18  17   1.422
  21 str  19  12   1.771
  22 str  19  18   1.737
  23 str  20   1   1.087
  24 str  21   2   1.085
  25 str  22   6   1.083
  26 str  23   7   1.084
  27 str  24   8   1.084
  28 str  25   9   1.083
  29 str  26  13   1.081
  30 str  27  16   1.079
  31 str  28  17   1.081
 nber stretches=          31
  32 ben   1   2   3
  33 prop tor   1   2   3   4
  34 prop tor   1   2   3  11
  35 ben   1   2  21
  36 ben   1  12  13
  37 prop tor   1  12  13  14
  38 prop tor   1  12  13  26
  39 ben   1  12  19
  40 prop tor   1  12  19  18
  41 ben   2   1  12
  42 prop tor   2   1  12  13
  43 prop tor   2   1  12  19
  44 ben   2   1  20
  45 ben   2   3   4
  46 prop tor   2   3   4   5
  47 ben   2   3  11
  48 prop tor   2   3  11  10
  49 ben   3   2  21
  50 ben   3   4   5
  51 prop tor   3   4   5   6
  52 prop tor   3   4   5  10
  53 ben   3  11  10
  54 ben   4   3  11
  55 prop tor   4   3  11  10
  56 ben   4   5   6
  57 prop tor   4   5   6   7
  58 prop tor   4   5   6  22
  59 ben   4   5  10
  60 prop tor   4   5  10   9
  61 prop tor   4   5  10  11
  62 ben   5   6   7
  63 prop tor   5   6   7   8
  64 prop tor   5   6   7  23
  65 ben   5   6  22
  66 ben   5  10   9
  67 ben   5  10  11
  68 prop tor   5  10  11   3
  69 ben   6   5  10
  70 prop tor   6   5  10   9
  71 prop tor   6   5  10  11
  72 ben   6   7   8
  73 prop tor   6   7   8   9
  74 prop tor   6   7   8  24
  75 ben   6   7  23
  76 ben   7   6  22
  77 ben   7   8   9
  78 prop tor   7   8   9  10
  79 prop tor   7   8   9  25
  80 ben   7   8  24
  81 ben   8   7  23
  82 ben   8   9  10
  83 prop tor   8   9  10   5
  84 prop tor   8   9  10  11
  85 ben   8   9  25
  86 ben   9   8  24
  87 ben   9  10  11
  88 prop tor   9  10  11   3
  89 prop tor  10   5   6   7
  90 prop tor  10   5   6  22
  91 ben  10   9  25
  92 prop tor  11   3   4   5
  93 prop tor  12   1   2   3
  94 prop tor  12   1   2  21
  95 ben  12   1  20
  96 ben  12  13  14
  97 prop tor  12  13  14  15
  98 prop tor  12  13  14  18
  99 ben  12  13  26
 100 ben  12  19  18
 101 ben  13  12  19
 102 prop tor  13  12  19  18
 103 ben  13  14  15
 104 prop tor  13  14  15  16
 105 ben  13  14  18
 106 prop tor  13  14  18  17
 107 prop tor  13  14  18  19
 108 ben  14  13  26
 109 ben  14  15  16
 110 prop tor  14  15  16  17
 111 prop tor  14  15  16  27
 112 ben  14  18  17
 113 ben  14  18  19
 114 prop tor  14  18  19  12
 115 ben  15  14  18
 116 prop tor  15  14  18  17
 117 prop tor  15  14  18  19
 118 ben  15  16  17
 119 prop tor  15  16  17  18
 120 prop tor  15  16  17  28
 121 ben  15  16  27
 122 ben  16  17  18
 123 prop tor  16  17  18  14
 124 prop tor  16  17  18  19
 125 ben  16  17  28
 126 ben  17  16  27
 127 ben  17  18  19
 128 prop tor  17  18  19  12
 129 prop tor  18  14  15  16
 130 ben  18  17  28
 131 prop tor  19  12  13  14
 132 prop tor  19  12  13  26
 133 prop tor  20   1   2   3
 134 prop tor  20   1   2  21
 135 prop tor  20   1  12  13
 136 prop tor  20   1  12  19
 137 prop tor  21   2   3   4
 138 prop tor  21   2   3  11
 139 prop tor  22   6   7   8
 140 prop tor  22   6   7  23
 141 prop tor  23   7   8   9
 142 prop tor  23   7   8  24
 143 prop tor  24   8   9  10
 144 prop tor  24   8   9  25
 145 prop tor  25   9  10   5
 146 prop tor  25   9  10  11
 147 prop tor  26  13  14  15
 148 prop tor  26  13  14  18
 149 prop tor  27  16  17  18
 150 prop tor  27  16  17  28
 151 prop tor  28  17  18  14
 152 prop tor  28  17  18  19
 nber bend=              49
 nber lin bend=           0
 nber prop tor=          72
 nber impr tor=           0
 nber tot redund int=         152
 Reading file: 
 ./TT-BT_1_C0S1.log                                                             
                                          
  Entering Gaussian System, Link 0=g16                                          
  
 Gaussian format, type: g94, g98, g03= F F F
  #P Geom=AllCheck Guess=TCheck SCRF=Check GenChk RB3LYP TD(FC,Read)/6-3    
 energy type= TD      
 Original G94 input coords:
  6  1.115690  0.134777  0.062783
  6  0.288767 -0.996604  0.062622
  6 -1.110621 -0.970901  0.062892
  7 -1.896527 -2.040472  0.062736
  6 -3.207091 -1.708694  0.063075
  6 -4.280842 -2.627430  0.063022
  6 -5.577514 -2.153019  0.063398
  6 -5.851792 -0.767761  0.063835
  6 -4.819559  0.163429  0.063900
  6 -3.507114 -0.302349  0.063523
 16 -2.024734  0.610485  0.063495
  6  2.517009  0.076782  0.062500
  6  3.357546 -1.066572  0.062029
  6  4.704402 -0.718711  0.061867
 16  6.209648 -1.624248  0.061362
  6  7.125889 -0.137457  0.061476
  6  6.336756  0.991039  0.062037
  6  4.968368  0.664341  0.062207
 16  3.476915  1.580968  0.062766
  1  0.653812  1.117072  0.063151
  1  0.719771 -1.991282  0.062261
  1 -4.058749 -3.687269  0.062685
  1 -6.404407 -2.854213  0.063358
  1 -6.880220 -0.425973  0.064123
  1 -5.034030  1.225395  0.064234
  1  2.972030 -2.075483  0.061828
  1  8.204152 -0.184967  0.061183
  1  6.739276  1.994597  0.062241
 nber atoms=          28
  Total Energy, E(TD-HF/TD-DFT) =  -1826.43479885                               
  
          32          49 "  -1826.43479885"
After scan for Atom:   Atom  AN      X      Y      Z        X      Y      Z        X      Y      Z   
After scan for Atom:   Atom  AN      X      Y      Z        X      Y      Z        X      Y      Z   
After scan for Atom:   Atom  AN      X      Y      Z        X      Y      Z        X      Y      Z   
After scan for Atom:   Atom  AN      X      Y      Z        X      Y      Z        X      Y      Z   
After scan for Atom:   Atom  AN      X      Y      Z        X      Y      Z        X      Y      Z   
After scan for Atom:   Atom  AN      X      Y      Z        X      Y      Z        X      Y      Z   
After scan for Atom:   Atom  AN      X      Y      Z        X      Y      Z        X      Y      Z   
After scan for Atom:   Atom  AN      X      Y      Z        X      Y      Z        X      Y      Z   
After scan for Atom:   Atom  AN      X      Y      Z        X      Y      Z        X      Y      Z   
After scan for Atom:   Atom  AN      X      Y      Z        X      Y      Z        X      Y      Z   
After scan for Atom:   Atom  AN      X      Y      Z        X      Y      Z        X      Y      Z   
After scan for Atom:   Atom  AN      X      Y      Z        X      Y      Z        X      Y      Z   
After scan for Atom:   Atom  AN      X      Y      Z        X      Y      Z        X      Y      Z   
After scan for Atom:   Atom  AN      X      Y      Z        X      Y      Z        X      Y      Z   
After scan for Atom:   Atom  AN      X      Y      Z        X      Y      Z        X      Y      Z   
After scan for Atom:   Atom  AN      X      Y      Z        X      Y      Z        X      Y      Z   
After scan for Atom:   Atom  AN      X      Y      Z        X      Y      Z        X      Y      Z   
After scan for Atom:   Atom  AN      X      Y      Z        X      Y      Z        X      Y      Z   
After scan for Atom:   Atom  AN      X      Y      Z        X      Y      Z        X      Y      Z   
After scan for Atom:   Atom  AN      X      Y      Z        X      Y      Z        X      Y      Z   
After scan for Atom:   Atom  AN      X      Y      Z        X      Y      Z        X      Y      Z   
After scan for Atom:   Atom  AN      X      Y      Z        X      Y      Z        X      Y      Z   
After scan for Atom:   Atom  AN      X      Y      Z        X      Y      Z        X      Y      Z   
After scan for Atom:   Atom  AN      X      Y      Z        X      Y      Z        X      Y      Z   
After scan for Atom:   Atom  AN      X      Y      Z        X      Y      Z        X      Y      Z   
After scan for Atom:   Atom  AN      X      Y      Z        X      Y      Z        X      Y      Z   
 g94    frequencies=
     0.0    0.0    0.0    0.0    0.0    0.0   22.4   32.8   39.6   73.4
   119.2  144.9  178.2  194.5  202.4  224.5  271.3  306.8  318.4  382.8
   432.7  434.2  439.6  450.0  487.9  495.8  499.5  522.7  531.7  573.9
   603.0  611.6  629.8  660.2  675.0  706.5  727.0  747.3  751.5  763.9
   770.4  779.8  833.6  843.5  853.7  867.1  881.1  908.1  938.8  980.3
  1025.6 1057.0 1090.8 1106.8 1144.9 1160.1 1182.3 1197.8 1216.7 1241.9
  1265.0 1287.9 1333.6 1346.2 1360.0 1417.9 1423.4 1445.9 1453.0 1473.8
  1476.3 1498.9 1551.9 1578.5 1605.8 3154.9 3167.7 3178.4 3180.3 3190.7
  3198.7 3211.5 3224.5 3243.1
 g94    symmetries=
                                                 A      A      A      A
       A      A      A      A      A      A      A      A      A      A
       A      A      A      A      A      A      A      A      A      A
       A      A      A      A      A      A      A      A      A      A
       A      A      A      A      A      A      A      A      A      A
       A      A      A      A      A      A      A      A      A      A
       A      A      A      A      A      A      A      A      A      A
       A      A      A      A      A      A      A      A      A      A
       A      A      A      A
 atomic masses:
 12.0000 12.0000 12.0000 14.0031 12.0000 12.0000 12.0000 12.0000 12.0000 12.0000
 31.9721 12.0000 12.0000 12.0000 31.9721 12.0000 12.0000 12.0000 31.9721  1.0078
  1.0078  1.0078  1.0078  1.0078  1.0078  1.0078  1.0078  1.0078
 looking for force constants in 
 ./TT-BT_1_C0S1.fchk                                                            
  
 Cartesian Force Constants                  R   N=        3570                  
  
 n3=          84        3570
 g94-fc frequencies=
    -1.3   -0.0    0.0    0.0    0.9    3.4   22.4   32.8   39.6   73.4
   119.2  144.9  178.2  194.5  202.4  224.5  271.3  306.8  318.4  382.8
   432.7  434.3  439.6  450.0  487.9  495.8  499.5  522.7  531.7  573.9
   603.0  611.6  629.8  660.2  675.1  706.5  727.1  747.3  751.5  763.9
   770.4  779.8  833.6  843.5  853.7  867.1  881.1  908.1  938.8  980.4
  1025.6 1057.0 1090.8 1106.8 1145.0 1160.1 1182.3 1197.8 1216.8 1241.9
  1265.0 1287.9 1333.6 1346.2 1360.0 1417.9 1423.4 1445.9 1453.0 1473.8
  1476.3 1499.0 1551.9 1578.5 1605.9 3155.0 3167.8 3178.4 3180.4 3190.8
  3198.8 3211.5 3224.6 3243.2
 at 99999: n3=          84
 symm operator            1 :  F  nop=           0
 symm operator            2 :  F  nop=           0
 symm operator            3 :  F  nop=           0
 symm operator            4 :  F  nop=           0
 symm operator            5 :  F  nop=           0
 symm operator            6 :  F  nop=           0
 symm operator            7 :  F  nop=           0
 The point group of the molecule is  C1
 Symmetry rotation matrix:
   1.00000   0.00000   0.00000
   0.00000   1.00000   0.00000
   0.00000   0.00000   1.00000

 Projecting out zero-frequency components
 generating redundant internal coords
         300        3600          28
 search for int coords
   1 str   2   1   1.401
   2 str   3   2   1.400
   3 str   4   3   1.327
   4 str   5   4   1.352
   5 str   6   5   1.413
   6 str   7   6   1.381
   7 str   8   7   1.412
   8 str   9   8   1.390
   9 str  10   5   1.438
  10 str  10   9   1.393
  11 str  11   3   1.827
  12 str  11  10   1.741
  13 str  12   1   1.403
  14 str  13  12   1.419
  15 str  14  13   1.391
  16 str  15  14   1.757
  17 str  16  15   1.746
  18 str  17  16   1.377
  19 str  18  14   1.408
  20 str  18  17   1.407
  21 str  19  12   1.784
  22 str  19  18   1.751
  23 str  20   1   1.085
  24 str  21   2   1.084
  25 str  22   6   1.083
  26 str  23   7   1.084
  27 str  24   8   1.084
  28 str  25   9   1.083
  29 str  26  13   1.080
  30 str  27  16   1.079
  31 str  28  17   1.081
 nber stretches=          31
  32 ben   1   2   3
  33 prop tor   1   2   3   4
  34 prop tor   1   2   3  11
  35 ben   1   2  21
  36 ben   1  12  13
  37 prop tor   1  12  13  14
  38 prop tor   1  12  13  26
  39 ben   1  12  19
  40 prop tor   1  12  19  18
  41 ben   2   1  12
  42 prop tor   2   1  12  13
  43 prop tor   2   1  12  19
  44 ben   2   1  20
  45 ben   2   3   4
  46 prop tor   2   3   4   5
  47 ben   2   3  11
  48 prop tor   2   3  11  10
  49 ben   3   2  21
  50 ben   3   4   5
  51 prop tor   3   4   5   6
  52 prop tor   3   4   5  10
  53 ben   3  11  10
  54 ben   4   3  11
  55 prop tor   4   3  11  10
  56 ben   4   5   6
  57 prop tor   4   5   6   7
  58 prop tor   4   5   6  22
  59 ben   4   5  10
  60 prop tor   4   5  10   9
  61 prop tor   4   5  10  11
  62 ben   5   6   7
  63 prop tor   5   6   7   8
  64 prop tor   5   6   7  23
  65 ben   5   6  22
  66 ben   5  10   9
  67 ben   5  10  11
  68 prop tor   5  10  11   3
  69 ben   6   5  10
  70 prop tor   6   5  10   9
  71 prop tor   6   5  10  11
  72 ben   6   7   8
  73 prop tor   6   7   8   9
  74 prop tor   6   7   8  24
  75 ben   6   7  23
  76 ben   7   6  22
  77 ben   7   8   9
  78 prop tor   7   8   9  10
  79 prop tor   7   8   9  25
  80 ben   7   8  24
  81 ben   8   7  23
  82 ben   8   9  10
  83 prop tor   8   9  10   5
  84 prop tor   8   9  10  11
  85 ben   8   9  25
  86 ben   9   8  24
  87 ben   9  10  11
  88 prop tor   9  10  11   3
  89 prop tor  10   5   6   7
  90 prop tor  10   5   6  22
  91 ben  10   9  25
  92 prop tor  11   3   4   5
  93 prop tor  12   1   2   3
  94 prop tor  12   1   2  21
  95 ben  12   1  20
  96 ben  12  13  14
  97 prop tor  12  13  14  15
  98 prop tor  12  13  14  18
  99 ben  12  13  26
 100 ben  12  19  18
 101 ben  13  12  19
 102 prop tor  13  12  19  18
 103 ben  13  14  15
 104 prop tor  13  14  15  16
 105 ben  13  14  18
 106 prop tor  13  14  18  17
 107 prop tor  13  14  18  19
 108 ben  14  13  26
 109 ben  14  15  16
 110 prop tor  14  15  16  17
 111 prop tor  14  15  16  27
 112 ben  14  18  17
 113 ben  14  18  19
 114 prop tor  14  18  19  12
 115 ben  15  14  18
 116 prop tor  15  14  18  17
 117 prop tor  15  14  18  19
 118 ben  15  16  17
 119 prop tor  15  16  17  18
 120 prop tor  15  16  17  28
 121 ben  15  16  27
 122 ben  16  17  18
 123 prop tor  16  17  18  14
 124 prop tor  16  17  18  19
 125 ben  16  17  28
 126 ben  17  16  27
 127 ben  17  18  19
 128 prop tor  17  18  19  12
 129 prop tor  18  14  15  16
 130 ben  18  17  28
 131 prop tor  19  12  13  14
 132 prop tor  19  12  13  26
 133 prop tor  20   1   2   3
 134 prop tor  20   1   2  21
 135 prop tor  20   1  12  13
 136 prop tor  20   1  12  19
 137 prop tor  21   2   3   4
 138 prop tor  21   2   3  11
 139 prop tor  22   6   7   8
 140 prop tor  22   6   7  23
 141 prop tor  23   7   8   9
 142 prop tor  23   7   8  24
 143 prop tor  24   8   9  10
 144 prop tor  24   8   9  25
 145 prop tor  25   9  10   5
 146 prop tor  25   9  10  11
 147 prop tor  26  13  14  15
 148 prop tor  26  13  14  18
 149 prop tor  27  16  17  18
 150 prop tor  27  16  17  28
 151 prop tor  28  17  18  14
 152 prop tor  28  17  18  19
 nber bend=              49
 nber lin bend=           0
 nber prop tor=          72
 nber impr tor=           0
 nber tot redund int=         152
 Eigenvalues of G in red int coords
    Gval -0.00000000 -0.00000000 -0.00000000 -0.00000000 -0.00000000 -0.00000000 -0.00000000 -0.00000000
    Gval -0.00000000 -0.00000000 -0.00000000 -0.00000000 -0.00000000 -0.00000000 -0.00000000 -0.00000000
    Gval -0.00000000 -0.00000000 -0.00000000 -0.00000000 -0.00000000 -0.00000000 -0.00000000 -0.00000000
    Gval -0.00000000 -0.00000000 -0.00000000 -0.00000000 -0.00000000 -0.00000000 -0.00000000 -0.00000000
    Gval -0.00000000 -0.00000000 -0.00000000 -0.00000000 -0.00000000 -0.00000000 -0.00000000 -0.00000000
    Gval -0.00000000 -0.00000000  0.00000000  0.00000000  0.00000000  0.00000000  0.00000000  0.00000000
    Gval  0.00000000  0.00000000  0.00000000  0.00000000  0.00000000  0.00000000  0.00000000  0.00000000
    Gval  0.00000000  0.00000000  0.00000000  0.00000000  0.00000000  0.00000000  0.00000000  0.00000000
    Gval  0.00000000  0.00000000  0.00000000  0.00000000  0.00000000  0.00000000  0.00000000  0.00000000
    Gval  0.00000000  0.00000000  0.00000063  0.00000191  0.00000322  0.00000519  0.00000797  0.00001569
    Gval  0.00001976  0.00002230  0.00002427  0.00002842  0.00003322  0.00003536  0.00004098  0.00004676
    Gval  0.00004936  0.00005226  0.00006099  0.00006129  0.00007647  0.00008427  0.00008667  0.00009291
    Gval  0.00009853  0.00011299  0.00011978  0.00012547  0.00012599  0.00013833  0.00015586  0.00015634
    Gval  0.00019055  0.00020822  0.00021648  0.00024824  0.00026287  0.00030310  0.00031312  0.00032057
    Gval  0.00032426  0.00036036  0.00038890  0.00039693  0.00041200  0.00044402  0.00059314  0.00059658
    Gval  0.00059667  0.00059746  0.00061829  0.00062030  0.00062468  0.00063673  0.00065303  0.00065485
    Gval  0.00066197  0.00078266  0.00088753  0.00105403  0.00107139  0.00108183  0.00110026  0.00112121
    Gval  0.00114283  0.00116314  0.00116331  0.00117069  0.00118380  0.00129057  0.00161624  0.00179812
    Gval  0.00208351  0.00269001  0.00277626  0.00324121  0.00356385  0.00356602  0.00394487  0.00401299
  6.338371402039140E-007  6.338371402039140E-007
  1.905323761885345E-006  6.338371402039140E-007
  3.223957839400728E-006  6.338371402039140E-007
  5.194237018478400E-006  6.338371402039140E-007
  7.971693645014679E-006  6.338371402039140E-007
  1.568697709129405E-005  6.338371402039140E-007
  1.976317194233217E-005  6.338371402039140E-007
  2.230042779660037E-005  6.338371402039140E-007
  2.427034792507664E-005  6.338371402039140E-007
  2.842067361209956E-005  6.338371402039140E-007
  3.321826265139058E-005  6.338371402039140E-007
  3.535683272755298E-005  6.338371402039140E-007
  4.098474308621340E-005  6.338371402039140E-007
  4.676212641081324E-005  6.338371402039140E-007
  4.936141234786605E-005  6.338371402039140E-007
  5.225760349842511E-005  6.338371402039140E-007
  6.098996579931499E-005  6.338371402039140E-007
  6.129306526861388E-005  6.338371402039140E-007
  7.647104290464958E-005  6.338371402039140E-007
  8.427398219629204E-005  6.338371402039140E-007
  8.666610693945301E-005  6.338371402039140E-007
  9.291085652869182E-005  6.338371402039140E-007
  9.852538186950989E-005  6.338371402039140E-007
  1.129882366628725E-004  6.338371402039140E-007
  1.197802424973727E-004  6.338371402039140E-007
  1.254721700243672E-004  6.338371402039140E-007
  1.259865939393797E-004  6.338371402039140E-007
  1.383318529936000E-004  6.338371402039140E-007
  1.558640819709425E-004  6.338371402039140E-007
  1.563376748165859E-004  6.338371402039140E-007
  1.905464072718074E-004  6.338371402039140E-007
  2.082207069361160E-004  6.338371402039140E-007
  2.164794478799914E-004  6.338371402039140E-007
  2.482422115576144E-004  6.338371402039140E-007
  2.628696585480273E-004  6.338371402039140E-007
  3.031017575137996E-004  6.338371402039140E-007
  3.131218418795945E-004  6.338371402039140E-007
  3.205706778933645E-004  6.338371402039140E-007
  3.242597647472700E-004  6.338371402039140E-007
  3.603551765942897E-004  6.338371402039140E-007
  3.889000794566663E-004  6.338371402039140E-007
  3.969346809379759E-004  6.338371402039140E-007
  4.120017380011889E-004  6.338371402039140E-007
  4.440247583641824E-004  6.338371402039140E-007
  5.931379262677242E-004  6.338371402039140E-007
  5.965789109322043E-004  6.338371402039140E-007
  5.966675783999813E-004  6.338371402039140E-007
  5.974609734749013E-004  6.338371402039140E-007
  6.182855413553393E-004  6.338371402039140E-007
  6.202970014786258E-004  6.338371402039140E-007
  6.246810690995879E-004  6.338371402039140E-007
  6.367311079825699E-004  6.338371402039140E-007
  6.530307765757977E-004  6.338371402039140E-007
  6.548523983783964E-004  6.338371402039140E-007
  6.619724971436039E-004  6.338371402039140E-007
  7.826640255487943E-004  6.338371402039140E-007
  8.875323814999268E-004  6.338371402039140E-007
  1.054034985310546E-003  6.338371402039140E-007
  1.071385041345037E-003  6.338371402039140E-007
  1.081834936164740E-003  6.338371402039140E-007
  1.100262418371506E-003  6.338371402039140E-007
  1.121212819800732E-003  6.338371402039140E-007
  1.142827598237032E-003  6.338371402039140E-007
  1.163143909267504E-003  6.338371402039140E-007
  1.163305069854449E-003  6.338371402039140E-007
  1.170688424612231E-003  6.338371402039140E-007
  1.183795934251503E-003  6.338371402039140E-007
  1.290571444148459E-003  6.338371402039140E-007
  1.616237500356488E-003  6.338371402039140E-007
  1.798124631885461E-003  6.338371402039140E-007
  2.083506382194158E-003  6.338371402039140E-007
  2.690010558069134E-003  6.338371402039140E-007
  2.776260345378026E-003  6.338371402039140E-007
  3.241211063971392E-003  6.338371402039140E-007
  3.563853601543160E-003  6.338371402039140E-007
  3.566021395537289E-003  6.338371402039140E-007
  3.944870904368737E-003  6.338371402039140E-007
  4.012992005146081E-003  6.338371402039140E-007
 cut=1d-8, nber non-redundant internal coords=          78
 Check on Eigenvals of non-red overlap matrix:
  0.00000063  0.00000191  0.00000322  0.00000519  0.00000797  0.00001569  0.00001976  0.00002230
  0.00002427  0.00002842  0.00003322  0.00003536  0.00004098  0.00004676  0.00004936  0.00005226
  0.00006099  0.00006129  0.00007647  0.00008427  0.00008667  0.00009291  0.00009853  0.00011299
  0.00011978  0.00012547  0.00012599  0.00013833  0.00015586  0.00015634  0.00019055  0.00020822
  0.00021648  0.00024824  0.00026287  0.00030310  0.00031312  0.00032057  0.00032426  0.00036036
  0.00038890  0.00039693  0.00041200  0.00044402  0.00059314  0.00059658  0.00059667  0.00059746
  0.00061829  0.00062030  0.00062468  0.00063673  0.00065303  0.00065485  0.00066197  0.00078266
  0.00088753  0.00105403  0.00107139  0.00108183  0.00110026  0.00112121  0.00114283  0.00116314
  0.00116331  0.00117069  0.00118380  0.00129057  0.00161624  0.00179812  0.00208351  0.00269001
  0.00277626  0.00324121  0.00356385  0.00356602  0.00394487  0.00401299
 Checking for correct frequencies
 recalc frequencies=
    -0.0   -0.0   -0.0   -0.0    0.0    0.0   22.4   32.8   39.6   73.4
   119.2  144.9  178.2  194.5  202.4  224.5  271.3  306.8  318.4  382.8
   432.7  434.3  439.6  450.0  487.9  495.8  499.5  522.7  531.7  573.9
   603.0  611.6  629.8  660.2  675.1  706.5  727.1  747.3  751.5  763.9
   770.4  779.8  833.6  843.5  853.7  867.1  881.1  908.1  938.8  980.4
  1025.6 1057.0 1090.8 1106.8 1145.0 1160.1 1182.3 1197.8 1216.8 1241.9
  1265.0 1287.9 1333.6 1346.2 1360.0 1417.9 1423.4 1445.9 1453.0 1473.8
  1476.3 1499.0 1551.9 1578.5 1605.9 3155.0 3167.8 3178.4 3180.4 3190.8
  3198.8 3211.5 3224.6 3243.2
 recalc symmetries=
                                                                       
                                                                       
                                                                       
                                                                       
                                                                       
                                                                       
                                                                       
                                                                       
                             
 recalc freqs check OK
 Zero-point lengths:
 10.0000 10.0000 10.0000 10.0000 10.0000 10.0000 52.4057 43.3101 39.4184 28.9303
 22.7024 20.5950 18.5703 17.7776 17.4259 16.5462 15.0506 14.1545 13.8926 12.6708
 11.9175 11.8966 11.8244 11.6863 11.2236 11.1342 11.0924 10.8438 10.7516 10.3488
 10.0958 10.0246  9.8784  9.6481  9.5417  9.3270  9.1942  9.0688  9.0432  8.9698
  8.9319  8.8779  8.5866  8.5358  8.4849  8.4190  8.3518  8.2267  8.0911  7.9177
  7.7410  7.6254  7.5063  7.4517  7.3266  7.2785  7.2100  7.1631  7.1071  7.0348
  6.9702  6.9080  6.7886  6.7567  6.7224  6.5837  6.5709  6.5196  6.5037  6.4577
  6.4521  6.4032  6.2931  6.2398  6.1864  4.4137  4.4047  4.3973  4.3960  4.3888
  4.3833  4.3746  4.3658  4.3532
 highest evec of mol 2
  0.0002  0.0006  0.0000
 -0.0004 -0.0003  0.0000
  0.0005  0.0001 -0.0000
 -0.0003 -0.0002  0.0000
  0.0003 -0.0001 -0.0000
 -0.0001 -0.0000  0.0000
  0.0002  0.0001 -0.0000
 -0.0000 -0.0000 -0.0000
  0.0001 -0.0001 -0.0000
 -0.0001  0.0001  0.0000
  0.0000  0.0001  0.0000
  0.0000 -0.0005 -0.0000
  0.0001  0.0009  0.0000
 -0.0031 -0.0003  0.0000
 -0.0010 -0.0021 -0.0000
  0.2827 -0.0250 -0.0001
  0.0218  0.0860  0.0000
 -0.0075 -0.0019  0.0000
  0.0005  0.0001 -0.0000
  0.0001 -0.0006 -0.0000
 -0.0000  0.0001  0.0000
  0.0000 -0.0000 -0.0000
 -0.0004 -0.0003 -0.0000
 -0.0001  0.0000  0.0000
 -0.0001  0.0004  0.0000
 -0.0009 -0.0023 -0.0000
 -0.9197  0.0441  0.0002
 -0.0916 -0.2352 -0.0000
 Enter nber and list of atoms to keep of mol #2
 keep list:          28           1           2           3           4
           5           6           7           8           9          10
          11          12          13          14          15          16
          17          18          19          20          21          22
          23          24          25          26          27          28
 reordering atoms
           1  0.326538326184293     
           2 -0.599077635592382     
           3  -1.99044097461609     
           4  -2.86963114632815     
           5  -4.14492087292492     
           6  -5.29717517245329     
           7  -6.54576226496475     
           8  -6.69395433895540     
           9  -5.58192524579321     
          10  -4.31685066235220     
          11  -2.75816595930134     
          12   1.71691165055272     
          13   2.45087659504352     
          14   3.82362226968847     
          15   5.24103995847514     
          16   6.28767217255042     
          17   5.60356123705112     
          18   4.21128052519849     
          19   2.80860004403992     
          20 -4.484111540459400E-002
          21 -0.259563408932006     
          22  -5.17159845888632     
          23  -7.43254010923289     
          24  -7.68735543278679     
          25  -5.69971915534167     
          26   1.97591614205390     
          27   7.35725263025794     
          28   6.09497344844689     
           1           1
           2           2
           3           3
           4           4
           5           5
           6           6
           7           7
           8           8
           9           9
          10          10
          11          11
          12          12
          13          13
          14          14
          15          15
          16          16
          17          17
          18          18
          19          19
          20          20
          21          21
          22          22
          23          23
          24          24
          25          25
          26          26
          27          27
          28          28
 initial cartes coords mol 1
   6   0.00002   0.46405   0.32357
   6   0.00000  -0.51501  -0.60586
   6  -0.00001  -0.32342  -2.03699
   7   0.00010  -1.31774  -2.87516
   6   0.00007  -0.88751  -4.18337
   6   0.00017  -1.72403  -5.30848
   6   0.00012  -1.15470  -6.57225
   6  -0.00003   0.23970  -6.73414
   6  -0.00012   1.08904  -5.63344
   6  -0.00007   0.51643  -4.36291
  16  -0.00017   1.29939  -2.79668
   6   0.00003   0.27171   1.75357
   6  -0.00005  -0.89315   2.49243
   6  -0.00004  -0.63973   3.88205
  16  -0.00012  -1.63606   5.31489
   6  -0.00004  -0.21122   6.32932
   6   0.00008   0.95696   5.62425
   6   0.00007   0.71045   4.22386
  16   0.00017   1.70217   2.79773
   1   0.00004   1.49850  -0.01098
   1   0.00002  -1.56111  -0.31889
   1   0.00028  -2.79758  -5.16541
   1   0.00019  -1.79240  -7.44856
   1  -0.00006   0.66312  -7.73187
   1  -0.00023   2.16431  -5.76439
   1  -0.00014  -1.87807   2.04716
   1  -0.00006  -0.33400   7.40149
   1   0.00016   1.93466   6.08502
 initial cartes coords mol 2
   6   0.00000   0.53336   0.32654
   6   0.00000  -0.51881  -0.59908
   6   0.00000  -0.36697  -1.99044
   7  -0.00000  -1.36128  -2.86963
   6  -0.00000  -0.91262  -4.14492
   6  -0.00000  -1.73075  -5.29718
   6  -0.00000  -1.14129  -6.54576
   6  -0.00000   0.26306  -6.69395
   6  -0.00000   1.09733  -5.58193
   6  -0.00000   0.51505  -4.31685
  16  -0.00001   1.29044  -2.75817
   6  -0.00000   0.34919   1.71691
   6   0.00000  -0.86533   2.45088
   6  -0.00000  -0.64039   3.82362
  16   0.00003  -1.67803   5.24104
   6  -0.00010  -0.27996   6.28767
   6  -0.00000   0.91513   5.60356
   6   0.00000   0.71321   4.21128
  16   0.00002   1.76065   2.80860
   1   0.00001   1.55332  -0.04484
   1  -0.00000  -1.54831  -0.25956
   1  -0.00000  -2.80630  -5.17160
   1  -0.00000  -1.76503  -7.43254
   1  -0.00000   0.69623  -7.68736
   1  -0.00001   2.17432  -5.69972
   1   0.00001  -1.83535   1.97592
   1  -0.00018  -0.42455   7.35725
   1  -0.00000   1.87828   6.09497
 loop 1 0
 mod cartes coords mol 2
   6   0.00000   0.53336   0.32654
   6   0.00000  -0.51881  -0.59908
   6   0.00000  -0.36697  -1.99044
   7  -0.00000  -1.36128  -2.86963
   6  -0.00000  -0.91262  -4.14492
   6  -0.00000  -1.73075  -5.29718
   6  -0.00000  -1.14129  -6.54576
   6  -0.00000   0.26306  -6.69395
   6  -0.00000   1.09733  -5.58193
   6  -0.00000   0.51505  -4.31685
  16  -0.00001   1.29044  -2.75817
   6  -0.00000   0.34919   1.71691
   6   0.00000  -0.86533   2.45088
   6  -0.00000  -0.64039   3.82362
  16   0.00003  -1.67803   5.24104
   6  -0.00010  -0.27996   6.28767
   6  -0.00000   0.91513   5.60356
   6   0.00000   0.71321   4.21128
  16   0.00002   1.76065   2.80860
   1   0.00001   1.55332  -0.04484
   1  -0.00000  -1.54831  -0.25956
   1  -0.00000  -2.80630  -5.17160
   1  -0.00000  -1.76503  -7.43254
   1  -0.00000   0.69623  -7.68736
   1  -0.00001   2.17432  -5.69972
   1   0.00001  -1.83535   1.97592
   1  -0.00018  -0.42455   7.35725
   1  -0.00000   1.87828   6.09497
 read in order, maxerr=  0.10 for atom  27
 final axis swaps:           1           1           1
 final xyz swap pattern=           1
 reorder list:
   1   2   3   4   5   6   7   8   9  10  11  12  13  14  15  16  17  18  19  20
  21  22  23  24  25  26  27  28
 axis signs=           1           1           1
  6     0.000002  0.533363  0.326538     0.000020  0.464048  0.323572
  6     0.000001 -0.518806 -0.599078     0.000004 -0.515013 -0.605859
  6     0.000001 -0.366965 -1.990441    -0.000006 -0.323418 -2.036990
  7    -0.000004 -1.361277 -2.869631     0.000104 -1.317744 -2.875165
  6    -0.000004 -0.912622 -4.144921     0.000071 -0.887509 -4.183372
  6    -0.000002 -1.730746 -5.297175     0.000166 -1.724031 -5.308482
  6    -0.000002 -1.141294 -6.545762     0.000116 -1.154704 -6.572248
  6    -0.000003  0.263059 -6.693954    -0.000027  0.239702 -6.734136
  6    -0.000004  1.097332 -5.581925    -0.000124  1.089044 -5.633444
  6    -0.000004  0.515054 -4.316851    -0.000074  0.516428 -4.362911
 16    -0.000008  1.290437 -2.758166    -0.000171  1.299386 -2.796675
  6    -0.000002  0.349188  1.716912     0.000026  0.271711  1.753567
  6     0.000004 -0.865331  2.450877    -0.000051 -0.893146  2.492431
  6    -0.000002 -0.640392  3.823622    -0.000035 -0.639733  3.882048
 16     0.000028 -1.678028  5.241040    -0.000118 -1.636060  5.314890
  6    -0.000101 -0.279956  6.287672    -0.000038 -0.211222  6.329324
  6    -0.000002  0.915128  5.603561     0.000077  0.956958  5.624253
  6     0.000002  0.713208  4.211281     0.000070  0.710447  4.223860
 16     0.000025  1.760645  2.808600     0.000170  1.702170  2.797731
  1     0.000009  1.553320 -0.044841     0.000037  1.498497 -0.010984
  1    -0.000001 -1.548310 -0.259563     0.000017 -1.561112 -0.318893
  1    -0.000002 -2.806299 -5.171598     0.000278 -2.797585 -5.165412
  1    -0.000001 -1.765032 -7.432540     0.000191 -1.792404 -7.448564
  1    -0.000003  0.696231 -7.687355    -0.000063  0.663119 -7.731873
  1    -0.000006  2.174316 -5.699719    -0.000233  2.164312 -5.764386
  1     0.000012 -1.835350  1.975916    -0.000137 -1.878069  2.047163
  1    -0.000178 -0.424545  7.357253    -0.000064 -0.334001  7.401487
  1    -0.000003  1.878282  6.094973     0.000156  1.934663  6.085018
 generating redundant internal coords
         300        3600          28
 Adding extra bonds for z output only
           6           6           6           7           6           6
           6           6           6           6          16           6
           6           6          16           6           6           6
          16           1           1           1           1           1
           1           1           1           1
 search for int coords
   1 str   2   1   1.401
   2 str   3   2   1.400
   3 str   4   3   1.327
   4 str   5   4   1.352
   5 str   6   5   1.413
   6 str   7   6   1.381
   7 str   8   7   1.412
   8 str   9   8   1.390
   9 str  10   5   1.438
  10 str  10   9   1.393
  11 str  11   3   1.827
  12 str  11  10   1.741
  13 str  12   1   1.403
  14 str  13  12   1.419
  15 str  14  13   1.391
  16 str  15  14   1.757
  17 str  16  15   1.746
  18 str  17  16   1.377
  19 str  18  14   1.408
  20 str  18  17   1.407
  21 str  19  12   1.784
  22 str  19  18   1.751
  23 str  20   1   1.085
  24 str  21   2   1.084
  25 str  22   6   1.083
  26 str  23   7   1.084
  27 str  24   8   1.084
  28 str  25   9   1.083
  29 str  26  13   1.080
  30 str  27  16   1.079
  31 str  28  17   1.081
 nber stretches=          31
  32 ben   1   2   3
  33 prop tor   1   2   3   4
  34 prop tor   1   2   3  11
  35 ben   1   2  21
  36 ben   1  12  13
  37 prop tor   1  12  13  14
  38 prop tor   1  12  13  26
  39 ben   1  12  19
  40 prop tor   1  12  19  18
  41 ben   2   1  12
  42 prop tor   2   1  12  13
  43 prop tor   2   1  12  19
  44 ben   2   1  20
  45 ben   2   3   4
  46 prop tor   2   3   4   5
  47 ben   2   3  11
  48 prop tor   2   3  11  10
  49 ben   3   2  21
  50 ben   3   4   5
  51 prop tor   3   4   5   6
  52 prop tor   3   4   5  10
  53 ben   3  11  10
  54 ben   4   3  11
  55 prop tor   4   3  11  10
  56 ben   4   5   6
  57 prop tor   4   5   6   7
  58 prop tor   4   5   6  22
  59 ben   4   5  10
  60 prop tor   4   5  10   9
  61 prop tor   4   5  10  11
  62 ben   5   6   7
  63 prop tor   5   6   7   8
  64 prop tor   5   6   7  23
  65 ben   5   6  22
  66 ben   5  10   9
  67 ben   5  10  11
  68 prop tor   5  10  11   3
  69 ben   6   5  10
  70 prop tor   6   5  10   9
  71 prop tor   6   5  10  11
  72 ben   6   7   8
  73 prop tor   6   7   8   9
  74 prop tor   6   7   8  24
  75 ben   6   7  23
  76 ben   7   6  22
  77 ben   7   8   9
  78 prop tor   7   8   9  10
  79 prop tor   7   8   9  25
  80 ben   7   8  24
  81 ben   8   7  23
  82 ben   8   9  10
  83 prop tor   8   9  10   5
  84 prop tor   8   9  10  11
  85 ben   8   9  25
  86 ben   9   8  24
  87 ben   9  10  11
  88 prop tor   9  10  11   3
  89 prop tor  10   5   6   7
  90 prop tor  10   5   6  22
  91 ben  10   9  25
  92 prop tor  11   3   4   5
  93 prop tor  12   1   2   3
  94 prop tor  12   1   2  21
  95 ben  12   1  20
  96 ben  12  13  14
  97 prop tor  12  13  14  15
  98 prop tor  12  13  14  18
  99 ben  12  13  26
 100 ben  12  19  18
 101 ben  13  12  19
 102 prop tor  13  12  19  18
 103 ben  13  14  15
 104 prop tor  13  14  15  16
 105 ben  13  14  18
 106 prop tor  13  14  18  17
 107 prop tor  13  14  18  19
 108 ben  14  13  26
 109 ben  14  15  16
 110 prop tor  14  15  16  17
 111 prop tor  14  15  16  27
 112 ben  14  18  17
 113 ben  14  18  19
 114 prop tor  14  18  19  12
 115 ben  15  14  18
 116 prop tor  15  14  18  17
 117 prop tor  15  14  18  19
 118 ben  15  16  17
 119 prop tor  15  16  17  18
 120 prop tor  15  16  17  28
 121 ben  15  16  27
 122 ben  16  17  18
 123 prop tor  16  17  18  14
 124 prop tor  16  17  18  19
 125 ben  16  17  28
 126 ben  17  16  27
 127 ben  17  18  19
 128 prop tor  17  18  19  12
 129 prop tor  18  14  15  16
 130 ben  18  17  28
 131 prop tor  19  12  13  14
 132 prop tor  19  12  13  26
 133 prop tor  20   1   2   3
 134 prop tor  20   1   2  21
 135 prop tor  20   1  12  13
 136 prop tor  20   1  12  19
 137 prop tor  21   2   3   4
 138 prop tor  21   2   3  11
 139 prop tor  22   6   7   8
 140 prop tor  22   6   7  23
 141 prop tor  23   7   8   9
 142 prop tor  23   7   8  24
 143 prop tor  24   8   9  10
 144 prop tor  24   8   9  25
 145 prop tor  25   9  10   5
 146 prop tor  25   9  10  11
 147 prop tor  26  13  14  15
 148 prop tor  26  13  14  18
 149 prop tor  27  16  17  18
 150 prop tor  27  16  17  28
 151 prop tor  28  17  18  14
 152 prop tor  28  17  18  19
 nber bend=              49
 nber lin bend=           0
 nber prop tor=          72
 nber impr tor=           0
 nber tot redund int=         152
 generating redundant internal coords
         300        3600          28
 search for int coords
   1 str   2   1   1.350
   2 str   3   2   1.444
   3 str   4   3   1.300
   4 str   5   4   1.377
   5 str   6   5   1.402
   6 str   7   6   1.386
   7 str   8   7   1.404
   8 str   9   8   1.390
   9 str  10   5   1.415
  10 str  10   9   1.394
  11 str  11   3   1.792
  12 str  11  10   1.751
  13 str  12   1   1.443
  14 str  13  12   1.379
  15 str  14  13   1.413
  16 str  15  14   1.745
  17 str  16  15   1.749
  18 str  17  16   1.364
  19 str  18  14   1.393
  20 str  18  17   1.422
  21 str  19  12   1.771
  22 str  19  18   1.737
  23 str  20   1   1.087
  24 str  21   2   1.085
  25 str  22   6   1.083
  26 str  23   7   1.084
  27 str  24   8   1.084
  28 str  25   9   1.083
  29 str  26  13   1.081
  30 str  27  16   1.079
  31 str  28  17   1.081
 nber stretches=          31
  32 ben   1   2   3
  33 prop tor   1   2   3   4
  34 prop tor   1   2   3  11
  35 ben   1   2  21
  36 ben   1  12  13
  37 prop tor   1  12  13  14
  38 prop tor   1  12  13  26
  39 ben   1  12  19
  40 prop tor   1  12  19  18
  41 ben   2   1  12
  42 prop tor   2   1  12  13
  43 prop tor   2   1  12  19
  44 ben   2   1  20
  45 ben   2   3   4
  46 prop tor   2   3   4   5
  47 ben   2   3  11
  48 prop tor   2   3  11  10
  49 ben   3   2  21
  50 ben   3   4   5
  51 prop tor   3   4   5   6
  52 prop tor   3   4   5  10
  53 ben   3  11  10
  54 ben   4   3  11
  55 prop tor   4   3  11  10
  56 ben   4   5   6
  57 prop tor   4   5   6   7
  58 prop tor   4   5   6  22
  59 ben   4   5  10
  60 prop tor   4   5  10   9
  61 prop tor   4   5  10  11
  62 ben   5   6   7
  63 prop tor   5   6   7   8
  64 prop tor   5   6   7  23
  65 ben   5   6  22
  66 ben   5  10   9
  67 ben   5  10  11
  68 prop tor   5  10  11   3
  69 ben   6   5  10
  70 prop tor   6   5  10   9
  71 prop tor   6   5  10  11
  72 ben   6   7   8
  73 prop tor   6   7   8   9
  74 prop tor   6   7   8  24
  75 ben   6   7  23
  76 ben   7   6  22
  77 ben   7   8   9
  78 prop tor   7   8   9  10
  79 prop tor   7   8   9  25
  80 ben   7   8  24
  81 ben   8   7  23
  82 ben   8   9  10
  83 prop tor   8   9  10   5
  84 prop tor   8   9  10  11
  85 ben   8   9  25
  86 ben   9   8  24
  87 ben   9  10  11
  88 prop tor   9  10  11   3
  89 prop tor  10   5   6   7
  90 prop tor  10   5   6  22
  91 ben  10   9  25
  92 prop tor  11   3   4   5
  93 prop tor  12   1   2   3
  94 prop tor  12   1   2  21
  95 ben  12   1  20
  96 ben  12  13  14
  97 prop tor  12  13  14  15
  98 prop tor  12  13  14  18
  99 ben  12  13  26
 100 ben  12  19  18
 101 ben  13  12  19
 102 prop tor  13  12  19  18
 103 ben  13  14  15
 104 prop tor  13  14  15  16
 105 ben  13  14  18
 106 prop tor  13  14  18  17
 107 prop tor  13  14  18  19
 108 ben  14  13  26
 109 ben  14  15  16
 110 prop tor  14  15  16  17
 111 prop tor  14  15  16  27
 112 ben  14  18  17
 113 ben  14  18  19
 114 prop tor  14  18  19  12
 115 ben  15  14  18
 116 prop tor  15  14  18  17
 117 prop tor  15  14  18  19
 118 ben  15  16  17
 119 prop tor  15  16  17  18
 120 prop tor  15  16  17  28
 121 ben  15  16  27
 122 ben  16  17  18
 123 prop tor  16  17  18  14
 124 prop tor  16  17  18  19
 125 ben  16  17  28
 126 ben  17  16  27
 127 ben  17  18  19
 128 prop tor  17  18  19  12
 129 prop tor  18  14  15  16
 130 ben  18  17  28
 131 prop tor  19  12  13  14
 132 prop tor  19  12  13  26
 133 prop tor  20   1   2   3
 134 prop tor  20   1   2  21
 135 prop tor  20   1  12  13
 136 prop tor  20   1  12  19
 137 prop tor  21   2   3   4
 138 prop tor  21   2   3  11
 139 prop tor  22   6   7   8
 140 prop tor  22   6   7  23
 141 prop tor  23   7   8   9
 142 prop tor  23   7   8  24
 143 prop tor  24   8   9  10
 144 prop tor  24   8   9  25
 145 prop tor  25   9  10   5
 146 prop tor  25   9  10  11
 147 prop tor  26  13  14  15
 148 prop tor  26  13  14  18
 149 prop tor  27  16  17  18
 150 prop tor  27  16  17  28
 151 prop tor  28  17  18  14
 152 prop tor  28  17  18  19
 nber bend=              49
 nber lin bend=           0
 nber prop tor=          72
 nber impr tor=           0
 nber tot redund int=         152
 Eigenvalues of G in red int coords
    Gval -0.00000000 -0.00000000 -0.00000000 -0.00000000 -0.00000000 -0.00000000 -0.00000000 -0.00000000
    Gval -0.00000000 -0.00000000 -0.00000000 -0.00000000 -0.00000000 -0.00000000 -0.00000000 -0.00000000
    Gval -0.00000000 -0.00000000 -0.00000000 -0.00000000 -0.00000000 -0.00000000 -0.00000000 -0.00000000
    Gval -0.00000000 -0.00000000 -0.00000000 -0.00000000 -0.00000000 -0.00000000 -0.00000000 -0.00000000
    Gval -0.00000000 -0.00000000 -0.00000000 -0.00000000 -0.00000000 -0.00000000  0.00000000  0.00000000
    Gval  0.00000000  0.00000000  0.00000000  0.00000000  0.00000000  0.00000000  0.00000000  0.00000000
    Gval  0.00000000  0.00000000  0.00000000  0.00000000  0.00000000  0.00000000  0.00000000  0.00000000
    Gval  0.00000000  0.00000000  0.00000000  0.00000000  0.00000000  0.00000000  0.00000000  0.00000000
    Gval  0.00000000  0.00000000  0.00000000  0.00000000  0.00000000  0.00000000  0.00000000  0.00000000
    Gval  0.00000000  0.00000000  0.00000064  0.00000194  0.00000323  0.00000510  0.00000803  0.00001567
    Gval  0.00001985  0.00002218  0.00002389  0.00002859  0.00003321  0.00003538  0.00004134  0.00004677
    Gval  0.00004954  0.00005217  0.00006083  0.00006148  0.00007656  0.00008452  0.00008684  0.00009250
    Gval  0.00009942  0.00011338  0.00012124  0.00012604  0.00012631  0.00013959  0.00015573  0.00015686
    Gval  0.00019217  0.00020640  0.00021848  0.00025184  0.00026369  0.00030363  0.00031457  0.00032214
    Gval  0.00032607  0.00036061  0.00039036  0.00039972  0.00041162  0.00046433  0.00059315  0.00059632
    Gval  0.00059660  0.00059752  0.00061828  0.00062063  0.00062475  0.00063088  0.00065361  0.00065530
    Gval  0.00065981  0.00078692  0.00089329  0.00105444  0.00106349  0.00108136  0.00112099  0.00112255
    Gval  0.00114256  0.00116317  0.00116407  0.00117164  0.00118668  0.00129302  0.00163446  0.00180143
    Gval  0.00208317  0.00270063  0.00276341  0.00319937  0.00356975  0.00357433  0.00397209  0.00402219
  6.356909794602913E-007  6.356909794602913E-007
  1.943074370724118E-006  6.356909794602913E-007
  3.229780490627729E-006  6.356909794602913E-007
  5.096846714887843E-006  6.356909794602913E-007
  8.032630308543706E-006  6.356909794602913E-007
  1.567072051738534E-005  6.356909794602913E-007
  1.984568342245084E-005  6.356909794602913E-007
  2.218376789939807E-005  6.356909794602913E-007
  2.389209635330126E-005  6.356909794602913E-007
  2.859199559868455E-005  6.356909794602913E-007
  3.320795326847751E-005  6.356909794602913E-007
  3.537702521144901E-005  6.356909794602913E-007
  4.134195441735582E-005  6.356909794602913E-007
  4.677124923973814E-005  6.356909794602913E-007
  4.953888447444825E-005  6.356909794602913E-007
  5.216992046160457E-005  6.356909794602913E-007
  6.083307773502682E-005  6.356909794602913E-007
  6.148145073820384E-005  6.356909794602913E-007
  7.655859923235415E-005  6.356909794602913E-007
  8.452291580882614E-005  6.356909794602913E-007
  8.684465138571269E-005  6.356909794602913E-007
  9.249812079627577E-005  6.356909794602913E-007
  9.941813264685519E-005  6.356909794602913E-007
  1.133772466051490E-004  6.356909794602913E-007
  1.212398122955847E-004  6.356909794602913E-007
  1.260417475167821E-004  6.356909794602913E-007
  1.263106669650329E-004  6.356909794602913E-007
  1.395865822434280E-004  6.356909794602913E-007
  1.557268569335790E-004  6.356909794602913E-007
  1.568563652781003E-004  6.356909794602913E-007
  1.921660974577266E-004  6.356909794602913E-007
  2.063993882853230E-004  6.356909794602913E-007
  2.184771922903633E-004  6.356909794602913E-007
  2.518448388727980E-004  6.356909794602913E-007
  2.636858565156272E-004  6.356909794602913E-007
  3.036286233658908E-004  6.356909794602913E-007
  3.145690453160305E-004  6.356909794602913E-007
  3.221369190164004E-004  6.356909794602913E-007
  3.260660963318351E-004  6.356909794602913E-007
  3.606061440927043E-004  6.356909794602913E-007
  3.903590255392371E-004  6.356909794602913E-007
  3.997225552180637E-004  6.356909794602913E-007
  4.116199065489470E-004  6.356909794602913E-007
  4.643287743979760E-004  6.356909794602913E-007
  5.931537649090002E-004  6.356909794602913E-007
  5.963161409719408E-004  6.356909794602913E-007
  5.966010367362441E-004  6.356909794602913E-007
  5.975164357594321E-004  6.356909794602913E-007
  6.182751805519796E-004  6.356909794602913E-007
  6.206314434101548E-004  6.356909794602913E-007
  6.247529615250759E-004  6.356909794602913E-007
  6.308849612689296E-004  6.356909794602913E-007
  6.536087647635590E-004  6.356909794602913E-007
  6.553039960804957E-004  6.356909794602913E-007
  6.598105236052302E-004  6.356909794602913E-007
  7.869242686731348E-004  6.356909794602913E-007
  8.932893282974774E-004  6.356909794602913E-007
  1.054435139402843E-003  6.356909794602913E-007
  1.063491731433788E-003  6.356909794602913E-007
  1.081361091036480E-003  6.356909794602913E-007
  1.120986940319227E-003  6.356909794602913E-007
  1.122549493657934E-003  6.356909794602913E-007
  1.142559448574710E-003  6.356909794602913E-007
  1.163172214157822E-003  6.356909794602913E-007
  1.164072619988645E-003  6.356909794602913E-007
  1.171643350453976E-003  6.356909794602913E-007
  1.186683313573647E-003  6.356909794602913E-007
  1.293017357270743E-003  6.356909794602913E-007
  1.634462325677665E-003  6.356909794602913E-007
  1.801425585153339E-003  6.356909794602913E-007
  2.083167271920034E-003  6.356909794602913E-007
  2.700626541341431E-003  6.356909794602913E-007
  2.763406662139626E-003  6.356909794602913E-007
  3.199369102710785E-003  6.356909794602913E-007
  3.569751006552397E-003  6.356909794602913E-007
  3.574329484452238E-003  6.356909794602913E-007
  3.972091769909337E-003  6.356909794602913E-007
  4.022194288790922E-003  6.356909794602913E-007
 cut=1d-8, nber non-redundant internal coords=          78
 Check on Eigenvals of non-red overlap matrix:
  0.00000064  0.00000194  0.00000323  0.00000510  0.00000803  0.00001567  0.00001985  0.00002218
  0.00002389  0.00002859  0.00003321  0.00003538  0.00004134  0.00004677  0.00004954  0.00005217
  0.00006083  0.00006148  0.00007656  0.00008452  0.00008684  0.00009250  0.00009942  0.00011338
  0.00012124  0.00012604  0.00012631  0.00013959  0.00015573  0.00015686  0.00019217  0.00020640
  0.00021848  0.00025184  0.00026369  0.00030363  0.00031457  0.00032214  0.00032607  0.00036061
  0.00039036  0.00039972  0.00041162  0.00046433  0.00059315  0.00059632  0.00059660  0.00059752
  0.00061828  0.00062063  0.00062475  0.00063088  0.00065361  0.00065530  0.00065981  0.00078692
  0.00089329  0.00105444  0.00106349  0.00108136  0.00112099  0.00112255  0.00114256  0.00116317
  0.00116407  0.00117164  0.00118668  0.00129302  0.00163446  0.00180143  0.00208317  0.00270063
  0.00276341  0.00319937  0.00356975  0.00357433  0.00397209  0.00402219
 generating redundant internal coords
         300        3600          28
 search for int coords
   1 str   2   1   1.401
   2 str   3   2   1.400
   3 str   4   3   1.327
   4 str   5   4   1.352
   5 str   6   5   1.413
   6 str   7   6   1.381
   7 str   8   7   1.412
   8 str   9   8   1.390
   9 str  10   5   1.438
  10 str  10   9   1.393
  11 str  11   3   1.827
  12 str  11  10   1.741
  13 str  12   1   1.403
  14 str  13  12   1.419
  15 str  14  13   1.391
  16 str  15  14   1.757
  17 str  16  15   1.746
  18 str  17  16   1.377
  19 str  18  14   1.408
  20 str  18  17   1.407
  21 str  19  12   1.784
  22 str  19  18   1.751
  23 str  20   1   1.085
  24 str  21   2   1.084
  25 str  22   6   1.083
  26 str  23   7   1.084
  27 str  24   8   1.084
  28 str  25   9   1.083
  29 str  26  13   1.080
  30 str  27  16   1.079
  31 str  28  17   1.081
 nber stretches=          31
  32 ben   1   2   3
  33 prop tor   1   2   3   4
  34 prop tor   1   2   3  11
  35 ben   1   2  21
  36 ben   1  12  13
  37 prop tor   1  12  13  14
  38 prop tor   1  12  13  26
  39 ben   1  12  19
  40 prop tor   1  12  19  18
  41 ben   2   1  12
  42 prop tor   2   1  12  13
  43 prop tor   2   1  12  19
  44 ben   2   1  20
  45 ben   2   3   4
  46 prop tor   2   3   4   5
  47 ben   2   3  11
  48 prop tor   2   3  11  10
  49 ben   3   2  21
  50 ben   3   4   5
  51 prop tor   3   4   5   6
  52 prop tor   3   4   5  10
  53 ben   3  11  10
  54 ben   4   3  11
  55 prop tor   4   3  11  10
  56 ben   4   5   6
  57 prop tor   4   5   6   7
  58 prop tor   4   5   6  22
  59 ben   4   5  10
  60 prop tor   4   5  10   9
  61 prop tor   4   5  10  11
  62 ben   5   6   7
  63 prop tor   5   6   7   8
  64 prop tor   5   6   7  23
  65 ben   5   6  22
  66 ben   5  10   9
  67 ben   5  10  11
  68 prop tor   5  10  11   3
  69 ben   6   5  10
  70 prop tor   6   5  10   9
  71 prop tor   6   5  10  11
  72 ben   6   7   8
  73 prop tor   6   7   8   9
  74 prop tor   6   7   8  24
  75 ben   6   7  23
  76 ben   7   6  22
  77 ben   7   8   9
  78 prop tor   7   8   9  10
  79 prop tor   7   8   9  25
  80 ben   7   8  24
  81 ben   8   7  23
  82 ben   8   9  10
  83 prop tor   8   9  10   5
  84 prop tor   8   9  10  11
  85 ben   8   9  25
  86 ben   9   8  24
  87 ben   9  10  11
  88 prop tor   9  10  11   3
  89 prop tor  10   5   6   7
  90 prop tor  10   5   6  22
  91 ben  10   9  25
  92 prop tor  11   3   4   5
  93 prop tor  12   1   2   3
  94 prop tor  12   1   2  21
  95 ben  12   1  20
  96 ben  12  13  14
  97 prop tor  12  13  14  15
  98 prop tor  12  13  14  18
  99 ben  12  13  26
 100 ben  12  19  18
 101 ben  13  12  19
 102 prop tor  13  12  19  18
 103 ben  13  14  15
 104 prop tor  13  14  15  16
 105 ben  13  14  18
 106 prop tor  13  14  18  17
 107 prop tor  13  14  18  19
 108 ben  14  13  26
 109 ben  14  15  16
 110 prop tor  14  15  16  17
 111 prop tor  14  15  16  27
 112 ben  14  18  17
 113 ben  14  18  19
 114 prop tor  14  18  19  12
 115 ben  15  14  18
 116 prop tor  15  14  18  17
 117 prop tor  15  14  18  19
 118 ben  15  16  17
 119 prop tor  15  16  17  18
 120 prop tor  15  16  17  28
 121 ben  15  16  27
 122 ben  16  17  18
 123 prop tor  16  17  18  14
 124 prop tor  16  17  18  19
 125 ben  16  17  28
 126 ben  17  16  27
 127 ben  17  18  19
 128 prop tor  17  18  19  12
 129 prop tor  18  14  15  16
 130 ben  18  17  28
 131 prop tor  19  12  13  14
 132 prop tor  19  12  13  26
 133 prop tor  20   1   2   3
 134 prop tor  20   1   2  21
 135 prop tor  20   1  12  13
 136 prop tor  20   1  12  19
 137 prop tor  21   2   3   4
 138 prop tor  21   2   3  11
 139 prop tor  22   6   7   8
 140 prop tor  22   6   7  23
 141 prop tor  23   7   8   9
 142 prop tor  23   7   8  24
 143 prop tor  24   8   9  10
 144 prop tor  24   8   9  25
 145 prop tor  25   9  10   5
 146 prop tor  25   9  10  11
 147 prop tor  26  13  14  15
 148 prop tor  26  13  14  18
 149 prop tor  27  16  17  18
 150 prop tor  27  16  17  28
 151 prop tor  28  17  18  14
 152 prop tor  28  17  18  19
 nber bend=              49
 nber lin bend=           0
 nber prop tor=          72
 nber impr tor=           0
 nber tot redund int=         152
 Eigenvalues of G in red int coords
    Gval -0.00000000 -0.00000000 -0.00000000 -0.00000000 -0.00000000 -0.00000000 -0.00000000 -0.00000000
    Gval -0.00000000 -0.00000000 -0.00000000 -0.00000000 -0.00000000 -0.00000000 -0.00000000 -0.00000000
    Gval -0.00000000 -0.00000000 -0.00000000 -0.00000000 -0.00000000 -0.00000000 -0.00000000 -0.00000000
    Gval -0.00000000 -0.00000000 -0.00000000 -0.00000000 -0.00000000 -0.00000000 -0.00000000 -0.00000000
    Gval -0.00000000 -0.00000000 -0.00000000 -0.00000000 -0.00000000 -0.00000000  0.00000000  0.00000000
    Gval  0.00000000  0.00000000  0.00000000  0.00000000  0.00000000  0.00000000  0.00000000  0.00000000
    Gval  0.00000000  0.00000000  0.00000000  0.00000000  0.00000000  0.00000000  0.00000000  0.00000000
    Gval  0.00000000  0.00000000  0.00000000  0.00000000  0.00000000  0.00000000  0.00000000  0.00000000
    Gval  0.00000000  0.00000000  0.00000000  0.00000000  0.00000000  0.00000000  0.00000000  0.00000000
    Gval  0.00000000  0.00000000  0.00000063  0.00000191  0.00000322  0.00000519  0.00000797  0.00001569
    Gval  0.00001976  0.00002230  0.00002427  0.00002842  0.00003322  0.00003536  0.00004098  0.00004676
    Gval  0.00004936  0.00005226  0.00006099  0.00006129  0.00007647  0.00008427  0.00008667  0.00009291
    Gval  0.00009853  0.00011299  0.00011978  0.00012547  0.00012599  0.00013833  0.00015586  0.00015634
    Gval  0.00019055  0.00020822  0.00021648  0.00024824  0.00026287  0.00030310  0.00031312  0.00032057
    Gval  0.00032426  0.00036036  0.00038890  0.00039693  0.00041200  0.00044402  0.00059314  0.00059658
    Gval  0.00059667  0.00059746  0.00061829  0.00062030  0.00062468  0.00063673  0.00065303  0.00065485
    Gval  0.00066197  0.00078266  0.00088753  0.00105403  0.00107139  0.00108183  0.00110026  0.00112121
    Gval  0.00114283  0.00116314  0.00116331  0.00117069  0.00118380  0.00129057  0.00161624  0.00179812
    Gval  0.00208351  0.00269001  0.00277626  0.00324121  0.00356385  0.00356602  0.00394487  0.00401299
  6.338371402038761E-007  6.338371402038761E-007
  1.905323761885320E-006  6.338371402038761E-007
  3.223957839400822E-006  6.338371402038761E-007
  5.194237018478404E-006  6.338371402038761E-007
  7.971693645015158E-006  6.338371402038761E-007
  1.568697709129399E-005  6.338371402038761E-007
  1.976317194233210E-005  6.338371402038761E-007
  2.230042779660037E-005  6.338371402038761E-007
  2.427034792507666E-005  6.338371402038761E-007
  2.842067361209958E-005  6.338371402038761E-007
  3.321826265139058E-005  6.338371402038761E-007
  3.535683272755297E-005  6.338371402038761E-007
  4.098474308621338E-005  6.338371402038761E-007
  4.676212641081316E-005  6.338371402038761E-007
  4.936141234786595E-005  6.338371402038761E-007
  5.225760349842501E-005  6.338371402038761E-007
  6.098996579931494E-005  6.338371402038761E-007
  6.129306526861379E-005  6.338371402038761E-007
  7.647104290464959E-005  6.338371402038761E-007
  8.427398219629197E-005  6.338371402038761E-007
  8.666610693945309E-005  6.338371402038761E-007
  9.291085652869174E-005  6.338371402038761E-007
  9.852538186950991E-005  6.338371402038761E-007
  1.129882366628725E-004  6.338371402038761E-007
  1.197802424973726E-004  6.338371402038761E-007
  1.254721700243676E-004  6.338371402038761E-007
  1.259865939393797E-004  6.338371402038761E-007
  1.383318529936004E-004  6.338371402038761E-007
  1.558640819709424E-004  6.338371402038761E-007
  1.563376748165858E-004  6.338371402038761E-007
  1.905464072718071E-004  6.338371402038761E-007
  2.082207069361161E-004  6.338371402038761E-007
  2.164794478799916E-004  6.338371402038761E-007
  2.482422115576151E-004  6.338371402038761E-007
  2.628696585480275E-004  6.338371402038761E-007
  3.031017575137997E-004  6.338371402038761E-007
  3.131218418795948E-004  6.338371402038761E-007
  3.205706778933651E-004  6.338371402038761E-007
  3.242597647472705E-004  6.338371402038761E-007
  3.603551765942894E-004  6.338371402038761E-007
  3.889000794566664E-004  6.338371402038761E-007
  3.969346809379759E-004  6.338371402038761E-007
  4.120017380011886E-004  6.338371402038761E-007
  4.440247583641823E-004  6.338371402038761E-007
  5.931379262677240E-004  6.338371402038761E-007
  5.965789109322043E-004  6.338371402038761E-007
  5.966675783999807E-004  6.338371402038761E-007
  5.974609734749008E-004  6.338371402038761E-007
  6.182855413553387E-004  6.338371402038761E-007
  6.202970014786256E-004  6.338371402038761E-007
  6.246810690995877E-004  6.338371402038761E-007
  6.367311079825703E-004  6.338371402038761E-007
  6.530307765757979E-004  6.338371402038761E-007
  6.548523983783967E-004  6.338371402038761E-007
  6.619724971436056E-004  6.338371402038761E-007
  7.826640255487945E-004  6.338371402038761E-007
  8.875323814999276E-004  6.338371402038761E-007
  1.054034985310545E-003  6.338371402038761E-007
  1.071385041345037E-003  6.338371402038761E-007
  1.081834936164742E-003  6.338371402038761E-007
  1.100262418371505E-003  6.338371402038761E-007
  1.121212819800731E-003  6.338371402038761E-007
  1.142827598237031E-003  6.338371402038761E-007
  1.163143909267504E-003  6.338371402038761E-007
  1.163305069854449E-003  6.338371402038761E-007
  1.170688424612230E-003  6.338371402038761E-007
  1.183795934251503E-003  6.338371402038761E-007
  1.290571444148461E-003  6.338371402038761E-007
  1.616237500356487E-003  6.338371402038761E-007
  1.798124631885458E-003  6.338371402038761E-007
  2.083506382194161E-003  6.338371402038761E-007
  2.690010558069128E-003  6.338371402038761E-007
  2.776260345378023E-003  6.338371402038761E-007
  3.241211063971384E-003  6.338371402038761E-007
  3.563853601543163E-003  6.338371402038761E-007
  3.566021395537298E-003  6.338371402038761E-007
[...]
 nber times 1st assigned=          72           0
 nber times 1st assigned=          73           0
 nber times 1st assigned=          74           0
 nber times 1st assigned=          75           0
 nber times 1st assigned=          76           0
 nber times 1st assigned=          77           0
 nber times 1st assigned=          78           0
 nber times 1st assigned=          79           0
 nber times 1st assigned=          80           0
 nber times 1st assigned=          81           0
 nber times 1st assigned=          82           0
 nber times 1st assigned=          83           0
 nber times 1st assigned=          84           0
 Dushinsky matrix written to .out file
 modes represented=   78.1740920547921     

 Dushinsky matrix, ncs 1 in terms of ncs 2

   mode   freq    coeff     %      %tot     of    at

   7        17. -0.5946    35.4   117.2   7        22.
                 0.7896    62.3           8        33.
   8        31.  0.7997    63.9   105.4   7        22.
                 0.6108    37.3           8        33.
   9        41. -0.9996    99.9   100.1   9        40.
  10        70. -0.9641    93.0   102.5  10        73.
  11       124.  0.9997    99.9    96.3  11       119.
  12       164. -0.3864    14.9    98.5  12       145.
                 0.5147    26.5          13       178.
                -0.6343    40.2          16       224.
  13       176.  0.8728    76.2    98.2  12       145.
  14       195. -0.8271    68.4    99.9  13       178.
                -0.5252    27.6          16       224.
  15       198.  0.9993    99.9   106.8  15       202.
  16       206.  0.9306    86.6    98.6  14       194.
  17       290.  0.4370    19.1   101.5  16       224.
                -0.7608    57.9          17       271.
                -0.4333    18.8          18       307.
  18       318. -0.9983    99.7   101.0  19       318.
  19       345. -0.5262    27.7   101.4  17       271.
                 0.8272    68.4          18       307.
  20       383.  0.9968    99.4   100.2  20       383.
  21       439. -0.9954    99.1   100.3  22       434.
  22       443.  0.8289    68.7   102.1  21       433.
                 0.5426    29.4          23       440.
  23       457.  0.5353    28.7    99.8  21       433.
                -0.8326    69.3          23       440.
  24       466.  0.9853    97.1    99.3  24       450.
  25       497. -0.8527    72.7    99.3  25       488.
                -0.4871    23.7          27       499.
  26       509. -0.5009    25.1    99.8  25       488.
                 0.8487    72.0          27       499.
  27       516. -0.9712    94.3    98.7  26       496.
  28       560. -0.9448    89.3   100.6  28       523.
  29       577. -0.8606    74.1    97.9  29       532.
                 0.4128    17.0          31       603.
  30       619. -0.6128    37.6    99.7  30       574.
                -0.7579    57.4          32       612.
  31       621.  0.8154    66.5   100.0  31       603.
                 0.4661    21.7          33       630.
  32       623. -0.7246    52.5    99.9  30       574.
                 0.6437    41.4          32       612.
  33       650. -0.3496    12.2   102.0  31       603.
                 0.8353    69.8          33       630.
  34       679.  0.9478    89.8    99.4  34       660.
  35       705. -0.9845    96.9   100.2  35       675.
  36       715.  0.9894    97.9    99.8  36       706.
  37       737.  0.9982    99.6    99.5  37       727.
  38       763. -0.9632    92.8    99.9  39       752.
  39       774.  0.9936    98.7    99.6  40       764.
  40       795.  0.9620    92.5    99.0  41       770.
  41       829.  0.9578    91.7    99.8  38       747.
  42       853.  0.9903    98.1    98.1  44       844.
  43       860.  0.8850    78.3    98.9  42       780.
                 0.3291    10.8          43       834.
  44       868. -0.9810    96.2    99.5  45       854.
  45       879. -0.9887    97.8    99.3  46       867.
  46       887.  0.9871    97.4    99.5  47       881.
  47       926. -0.9862    97.3   100.2  48       908.
  48       952.  0.9806    96.2    99.9  49       939.
  49       975. -0.3337    11.1   100.9  42       780.
                 0.8989    80.8          43       834.
  50       991.  0.9890    97.8    99.8  50       980.
  51      1038.  0.9957    99.1    99.8  51      1026.
  52      1074.  0.9577    91.7    99.9  52      1057.
  53      1100. -0.9719    94.5   100.1  53      1091.
  54      1129. -0.9152    83.8   100.5  54      1107.
  55      1143. -0.9927    98.6   100.0  55      1145.
  56      1177.  0.9341    87.3    99.5  56      1160.
  57      1184.  0.9883    97.7    99.9  57      1182.
  58      1214. -0.9551    91.2    99.9  59      1217.
  59      1235.  0.8667    75.1    98.7  58      1198.
  60      1265. -0.8969    80.4   100.1  61      1265.
                 0.3212    10.3          65      1360.
  61      1290.  0.5096    26.0    99.8  60      1242.
                -0.8095    65.5          62      1288.
  62      1312.  0.5260    27.7    99.5  60      1242.
                 0.3554    12.6          62      1288.
                 0.4957    24.6          65      1360.
  63      1345.  0.8421    70.9   100.2  64      1346.
                 0.3373    11.4          65      1360.
  64      1352. -0.5191    27.0    99.9  60      1242.
                 0.6340    40.2          65      1360.
  65      1359. -0.8731    76.2   100.0  63      1334.
  66      1387. -0.8357    69.8    99.5  66      1418.
                 0.4019    16.2          67      1423.
  67      1455.  0.3394    11.5    99.5  68      1446.
                 0.4545    20.7          70      1474.
                -0.6268    39.3          71      1476.
  68      1462.  0.3727    13.9   100.0  68      1446.
                 0.8082    65.3          69      1453.
  69      1488.  0.7498    56.2    99.6  70      1474.
                 0.3513    12.3          71      1476.
                -0.4876    23.8          72      1499.
  70      1499.  0.4431    19.6   100.3  66      1418.
                 0.6153    37.9          67      1423.
                -0.4205    17.7          68      1446.
                 0.4217    17.8          69      1453.
  71      1522. -0.3690    13.6   100.5  67      1423.
                -0.6256    39.1          68      1446.
                -0.4228    17.9          71      1476.
                 0.3702    13.7          74      1578.
  72      1549. -0.7107    50.5   100.0  72      1499.
  73      1595.  0.8283    68.6   100.1  73      1552.
                -0.5143    26.4          74      1578.
  74      1630. -0.4089    16.7    99.9  73      1552.
                -0.4452    19.8          74      1578.
                 0.7406    54.9          75      1606.
  75      1663.  0.5583    31.2   100.1  74      1578.
                 0.6125    37.5          75      1606.
  76      3139.  0.9981    99.6   100.0  76      3155.
  77      3169.  0.9904    98.1   100.0  77      3168.
  78      3174. -0.9985    99.7   100.0  79      3180.
  79      3180. -0.9875    97.5   100.0  78      3178.
  80      3191.  0.9884    97.7   100.0  80      3191.
  81      3198. -0.9942    98.8   100.0  81      3199.
  82      3215.  0.9991    99.8   100.0  82      3211.
  83      3216. -0.9996    99.9   100.0  83      3224.
  84      3245. -0.9991    99.8   100.0  84      3243.
 nber times 1st assigned=           1           0
 nber times 1st assigned=           2           0
 nber times 1st assigned=           3           0
 nber times 1st assigned=           4           0
 nber times 1st assigned=           5           0
 nber times 1st assigned=           6           0
 nber times 1st assigned=           7           0
 nber times 1st assigned=           8           0
 nber times 1st assigned=           9           0
 nber times 1st assigned=          10           0
 nber times 1st assigned=          11           0
 nber times 1st assigned=          12           0
 nber times 1st assigned=          13           0
 nber times 1st assigned=          14           0
 nber times 1st assigned=          15           0
 nber times 1st assigned=          16           0
 nber times 1st assigned=          17           0
 nber times 1st assigned=          18           0
 nber times 1st assigned=          19           0
 nber times 1st assigned=          20           0
 nber times 1st assigned=          21           0
 nber times 1st assigned=          22           0
 nber times 1st assigned=          23           0
 nber times 1st assigned=          24           0
 nber times 1st assigned=          25           0
 nber times 1st assigned=          26           0
 nber times 1st assigned=          27           0
 nber times 1st assigned=          28           0
 nber times 1st assigned=          29           0
 nber times 1st assigned=          30           0
 nber times 1st assigned=          31           0
 nber times 1st assigned=          32           0
 nber times 1st assigned=          33           0
 nber times 1st assigned=          34           0
 nber times 1st assigned=          35           0
 nber times 1st assigned=          36           0
 nber times 1st assigned=          37           0
 nber times 1st assigned=          38           0
 nber times 1st assigned=          39           0
 nber times 1st assigned=          40           0
 nber times 1st assigned=          41           0
 nber times 1st assigned=          42           0
 nber times 1st assigned=          43           0
 nber times 1st assigned=          44           0
 nber times 1st assigned=          45           0
 nber times 1st assigned=          46           0
 nber times 1st assigned=          47           0
 nber times 1st assigned=          48           0
 nber times 1st assigned=          49           0
 nber times 1st assigned=          50           0
 nber times 1st assigned=          51           0
 nber times 1st assigned=          52           0
 nber times 1st assigned=          53           0
 nber times 1st assigned=          54           0
 nber times 1st assigned=          55           0
 nber times 1st assigned=          56           0
 nber times 1st assigned=          57           0
 nber times 1st assigned=          58           0
 nber times 1st assigned=          59           0
 nber times 1st assigned=          60           0
 nber times 1st assigned=          61           0
 nber times 1st assigned=          62           0
 nber times 1st assigned=          63           0
 nber times 1st assigned=          64           0
 nber times 1st assigned=          65           0
 nber times 1st assigned=          66           0
 nber times 1st assigned=          67           0
 nber times 1st assigned=          68           0
 nber times 1st assigned=          69           0
 nber times 1st assigned=          70           0
 nber times 1st assigned=          71           0
 nber times 1st assigned=          72           0
 nber times 1st assigned=          73           0
 nber times 1st assigned=          74           0
 nber times 1st assigned=          75           0
 nber times 1st assigned=          76           0
 nber times 1st assigned=          77           0
 nber times 1st assigned=          78           0
 nber times 1st assigned=          79           0
 nber times 1st assigned=          80           0
 nber times 1st assigned=          81           0
 nber times 1st assigned=          82           0
 nber times 1st assigned=          83           0
 nber times 1st assigned=          84           0
 modes represented=   78.1740920547921     
 p1=
   -0.   -0.    0.   -0.   -0.   -0.    0.    0.  -15.   -0.   35.    0.    0.    0.    2.    0.   -0.    3.   -0.   -3.
   -0.   -4.    2.    0.   -2.    2.   -0.    0.   -1.    0.   -1.   -0.    5.   -3.   -0.    2.   -0.   -1.    0.    1.
   -0.    0.    0.    0.   -0.    0.   -0.   -0.    0.   -0.    1.   -2.    0.    1.   -1.    1.   -0.    1.    2.   -1.
   -2.   -3.   -1.   -0.    2.   -0.   -3.   -2.    1.    2.   -3.    1.    0.    2.   -4.   -0.    0.   -0.   -0.    0.
    0.   -0.   -0.   -0.
 p2=
   -0.   -0.    0.   -0.   -0.    0.    0.   -0.  -14.    0.  -37.   -0.   -0.   -0.   -1.    0.   -0.    0.    2.    3.
    3.   -0.    4.   -0.   -0.   -0.   -2.    0.    1.   -0.    3.    0.   -5.    2.   -0.   -1.    0.    0.   -1.   -0.
   -1.    0.   -0.   -0.    0.    0.   -0.    0.    0.    0.   -0.    0.   -1.    2.   -1.   -0.    0.    0.   -0.    3.
    1.    0.    2.   -1.    3.   -2.   -2.    1.    1.    0.   -3.    2.    2.    5.    1.    0.   -0.   -0.    0.   -0.
    0.    0.   -0.   -0.

 Displacement: in terms of nc of 1 THEN of nc of 2

   1     freq=    -0. Q= -0.000 lam=    -0.0     freq=    -0. Q= -0.000 lam=    -0.0
   2     freq=    -0. Q= -0.000 lam=    -0.0     freq=    -0. Q= -0.000 lam=    -0.0
   3     freq=    -0. Q=  0.000 lam=    -0.0     freq=    -0. Q=  0.000 lam=    -0.0
   4     freq=     0. Q= -0.000 lam=     0.0     freq=    -0. Q= -0.000 lam=    -0.0
   5     freq=     0. Q= -0.000 lam=     0.0     freq=     0. Q= -0.000 lam=     0.0
   6     freq=     0. Q= -0.000 lam=     0.0     freq=     0. Q= -0.000 lam=     0.0
   7     freq=    17. Q=  0.001 lam=     0.0     freq=    22. Q=  0.001 lam=     0.0
   8     freq=    31. Q=  0.000 lam=     0.0     freq=    33. Q=  0.001 lam=     0.0
   9     freq=    41. Q= -0.381 lam=     3.0     freq=    40. Q= -0.355 lam=     2.5
  10     freq=    70. Q= -0.000 lam=     0.0     freq=    73. Q= -0.000 lam=     0.0
  11     freq=   124. Q=  1.578 lam=   153.8     freq=   119. Q=  1.636 lam=   159.5
  12     freq=   164. Q=  0.000 lam=     0.0     freq=   145. Q=  0.000 lam=     0.0
  13     freq=   176. Q=  0.000 lam=     0.0     freq=   178. Q=  0.000 lam=     0.0
  14     freq=   195. Q=  0.000 lam=     0.0     freq=   194. Q=  0.000 lam=     0.0
  15     freq=   198. Q=  0.101 lam=     1.0     freq=   202. Q=  0.061 lam=     0.4
  16     freq=   206. Q=  0.000 lam=     0.0     freq=   224. Q=  0.000 lam=     0.0
  17     freq=   290. Q= -0.000 lam=     0.0     freq=   271. Q= -0.000 lam=     0.0
  18     freq=   318. Q=  0.188 lam=     5.6     freq=   307. Q=  0.000 lam=     0.0
  19     freq=   345. Q= -0.000 lam=     0.0     freq=   318. Q= -0.171 lam=     4.7
  20     freq=   383. Q= -0.249 lam=    11.9     freq=   383. Q= -0.243 lam=    11.3
  21     freq=   439. Q= -0.000 lam=     0.0     freq=   433. Q= -0.260 lam=    14.7
  22     freq=   443. Q= -0.334 lam=    24.8     freq=   434. Q= -0.000 lam=     0.0
  23     freq=   457. Q=  0.176 lam=     7.1     freq=   440. Q=  0.336 lam=    24.8
  24     freq=   466. Q=  0.001 lam=     0.0     freq=   450. Q=  0.001 lam=     0.0
  25     freq=   497. Q= -0.185 lam=     8.5     freq=   488. Q= -0.029 lam=     0.2
  26     freq=   509. Q=  0.140 lam=     5.0     freq=   496. Q=  0.000 lam=     0.0
  27     freq=   516. Q= -0.000 lam=     0.0     freq=   499. Q= -0.219 lam=    11.9
  28     freq=   560. Q=  0.000 lam=     0.0     freq=   523. Q=  0.000 lam=     0.0
  29     freq=   577. Q= -0.079 lam=     1.8     freq=   532. Q= -0.138 lam=     5.1
  30     freq=   619. Q=  0.000 lam=     0.0     freq=   574. Q=  0.000 lam=     0.0
  31     freq=   621. Q= -0.080 lam=     2.0     freq=   603. Q= -0.305 lam=    28.0
  32     freq=   623. Q= -0.000 lam=     0.0     freq=   612. Q= -0.000 lam=     0.0
  33     freq=   650. Q=  0.507 lam=    83.5     freq=   630. Q=  0.462 lam=    67.1
  34     freq=   679. Q= -0.364 lam=    45.1     freq=   660. Q= -0.189 lam=    11.8
  35     freq=   705. Q= -0.000 lam=     0.0     freq=   675. Q= -0.000 lam=     0.0
  36     freq=   715. Q=  0.213 lam=    16.3     freq=   706. Q=  0.153 lam=     8.3
  37     freq=   737. Q= -0.000 lam=     0.0     freq=   727. Q= -0.000 lam=     0.0
  38     freq=   763. Q= -0.086 lam=     2.8     freq=   747. Q= -0.000 lam=     0.0
  39     freq=   774. Q=  0.000 lam=     0.0     freq=   752. Q=  0.077 lam=     2.2
  40     freq=   795. Q=  0.140 lam=     7.8     freq=   764. Q=  0.000 lam=     0.0
  41     freq=   829. Q= -0.000 lam=     0.0     freq=   770. Q= -0.086 lam=     2.8
  42     freq=   853. Q=  0.014 lam=     0.1     freq=   780. Q=  0.000 lam=     0.0
  43     freq=   860. Q=  0.000 lam=     0.0     freq=   834. Q=  0.000 lam=     0.0
  44     freq=   868. Q=  0.000 lam=     0.0     freq=   844. Q=  0.024 lam=     0.2
  45     freq=   879. Q= -0.000 lam=     0.0     freq=   854. Q= -0.000 lam=     0.0
  46     freq=   887. Q=  0.006 lam=     0.0     freq=   867. Q=  0.000 lam=     0.0
  47     freq=   926. Q= -0.002 lam=     0.0     freq=   881. Q= -0.010 lam=     0.0
  48     freq=   952. Q= -0.000 lam=     0.0     freq=   908. Q= -0.025 lam=     0.3
  49     freq=   975. Q=  0.000 lam=     0.0     freq=   939. Q=  0.000 lam=     0.0
  50     freq=   991. Q= -0.000 lam=     0.0     freq=   980. Q= -0.000 lam=     0.0
  51     freq=  1038. Q=  0.075 lam=     2.9     freq=  1026. Q=  0.046 lam=     1.1
  52     freq=  1074. Q= -0.199 lam=    21.3     freq=  1057. Q= -0.035 lam=     0.6
  53     freq=  1100. Q=  0.015 lam=     0.1     freq=  1091. Q=  0.126 lam=     8.7
  54     freq=  1129. Q=  0.127 lam=     9.1     freq=  1107. Q=  0.309 lam=    52.7
  55     freq=  1143. Q= -0.195 lam=    21.8     freq=  1145. Q= -0.164 lam=    15.4
  56     freq=  1177. Q=  0.106 lam=     6.7     freq=  1160. Q=  0.026 lam=     0.4
  57     freq=  1184. Q= -0.037 lam=     0.8     freq=  1182. Q= -0.051 lam=     1.5
  58     freq=  1214. Q=  0.080 lam=     3.9     freq=  1198. Q=  0.008 lam=     0.0
  59     freq=  1235. Q=  0.310 lam=    59.3     freq=  1217. Q=  0.005 lam=     0.0
  60     freq=  1265. Q= -0.113 lam=     8.1     freq=  1242. Q= -0.455 lam=   128.5
  61     freq=  1290. Q= -0.309 lam=    61.8     freq=  1265. Q= -0.080 lam=     4.0
  62     freq=  1312. Q= -0.443 lam=   128.6     freq=  1288. Q= -0.035 lam=     0.8
  63     freq=  1345. Q= -0.149 lam=    15.0     freq=  1334. Q= -0.273 lam=    49.6
  64     freq=  1352. Q= -0.058 lam=     2.3     freq=  1346. Q= -0.104 lam=     7.3
  65     freq=  1359. Q=  0.368 lam=    92.1     freq=  1360. Q=  0.390 lam=   103.5
  66     freq=  1387. Q= -0.073 lam=     3.7     freq=  1418. Q= -0.264 lam=    49.5
  67     freq=  1455. Q= -0.428 lam=   133.5     freq=  1423. Q= -0.310 lam=    68.3
  68     freq=  1462. Q= -0.262 lam=    50.0     freq=  1446. Q= -0.079 lam=     4.5
  69     freq=  1488. Q=  0.186 lam=    25.7     freq=  1453. Q=  0.091 lam=     6.1
  70     freq=  1499. Q=  0.292 lam=    63.8     freq=  1474. Q=  0.071 lam=     3.7
  71     freq=  1522. Q= -0.517 lam=   203.8     freq=  1476. Q= -0.406 lam=   122.0
  72     freq=  1549. Q=  0.179 lam=    24.7     freq=  1499. Q=  0.348 lam=    90.8
  73     freq=  1595. Q=  0.050 lam=     2.0     freq=  1552. Q=  0.387 lam=   116.2
  74     freq=  1630. Q=  0.312 lam=    79.1     freq=  1578. Q=  0.741 lam=   433.0
  75     freq=  1663. Q= -0.637 lam=   337.7     freq=  1606. Q= -0.218 lam=    38.3
  76     freq=  3139. Q= -0.027 lam=     1.1     freq=  3155. Q= -0.019 lam=     0.6
  77     freq=  3169. Q=  0.004 lam=     0.0     freq=  3168. Q=  0.004 lam=     0.0
  78     freq=  3174. Q= -0.015 lam=     0.4     freq=  3178. Q= -0.002 lam=     0.0
  79     freq=  3180. Q= -0.002 lam=     0.0     freq=  3180. Q= -0.003 lam=     0.0
  80     freq=  3191. Q=  0.000 lam=     0.0     freq=  3191. Q=  0.001 lam=     0.0
  81     freq=  3198. Q=  0.005 lam=     0.0     freq=  3199. Q=  0.006 lam=     0.1
  82     freq=  3215. Q= -0.005 lam=     0.0     freq=  3211. Q= -0.005 lam=     0.0
  83     freq=  3216. Q= -0.016 lam=     0.4     freq=  3224. Q= -0.010 lam=     0.2
  84     freq=  3245. Q= -0.004 lam=     0.0     freq=  3243. Q= -0.005 lam=     0.0

 total reorg energy (cm**-1, kcal/mol)=     1740.     1663.      4.97      4.76
 Nber of molecules processed=           2
