 Enter ifcurve (0=recti, 1=orth curvi, 2=apprx curvi, -1 = skip
 And atom ordering flag, 0= never changes, 1= use the first order thenceforth,
  2= deduce it (does read on fail), 3= always read it
 Reading file: 
 ./TT-PDI_2_C0S2.log                                                            
                                          
  Entering Gaussian System, Link 0=g16                                          
  
 Gaussian format, type: g94, g98, g03= F F F
  #P Geom=AllCheck Guess=TCheck SCRF=Check GenChk RB3LYP TD(FC,Read)/6-3    
 energy type= TD      
 Original G94 input coords:
  6  1.073150  0.161381 -0.240992
  6  2.576719  0.020754  0.017309
  6  3.446706  0.634418 -1.084400
  7  2.955793  0.535079  1.372783
  6  3.467058 -0.401230  2.290688
  8  3.597423 -1.579488  1.997624
  6  3.841958  0.099602  3.629792
  6  4.354366 -0.799367  4.572917
  6  4.713604 -0.363350  5.832136
  6  4.579772  0.999118  6.217691
  6  4.950660  1.468851  7.528523
  6  5.474404  0.597784  8.522557
  6  5.826677  1.057524  9.773608
  6  5.676279  2.411170 10.102473
  6  6.067411  2.850661 11.449810
  8  6.514356  2.110582 12.300057
  7  5.891061  4.242243 11.724274
  6  6.242107  4.684929 12.956053
  6  6.557397  5.070319 14.053360
  6  6.920799  5.533727 15.326690
  6  7.423427  4.803445 16.380884
  6  7.673252  5.619702 17.509758
 16  8.289226  5.339560 19.117761
  6  8.117582  7.037387 19.501497
  6  7.620609  7.777080 18.468244
  6  7.366813  6.964275 17.328802
 16  6.750846  7.253656 15.725859
  6  5.374018  5.203892 10.802474
  8  5.260701  6.366117 11.128898
  6  5.006097  4.684430  9.476846
  6  4.493361  5.580455  8.529600
  6  4.134608  5.140808  7.273208
  6  4.269493  3.777175  6.894041
  6  3.897705  3.307289  5.583439
  6  3.372023  4.174435  4.585936
  6  3.020393  3.710727  3.334507
  6  3.174097  2.357664  3.010293
  6  2.786951  1.894720  1.659621
  8  2.338432  2.672250  0.830335
  6  3.691471  1.460546  3.967708
  6  4.059240  1.925899  5.266493
  6  4.790575  2.851271  7.847963
  6  5.159233  3.317546  9.148000
  1  0.822670 -0.356951 -1.170554
  1  0.775941  1.205148 -0.333795
  1  0.497288 -0.302272  0.564112
  1  2.811348 -1.039320  0.082839
  1  3.245790  1.697336 -1.211841
  1  3.236593  0.123820 -2.028149
  1  4.507812  0.497149 -0.860832
  1  4.459393 -1.837998  4.287340
  1  5.105448 -1.086171  6.533489
  1  5.604480 -0.452683  8.305128
  1  6.224870  0.388595 10.525571
  1  7.594393  3.738349 16.320169
  1  8.400882  7.382255 20.483965
  1  7.447838  8.842706 18.524062
  1  4.388318  6.620091  8.811735
  1  3.742856  5.860493  6.568798
  1  3.239362  5.225295  4.800405
  1  2.620826  4.376239  2.580277
 nber atoms=          61
  Total Energy, E(TD-HF/TD-DFT) =  -2551.77850601                               
  
          32          49 "  -2551.77850601"
After scan for Atom:   Atom  AN      X      Y      Z        X      Y      Z        X      Y      Z   
After scan for Atom:   Atom  AN      X      Y      Z        X      Y      Z        X      Y      Z   
After scan for Atom:   Atom  AN      X      Y      Z        X      Y      Z        X      Y      Z   
After scan for Atom:   Atom  AN      X      Y      Z        X      Y      Z        X      Y      Z   
After scan for Atom:   Atom  AN      X      Y      Z        X      Y      Z        X      Y      Z   
After scan for Atom:   Atom  AN      X      Y      Z        X      Y      Z        X      Y      Z   
After scan for Atom:   Atom  AN      X      Y      Z        X      Y      Z        X      Y      Z   
After scan for Atom:   Atom  AN      X      Y      Z        X      Y      Z        X      Y      Z   
After scan for Atom:   Atom  AN      X      Y      Z        X      Y      Z        X      Y      Z   
After scan for Atom:   Atom  AN      X      Y      Z        X      Y      Z        X      Y      Z   
After scan for Atom:   Atom  AN      X      Y      Z        X      Y      Z        X      Y      Z   
After scan for Atom:   Atom  AN      X      Y      Z        X      Y      Z        X      Y      Z   
After scan for Atom:   Atom  AN      X      Y      Z        X      Y      Z        X      Y      Z   
After scan for Atom:   Atom  AN      X      Y      Z        X      Y      Z        X      Y      Z   
After scan for Atom:   Atom  AN      X      Y      Z        X      Y      Z        X      Y      Z   
After scan for Atom:   Atom  AN      X      Y      Z        X      Y      Z        X      Y      Z   
After scan for Atom:   Atom  AN      X      Y      Z        X      Y      Z        X      Y      Z   
After scan for Atom:   Atom  AN      X      Y      Z        X      Y      Z        X      Y      Z   
After scan for Atom:   Atom  AN      X      Y      Z        X      Y      Z        X      Y      Z   
After scan for Atom:   Atom  AN      X      Y      Z        X      Y      Z        X      Y      Z   
After scan for Atom:   Atom  AN      X      Y      Z        X      Y      Z        X      Y      Z   
After scan for Atom:   Atom  AN      X      Y      Z        X      Y      Z        X      Y      Z   
After scan for Atom:   Atom  AN      X      Y      Z        X      Y      Z        X      Y      Z   
After scan for Atom:   Atom  AN      X      Y      Z        X      Y      Z        X      Y      Z   
After scan for Atom:   Atom  AN      X      Y      Z        X      Y      Z        X      Y      Z   
After scan for Atom:   Atom  AN      X      Y      Z        X      Y      Z        X      Y      Z   
After scan for Atom:   Atom  AN      X      Y      Z        X      Y      Z        X      Y      Z   
After scan for Atom:   Atom  AN      X      Y      Z        X      Y      Z        X      Y      Z   
After scan for Atom:   Atom  AN      X      Y      Z        X      Y      Z        X      Y      Z   
After scan for Atom:   Atom  AN      X      Y      Z        X      Y      Z        X      Y      Z   
After scan for Atom:   Atom  AN      X      Y      Z        X      Y      Z        X      Y      Z   
After scan for Atom:   Atom  AN      X      Y      Z        X      Y      Z        X      Y      Z   
After scan for Atom:   Atom  AN      X      Y      Z        X      Y      Z        X      Y      Z   
After scan for Atom:   Atom  AN      X      Y      Z        X      Y      Z        X      Y      Z   
After scan for Atom:   Atom  AN      X      Y      Z        X      Y      Z        X      Y      Z   
After scan for Atom:   Atom  AN      X      Y      Z        X      Y      Z        X      Y      Z   
After scan for Atom:   Atom  AN      X      Y      Z        X      Y      Z        X      Y      Z   
After scan for Atom:   Atom  AN      X      Y      Z        X      Y      Z        X      Y      Z   
After scan for Atom:   Atom  AN      X      Y      Z        X      Y      Z        X      Y      Z   
After scan for Atom:   Atom  AN      X      Y      Z        X      Y      Z        X      Y      Z   
After scan for Atom:   Atom  AN      X      Y      Z        X      Y      Z        X      Y      Z   
After scan for Atom:   Atom  AN      X      Y      Z        X      Y      Z        X      Y      Z   
After scan for Atom:   Atom  AN      X      Y      Z        X      Y      Z        X      Y      Z   
After scan for Atom:   Atom  AN      X      Y      Z        X      Y      Z        X      Y      Z   
After scan for Atom:   Atom  AN      X      Y      Z        X      Y      Z        X      Y      Z   
After scan for Atom:   Atom  AN      X      Y      Z        X      Y      Z        X      Y      Z   
After scan for Atom:   Atom  AN      X      Y      Z        X      Y      Z        X      Y      Z   
After scan for Atom:   Atom  AN      X      Y      Z        X      Y      Z        X      Y      Z   
After scan for Atom:   Atom  AN      X      Y      Z        X      Y      Z        X      Y      Z   
After scan for Atom:   Atom  AN      X      Y      Z        X      Y      Z        X      Y      Z   
After scan for Atom:   Atom  AN      X      Y      Z        X      Y      Z        X      Y      Z   
After scan for Atom:   Atom  AN      X      Y      Z        X      Y      Z        X      Y      Z   
After scan for Atom:   Atom  AN      X      Y      Z        X      Y      Z        X      Y      Z   
After scan for Atom:   Atom  AN      X      Y      Z        X      Y      Z        X      Y      Z   
After scan for Atom:   Atom  AN      X      Y      Z        X      Y      Z        X      Y      Z   
After scan for Atom:   Atom  AN      X      Y      Z        X      Y      Z        X      Y      Z   
After scan for Atom:   Atom  AN      X      Y      Z        X      Y      Z        X      Y      Z   
After scan for Atom:   Atom  AN      X      Y      Z        X      Y      Z        X      Y      Z   
After scan for Atom:   Atom  AN      X      Y      Z        X      Y      Z        X      Y      Z   
 g94    frequencies=
     0.0    0.0    0.0    0.0    0.0    0.0    7.8    9.6   13.9   27.7
    28.8   50.1   55.7   68.0   76.9   80.9   89.5  101.1  121.6  126.2
   142.5  167.8  182.0  187.2  198.2  202.0  209.3  224.5  233.6  235.7
   237.1  256.0  280.0  295.9  301.6  319.5  332.7  351.4  351.7  388.8
   391.0  417.1  421.4  424.5  427.8  434.2  438.6  444.8  447.1  461.0
   465.2  470.0  484.2  484.3  499.1  504.4  505.6  510.0  537.7  537.9
   564.0  571.3  574.1  583.3  604.2  615.9  620.4  621.1  634.0  651.7
   679.0  682.4  703.3  703.6  707.2  715.0  724.9  744.8  755.7  757.6
   761.6  763.7  800.0  809.1  810.5  814.9  819.7  825.9  826.5  832.0
   837.3  845.1  876.8  896.1  903.5  920.2  932.9  945.4  952.7  956.7
   975.0  976.7  988.1  988.9 1000.5 1061.9 1086.0 1094.4 1109.8 1117.9
  1137.4 1155.5 1158.4 1164.0 1169.8 1183.9 1186.0 1196.5 1200.6 1210.6
  1224.7 1232.9 1243.2 1255.1 1274.5 1300.2 1316.8 1318.5 1342.1 1350.9
  1365.9 1372.3 1377.5 1381.9 1390.9 1395.0 1400.3 1404.3 1416.4 1429.8
  1438.0 1444.2 1452.4 1459.1 1467.2 1485.2 1491.2 1497.8 1505.0 1508.6
  1511.5 1522.4 1546.5 1551.0 1555.2 1572.2 1582.1 1598.7 1599.4 1621.5
  1686.3 1720.8 1726.2 1753.8 2342.4 3034.5 3038.6 3092.6 3095.8 3112.7
  3132.6 3143.0 3198.9 3199.2 3205.3 3205.5 3213.0 3213.5 3213.5 3224.1
  3225.2 3225.4 3244.7
 g94    symmetries=
                                                 A      A      A      A
       A      A      A      A      A      A      A      A      A      A
       A      A      A      A      A      A      A      A      A      A
       A      A      A      A      A      A      A      A      A      A
       A      A      A      A      A      A      A      A      A      A
       A      A      A      A      A      A      A      A      A      A
       A      A      A      A      A      A      A      A      A      A
       A      A      A      A      A      A      A      A      A      A
       A      A      A      A      A      A      A      A      A      A
       A      A      A      A      A      A      A      A      A      A
       A      A      A      A      A      A      A      A      A      A
       A      A      A      A      A      A      A      A      A      A
       A      A      A      A      A      A      A      A      A      A
       A      A      A      A      A      A      A      A      A      A
       A      A      A      A      A      A      A      A      A      A
       A      A      A      A      A      A      A      A      A      A
       A      A      A      A      A      A      A      A      A      A
       A      A      A      A      A      A      A      A      A      A
       A      A      A
 atomic masses:
 12.0000 12.0000 12.0000 14.0031 12.0000 15.9949 12.0000 12.0000 12.0000 12.0000
 12.0000 12.0000 12.0000 12.0000 12.0000 15.9949 14.0031 12.0000 12.0000 12.0000
 12.0000 12.0000 31.9721 12.0000 12.0000 12.0000 31.9721 12.0000 15.9949 12.0000
 12.0000 12.0000 12.0000 12.0000 12.0000 12.0000 12.0000 12.0000 15.9949 12.0000
 12.0000 12.0000 12.0000  1.0078  1.0078  1.0078  1.0078  1.0078  1.0078  1.0078
  1.0078  1.0078  1.0078  1.0078  1.0078  1.0078  1.0078  1.0078  1.0078  1.0078
  1.0078
 looking for force constants in 
 ./TT-PDI_2_C0S2.fchk                                                           
  
 Cartesian Force Constants                  R   N=       16836                  
  
 n3=         183       16836
 g94-fc frequencies=
    -4.1   -1.0   -0.8   -0.0    0.0    0.0    7.9    9.6   13.9   27.7
    28.8   50.1   55.7   68.0   76.9   80.9   89.5  101.1  121.6  126.2
   142.5  167.9  182.0  187.2  198.2  202.0  209.3  224.5  233.6  235.7
   237.1  256.0  280.0  295.9  301.6  319.5  332.7  351.4  351.7  388.8
   391.0  417.1  421.4  424.6  427.9  434.2  438.6  444.8  447.1  461.0
   465.2  470.0  484.2  484.3  499.1  504.4  505.6  510.0  537.7  537.9
   564.0  571.4  574.1  583.3  604.2  615.9  620.4  621.1  634.1  651.7
   679.0  682.4  703.3  703.7  707.2  715.0  724.9  744.8  755.7  757.6
   761.7  763.8  800.0  809.1  810.6  814.9  819.7  826.0  826.5  832.1
   837.3  845.1  876.8  896.1  903.5  920.2  933.0  945.4  952.8  956.7
   975.0  976.8  988.2  988.9 1000.5 1061.9 1086.0 1094.4 1109.8 1117.9
  1137.5 1155.5 1158.5 1164.1 1169.8 1183.9 1186.0 1196.5 1200.6 1210.6
  1224.7 1233.0 1243.2 1255.1 1274.5 1300.3 1316.8 1318.5 1342.1 1350.9
  1366.0 1372.3 1377.5 1381.9 1390.9 1395.0 1400.4 1404.3 1416.4 1429.8
  1438.0 1444.2 1452.4 1459.2 1467.2 1485.2 1491.2 1497.8 1505.1 1508.6
  1511.6 1522.4 1546.5 1551.1 1555.2 1572.2 1582.2 1598.7 1599.5 1621.6
  1686.3 1720.8 1726.3 1753.8 2342.5 3034.6 3038.7 3092.6 3095.8 3112.7
  3132.7 3143.1 3198.9 3199.3 3205.4 3205.6 3213.1 3213.5 3213.6 3224.2
  3225.2 3225.5 3244.8
 at 99999: n3=         183
 symm operator            1 :  F  nop=           0
 symm operator            2 :  F  nop=           0
 symm operator            3 :  F  nop=           0
 symm operator            4 :  F  nop=           0
 symm operator            5 :  F  nop=           0
 symm operator            6 :  F  nop=           0
 symm operator            7 :  F  nop=           0
 The point group of the molecule is  C1
 Symmetry rotation matrix:
   1.00000   0.00000   0.00000
   0.00000   1.00000   0.00000
   0.00000   0.00000   1.00000

 Projecting out zero-frequency components
 generating redundant internal coords
         300        3600          61
 search for int coords
   1 str   2   1   1.532
   2 str   3   2   1.532
   3 str   4   2   1.499
   4 str   5   4   1.407
   5 str   6   5   1.221
   6 str   7   5   1.478
   7 str   8   7   1.400
   8 str   9   8   1.380
   9 str  10   9   1.422
  10 str  11  10   1.441
  11 str  12  11   1.422
  12 str  13  12   1.379
  13 str  14  13   1.401
  14 str  15  14   1.470
  15 str  16  15   1.213
  16 str  17  15   1.429
  17 str  18  17   1.355
  18 str  19  18   1.205
  19 str  20  19   1.403
  20 str  21  20   1.377
  21 str  22  21   1.415
  22 str  23  22   1.745
  23 str  24  23   1.749
  24 str  25  24   1.364
  25 str  26  22   1.391
  26 str  26  25   1.422
  27 str  27  20   1.774
  28 str  27  26   1.741
  29 str  28  17   1.429
  30 str  29  28   1.213
  31 str  30  28   1.471
  32 str  31  30   1.401
  33 str  32  31   1.379
  34 str  33  32   1.422
  35 str  34  33   1.441
  36 str  35  34   1.422
  37 str  36  35   1.380
  38 str  37  36   1.400
  39 str  38   4   1.400
  40 str  38  37   1.479
  41 str  39  38   1.222
  42 str  40   7   1.410
  43 str  40  37   1.410
  44 str  41  10   1.426
  45 str  41  34   1.426
  46 str  41  40   1.428
  47 str  42  11   1.428
  48 str  42  33   1.428
  49 str  43  14   1.414
  50 str  43  30   1.414
  51 str  43  42   1.429
  52 str  44   1   1.093
  53 str  45   1   1.089
  54 str  46   1   1.093
  55 str  47   2   1.088
  56 str  48   3   1.089
  57 str  49   3   1.093
  58 str  50   3   1.093
  59 str  51   8   1.082
  60 str  52   9   1.081
  61 str  53  12   1.081
  62 str  54  13   1.082
  63 str  55  21   1.080
  64 str  56  24   1.079
  65 str  57  25   1.081
  66 str  58  31   1.082
  67 str  59  32   1.081
  68 str  60  35   1.081
  69 str  61  36   1.082
 nber stretches=          69
  70 ben   1   2   3
  71 prop tor   1   2   3  48
  72 prop tor   1   2   3  49
  73 prop tor   1   2   3  50
  74 ben   1   2   4
  75 prop tor   1   2   4   5
  76 prop tor   1   2   4  38
  77 ben   1   2  47
  78 ben   2   1  44
  79 ben   2   1  45
  80 ben   2   1  46
  81 ben   2   3  48
  82 ben   2   3  49
  83 ben   2   3  50
  84 ben   2   4   5
  85 prop tor   2   4   5   6
  86 prop tor   2   4   5   7
  87 ben   2   4  38
  88 prop tor   2   4  38  37
  89 prop tor   2   4  38  39
  90 ben   3   2   4
  91 prop tor   3   2   4   5
  92 prop tor   3   2   4  38
  93 ben   3   2  47
  94 prop tor   4   2   3  48
  95 prop tor   4   2   3  49
  96 prop tor   4   2   3  50
  97 ben   4   2  47
  98 ben   4   5   6
  99 ben   4   5   7
 100 prop tor   4   5   7   8
 101 prop tor   4   5   7  40
 102 ben   4  38  37
 103 ben   4  38  39
 104 ben   5   4  38
 105 prop tor   5   4  38  37
 106 prop tor   5   4  38  39
 107 ben   5   7   8
 108 prop tor   5   7   8   9
 109 prop tor   5   7   8  51
 110 ben   5   7  40
 111 prop tor   5   7  40  37
 112 prop tor   5   7  40  41
 113 ben   6   5   7
 114 prop tor   6   5   7   8
 115 prop tor   6   5   7  40
 116 ben   7   8   9
 117 prop tor   7   8   9  10
 118 prop tor   7   8   9  52
 119 ben   7   8  51
 120 ben   7  40  37
 121 ben   7  40  41
 122 prop tor   7  40  41  10
 123 prop tor   7  40  41  34
 124 ben   8   7  40
 125 prop tor   8   7  40  37
 126 prop tor   8   7  40  41
 127 ben   8   9  10
 128 prop tor   8   9  10  11
 129 prop tor   8   9  10  41
 130 ben   8   9  52
 131 ben   9   8  51
 132 ben   9  10  11
 133 prop tor   9  10  11  12
 134 prop tor   9  10  11  42
 135 ben   9  10  41
 136 prop tor   9  10  41  34
 137 prop tor   9  10  41  40
 138 ben  10   9  52
 139 ben  10  11  12
 140 prop tor  10  11  12  13
 141 prop tor  10  11  12  53
 142 ben  10  11  42
 143 prop tor  10  11  42  33
 144 prop tor  10  11  42  43
 145 ben  10  41  34
 146 ben  10  41  40
 147 ben  11  10  41
 148 prop tor  11  10  41  34
 149 prop tor  11  10  41  40
 150 ben  11  12  13
 151 prop tor  11  12  13  14
 152 prop tor  11  12  13  54
 153 ben  11  12  53
 154 ben  11  42  33
 155 ben  11  42  43
 156 prop tor  11  42  43  14
 157 prop tor  11  42  43  30
 158 ben  12  11  42
 159 prop tor  12  11  42  33
 160 prop tor  12  11  42  43
 161 ben  12  13  14
 162 prop tor  12  13  14  15
 163 prop tor  12  13  14  43
 164 ben  12  13  54
 165 ben  13  12  53
 166 ben  13  14  15
 167 prop tor  13  14  15  16
 168 prop tor  13  14  15  17
 169 ben  13  14  43
 170 prop tor  13  14  43  30
 171 prop tor  13  14  43  42
 172 ben  14  13  54
 173 ben  14  15  16
 174 ben  14  15  17
 175 prop tor  14  15  17  18
 176 prop tor  14  15  17  28
 177 ben  14  43  30
 178 ben  14  43  42
 179 ben  15  14  43
 180 prop tor  15  14  43  30
 181 prop tor  15  14  43  42
 182 ben  15  17  18
 183 prop tor  15  17  18  19
 184 ben  15  17  28
 185 prop tor  15  17  28  29
 186 prop tor  15  17  28  30
 187 ben  16  15  17
 188 prop tor  16  15  17  18
 189 prop tor  16  15  17  28
 190 lin ben  17  18  19
 192 ben  17  28  29
 193 ben  17  28  30
 194 prop tor  17  28  30  31
 195 prop tor  17  28  30  43
 196 ben  18  17  28
 197 prop tor  18  17  28  29
 198 prop tor  18  17  28  30
 Extend lin bond           1          17          18          20
 199 lin ben  18  19  20
 201 ben  19  20  21
 202 prop tor  19  20  21  22
 203 prop tor  19  20  21  55
 204 ben  19  20  27
 205 prop tor  19  20  27  26
 206 ben  20  21  22
 207 prop tor  20  21  22  23
 208 prop tor  20  21  22  26
 209 ben  20  21  55
 210 ben  20  27  26
 211 ben  21  20  27
 212 prop tor  21  20  27  26
 213 ben  21  22  23
 214 prop tor  21  22  23  24
 215 ben  21  22  26
 216 prop tor  21  22  26  25
 217 prop tor  21  22  26  27
 218 ben  22  21  55
 219 ben  22  23  24
 220 prop tor  22  23  24  25
 221 prop tor  22  23  24  56
 222 ben  22  26  25
 223 ben  22  26  27
 224 prop tor  22  26  27  20
 225 ben  23  22  26
 226 prop tor  23  22  26  25
 227 prop tor  23  22  26  27
 228 ben  23  24  25
 229 prop tor  23  24  25  26
 230 prop tor  23  24  25  57
 231 ben  23  24  56
 232 ben  24  25  26
 233 prop tor  24  25  26  22
 234 prop tor  24  25  26  27
 235 ben  24  25  57
 236 ben  25  24  56
 237 ben  25  26  27
 238 prop tor  25  26  27  20
 239 prop tor  26  22  23  24
 240 ben  26  25  57
 241 prop tor  27  20  21  22
 242 prop tor  27  20  21  55
 243 prop tor  28  17  18  19
 244 ben  28  30  31
 245 prop tor  28  30  31  32
 246 prop tor  28  30  31  58
 247 ben  28  30  43
 248 prop tor  28  30  43  14
 249 prop tor  28  30  43  42
 250 ben  29  28  30
 251 prop tor  29  28  30  31
 252 prop tor  29  28  30  43
 253 ben  30  31  32
 254 prop tor  30  31  32  33
 255 prop tor  30  31  32  59
 256 ben  30  31  58
 257 ben  30  43  42
 258 ben  31  30  43
 259 prop tor  31  30  43  14
 260 prop tor  31  30  43  42
 261 ben  31  32  33
 262 prop tor  31  32  33  34
 263 prop tor  31  32  33  42
 264 ben  31  32  59
 265 ben  32  31  58
 266 ben  32  33  34
 267 prop tor  32  33  34  35
 268 prop tor  32  33  34  41
 269 ben  32  33  42
 270 prop tor  32  33  42  11
 271 prop tor  32  33  42  43
 272 ben  33  32  59
 273 ben  33  34  35
 274 prop tor  33  34  35  36
 275 prop tor  33  34  35  60
 276 ben  33  34  41
 277 prop tor  33  34  41  10
 278 prop tor  33  34  41  40
 279 ben  33  42  43
 280 prop tor  33  42  43  14
 281 prop tor  33  42  43  30
 282 ben  34  33  42
 283 prop tor  34  33  42  11
 284 prop tor  34  33  42  43
 285 ben  34  35  36
 286 prop tor  34  35  36  37
 287 prop tor  34  35  36  61
 288 ben  34  35  60
 289 ben  34  41  40
 290 ben  35  34  41
 291 prop tor  35  34  41  10
 292 prop tor  35  34  41  40
 293 ben  35  36  37
 294 prop tor  35  36  37  38
 295 prop tor  35  36  37  40
 296 ben  35  36  61
 297 ben  36  35  60
 298 ben  36  37  38
 299 prop tor  36  37  38   4
 300 prop tor  36  37  38  39
 301 ben  36  37  40
 302 prop tor  36  37  40   7
 303 prop tor  36  37  40  41
 304 ben  37  36  61
 305 ben  37  38  39
 306 ben  37  40  41
 307 prop tor  37  40  41  10
 308 prop tor  37  40  41  34
 309 prop tor  38   4   5   6
 310 prop tor  38   4   5   7
 311 ben  38  37  40
 312 prop tor  38  37  40   7
 313 prop tor  38  37  40  41
 314 prop tor  40   7   8   9
 315 prop tor  40   7   8  51
 316 prop tor  40  37  38   4
 317 prop tor  40  37  38  39
 318 prop tor  41  10  11  12
 319 prop tor  41  10  11  42
 320 prop tor  41  34  35  36
 321 prop tor  41  34  35  60
 322 prop tor  42  11  12  13
 323 prop tor  42  11  12  53
 324 prop tor  42  33  34  35
 325 prop tor  42  33  34  41
 326 prop tor  43  14  15  16
 327 prop tor  43  14  15  17
 328 prop tor  43  30  31  32
 329 prop tor  43  30  31  58
 330 prop tor  44   1   2   3
 331 prop tor  44   1   2   4
 332 prop tor  44   1   2  47
 333 ben  44   1  45
 334 ben  44   1  46
 335 prop tor  45   1   2   3
 336 prop tor  45   1   2   4
 337 prop tor  45   1   2  47
 338 ben  45   1  46
 339 prop tor  46   1   2   3
 340 prop tor  46   1   2   4
 341 prop tor  46   1   2  47
 342 prop tor  47   2   3  48
 343 prop tor  47   2   3  49
 344 prop tor  47   2   3  50
 345 prop tor  47   2   4   5
 346 prop tor  47   2   4  38
 347 ben  48   3  49
 348 ben  48   3  50
 349 ben  49   3  50
 350 prop tor  51   8   9  10
 351 prop tor  51   8   9  52
 352 prop tor  52   9  10  11
 353 prop tor  52   9  10  41
 354 prop tor  53  12  13  14
 355 prop tor  53  12  13  54
 356 prop tor  54  13  14  15
 357 prop tor  54  13  14  43
 358 prop tor  55  21  22  23
 359 prop tor  55  21  22  26
 360 prop tor  56  24  25  26
 361 prop tor  56  24  25  57
 362 prop tor  57  25  26  22
 363 prop tor  57  25  26  27
 364 prop tor  58  31  32  33
 365 prop tor  58  31  32  59
 366 prop tor  59  32  33  34
 367 prop tor  59  32  33  42
 368 prop tor  60  35  36  37
 369 prop tor  60  35  36  61
 370 prop tor  61  36  37  38
 371 prop tor  61  36  37  40
 372 lin bend prop tor  15  17  20  19
 373 lin bend prop tor  15  17  20  21
 374 lin bend prop tor  15  17  20  27
 375 lin bend prop tor  18  17  20  19
 376 lin bend prop tor  18  17  20  21
 377 lin bend prop tor  18  17  20  27
 378 lin bend prop tor  28  17  20  19
 379 lin bend prop tor  28  17  20  21
 380 lin bend prop tor  28  17  20  27
 nber bend=             120
 nber lin bend=           1
 nber prop tor=         191
 nber impr tor=           0
 nber tot redund int=         380
 Eigenvalues of G in red int coords
    Gval -0.00000000 -0.00000000 -0.00000000 -0.00000000 -0.00000000 -0.00000000 -0.00000000 -0.00000000
    Gval -0.00000000 -0.00000000 -0.00000000 -0.00000000 -0.00000000 -0.00000000 -0.00000000 -0.00000000
    Gval -0.00000000 -0.00000000 -0.00000000 -0.00000000 -0.00000000 -0.00000000 -0.00000000 -0.00000000
    Gval -0.00000000 -0.00000000 -0.00000000 -0.00000000 -0.00000000 -0.00000000 -0.00000000 -0.00000000
    Gval -0.00000000 -0.00000000 -0.00000000 -0.00000000 -0.00000000 -0.00000000 -0.00000000 -0.00000000
    Gval -0.00000000 -0.00000000 -0.00000000 -0.00000000 -0.00000000 -0.00000000 -0.00000000 -0.00000000
    Gval -0.00000000 -0.00000000 -0.00000000 -0.00000000 -0.00000000 -0.00000000 -0.00000000 -0.00000000
    Gval -0.00000000 -0.00000000 -0.00000000 -0.00000000 -0.00000000 -0.00000000 -0.00000000 -0.00000000
    Gval -0.00000000 -0.00000000 -0.00000000 -0.00000000 -0.00000000 -0.00000000 -0.00000000 -0.00000000
    Gval -0.00000000 -0.00000000 -0.00000000 -0.00000000 -0.00000000 -0.00000000 -0.00000000 -0.00000000
    Gval -0.00000000 -0.00000000 -0.00000000 -0.00000000 -0.00000000 -0.00000000 -0.00000000 -0.00000000
    Gval -0.00000000 -0.00000000 -0.00000000 -0.00000000 -0.00000000 -0.00000000 -0.00000000 -0.00000000
    Gval -0.00000000  0.00000000  0.00000000  0.00000000  0.00000000  0.00000000  0.00000000  0.00000000
    Gval  0.00000000  0.00000000  0.00000000  0.00000000  0.00000000  0.00000000  0.00000000  0.00000000
    Gval  0.00000000  0.00000000  0.00000000  0.00000000  0.00000000  0.00000000  0.00000000  0.00000000
    Gval  0.00000000  0.00000000  0.00000000  0.00000000  0.00000000  0.00000000  0.00000000  0.00000000
    Gval  0.00000000  0.00000000  0.00000000  0.00000000  0.00000000  0.00000000  0.00000000  0.00000000
    Gval  0.00000000  0.00000000  0.00000000  0.00000000  0.00000000  0.00000000  0.00000000  0.00000000
    Gval  0.00000000  0.00000000  0.00000000  0.00000000  0.00000000  0.00000000  0.00000000  0.00000000
    Gval  0.00000000  0.00000000  0.00000000  0.00000000  0.00000000  0.00000000  0.00000000  0.00000000
    Gval  0.00000000  0.00000000  0.00000000  0.00000000  0.00000000  0.00000000  0.00000000  0.00000000
    Gval  0.00000000  0.00000000  0.00000000  0.00000000  0.00000000  0.00000000  0.00000000  0.00000000
    Gval  0.00000000  0.00000000  0.00000000  0.00000000  0.00000000  0.00000000  0.00000000  0.00000000
    Gval  0.00000000  0.00000000  0.00000000  0.00000000  0.00000000  0.00000000  0.00000000  0.00000000
    Gval  0.00000000  0.00000000  0.00000000  0.00000000  0.00000000  0.00000000  0.00000000  0.00000000
    Gval  0.00000000  0.00000000  0.00000000  0.00000024  0.00000065  0.00000096  0.00000154  0.00000342
    Gval  0.00000388  0.00000495  0.00000646  0.00000673  0.00000904  0.00001113  0.00001361  0.00001426
    Gval  0.00001643  0.00001713  0.00001731  0.00001777  0.00001833  0.00001842  0.00002145  0.00002301
    Gval  0.00002374  0.00002398  0.00002541  0.00002871  0.00003051  0.00003193  0.00003495  0.00003735
    Gval  0.00003947  0.00003994  0.00004693  0.00004883  0.00004959  0.00005173  0.00005258  0.00005689
    Gval  0.00005691  0.00005825  0.00006488  0.00006561  0.00006814  0.00007127  0.00007360  0.00008060
    Gval  0.00008147  0.00008254  0.00008561  0.00008712  0.00008831  0.00009320  0.00009496  0.00010080
    Gval  0.00010811  0.00011391  0.00011785  0.00011855  0.00012247  0.00013522  0.00013544  0.00013729
    Gval  0.00013797  0.00014199  0.00015632  0.00015672  0.00015919  0.00016246  0.00016874  0.00018151
    Gval  0.00019794  0.00020005  0.00022053  0.00022288  0.00023031  0.00023084  0.00026839  0.00027201
    Gval  0.00028576  0.00028707  0.00028897  0.00029691  0.00030945  0.00032328  0.00034182  0.00036050
    Gval  0.00037064  0.00038075  0.00038927  0.00038962  0.00039495  0.00040126  0.00042340  0.00042404
    Gval  0.00042896  0.00043168  0.00043518  0.00044062  0.00044200  0.00046218  0.00046613  0.00046891
    Gval  0.00049500  0.00052102  0.00053424  0.00053716  0.00055144  0.00055411  0.00055602  0.00055623
    Gval  0.00058650  0.00059660  0.00059849  0.00059923  0.00059956  0.00059984  0.00060219  0.00061955
    Gval  0.00062184  0.00062701  0.00064075  0.00064424  0.00064501  0.00064682  0.00066707  0.00067254
    Gval  0.00069476  0.00069777  0.00079656  0.00081203  0.00092018  0.00099048  0.00108133  0.00109337
    Gval  0.00109430  0.00109500  0.00109549  0.00114271  0.00114458  0.00116544  0.00116574  0.00116592
    Gval  0.00116629  0.00117133  0.00117192  0.00118657  0.00120226  0.00122691  0.00129052  0.00129561
    Gval  0.00133137  0.00148383  0.00152882  0.00171593  0.00176200  0.00191519  0.00208234  0.00228056
    Gval  0.00233960  0.00252128  0.00252413  0.00255937  0.00278887  0.00292152  0.00302357  0.00304208
    Gval  0.00308115  0.00309645  0.00350702  0.00367455  0.00367633  0.00372126  0.00372297  0.00394612
    Gval  0.00396916  0.85722789  5.68709804 96.45231808
  2.410529632553945E-007  2.410529632553945E-007
  6.543099569719162E-007  2.410529632553945E-007
  9.599972130272347E-007  2.410529632553945E-007
  1.535994926012028E-006  2.410529632553945E-007
  3.417372989745614E-006  2.410529632553945E-007
  3.882555040296456E-006  2.410529632553945E-007
  4.954047463479064E-006  2.410529632553945E-007
  6.462873217972361E-006  2.410529632553945E-007
  6.731022255364923E-006  2.410529632553945E-007
  9.043628904281266E-006  2.410529632553945E-007
  1.112939626709601E-005  2.410529632553945E-007
  1.361494298412533E-005  2.410529632553945E-007
  1.425856435568631E-005  2.410529632553945E-007
  1.642867902181283E-005  2.410529632553945E-007
  1.712954298632370E-005  2.410529632553945E-007
  1.731048042545308E-005  2.410529632553945E-007
  1.776529746966853E-005  2.410529632553945E-007
  1.832851246800530E-005  2.410529632553945E-007
  1.841908777316428E-005  2.410529632553945E-007
  2.145416492432774E-005  2.410529632553945E-007
  2.300723159422448E-005  2.410529632553945E-007
  2.373644551743120E-005  2.410529632553945E-007
  2.397518640560856E-005  2.410529632553945E-007
  2.541491373427535E-005  2.410529632553945E-007
  2.871363249072643E-005  2.410529632553945E-007
  3.051179952426796E-005  2.410529632553945E-007
  3.193490042064832E-005  2.410529632553945E-007
  3.494575726215066E-005  2.410529632553945E-007
  3.735402436741771E-005  2.410529632553945E-007
  3.947230577723270E-005  2.410529632553945E-007
  3.993971667659413E-005  2.410529632553945E-007
  4.693496638596604E-005  2.410529632553945E-007
  4.883474347577562E-005  2.410529632553945E-007
  4.958790705179403E-005  2.410529632553945E-007
  5.173194991512986E-005  2.410529632553945E-007
  5.258341559780738E-005  2.410529632553945E-007
  5.688548852928450E-005  2.410529632553945E-007
  5.691304735857588E-005  2.410529632553945E-007
  5.824740160280734E-005  2.410529632553945E-007
  6.487747342944995E-005  2.410529632553945E-007
  6.561060998738500E-005  2.410529632553945E-007
  6.813665661847356E-005  2.410529632553945E-007
  7.126694751929686E-005  2.410529632553945E-007
  7.359980124933195E-005  2.410529632553945E-007
  8.060206131963481E-005  2.410529632553945E-007
  8.147085552401366E-005  2.410529632553945E-007
  8.253795588549290E-005  2.410529632553945E-007
  8.561227217758459E-005  2.410529632553945E-007
  8.712149860042333E-005  2.410529632553945E-007
  8.831410286693094E-005  2.410529632553945E-007
  9.320080337066833E-005  2.410529632553945E-007
  9.496109463914446E-005  2.410529632553945E-007
  1.008048091383660E-004  2.410529632553945E-007
  1.081072982563039E-004  2.410529632553945E-007
  1.139131014057897E-004  2.410529632553945E-007
  1.178490633489210E-004  2.410529632553945E-007
  1.185547808422785E-004  2.410529632553945E-007
  1.224711850830780E-004  2.410529632553945E-007
  1.352153197480432E-004  2.410529632553945E-007
  1.354392668277410E-004  2.410529632553945E-007
  1.372936204214138E-004  2.410529632553945E-007
  1.379695065717025E-004  2.410529632553945E-007
  1.419937619836306E-004  2.410529632553945E-007
  1.563156419921299E-004  2.410529632553945E-007
  1.567204759966309E-004  2.410529632553945E-007
  1.591915355465510E-004  2.410529632553945E-007
  1.624649833491763E-004  2.410529632553945E-007
  1.687405655015028E-004  2.410529632553945E-007
  1.815050435487482E-004  2.410529632553945E-007
  1.979381102453113E-004  2.410529632553945E-007
  2.000501267460675E-004  2.410529632553945E-007
  2.205277107075682E-004  2.410529632553945E-007
  2.228777338166915E-004  2.410529632553945E-007
  2.303104346390904E-004  2.410529632553945E-007
  2.308399825253783E-004  2.410529632553945E-007
  2.683932152720597E-004  2.410529632553945E-007
  2.720087899473992E-004  2.410529632553945E-007
  2.857611026099687E-004  2.410529632553945E-007
  2.870663674964131E-004  2.410529632553945E-007
  2.889674320321998E-004  2.410529632553945E-007
  2.969057723517682E-004  2.410529632553945E-007
  3.094527891714622E-004  2.410529632553945E-007
  3.232801514790933E-004  2.410529632553945E-007
  3.418154286019215E-004  2.410529632553945E-007
  3.605045485927033E-004  2.410529632553945E-007
  3.706410419192530E-004  2.410529632553945E-007
  3.807509075495695E-004  2.410529632553945E-007
  3.892699509293789E-004  2.410529632553945E-007
  3.896153533116510E-004  2.410529632553945E-007
  3.949500151093948E-004  2.410529632553945E-007
  4.012587765250982E-004  2.410529632553945E-007
  4.233966340115016E-004  2.410529632553945E-007
  4.240390822675363E-004  2.410529632553945E-007
  4.289610492937778E-004  2.410529632553945E-007
  4.316793878531191E-004  2.410529632553945E-007
  4.351821519037478E-004  2.410529632553945E-007
  4.406211727835113E-004  2.410529632553945E-007
  4.420034957702735E-004  2.410529632553945E-007
  4.621784131589047E-004  2.410529632553945E-007
  4.661347253318352E-004  2.410529632553945E-007
  4.689146495014905E-004  2.410529632553945E-007
  4.949955212282069E-004  2.410529632553945E-007
  5.210239498831192E-004  2.410529632553945E-007
  5.342386760112277E-004  2.410529632553945E-007
  5.371592516787705E-004  2.410529632553945E-007
  5.514385996599711E-004  2.410529632553945E-007
  5.541148371309604E-004  2.410529632553945E-007
  5.560168676220754E-004  2.410529632553945E-007
  5.562318055913610E-004  2.410529632553945E-007
  5.865015262480699E-004  2.410529632553945E-007
  5.966005315581008E-004  2.410529632553945E-007
  5.984890649191725E-004  2.410529632553945E-007
  5.992291910280176E-004  2.410529632553945E-007
  5.995599920650586E-004  2.410529632553945E-007
  5.998395887883154E-004  2.410529632553945E-007
  6.021851623531523E-004  2.410529632553945E-007
  6.195473108263917E-004  2.410529632553945E-007
  6.218381822757403E-004  2.410529632553945E-007
  6.270135745213855E-004  2.410529632553945E-007
  6.407488910205796E-004  2.410529632553945E-007
  6.442373067440466E-004  2.410529632553945E-007
  6.450050076609758E-004  2.410529632553945E-007
  6.468204849375159E-004  2.410529632553945E-007
  6.670736126438167E-004  2.410529632553945E-007
  6.725397314474879E-004  2.410529632553945E-007
  6.947561312951723E-004  2.410529632553945E-007
  6.977663818213535E-004  2.410529632553945E-007
  7.965562760094487E-004  2.410529632553945E-007
  8.120302248516728E-004  2.410529632553945E-007
  9.201811769852459E-004  2.410529632553945E-007
  9.904796807661620E-004  2.410529632553945E-007
  1.081332982154074E-003  2.410529632553945E-007
  1.093373602113697E-003  2.410529632553945E-007
  1.094300845516526E-003  2.410529632553945E-007
  1.094998610409735E-003  2.410529632553945E-007
  1.095490747829754E-003  2.410529632553945E-007
  1.142709170779676E-003  2.410529632553945E-007
  1.144578579520788E-003  2.410529632553945E-007
  1.165437369599689E-003  2.410529632553945E-007
  1.165743259932199E-003  2.410529632553945E-007
  1.165921869443884E-003  2.410529632553945E-007
  1.166286384779081E-003  2.410529632553945E-007
  1.171332420892496E-003  2.410529632553945E-007
  1.171918361888148E-003  2.410529632553945E-007
  1.186566851472744E-003  2.410529632553945E-007
  1.202262433285962E-003  2.410529632553945E-007
  1.226906580033566E-003  2.410529632553945E-007
  1.290523719566338E-003  2.410529632553945E-007
  1.295609905030316E-003  2.410529632553945E-007
  1.331366277708186E-003  2.410529632553945E-007
  1.483830178866243E-003  2.410529632553945E-007
  1.528818782400016E-003  2.410529632553945E-007
  1.715929262582908E-003  2.410529632553945E-007
  1.761999263197420E-003  2.410529632553945E-007
  1.915191288195239E-003  2.410529632553945E-007
  2.082336469014159E-003  2.410529632553945E-007
  2.280556649777715E-003  2.410529632553945E-007
  2.339599350724292E-003  2.410529632553945E-007
  2.521284575077913E-003  2.410529632553945E-007
  2.524128557176300E-003  2.410529632553945E-007
  2.559366538610459E-003  2.410529632553945E-007
  2.788870956854881E-003  2.410529632553945E-007
  2.921524853026197E-003  2.410529632553945E-007
  3.023567374294189E-003  2.410529632553945E-007
  3.042077572982305E-003  2.410529632553945E-007
  3.081154350383065E-003  2.410529632553945E-007
  3.096447629999343E-003  2.410529632553945E-007
  3.507024470297325E-003  2.410529632553945E-007
  3.674549171074664E-003  2.410529632553945E-007
  3.676329352824709E-003  2.410529632553945E-007
  3.721259547079798E-003  2.410529632553945E-007
  3.722974893419771E-003  2.410529632553945E-007
  3.946122190251328E-003  2.410529632553945E-007
  3.969156080403880E-003  2.410529632553945E-007
  0.857227888752542       2.410529632553945E-007
   5.68709804095253       2.410529632553945E-007
   96.4523180831957       2.410529632553945E-007
 cut=1d-8, nber non-redundant internal coords=         177
 Check on Eigenvals of non-red overlap matrix:
  0.00000024  0.00000065  0.00000096  0.00000154  0.00000342  0.00000388  0.00000495  0.00000646
  0.00000673  0.00000904  0.00001113  0.00001361  0.00001426  0.00001643  0.00001713  0.00001731
  0.00001777  0.00001833  0.00001842  0.00002145  0.00002301  0.00002374  0.00002398  0.00002541
  0.00002871  0.00003051  0.00003193  0.00003495  0.00003735  0.00003947  0.00003994  0.00004693
  0.00004883  0.00004959  0.00005173  0.00005258  0.00005689  0.00005691  0.00005825  0.00006488
  0.00006561  0.00006814  0.00007127  0.00007360  0.00008060  0.00008147  0.00008254  0.00008561
  0.00008712  0.00008831  0.00009320  0.00009496  0.00010080  0.00010811  0.00011391  0.00011785
  0.00011855  0.00012247  0.00013522  0.00013544  0.00013729  0.00013797  0.00014199  0.00015632
  0.00015672  0.00015919  0.00016246  0.00016874  0.00018151  0.00019794  0.00020005  0.00022053
  0.00022288  0.00023031  0.00023084  0.00026839  0.00027201  0.00028576  0.00028707  0.00028897
  0.00029691  0.00030945  0.00032328  0.00034182  0.00036050  0.00037064  0.00038075  0.00038927
  0.00038962  0.00039495  0.00040126  0.00042340  0.00042404  0.00042896  0.00043168  0.00043518
  0.00044062  0.00044200  0.00046218  0.00046613  0.00046891  0.00049500  0.00052102  0.00053424
  0.00053716  0.00055144  0.00055411  0.00055602  0.00055623  0.00058650  0.00059660  0.00059849
  0.00059923  0.00059956  0.00059984  0.00060219  0.00061955  0.00062184  0.00062701  0.00064075
  0.00064424  0.00064501  0.00064682  0.00066707  0.00067254  0.00069476  0.00069777  0.00079656
  0.00081203  0.00092018  0.00099048  0.00108133  0.00109337  0.00109430  0.00109500  0.00109549
  0.00114271  0.00114458  0.00116544  0.00116574  0.00116592  0.00116629  0.00117133  0.00117192
  0.00118657  0.00120226  0.00122691  0.00129052  0.00129561  0.00133137  0.00148383  0.00152882
  0.00171593  0.00176200  0.00191519  0.00208234  0.00228056  0.00233960  0.00252128  0.00252413
  0.00255937  0.00278887  0.00292152  0.00302357  0.00304208  0.00308115  0.00309645  0.00350702
  0.00367455  0.00367633  0.00372126  0.00372297  0.00394612  0.00396916  0.85722789  5.68709804
 96.45231808
 Checking for correct frequencies
 recalc frequencies=
    -0.0   -0.0   -0.0   -0.0    0.0    0.0    7.8    9.6   13.9   27.7
    28.8   50.1   55.7   68.0   76.9   80.9   89.5  101.1  121.6  126.2
   142.5  167.9  182.0  187.2  198.2  202.0  209.3  224.5  233.6  235.7
   237.1  256.0  280.0  295.9  301.6  319.5  332.7  351.4  351.7  388.8
   391.0  417.1  421.4  424.6  427.9  434.2  438.6  444.8  447.1  461.0
   465.2  470.0  484.2  484.3  499.1  504.4  505.6  510.0  537.7  537.9
   564.0  571.4  574.1  583.3  604.2  615.9  620.4  621.1  634.1  651.7
   679.0  682.4  703.3  703.7  707.2  715.0  724.9  744.8  755.7  757.6
   761.7  763.8  800.0  809.1  810.6  814.9  819.7  826.0  826.5  832.1
   837.3  845.1  876.8  896.1  903.5  920.2  933.0  945.4  952.8  956.7
   975.0  976.8  988.2  988.9 1000.5 1061.9 1086.0 1094.4 1109.8 1117.9
  1137.5 1155.5 1158.5 1164.1 1169.8 1183.9 1186.0 1196.5 1200.6 1210.6
  1224.7 1233.0 1243.2 1255.1 1274.5 1300.3 1316.8 1318.5 1342.1 1350.9
  1366.0 1372.3 1377.5 1381.9 1390.9 1395.0 1400.4 1404.3 1416.4 1429.8
  1438.0 1444.2 1452.4 1459.2 1467.2 1485.2 1491.2 1497.8 1505.1 1508.6
  1511.6 1522.4 1546.5 1551.1 1555.2 1572.2 1582.2 1598.7 1599.5 1621.6
  1686.3 1720.8 1726.3 1753.8 2342.5 3034.6 3038.7 3092.6 3095.8 3112.7
  3132.7 3143.1 3198.9 3199.3 3205.4 3205.6 3213.1 3213.5 3213.6 3224.2
  3225.2 3225.5 3244.8
 recalc symmetries=
                                                                       
                                                                       
                                                                       
                                                                       
                                                                       
                                                                       
                                                                       
                                                                       
                                                                       
                                                                       
                                                                       
                                                                       
                                                                       
                                                                       
                                                                       
                                                                       
                                                                       
                                                                       
                      
 recalc freqs check OK
 Zero-point lengths:
 10.0000 10.0000 10.0000 10.0000 10.0000 10.0000 88.7023 80.1436 66.5811 47.1101
 46.1682 35.0257 33.2238 30.0656 28.2774 27.5672 26.2118 24.6564 22.4772 22.0718
 20.7668 19.1351 18.3757 18.1214 17.6080 17.4435 17.1377 16.5455 16.2206 16.1481
 16.1013 15.4942 14.8144 14.4112 14.2744 13.8695 13.5924 13.2244 13.2188 12.5734
 12.5379 12.1388 12.0768 12.0317 11.9853 11.8968 11.8371 11.7542 11.7244 11.5463
 11.4937 11.4355 11.2659 11.2654 11.0964 11.0388 11.0253 10.9776 10.6913 10.6890
 10.4389 10.3715 10.3467 10.2644 10.0860  9.9893  9.9533  9.9476  9.8453  9.7113
  9.5136  9.4899  9.3482  9.3458  9.3222  9.2715  9.2076  9.0838  9.0180  9.0069
  8.9829  8.9705  8.7649  8.7156  8.7077  8.6845  8.6590  8.6262  8.6232  8.5944
  8.5676  8.5280  8.3722  8.2816  8.2474  8.1726  8.1164  8.0628  8.0316  8.0149
  7.9393  7.9323  7.8864  7.8834  7.8377  7.6078  7.5227  7.4939  7.4417  7.4145
  7.3507  7.2930  7.2837  7.2662  7.2482  7.2050  7.1986  7.1670  7.1548  7.1252
  7.0841  7.0602  7.0311  6.9978  6.9443  6.8751  6.8317  6.8273  6.7671  6.7449
  6.7077  6.6923  6.6796  6.6690  6.6472  6.6375  6.6248  6.6156  6.5871  6.5563
  6.5376  6.5235  6.5050  6.4900  6.4721  6.4329  6.4198  6.4057  6.3902  6.3827
  6.3765  6.3538  6.3040  6.2948  6.2864  6.2523  6.2326  6.2002  6.1988  6.1564
  6.0371  5.9763  5.9668  5.9198  5.1222  4.5003  4.4973  4.4579  4.4556  4.4435
  4.4293  4.4220  4.3832  4.3830  4.3788  4.3787  4.3736  4.3733  4.3732  4.3660
  4.3653  4.3651  4.3521
 highest evec of mol 1
 -0.0000 -0.0000 -0.0000
  0.0000 -0.0000 -0.0000
 -0.0000 -0.0000 -0.0000
  0.0000 -0.0000  0.0000
 -0.0000 -0.0000 -0.0001
  0.0000  0.0000  0.0000
  0.0000  0.0000  0.0000
  0.0000 -0.0001 -0.0000
  0.0000 -0.0001  0.0001
  0.0000  0.0000  0.0000
 -0.0000  0.0000 -0.0000
  0.0000 -0.0001  0.0000
  0.0000 -0.0001  0.0001
  0.0000 -0.0000  0.0000
  0.0000 -0.0001  0.0001
 -0.0000  0.0000 -0.0000
  0.0000  0.0000  0.0001
 -0.0000 -0.0001 -0.0001
  0.0001 -0.0000  0.0002
 -0.0002  0.0002 -0.0003
  0.0006 -0.0033 -0.0000
  0.0009  0.0013  0.0031
 -0.0004  0.0022  0.0001
 -0.0781 -0.0768 -0.2615
  0.0199 -0.0940  0.0083
  0.0012  0.0047  0.0058
 -0.0001 -0.0001 -0.0004
  0.0000  0.0001  0.0001
  0.0000 -0.0001 -0.0000
 -0.0000 -0.0000 -0.0001
  0.0000  0.0000  0.0000
 -0.0000 -0.0000 -0.0000
 -0.0000  0.0000  0.0000
  0.0000 -0.0000  0.0000
 -0.0000  0.0000  0.0000
 -0.0000  0.0000 -0.0000
 -0.0000  0.0000 -0.0000
 -0.0000  0.0000 -0.0000
  0.0000 -0.0000  0.0000
  0.0000  0.0000  0.0000
 -0.0000  0.0000 -0.0000
  0.0000 -0.0000  0.0000
 -0.0000  0.0001 -0.0000
  0.0000  0.0000  0.0001
 -0.0000 -0.0000 -0.0000
 -0.0000 -0.0000 -0.0000
 -0.0000  0.0001 -0.0000
 -0.0000 -0.0000 -0.0000
  0.0000  0.0000  0.0001
  0.0000 -0.0000 -0.0000
 -0.0000  0.0002  0.0001
 -0.0001  0.0002 -0.0002
 -0.0000  0.0003  0.0001
 -0.0001  0.0002 -0.0002
 -0.0015  0.0095  0.0005
  0.2410  0.2886  0.8332
 -0.0445  0.2690  0.0117
 -0.0000 -0.0000 -0.0000
  0.0000 -0.0000  0.0000
  0.0000 -0.0001 -0.0000
  0.0000 -0.0000  0.0000
 generating redundant internal coords
         300        3600          61
 Adding extra bonds for z output only
           6           6           6           7           6           8
           6           6           6           6           6           6
           6           6           6           8           7           6
           6           6           6           6          16           6
           6           6          16           6           8           6
           6           6           6           6           6           6
           6           6           8           6           6           6
           6           1           1           1           1           1
           1           1           1           1           1           1
           1           1           1           1           1           1
           1
 search for int coords
   1 str   2   1   1.532
   2 str   3   2   1.532
   3 str   4   2   1.499
   4 str   5   4   1.407
   5 str   6   5   1.221
   6 str   7   5   1.478
   7 str   8   7   1.400
   8 str   9   8   1.380
   9 str  10   9   1.422
  10 str  11  10   1.441
  11 str  12  11   1.422
  12 str  13  12   1.379
  13 str  14  13   1.401
  14 str  15  14   1.470
  15 str  16  15   1.213
  16 str  17  15   1.429
  17 str  18  17   1.355
  18 str  19  18   1.205
  19 str  20  19   1.403
  20 str  21  20   1.377
  21 str  22  21   1.415
  22 str  23  22   1.745
  23 str  24  23   1.749
  24 str  25  24   1.364
  25 str  26  22   1.391
  26 str  26  25   1.422
  27 str  27  20   1.774
  28 str  27  26   1.741
  29 str  28  17   1.429
  30 str  29  28   1.213
  31 str  30  28   1.471
  32 str  31  30   1.401
  33 str  32  31   1.379
  34 str  33  32   1.422
  35 str  34  33   1.441
  36 str  35  34   1.422
  37 str  36  35   1.380
  38 str  37  36   1.400
  39 str  38   4   1.400
  40 str  38  37   1.479
  41 str  39  38   1.222
  42 str  40   7   1.410
  43 str  40  37   1.410
  44 str  41  10   1.426
  45 str  41  34   1.426
  46 str  41  40   1.428
  47 str  42  11   1.428
  48 str  42  33   1.428
  49 str  43  14   1.414
  50 str  43  30   1.414
  51 str  43  42   1.429
  52 str  44   1   1.093
  53 str  45   1   1.089
  54 str  46   1   1.093
  55 str  47   2   1.088
  56 str  48   3   1.089
  57 str  49   3   1.093
  58 str  50   3   1.093
  59 str  51   8   1.082
  60 str  52   9   1.081
  61 str  53  12   1.081
  62 str  54  13   1.082
  63 str  55  21   1.080
  64 str  56  24   1.079
  65 str  57  25   1.081
  66 str  58  31   1.082
  67 str  59  32   1.081
  68 str  60  35   1.081
  69 str  61  36   1.082
 nber stretches=          69
  70 ben   1   2   3
  71 prop tor   1   2   3  48
  72 prop tor   1   2   3  49
  73 prop tor   1   2   3  50
  74 ben   1   2   4
  75 prop tor   1   2   4   5
  76 prop tor   1   2   4  38
  77 ben   1   2  47
  78 ben   2   1  44
  79 ben   2   1  45
  80 ben   2   1  46
  81 ben   2   3  48
  82 ben   2   3  49
  83 ben   2   3  50
  84 ben   2   4   5
  85 prop tor   2   4   5   6
  86 prop tor   2   4   5   7
  87 ben   2   4  38
  88 prop tor   2   4  38  37
  89 prop tor   2   4  38  39
  90 ben   3   2   4
  91 prop tor   3   2   4   5
  92 prop tor   3   2   4  38
  93 ben   3   2  47
  94 prop tor   4   2   3  48
  95 prop tor   4   2   3  49
  96 prop tor   4   2   3  50
  97 ben   4   2  47
  98 ben   4   5   6
  99 ben   4   5   7
 100 prop tor   4   5   7   8
 101 prop tor   4   5   7  40
 102 ben   4  38  37
 103 ben   4  38  39
 104 ben   5   4  38
 105 prop tor   5   4  38  37
 106 prop tor   5   4  38  39
 107 ben   5   7   8
 108 prop tor   5   7   8   9
 109 prop tor   5   7   8  51
 110 ben   5   7  40
 111 prop tor   5   7  40  37
 112 prop tor   5   7  40  41
 113 ben   6   5   7
 114 prop tor   6   5   7   8
 115 prop tor   6   5   7  40
 116 ben   7   8   9
 117 prop tor   7   8   9  10
 118 prop tor   7   8   9  52
 119 ben   7   8  51
 120 ben   7  40  37
 121 ben   7  40  41
 122 prop tor   7  40  41  10
 123 prop tor   7  40  41  34
 124 ben   8   7  40
 125 prop tor   8   7  40  37
 126 prop tor   8   7  40  41
 127 ben   8   9  10
 128 prop tor   8   9  10  11
 129 prop tor   8   9  10  41
 130 ben   8   9  52
 131 ben   9   8  51
 132 ben   9  10  11
 133 prop tor   9  10  11  12
 134 prop tor   9  10  11  42
 135 ben   9  10  41
 136 prop tor   9  10  41  34
 137 prop tor   9  10  41  40
 138 ben  10   9  52
 139 ben  10  11  12
 140 prop tor  10  11  12  13
 141 prop tor  10  11  12  53
 142 ben  10  11  42
 143 prop tor  10  11  42  33
 144 prop tor  10  11  42  43
 145 ben  10  41  34
 146 ben  10  41  40
 147 ben  11  10  41
 148 prop tor  11  10  41  34
 149 prop tor  11  10  41  40
 150 ben  11  12  13
 151 prop tor  11  12  13  14
 152 prop tor  11  12  13  54
 153 ben  11  12  53
 154 ben  11  42  33
 155 ben  11  42  43
 156 prop tor  11  42  43  14
 157 prop tor  11  42  43  30
 158 ben  12  11  42
 159 prop tor  12  11  42  33
 160 prop tor  12  11  42  43
 161 ben  12  13  14
 162 prop tor  12  13  14  15
 163 prop tor  12  13  14  43
 164 ben  12  13  54
 165 ben  13  12  53
 166 ben  13  14  15
 167 prop tor  13  14  15  16
 168 prop tor  13  14  15  17
 169 ben  13  14  43
 170 prop tor  13  14  43  30
 171 prop tor  13  14  43  42
 172 ben  14  13  54
 173 ben  14  15  16
 174 ben  14  15  17
 175 prop tor  14  15  17  18
 176 prop tor  14  15  17  28
 177 ben  14  43  30
 178 ben  14  43  42
 179 ben  15  14  43
 180 prop tor  15  14  43  30
 181 prop tor  15  14  43  42
 182 ben  15  17  18
 183 prop tor  15  17  18  19
 184 ben  15  17  28
 185 prop tor  15  17  28  29
 186 prop tor  15  17  28  30
 187 ben  16  15  17
 188 prop tor  16  15  17  18
 189 prop tor  16  15  17  28
 190 lin ben  17  18  19
 192 ben  17  28  29
 193 ben  17  28  30
 194 prop tor  17  28  30  31
 195 prop tor  17  28  30  43
 196 ben  18  17  28
 197 prop tor  18  17  28  29
 198 prop tor  18  17  28  30
 Extend lin bond           1          17          18          20
 199 lin ben  18  19  20
 201 ben  19  20  21
 202 prop tor  19  20  21  22
 203 prop tor  19  20  21  55
 204 ben  19  20  27
 205 prop tor  19  20  27  26
 206 ben  20  21  22
 207 prop tor  20  21  22  23
 208 prop tor  20  21  22  26
 209 ben  20  21  55
 210 ben  20  27  26
 211 ben  21  20  27
 212 prop tor  21  20  27  26
 213 ben  21  22  23
 214 prop tor  21  22  23  24
 215 ben  21  22  26
 216 prop tor  21  22  26  25
 217 prop tor  21  22  26  27
 218 ben  22  21  55
 219 ben  22  23  24
 220 prop tor  22  23  24  25
 221 prop tor  22  23  24  56
 222 ben  22  26  25
 223 ben  22  26  27
 224 prop tor  22  26  27  20
 225 ben  23  22  26
 226 prop tor  23  22  26  25
 227 prop tor  23  22  26  27
 228 ben  23  24  25
 229 prop tor  23  24  25  26
 230 prop tor  23  24  25  57
 231 ben  23  24  56
 232 ben  24  25  26
 233 prop tor  24  25  26  22
 234 prop tor  24  25  26  27
 235 ben  24  25  57
 236 ben  25  24  56
 237 ben  25  26  27
 238 prop tor  25  26  27  20
 239 prop tor  26  22  23  24
 240 ben  26  25  57
 241 prop tor  27  20  21  22
 242 prop tor  27  20  21  55
 243 prop tor  28  17  18  19
 244 ben  28  30  31
 245 prop tor  28  30  31  32
 246 prop tor  28  30  31  58
 247 ben  28  30  43
 248 prop tor  28  30  43  14
 249 prop tor  28  30  43  42
 250 ben  29  28  30
 251 prop tor  29  28  30  31
 252 prop tor  29  28  30  43
 253 ben  30  31  32
 254 prop tor  30  31  32  33
 255 prop tor  30  31  32  59
 256 ben  30  31  58
 257 ben  30  43  42
 258 ben  31  30  43
 259 prop tor  31  30  43  14
 260 prop tor  31  30  43  42
 261 ben  31  32  33
 262 prop tor  31  32  33  34
 263 prop tor  31  32  33  42
 264 ben  31  32  59
 265 ben  32  31  58
 266 ben  32  33  34
 267 prop tor  32  33  34  35
 268 prop tor  32  33  34  41
 269 ben  32  33  42
 270 prop tor  32  33  42  11
 271 prop tor  32  33  42  43
 272 ben  33  32  59
 273 ben  33  34  35
 274 prop tor  33  34  35  36
 275 prop tor  33  34  35  60
 276 ben  33  34  41
 277 prop tor  33  34  41  10
 278 prop tor  33  34  41  40
 279 ben  33  42  43
 280 prop tor  33  42  43  14
 281 prop tor  33  42  43  30
 282 ben  34  33  42
 283 prop tor  34  33  42  11
 284 prop tor  34  33  42  43
 285 ben  34  35  36
 286 prop tor  34  35  36  37
 287 prop tor  34  35  36  61
 288 ben  34  35  60
 289 ben  34  41  40
 290 ben  35  34  41
 291 prop tor  35  34  41  10
 292 prop tor  35  34  41  40
 293 ben  35  36  37
 294 prop tor  35  36  37  38
 295 prop tor  35  36  37  40
 296 ben  35  36  61
 297 ben  36  35  60
 298 ben  36  37  38
 299 prop tor  36  37  38   4
 300 prop tor  36  37  38  39
 301 ben  36  37  40
 302 prop tor  36  37  40   7
 303 prop tor  36  37  40  41
 304 ben  37  36  61
 305 ben  37  38  39
 306 ben  37  40  41
 307 prop tor  37  40  41  10
 308 prop tor  37  40  41  34
 309 prop tor  38   4   5   6
 310 prop tor  38   4   5   7
 311 ben  38  37  40
 312 prop tor  38  37  40   7
 313 prop tor  38  37  40  41
 314 prop tor  40   7   8   9
 315 prop tor  40   7   8  51
 316 prop tor  40  37  38   4
 317 prop tor  40  37  38  39
 318 prop tor  41  10  11  12
 319 prop tor  41  10  11  42
 320 prop tor  41  34  35  36
 321 prop tor  41  34  35  60
 322 prop tor  42  11  12  13
 323 prop tor  42  11  12  53
 324 prop tor  42  33  34  35
 325 prop tor  42  33  34  41
 326 prop tor  43  14  15  16
 327 prop tor  43  14  15  17
 328 prop tor  43  30  31  32
 329 prop tor  43  30  31  58
 330 prop tor  44   1   2   3
 331 prop tor  44   1   2   4
 332 prop tor  44   1   2  47
 333 ben  44   1  45
 334 ben  44   1  46
 335 prop tor  45   1   2   3
 336 prop tor  45   1   2   4
 337 prop tor  45   1   2  47
 338 ben  45   1  46
 339 prop tor  46   1   2   3
 340 prop tor  46   1   2   4
 341 prop tor  46   1   2  47
 342 prop tor  47   2   3  48
 343 prop tor  47   2   3  49
 344 prop tor  47   2   3  50
 345 prop tor  47   2   4   5
 346 prop tor  47   2   4  38
 347 ben  48   3  49
 348 ben  48   3  50
 349 ben  49   3  50
 350 prop tor  51   8   9  10
 351 prop tor  51   8   9  52
 352 prop tor  52   9  10  11
 353 prop tor  52   9  10  41
 354 prop tor  53  12  13  14
 355 prop tor  53  12  13  54
 356 prop tor  54  13  14  15
 357 prop tor  54  13  14  43
 358 prop tor  55  21  22  23
 359 prop tor  55  21  22  26
 360 prop tor  56  24  25  26
 361 prop tor  56  24  25  57
 362 prop tor  57  25  26  22
 363 prop tor  57  25  26  27
 364 prop tor  58  31  32  33
 365 prop tor  58  31  32  59
 366 prop tor  59  32  33  34
 367 prop tor  59  32  33  42
 368 prop tor  60  35  36  37
 369 prop tor  60  35  36  61
 370 prop tor  61  36  37  38
 371 prop tor  61  36  37  40
 372 lin bend prop tor  15  17  20  19
 373 lin bend prop tor  15  17  20  21
 374 lin bend prop tor  15  17  20  27
 375 lin bend prop tor  18  17  20  19
 376 lin bend prop tor  18  17  20  21
 377 lin bend prop tor  18  17  20  27
 378 lin bend prop tor  28  17  20  19
 379 lin bend prop tor  28  17  20  21
 380 lin bend prop tor  28  17  20  27
 nber bend=             120
 nber lin bend=           1
 nber prop tor=         191
 nber impr tor=           0
 nber tot redund int=         380
 Reading file: 
 ./TT-PDI_2_C0S1.log                                                            
                                          
  Entering Gaussian System, Link 0=g16                                          
  
 Gaussian format, type: g94, g98, g03= F F F
  #P Geom=AllCheck Guess=TCheck SCRF=Check GenChk RB3LYP TD(FC,Read)/6-3    
 energy type= TD      
 Original G94 input coords:
  6  1.293567  0.850495  0.232004
  6  2.508453 -0.062708  0.033261
  6  3.725503  0.665205 -0.548364
  7  2.851012 -0.810912  1.279024
  6  2.726878 -2.216175  1.231430
  8  2.355333 -2.783120  0.212221
  6  3.063150 -2.957759  2.456411
  6  2.957573 -4.348781  2.462595
  6  3.266086 -5.075265  3.597480
  6  3.697427 -4.449490  4.788986
  6  4.023249 -5.198790  5.982942
  6  3.925646 -6.612784  6.021321
  6  4.235141 -7.321179  7.152399
  6  4.663089 -6.666953  8.322485
  6  4.970384 -7.480143  9.469601
  8  4.913769 -8.681887  9.581386
  7  5.413049 -6.699142 10.654473
  6  5.711359 -7.380678 11.736602
  6  5.986666 -8.022980 12.736945
  6  6.294516 -8.752040 13.855078
  6  6.232648-10.158062 13.990213
  6  6.614765-10.560189 15.259807
 16  6.761440-12.105458 16.068393
  6  7.291226-11.302018 17.513463
  6  7.360461 -9.928242 17.409054
  6  6.976595 -9.502731 16.129147
 16  6.837535 -7.954858 15.343012
  6  5.550554 -5.221227 10.729064
  8  5.924322 -4.747111 11.775593
  6  5.208057 -4.546020  9.505096
  6  5.308832 -3.142532  9.481764
  6  4.999916 -2.431906  8.351930
  6  4.568160 -3.077185  7.165507
  6  4.241960 -2.327952  5.971632
  6  4.332545 -0.918796  5.914507
  6  4.018241 -0.213719  4.767637
  6  3.596625 -0.878094  3.616057
  6  3.270024 -0.096306  2.412332
  8  3.356730  1.125462  2.389981
  6  3.489714 -2.285268  3.621719
  6  3.812577 -3.027666  4.804824
  6  4.455101 -4.503791  7.157092
  6  4.781171 -5.252137  8.349292
  1  0.993664  1.263629 -0.735504
  1  1.517621  1.672843  0.910140
  1  0.447757  0.283299  0.629539
  1  2.226114 -0.853080 -0.658850
  1  4.050278  1.480582  0.096590
  1  3.463620  1.074303 -1.528537
  1  4.557967 -0.029519 -0.688061
  1  2.628353 -4.841454  1.556635
  1  3.169279 -6.150678  3.554494
  1  3.601202 -7.155233  5.145845
  1  4.156917 -8.400846  7.169735
  1  5.920223-10.793634 13.175076
  1  7.529146-11.896032 18.383064
  1  7.671930 -9.285221 18.219088
  1  5.637591 -2.638604 10.381811
  1  5.091460 -1.356305  8.378341
  1  4.654738 -0.360879  6.782082
  1  4.091978  0.865931  4.737438
 nber atoms=          61
  Total Energy, E(TD-HF/TD-DFT) =  -2551.81966913                               
  
          32          49 "  -2551.81966913"
After scan for Atom:   Atom  AN      X      Y      Z        X      Y      Z        X      Y      Z   
After scan for Atom:   Atom  AN      X      Y      Z        X      Y      Z        X      Y      Z   
After scan for Atom:   Atom  AN      X      Y      Z        X      Y      Z        X      Y      Z   
After scan for Atom:   Atom  AN      X      Y      Z        X      Y      Z        X      Y      Z   
After scan for Atom:   Atom  AN      X      Y      Z        X      Y      Z        X      Y      Z   
After scan for Atom:   Atom  AN      X      Y      Z        X      Y      Z        X      Y      Z   
After scan for Atom:   Atom  AN      X      Y      Z        X      Y      Z        X      Y      Z   
After scan for Atom:   Atom  AN      X      Y      Z        X      Y      Z        X      Y      Z   
After scan for Atom:   Atom  AN      X      Y      Z        X      Y      Z        X      Y      Z   
After scan for Atom:   Atom  AN      X      Y      Z        X      Y      Z        X      Y      Z   
After scan for Atom:   Atom  AN      X      Y      Z        X      Y      Z        X      Y      Z   
After scan for Atom:   Atom  AN      X      Y      Z        X      Y      Z        X      Y      Z   
After scan for Atom:   Atom  AN      X      Y      Z        X      Y      Z        X      Y      Z   
After scan for Atom:   Atom  AN      X      Y      Z        X      Y      Z        X      Y      Z   
After scan for Atom:   Atom  AN      X      Y      Z        X      Y      Z        X      Y      Z   
After scan for Atom:   Atom  AN      X      Y      Z        X      Y      Z        X      Y      Z   
After scan for Atom:   Atom  AN      X      Y      Z        X      Y      Z        X      Y      Z   
After scan for Atom:   Atom  AN      X      Y      Z        X      Y      Z        X      Y      Z   
After scan for Atom:   Atom  AN      X      Y      Z        X      Y      Z        X      Y      Z   
After scan for Atom:   Atom  AN      X      Y      Z        X      Y      Z        X      Y      Z   
After scan for Atom:   Atom  AN      X      Y      Z        X      Y      Z        X      Y      Z   
After scan for Atom:   Atom  AN      X      Y      Z        X      Y      Z        X      Y      Z   
After scan for Atom:   Atom  AN      X      Y      Z        X      Y      Z        X      Y      Z   
After scan for Atom:   Atom  AN      X      Y      Z        X      Y      Z        X      Y      Z   
After scan for Atom:   Atom  AN      X      Y      Z        X      Y      Z        X      Y      Z   
After scan for Atom:   Atom  AN      X      Y      Z        X      Y      Z        X      Y      Z   
After scan for Atom:   Atom  AN      X      Y      Z        X      Y      Z        X      Y      Z   
After scan for Atom:   Atom  AN      X      Y      Z        X      Y      Z        X      Y      Z   
After scan for Atom:   Atom  AN      X      Y      Z        X      Y      Z        X      Y      Z   
After scan for Atom:   Atom  AN      X      Y      Z        X      Y      Z        X      Y      Z   
After scan for Atom:   Atom  AN      X      Y      Z        X      Y      Z        X      Y      Z   
After scan for Atom:   Atom  AN      X      Y      Z        X      Y      Z        X      Y      Z   
After scan for Atom:   Atom  AN      X      Y      Z        X      Y      Z        X      Y      Z   
After scan for Atom:   Atom  AN      X      Y      Z        X      Y      Z        X      Y      Z   
After scan for Atom:   Atom  AN      X      Y      Z        X      Y      Z        X      Y      Z   
After scan for Atom:   Atom  AN      X      Y      Z        X      Y      Z        X      Y      Z   
After scan for Atom:   Atom  AN      X      Y      Z        X      Y      Z        X      Y      Z   
After scan for Atom:   Atom  AN      X      Y      Z        X      Y      Z        X      Y      Z   
After scan for Atom:   Atom  AN      X      Y      Z        X      Y      Z        X      Y      Z   
After scan for Atom:   Atom  AN      X      Y      Z        X      Y      Z        X      Y      Z   
After scan for Atom:   Atom  AN      X      Y      Z        X      Y      Z        X      Y      Z   
After scan for Atom:   Atom  AN      X      Y      Z        X      Y      Z        X      Y      Z   
After scan for Atom:   Atom  AN      X      Y      Z        X      Y      Z        X      Y      Z   
After scan for Atom:   Atom  AN      X      Y      Z        X      Y      Z        X      Y      Z   
After scan for Atom:   Atom  AN      X      Y      Z        X      Y      Z        X      Y      Z   
After scan for Atom:   Atom  AN      X      Y      Z        X      Y      Z        X      Y      Z   
After scan for Atom:   Atom  AN      X      Y      Z        X      Y      Z        X      Y      Z   
After scan for Atom:   Atom  AN      X      Y      Z        X      Y      Z        X      Y      Z   
After scan for Atom:   Atom  AN      X      Y      Z        X      Y      Z        X      Y      Z   
After scan for Atom:   Atom  AN      X      Y      Z        X      Y      Z        X      Y      Z   
After scan for Atom:   Atom  AN      X      Y      Z        X      Y      Z        X      Y      Z   
After scan for Atom:   Atom  AN      X      Y      Z        X      Y      Z        X      Y      Z   
After scan for Atom:   Atom  AN      X      Y      Z        X      Y      Z        X      Y      Z   
After scan for Atom:   Atom  AN      X      Y      Z        X      Y      Z        X      Y      Z   
After scan for Atom:   Atom  AN      X      Y      Z        X      Y      Z        X      Y      Z   
After scan for Atom:   Atom  AN      X      Y      Z        X      Y      Z        X      Y      Z   
After scan for Atom:   Atom  AN      X      Y      Z        X      Y      Z        X      Y      Z   
After scan for Atom:   Atom  AN      X      Y      Z        X      Y      Z        X      Y      Z   
After scan for Atom:   Atom  AN      X      Y      Z        X      Y      Z        X      Y      Z   
 g94    frequencies=
     0.0    0.0    0.0    0.0    0.0    0.0    8.8   12.3   17.5   26.9
    30.7   48.2   55.1   64.8   79.1   80.1   88.7  100.3  124.3  127.1
   140.5  168.3  178.6  194.7  201.2  201.6  212.5  225.6  234.0  235.8
   240.9  258.1  280.4  295.0  296.6  308.2  332.6  342.4  358.1  386.8
   393.1  416.6  425.2  431.5  436.2  441.6  444.8  448.9  453.3  453.8
   459.0  483.3  493.0  494.5  501.5  506.1  515.7  533.5  535.5  558.6
   564.4  578.5  585.2  593.0  622.8  622.9  625.2  630.9  662.7  667.1
   669.2  709.1  711.7  726.8  741.9  747.5  755.4  759.7  763.0  769.5
   786.2  799.0  803.1  814.2  816.1  823.4  824.4  830.2  832.9  844.9
   851.2  852.0  891.1  895.9  897.4  917.6  943.3  947.0  953.7  955.7
   973.5  976.9  977.9  986.4  989.4 1015.7 1068.1 1077.0 1094.7 1104.0
  1127.2 1148.8 1154.9 1162.9 1165.8 1174.7 1190.0 1201.0 1215.2 1218.7
  1227.8 1236.4 1250.2 1269.5 1280.8 1287.1 1297.3 1322.8 1329.0 1359.2
  1360.6 1362.0 1370.4 1384.1 1391.6 1395.0 1397.6 1411.7 1424.5 1428.5
  1434.3 1437.4 1457.3 1469.6 1482.8 1483.3 1484.0 1492.4 1496.2 1506.4
  1523.5 1537.3 1546.4 1559.1 1574.9 1588.3 1597.8 1615.4 1620.3 1635.6
  1684.8 1721.7 1797.2 1813.2 2278.2 3030.0 3034.5 3087.3 3090.4 3109.7
  3131.8 3141.6 3193.4 3193.7 3198.3 3198.5 3209.3 3209.6 3226.2 3226.4
  3228.7 3239.3 3248.1
 g94    symmetries=
                                                 A      A      A      A
       A      A      A      A      A      A      A      A      A      A
       A      A      A      A      A      A      A      A      A      A
       A      A      A      A      A      A      A      A      A      A
       A      A      A      A      A      A      A      A      A      A
       A      A      A      A      A      A      A      A      A      A
       A      A      A      A      A      A      A      A      A      A
       A      A      A      A      A      A      A      A      A      A
       A      A      A      A      A      A      A      A      A      A
       A      A      A      A      A      A      A      A      A      A
       A      A      A      A      A      A      A      A      A      A
       A      A      A      A      A      A      A      A      A      A
       A      A      A      A      A      A      A      A      A      A
       A      A      A      A      A      A      A      A      A      A
       A      A      A      A      A      A      A      A      A      A
       A      A      A      A      A      A      A      A      A      A
       A      A      A      A      A      A      A      A      A      A
       A      A      A      A      A      A      A      A      A      A
       A      A      A
 atomic masses:
 12.0000 12.0000 12.0000 14.0031 12.0000 15.9949 12.0000 12.0000 12.0000 12.0000
 12.0000 12.0000 12.0000 12.0000 12.0000 15.9949 14.0031 12.0000 12.0000 12.0000
 12.0000 12.0000 31.9721 12.0000 12.0000 12.0000 31.9721 12.0000 15.9949 12.0000
 12.0000 12.0000 12.0000 12.0000 12.0000 12.0000 12.0000 12.0000 15.9949 12.0000
 12.0000 12.0000 12.0000  1.0078  1.0078  1.0078  1.0078  1.0078  1.0078  1.0078
  1.0078  1.0078  1.0078  1.0078  1.0078  1.0078  1.0078  1.0078  1.0078  1.0078
  1.0078
 looking for force constants in 
 ./TT-PDI_2_C0S1.fchk                                                           
  
 Cartesian Force Constants                  R   N=       16836                  
  
 n3=         183       16836
 g94-fc frequencies=
    -7.2   -1.1   -1.0    0.0    0.0    0.0    8.8   12.3   17.6   26.9
    30.7   48.2   55.1   64.8   79.1   80.1   88.7  100.3  124.3  127.1
   140.5  168.3  178.6  194.7  201.2  201.6  212.5  225.6  234.0  235.8
   240.9  258.1  280.4  295.0  296.6  308.2  332.6  342.4  358.1  386.8
   393.1  416.6  425.2  431.5  436.2  441.6  444.8  449.0  453.3  453.8
   459.0  483.3  493.0  494.5  501.5  506.2  515.7  533.5  535.5  558.6
   564.5  578.5  585.2  593.0  622.8  622.9  625.3  630.9  662.8  667.2
   669.2  709.1  711.7  726.8  741.9  747.5  755.4  759.7  763.0  769.5
   786.3  799.0  803.1  814.2  816.1  823.4  824.4  830.2  832.9  844.9
   851.2  852.0  891.2  895.9  897.5  917.7  943.4  947.0  953.7  955.7
   973.6  976.9  977.9  986.4  989.5 1015.7 1068.1 1077.0 1094.7 1104.0
  1127.3 1148.9 1155.0 1162.9 1165.8 1174.7 1190.1 1201.0 1215.2 1218.8
  1227.8 1236.5 1250.2 1269.5 1280.8 1287.2 1297.4 1322.8 1329.1 1359.2
  1360.6 1362.0 1370.4 1384.1 1391.6 1395.1 1397.6 1411.7 1424.5 1428.5
  1434.4 1437.5 1457.4 1469.6 1482.9 1483.3 1484.1 1492.4 1496.3 1506.5
  1523.6 1537.3 1546.4 1559.1 1574.9 1588.3 1597.9 1615.4 1620.4 1635.6
  1684.9 1721.7 1797.3 1813.2 2278.3 3030.1 3034.6 3087.3 3090.5 3109.7
  3131.8 3141.6 3193.5 3193.7 3198.3 3198.5 3209.3 3209.7 3226.3 3226.4
  3228.7 3239.4 3248.2
 at 99999: n3=         183
 symm operator            1 :  F  nop=           0
 symm operator            2 :  F  nop=           0
 symm operator            3 :  F  nop=           0
 symm operator            4 :  F  nop=           0
 symm operator            5 :  F  nop=           0
 symm operator            6 :  F  nop=           0
 symm operator            7 :  F  nop=           0
 The point group of the molecule is  C1
 Symmetry rotation matrix:
   1.00000   0.00000   0.00000
   0.00000   1.00000   0.00000
   0.00000   0.00000   1.00000

 Projecting out zero-frequency components
 generating redundant internal coords
         300        3600          61
 search for int coords
   1 str   2   1   1.533
   2 str   3   2   1.533
   3 str   4   2   1.493
   4 str   5   4   1.412
   5 str   6   5   1.224
   6 str   7   5   1.471
   7 str   8   7   1.395
   8 str   9   8   1.382
   9 str  10   9   1.413
  10 str  11  10   1.447
  11 str  12  11   1.418
  12 str  13  12   1.370
  13 str  14  13   1.407
  14 str  15  14   1.439
  15 str  16  15   1.208
  16 str  17  15   1.487
  17 str  18  17   1.313
  18 str  19  18   1.220
  19 str  20  19   1.370
  20 str  21  20   1.414
  21 str  22  21   1.385
  22 str  23  22   1.750
  23 str  24  23   1.736
  24 str  25  24   1.379
  25 str  26  22   1.416
  26 str  26  25   1.402
  27 str  27  20   1.773
  28 str  27  26   1.742
  29 str  28  17   1.486
  30 str  29  28   1.208
  31 str  30  28   1.439
  32 str  31  30   1.407
  33 str  32  31   1.370
  34 str  33  32   1.418
  35 str  34  33   1.447
  36 str  35  34   1.413
  37 str  36  35   1.382
  38 str  37  36   1.395
  39 str  38   4   1.404
  40 str  38  37   1.472
  41 str  39  38   1.225
  42 str  40   7   1.411
  43 str  40  37   1.411
  44 str  41  10   1.427
  45 str  41  34   1.427
  46 str  41  40   1.434
  47 str  42  11   1.431
  48 str  42  33   1.431
  49 str  43  14   1.420
  50 str  43  30   1.420
  51 str  43  42   1.445
  52 str  44   1   1.094
  53 str  45   1   1.089
  54 str  46   1   1.093
  55 str  47   2   1.088
  56 str  48   3   1.089
  57 str  49   3   1.094
  58 str  50   3   1.093
  59 str  51   8   1.083
  60 str  52   9   1.081
  61 str  53  12   1.080
  62 str  54  13   1.083
  63 str  55  21   1.080
  64 str  56  24   1.080
  65 str  57  25   1.080
  66 str  58  31   1.083
  67 str  59  32   1.080
  68 str  60  35   1.081
  69 str  61  36   1.083
 nber stretches=          69
  70 ben   1   2   3
  71 prop tor   1   2   3  48
  72 prop tor   1   2   3  49
  73 prop tor   1   2   3  50
  74 ben   1   2   4
  75 prop tor   1   2   4   5
  76 prop tor   1   2   4  38
  77 ben   1   2  47
  78 ben   2   1  44
  79 ben   2   1  45
  80 ben   2   1  46
  81 ben   2   3  48
  82 ben   2   3  49
  83 ben   2   3  50
  84 ben   2   4   5
  85 prop tor   2   4   5   6
  86 prop tor   2   4   5   7
  87 ben   2   4  38
  88 prop tor   2   4  38  37
  89 prop tor   2   4  38  39
  90 ben   3   2   4
  91 prop tor   3   2   4   5
  92 prop tor   3   2   4  38
  93 ben   3   2  47
  94 prop tor   4   2   3  48
  95 prop tor   4   2   3  49
  96 prop tor   4   2   3  50
  97 ben   4   2  47
  98 ben   4   5   6
  99 ben   4   5   7
 100 prop tor   4   5   7   8
 101 prop tor   4   5   7  40
 102 ben   4  38  37
 103 ben   4  38  39
 104 ben   5   4  38
 105 prop tor   5   4  38  37
 106 prop tor   5   4  38  39
 107 ben   5   7   8
 108 prop tor   5   7   8   9
 109 prop tor   5   7   8  51
 110 ben   5   7  40
 111 prop tor   5   7  40  37
 112 prop tor   5   7  40  41
 113 ben   6   5   7
 114 prop tor   6   5   7   8
 115 prop tor   6   5   7  40
 116 ben   7   8   9
 117 prop tor   7   8   9  10
 118 prop tor   7   8   9  52
 119 ben   7   8  51
 120 ben   7  40  37
 121 ben   7  40  41
 122 prop tor   7  40  41  10
 123 prop tor   7  40  41  34
 124 ben   8   7  40
 125 prop tor   8   7  40  37
 126 prop tor   8   7  40  41
 127 ben   8   9  10
 128 prop tor   8   9  10  11
 129 prop tor   8   9  10  41
 130 ben   8   9  52
 131 ben   9   8  51
 132 ben   9  10  11
 133 prop tor   9  10  11  12
 134 prop tor   9  10  11  42
 135 ben   9  10  41
 136 prop tor   9  10  41  34
 137 prop tor   9  10  41  40
 138 ben  10   9  52
 139 ben  10  11  12
 140 prop tor  10  11  12  13
 141 prop tor  10  11  12  53
 142 ben  10  11  42
 143 prop tor  10  11  42  33
 144 prop tor  10  11  42  43
 145 ben  10  41  34
 146 ben  10  41  40
 147 ben  11  10  41
 148 prop tor  11  10  41  34
 149 prop tor  11  10  41  40
 150 ben  11  12  13
 151 prop tor  11  12  13  14
 152 prop tor  11  12  13  54
 153 ben  11  12  53
 154 ben  11  42  33
 155 ben  11  42  43
 156 prop tor  11  42  43  14
 157 prop tor  11  42  43  30
 158 ben  12  11  42
 159 prop tor  12  11  42  33
 160 prop tor  12  11  42  43
 161 ben  12  13  14
 162 prop tor  12  13  14  15
 163 prop tor  12  13  14  43
 164 ben  12  13  54
 165 ben  13  12  53
 166 ben  13  14  15
 167 prop tor  13  14  15  16
 168 prop tor  13  14  15  17
 169 ben  13  14  43
 170 prop tor  13  14  43  30
 171 prop tor  13  14  43  42
 172 ben  14  13  54
 173 ben  14  15  16
 174 ben  14  15  17
 175 prop tor  14  15  17  18
 176 prop tor  14  15  17  28
 177 ben  14  43  30
 178 ben  14  43  42
 179 ben  15  14  43
 180 prop tor  15  14  43  30
 181 prop tor  15  14  43  42
 182 ben  15  17  18
 183 prop tor  15  17  18  19
 184 ben  15  17  28
 185 prop tor  15  17  28  29
 186 prop tor  15  17  28  30
 187 ben  16  15  17
 188 prop tor  16  15  17  18
 189 prop tor  16  15  17  28
 190 lin ben  17  18  19
 192 ben  17  28  29
 193 ben  17  28  30
 194 prop tor  17  28  30  31
 195 prop tor  17  28  30  43
 196 ben  18  17  28
 197 prop tor  18  17  28  29
 198 prop tor  18  17  28  30
 Extend lin bond           1          17          18          20
 199 lin ben  18  19  20
 201 ben  19  20  21
 202 prop tor  19  20  21  22
 203 prop tor  19  20  21  55
 204 ben  19  20  27
 205 prop tor  19  20  27  26
 206 ben  20  21  22
 207 prop tor  20  21  22  23
 208 prop tor  20  21  22  26
 209 ben  20  21  55
 210 ben  20  27  26
 211 ben  21  20  27
 212 prop tor  21  20  27  26
 213 ben  21  22  23
 214 prop tor  21  22  23  24
 215 ben  21  22  26
 216 prop tor  21  22  26  25
 217 prop tor  21  22  26  27
 218 ben  22  21  55
 219 ben  22  23  24
 220 prop tor  22  23  24  25
 221 prop tor  22  23  24  56
 222 ben  22  26  25
 223 ben  22  26  27
 224 prop tor  22  26  27  20
 225 ben  23  22  26
 226 prop tor  23  22  26  25
 227 prop tor  23  22  26  27
 228 ben  23  24  25
 229 prop tor  23  24  25  26
 230 prop tor  23  24  25  57
 231 ben  23  24  56
 232 ben  24  25  26
 233 prop tor  24  25  26  22
 234 prop tor  24  25  26  27
 235 ben  24  25  57
 236 ben  25  24  56
 237 ben  25  26  27
 238 prop tor  25  26  27  20
 239 prop tor  26  22  23  24
 240 ben  26  25  57
 241 prop tor  27  20  21  22
 242 prop tor  27  20  21  55
 243 prop tor  28  17  18  19
 244 ben  28  30  31
 245 prop tor  28  30  31  32
 246 prop tor  28  30  31  58
 247 ben  28  30  43
 248 prop tor  28  30  43  14
 249 prop tor  28  30  43  42
 250 ben  29  28  30
 251 prop tor  29  28  30  31
 252 prop tor  29  28  30  43
 253 ben  30  31  32
 254 prop tor  30  31  32  33
 255 prop tor  30  31  32  59
 256 ben  30  31  58
 257 ben  30  43  42
 258 ben  31  30  43
 259 prop tor  31  30  43  14
 260 prop tor  31  30  43  42
 261 ben  31  32  33
 262 prop tor  31  32  33  34
 263 prop tor  31  32  33  42
 264 ben  31  32  59
 265 ben  32  31  58
 266 ben  32  33  34
 267 prop tor  32  33  34  35
 268 prop tor  32  33  34  41
 269 ben  32  33  42
 270 prop tor  32  33  42  11
 271 prop tor  32  33  42  43
 272 ben  33  32  59
 273 ben  33  34  35
 274 prop tor  33  34  35  36
 275 prop tor  33  34  35  60
 276 ben  33  34  41
 277 prop tor  33  34  41  10
 278 prop tor  33  34  41  40
 279 ben  33  42  43
 280 prop tor  33  42  43  14
 281 prop tor  33  42  43  30
 282 ben  34  33  42
 283 prop tor  34  33  42  11
 284 prop tor  34  33  42  43
 285 ben  34  35  36
 286 prop tor  34  35  36  37
 287 prop tor  34  35  36  61
 288 ben  34  35  60
 289 ben  34  41  40
 290 ben  35  34  41
 291 prop tor  35  34  41  10
 292 prop tor  35  34  41  40
 293 ben  35  36  37
 294 prop tor  35  36  37  38
 295 prop tor  35  36  37  40
 296 ben  35  36  61
 297 ben  36  35  60
 298 ben  36  37  38
 299 prop tor  36  37  38   4
 300 prop tor  36  37  38  39
 301 ben  36  37  40
 302 prop tor  36  37  40   7
 303 prop tor  36  37  40  41
 304 ben  37  36  61
 305 ben  37  38  39
 306 ben  37  40  41
 307 prop tor  37  40  41  10
 308 prop tor  37  40  41  34
 309 prop tor  38   4   5   6
 310 prop tor  38   4   5   7
 311 ben  38  37  40
 312 prop tor  38  37  40   7
 313 prop tor  38  37  40  41
 314 prop tor  40   7   8   9
 315 prop tor  40   7   8  51
 316 prop tor  40  37  38   4
 317 prop tor  40  37  38  39
 318 prop tor  41  10  11  12
 319 prop tor  41  10  11  42
 320 prop tor  41  34  35  36
 321 prop tor  41  34  35  60
 322 prop tor  42  11  12  13
 323 prop tor  42  11  12  53
 324 prop tor  42  33  34  35
 325 prop tor  42  33  34  41
 326 prop tor  43  14  15  16
[...]
 nber times 1st assigned=         145           0
 nber times 1st assigned=         146           0
 nber times 1st assigned=         147           0
 nber times 1st assigned=         148           0
 nber times 1st assigned=         149           0
 nber times 1st assigned=         150           0
 nber times 1st assigned=         151           0
 nber times 1st assigned=         152           0
 nber times 1st assigned=         153           0
 nber times 1st assigned=         154           0
 nber times 1st assigned=         155           0
 nber times 1st assigned=         156           0
 nber times 1st assigned=         157           0
 nber times 1st assigned=         158           0
 nber times 1st assigned=         159           0
 nber times 1st assigned=         160           0
 nber times 1st assigned=         161           0
 nber times 1st assigned=         162           0
 nber times 1st assigned=         163           0
 nber times 1st assigned=         164           0
 nber times 1st assigned=         165           0
 nber times 1st assigned=         166           0
 nber times 1st assigned=         167           0
 nber times 1st assigned=         168           0
 nber times 1st assigned=         169           0
 nber times 1st assigned=         170           0
 nber times 1st assigned=         171           0
 nber times 1st assigned=         172           0
 nber times 1st assigned=         173           0
 nber times 1st assigned=         174           0
 nber times 1st assigned=         175           0
 nber times 1st assigned=         176           0
 nber times 1st assigned=         177           0
 nber times 1st assigned=         178           0
 nber times 1st assigned=         179           0
 nber times 1st assigned=         180           0
 nber times 1st assigned=         181           0
 nber times 1st assigned=         182           0
 nber times 1st assigned=         183           0
 modes represented=   1192.40904332868     
 p1=
   -0.    0.    0.   -0.    0.   -0.  -14.   17.   62.   -5.   -2.   -3.   -1.    1.   -0.   -6.   -0.    0.    6.  -32.
   -1.    0.    1.    1.    5.    0.    0.   11.    0.    0.   -3.   -0.   -2.   -6.   -0.    0.   -3.   -1.   -1.    1.
    2.   -0.   -3.   -0.    4.   -0.   -0.   -1.    0.   -2.    0.    9.    2.    1.   -0.    8.   -0.   -1.    1.    3.
    2.   -0.   -0.   -2.    0.    0.   -2.    0.   -0.   -0.    0.    3.    0.    0.    2.    0.   -2.   -0.    0.    0.
   -2.    0.   -0.    0.   -0.    0.    1.   -0.   -0.    0.    0.   -0.    0.   -2.    1.   -0.   -0.   -0.   -2.   -0.
    0.    0.   -0.   -0.   -1.   -0.    0.    0.    1.   -0.   -0.   -0.    3.   -2.    0.   -1.   -0.   -0.    0.    1.
    1.   -0.   -0.    0.    0.    2.    3.    0.   -5.   -0.   -0.    2.    0.   -0.   -2.   -3.    0.   -0.    0.    1.
   -2.    0.    3.    1.    0.    0.    1.   -0.    0.    0.    0.   -0.   -0.   -2.   -1.   -0.    0.    0.    1.   -0.
   -0.   -0.   -1.    0.    2.   -0.   -0.   -0.   -0.    0.    0.    0.   -0.    0.   -0.   -0.   -0.   -0.   -0.    0.
    0.    0.   -0.
 p2=
    0.    0.    0.    0.   -0.    0.   27.  -75.  -29.   20.   28.   -3.    1.    2.   -6. -113.    1.    1.   37.   42.
    1.   -0.   -1.   -0.   -5.   -1.    0.   12.   -0.   -2.   -0.   -0.    1.    0.   -4.    1.   15.   -0.   -4.   -3.
   -0.    0.    0.    5.   -2.    1.   13.   -1.    0.    3.   -0.    4.   10.   -9.    0.   -0.   -0.    1.   -1.    1.
    5.   -0.   -4.    0.    3.   -0.    1.    0.   -0.   -0.   -8.    1.   -0.    2.   -0.    0.   -0.    3.   -0.    0.
   -0.    0.    0.   -1.   -0.    1.   -0.    0.    0.   -0.    0.   -0.    0.    3.    0.   -1.    0.   -1.   -4.   -0.
   -0.    0.   -1.   -0.   -0.    1.   -1.   -2.   -1.   -0.   -4.    0.    0.   -0.   -0.   -0.   -0.   -0.   -0.   -2.
   -1.   -0.   -0.    0.    5.   -0.   -1.    2.   -0.   -1.    0.    0.    2.   -0.    0.   -0.    0.    0.   -1.    0.
   -0.   -1.   -1.   -0.    0.   -0.   -0.   -3.    0.    0.   -0.   -1.   -0.    1.    1.    0.   -0.    0.   -0.   -1.
   -0.    1.   -1.   -1.   -2.    0.    0.   -0.    0.   -0.    0.    0.   -0.    0.    0.    0.    0.    0.    0.   -0.
   -0.    0.    0.

 Displacement: in terms of nc of 1 THEN of nc of 2

   1     freq=    -0. Q= -0.000 lam=    -0.0     freq=    -0. Q= -0.000 lam=    -0.0
   2     freq=    -0. Q=  0.000 lam=    -0.0     freq=    -0. Q=  0.000 lam=    -0.0
   3     freq=    -0. Q=  0.000 lam=    -0.0     freq=    -0. Q=  0.000 lam=    -0.0
   4     freq=    -0. Q= -0.000 lam=    -0.0     freq=    -0. Q= -0.000 lam=    -0.0
   5     freq=     0. Q=  0.000 lam=     0.0     freq=     0. Q=  0.000 lam=     0.0
   6     freq=     0. Q= -0.000 lam=     0.0     freq=     0. Q= -0.000 lam=     0.0
   7     freq=     8. Q= -0.158 lam=     0.1     freq=     9. Q= -0.325 lam=     0.5
   8     freq=    10. Q=  0.206 lam=     0.2     freq=    12. Q=  1.057 lam=     6.9
   9     freq=    14. Q=  0.937 lam=     6.1     freq=    18. Q=  0.491 lam=     2.1
  10     freq=    28. Q= -0.105 lam=     0.2     freq=    27. Q= -0.419 lam=     2.4
  11     freq=    29. Q= -0.044 lam=     0.0     freq=    31. Q= -0.630 lam=     6.1
  12     freq=    50. Q= -0.097 lam=     0.2     freq=    48. Q= -0.089 lam=     0.2
  13     freq=    56. Q= -0.024 lam=     0.0     freq=    55. Q= -0.027 lam=     0.0
  14     freq=    68. Q=  0.045 lam=     0.1     freq=    65. Q=  0.075 lam=     0.2
  15     freq=    77. Q= -0.008 lam=     0.0     freq=    79. Q= -0.203 lam=     1.6
  16     freq=    81. Q= -0.209 lam=     1.8     freq=    80. Q= -4.085 lam=   667.8
  17     freq=    89. Q= -0.004 lam=     0.0     freq=    89. Q= -0.050 lam=     0.1
  18     freq=   101. Q=  0.001 lam=     0.0     freq=   100. Q=  0.034 lam=     0.1
  19     freq=   122. Q=  0.267 lam=     4.3     freq=   124. Q=  1.667 lam=   172.7
  20     freq=   126. Q= -1.443 lam=   131.4     freq=   127. Q= -1.889 lam=   226.8
  21     freq=   143. Q= -0.027 lam=     0.1     freq=   140. Q= -0.068 lam=     0.3
  22     freq=   168. Q=  0.003 lam=     0.0     freq=   168. Q=  0.008 lam=     0.0
  23     freq=   182. Q=  0.039 lam=     0.1     freq=   179. Q=  0.029 lam=     0.1
  24     freq=   187. Q=  0.036 lam=     0.1     freq=   195. Q=  0.006 lam=     0.0
  25     freq=   198. Q=  0.276 lam=     7.6     freq=   201. Q=  0.307 lam=     9.5
  26     freq=   202. Q=  0.009 lam=     0.0     freq=   202. Q=  0.055 lam=     0.3
  27     freq=   209. Q=  0.013 lam=     0.0     freq=   212. Q=  0.012 lam=     0.0
  28     freq=   225. Q=  0.668 lam=    50.1     freq=   226. Q=  0.728 lam=    59.8
  29     freq=   234. Q=  0.028 lam=     0.1     freq=   234. Q=  0.025 lam=     0.1
  30     freq=   236. Q=  0.002 lam=     0.0     freq=   236. Q=  0.146 lam=     2.5
  31     freq=   237. Q= -0.179 lam=     3.8     freq=   241. Q= -0.007 lam=     0.0
  32     freq=   256. Q= -0.000 lam=     0.0     freq=   258. Q= -0.005 lam=     0.0
  33     freq=   280. Q= -0.150 lam=     3.1     freq=   280. Q= -0.092 lam=     1.2
  34     freq=   296. Q= -0.450 lam=    29.9     freq=   295. Q= -0.004 lam=     0.0
  35     freq=   302. Q= -0.002 lam=     0.0     freq=   297. Q= -0.300 lam=    13.3
  36     freq=   319. Q=  0.022 lam=     0.1     freq=   308. Q=  0.041 lam=     0.3
  37     freq=   333. Q= -0.239 lam=     9.5     freq=   333. Q= -1.117 lam=   207.4
  38     freq=   351. Q= -0.062 lam=     0.7     freq=   342. Q= -0.001 lam=     0.0
  39     freq=   352. Q= -0.095 lam=     1.6     freq=   358. Q= -0.332 lam=    19.8
  40     freq=   389. Q=  0.054 lam=     0.6     freq=   387. Q=  0.237 lam=    10.9
  41     freq=   391. Q=  0.133 lam=     3.5     freq=   393. Q=  0.022 lam=     0.1
  42     freq=   417. Q= -0.001 lam=     0.0     freq=   417. Q= -0.009 lam=     0.0
  43     freq=   421. Q= -0.226 lam=    10.8     freq=   425. Q= -0.016 lam=     0.1
  44     freq=   425. Q= -0.006 lam=     0.0     freq=   431. Q= -0.449 lam=    43.4
  45     freq=   428. Q=  0.344 lam=    25.3     freq=   436. Q=  0.158 lam=     5.4
  46     freq=   434. Q= -0.008 lam=     0.0     freq=   442. Q= -0.086 lam=     1.6
  47     freq=   439. Q= -0.004 lam=     0.0     freq=   445. Q= -1.098 lam=   268.3
  48     freq=   445. Q= -0.068 lam=     1.0     freq=   449. Q= -0.107 lam=     2.6
  49     freq=   447. Q=  0.000 lam=     0.0     freq=   453. Q=  0.015 lam=     0.1
  50     freq=   461. Q= -0.192 lam=     8.5     freq=   454. Q= -0.274 lam=    17.1
  51     freq=   465. Q=  0.034 lam=     0.3     freq=   459. Q=  0.003 lam=     0.0
  52     freq=   470. Q=  0.830 lam=   162.0     freq=   483. Q=  0.356 lam=    30.6
  53     freq=   484. Q=  0.137 lam=     4.5     freq=   493. Q=  0.875 lam=   188.7
  54     freq=   484. Q=  0.092 lam=     2.1     freq=   494. Q=  0.808 lam=   161.3
  55     freq=   499. Q= -0.001 lam=     0.0     freq=   501. Q= -0.000 lam=     0.0
  56     freq=   504. Q=  0.690 lam=   120.0     freq=   506. Q=  0.042 lam=     0.4
  57     freq=   506. Q= -0.007 lam=     0.0     freq=   516. Q= -0.008 lam=     0.0
  58     freq=   510. Q= -0.120 lam=     3.7     freq=   534. Q= -0.081 lam=     1.7
  59     freq=   538. Q=  0.130 lam=     4.6     freq=   536. Q=  0.062 lam=     1.0
  60     freq=   538. Q=  0.282 lam=    21.3     freq=   559. Q=  0.055 lam=     0.8
  61     freq=   564. Q=  0.192 lam=    10.4     freq=   564. Q=  0.497 lam=    69.8
  62     freq=   571. Q= -0.001 lam=     0.0     freq=   579. Q= -0.010 lam=     0.0
  63     freq=   574. Q= -0.010 lam=     0.0     freq=   585. Q= -0.385 lam=    43.4
  64     freq=   583. Q= -0.162 lam=     7.7     freq=   593. Q= -0.025 lam=     0.2
  65     freq=   604. Q=  0.001 lam=     0.0     freq=   623. Q=  0.273 lam=    23.3
  66     freq=   616. Q=  0.016 lam=     0.1     freq=   623. Q=  0.001 lam=     0.0
  67     freq=   620. Q= -0.198 lam=    12.2     freq=   625. Q= -0.060 lam=     1.1
  68     freq=   621. Q=  0.000 lam=     0.0     freq=   631. Q=  0.007 lam=     0.0
  69     freq=   634. Q= -0.001 lam=     0.0     freq=   663. Q= -0.009 lam=     0.0
  70     freq=   652. Q= -0.000 lam=     0.0     freq=   667. Q= -0.012 lam=     0.0
  71     freq=   679. Q=  0.001 lam=     0.0     freq=   669. Q=  0.808 lam=   218.6
  72     freq=   682. Q=  0.278 lam=    26.4     freq=   709. Q=  0.150 lam=     8.0
  73     freq=   703. Q=  0.003 lam=     0.0     freq=   712. Q=  0.046 lam=     0.8
  74     freq=   704. Q=  0.002 lam=     0.0     freq=   727. Q=  0.195 lam=    13.8
  75     freq=   707. Q=  0.186 lam=    12.3     freq=   742. Q=  0.001 lam=     0.0
  76     freq=   715. Q=  0.012 lam=     0.1     freq=   748. Q=  0.000 lam=     0.0
  77     freq=   725. Q= -0.264 lam=    25.2     freq=   755. Q= -0.013 lam=     0.1
  78     freq=   745. Q= -0.001 lam=     0.0     freq=   760. Q= -0.297 lam=    33.4
  79     freq=   756. Q=  0.006 lam=     0.0     freq=   763. Q=  0.013 lam=     0.1
  80     freq=   758. Q=  0.002 lam=     0.0     freq=   769. Q=  0.011 lam=     0.0
  81     freq=   762. Q= -0.275 lam=    28.8     freq=   786. Q= -0.008 lam=     0.0
  82     freq=   764. Q=  0.001 lam=     0.0     freq=   799. Q=  0.023 lam=     0.2
  83     freq=   800. Q= -0.029 lam=     0.3     freq=   803. Q= -0.001 lam=     0.0
  84     freq=   809. Q=  0.003 lam=     0.0     freq=   814. Q=  0.065 lam=     1.7
  85     freq=   811. Q= -0.050 lam=     1.0     freq=   816. Q= -0.006 lam=     0.0
  86     freq=   815. Q=  0.000 lam=     0.0     freq=   823. Q=  0.058 lam=     1.4
  87     freq=   820. Q=  0.072 lam=     2.1     freq=   824. Q=  0.004 lam=     0.0
  88     freq=   826. Q= -0.049 lam=     1.0     freq=   830. Q= -0.006 lam=     0.0
  89     freq=   827. Q= -0.001 lam=     0.0     freq=   833. Q= -0.003 lam=     0.0
  90     freq=   832. Q=  0.001 lam=     0.0     freq=   845. Q=  0.012 lam=     0.1
  91     freq=   837. Q=  0.009 lam=     0.0     freq=   851. Q=  0.002 lam=     0.0
  92     freq=   845. Q= -0.004 lam=     0.0     freq=   852. Q= -0.003 lam=     0.0
  93     freq=   877. Q=  0.001 lam=     0.0     freq=   891. Q=  0.004 lam=     0.0
  94     freq=   896. Q= -0.291 lam=    37.9     freq=   896. Q= -0.303 lam=    41.0
  95     freq=   904. Q=  0.135 lam=     8.2     freq=   897. Q=  0.002 lam=     0.0
  96     freq=   920. Q= -0.021 lam=     0.2     freq=   918. Q= -0.120 lam=     6.6
  97     freq=   933. Q= -0.057 lam=     1.5     freq=   943. Q= -0.001 lam=     0.0
  98     freq=   945. Q= -0.001 lam=     0.0     freq=   947. Q= -0.136 lam=     8.7
  99     freq=   953. Q= -0.248 lam=    29.3     freq=   954. Q= -0.451 lam=    96.8
 100     freq=   957. Q= -0.001 lam=     0.0     freq=   956. Q= -0.003 lam=     0.0
 101     freq=   975. Q=  0.000 lam=     0.0     freq=   974. Q=  0.002 lam=     0.0
 102     freq=   977. Q=  0.000 lam=     0.0     freq=   977. Q=  0.002 lam=     0.0
 103     freq=   988. Q= -0.000 lam=     0.0     freq=   978. Q= -0.175 lam=    14.9
 104     freq=   989. Q= -0.000 lam=     0.0     freq=   986. Q= -0.001 lam=     0.0
 105     freq=  1000. Q= -0.147 lam=    10.8     freq=   989. Q= -0.001 lam=     0.0
 106     freq=  1062. Q= -0.010 lam=     0.1     freq=  1016. Q= -0.145 lam=    10.7
 107     freq=  1086. Q=  0.008 lam=     0.0     freq=  1068. Q=  0.098 lam=     5.1
 108     freq=  1094. Q=  0.056 lam=     1.7     freq=  1077. Q=  0.312 lam=    52.3
 109     freq=  1110. Q=  0.190 lam=    20.1     freq=  1095. Q=  0.170 lam=    15.9
 110     freq=  1118. Q= -0.005 lam=     0.0     freq=  1104. Q= -0.042 lam=     1.0
 111     freq=  1137. Q= -0.010 lam=     0.1     freq=  1127. Q= -0.586 lam=   193.2
 112     freq=  1155. Q= -0.000 lam=     0.0     freq=  1149. Q= -0.022 lam=     0.3
 113     freq=  1158. Q=  0.377 lam=    82.2     freq=  1155. Q=  0.000 lam=     0.0
 114     freq=  1164. Q= -0.215 lam=    26.8     freq=  1163. Q= -0.066 lam=     2.5
 115     freq=  1170. Q=  0.011 lam=     0.1     freq=  1166. Q=  0.038 lam=     0.8
 116     freq=  1184. Q= -0.135 lam=    10.8     freq=  1175. Q= -0.010 lam=     0.1
 117     freq=  1186. Q= -0.052 lam=     1.6     freq=  1190. Q= -0.039 lam=     0.9
 118     freq=  1196. Q= -0.019 lam=     0.2     freq=  1201. Q= -0.014 lam=     0.1
 119     freq=  1201. Q=  0.013 lam=     0.1     freq=  1215. Q=  0.019 lam=     0.2
 120     freq=  1211. Q=  0.180 lam=    19.7     freq=  1219. Q=  0.284 lam=    49.0
 121     freq=  1225. Q=  0.096 lam=     5.7     freq=  1228. Q=  0.080 lam=     4.0
 122     freq=  1233. Q= -0.026 lam=     0.4     freq=  1236. Q= -0.031 lam=     0.6
 123     freq=  1243. Q= -0.004 lam=     0.0     freq=  1250. Q= -0.021 lam=     0.3
 124     freq=  1255. Q=  0.017 lam=     0.2     freq=  1269. Q=  0.004 lam=     0.0
 125     freq=  1274. Q=  0.041 lam=     1.1     freq=  1281. Q=  0.731 lam=   342.1
 126     freq=  1300. Q=  0.274 lam=    48.7     freq=  1287. Q=  0.003 lam=     0.0
 127     freq=  1317. Q=  0.454 lam=   135.5     freq=  1297. Q=  0.201 lam=    26.3
 128     freq=  1318. Q=  0.024 lam=     0.4     freq=  1323. Q=  0.223 lam=    33.0
 129     freq=  1342. Q= -0.793 lam=   421.7     freq=  1329. Q= -0.001 lam=     0.0
 130     freq=  1351. Q= -0.022 lam=     0.3     freq=  1359. Q= -0.115 lam=     8.9
 131     freq=  1366. Q= -0.026 lam=     0.5     freq=  1361. Q= -0.002 lam=     0.0
 132     freq=  1372. Q=  0.356 lam=    86.9     freq=  1362. Q=  0.059 lam=     2.4
 133     freq=  1377. Q=  0.060 lam=     2.5     freq=  1370. Q=  0.259 lam=    46.0
 134     freq=  1382. Q= -0.001 lam=     0.0     freq=  1384. Q= -0.000 lam=     0.0
 135     freq=  1391. Q= -0.250 lam=    43.5     freq=  1392. Q= -0.025 lam=     0.4
 136     freq=  1395. Q= -0.464 lam=   150.3     freq=  1395. Q= -0.004 lam=     0.0
 137     freq=  1400. Q=  0.001 lam=     0.0     freq=  1398. Q=  0.001 lam=     0.0
 138     freq=  1404. Q= -0.034 lam=     0.8     freq=  1412. Q= -0.022 lam=     0.3
 139     freq=  1416. Q=  0.038 lam=     1.0     freq=  1424. Q=  0.135 lam=    12.9
 140     freq=  1430. Q=  0.155 lam=    17.2     freq=  1428. Q=  0.052 lam=     1.9
 141     freq=  1438. Q= -0.238 lam=    40.6     freq=  1434. Q= -0.011 lam=     0.1
 142     freq=  1444. Q=  0.012 lam=     0.1     freq=  1437. Q=  0.197 lam=    27.8
 143     freq=  1452. Q=  0.407 lam=   120.1     freq=  1457. Q=  0.088 lam=     5.7
 144     freq=  1459. Q=  0.145 lam=    15.3     freq=  1470. Q=  0.008 lam=     0.1
 145     freq=  1467. Q=  0.003 lam=     0.0     freq=  1483. Q=  0.019 lam=     0.3
 146     freq=  1485. Q=  0.000 lam=     0.0     freq=  1483. Q=  0.044 lam=     1.5
 147     freq=  1491. Q=  0.113 lam=     9.5     freq=  1484. Q=  0.000 lam=     0.0
 148     freq=  1498. Q= -0.031 lam=     0.7     freq=  1492. Q= -0.486 lam=   176.0
 149     freq=  1505. Q=  0.001 lam=     0.0     freq=  1496. Q=  0.020 lam=     0.3
 150     freq=  1509. Q=  0.045 lam=     1.6     freq=  1506. Q=  0.001 lam=     0.0
 151     freq=  1512. Q=  0.005 lam=     0.0     freq=  1524. Q=  0.014 lam=     0.1
 152     freq=  1522. Q= -0.013 lam=     0.1     freq=  1537. Q= -0.222 lam=    37.9
 153     freq=  1546. Q= -0.077 lam=     4.6     freq=  1546. Q= -0.009 lam=     0.1
 154     freq=  1551. Q= -0.335 lam=    87.0     freq=  1559. Q= -0.223 lam=    38.9
 155     freq=  1555. Q= -0.157 lam=    19.2     freq=  1575. Q= -0.152 lam=    18.3
 156     freq=  1572. Q= -0.010 lam=     0.1     freq=  1588. Q= -0.002 lam=     0.0
 157     freq=  1582. Q=  0.005 lam=     0.0     freq=  1598. Q=  0.008 lam=     0.1
 158     freq=  1599. Q=  0.016 lam=     0.2     freq=  1615. Q=  0.000 lam=     0.0
 159     freq=  1599. Q=  0.093 lam=     7.0     freq=  1620. Q=  0.015 lam=     0.2
 160     freq=  1622. Q= -0.008 lam=     0.1     freq=  1636. Q= -0.178 lam=    25.8
 161     freq=  1686. Q= -0.001 lam=     0.0     freq=  1685. Q= -0.002 lam=     0.0
 162     freq=  1721. Q= -0.004 lam=     0.0     freq=  1722. Q= -0.120 lam=    12.3
 163     freq=  1726. Q= -0.114 lam=    11.1     freq=  1797. Q= -0.182 lam=    29.7
 164     freq=  1754. Q=  0.065 lam=     3.7     freq=  1813. Q=  0.093 lam=     7.8
 165     freq=  2342. Q=  0.429 lam=   215.2     freq=  2278. Q=  0.450 lam=   230.7
 166     freq=  3035. Q= -0.000 lam=     0.0     freq=  3030. Q= -0.000 lam=     0.0
 167     freq=  3039. Q= -0.007 lam=     0.1     freq=  3035. Q= -0.008 lam=     0.1
 168     freq=  3093. Q= -0.000 lam=     0.0     freq=  3087. Q= -0.000 lam=     0.0
 169     freq=  3096. Q= -0.006 lam=     0.1     freq=  3090. Q= -0.006 lam=     0.1
 170     freq=  3113. Q=  0.003 lam=     0.0     freq=  3110. Q=  0.004 lam=     0.0
 171     freq=  3133. Q=  0.000 lam=     0.0     freq=  3132. Q=  0.000 lam=     0.0
 172     freq=  3143. Q=  0.004 lam=     0.0     freq=  3142. Q=  0.004 lam=     0.0
 173     freq=  3199. Q= -0.003 lam=     0.0     freq=  3193. Q= -0.003 lam=     0.0
 174     freq=  3199. Q=  0.000 lam=     0.0     freq=  3194. Q=  0.001 lam=     0.0
 175     freq=  3205. Q= -0.001 lam=     0.0     freq=  3198. Q= -0.003 lam=     0.0
 176     freq=  3206. Q= -0.004 lam=     0.0     freq=  3198. Q= -0.003 lam=     0.0
 177     freq=  3213. Q= -0.010 lam=     0.2     freq=  3209. Q= -0.003 lam=     0.0
 178     freq=  3213. Q= -0.004 lam=     0.0     freq=  3210. Q= -0.004 lam=     0.0
 179     freq=  3214. Q= -0.003 lam=     0.0     freq=  3226. Q= -0.001 lam=     0.0
 180     freq=  3224. Q=  0.012 lam=     0.2     freq=  3226. Q=  0.002 lam=     0.0
 181     freq=  3225. Q=  0.001 lam=     0.0     freq=  3229. Q=  0.012 lam=     0.2
 182     freq=  3225. Q=  0.002 lam=     0.0     freq=  3239. Q=  0.006 lam=     0.1
 183     freq=  3245. Q= -0.001 lam=     0.0     freq=  3248. Q= -0.001 lam=     0.0

 total reorg energy (cm**-1, kcal/mol)=     2452.     4146.      7.01     11.85
 Nber of molecules processed=           2
