 Enter ifcurve (0=recti, 1=orth curvi, 2=apprx curvi, -1 = skip
 And atom ordering flag, 0= never changes, 1= use the first order thenceforth,
  2= deduce it (does read on fail), 3= always read it
 Reading file: 
 ./Phenyls_0_C0S0.log                                                           
                                          
  Entering Gaussian System, Link 0=g16                                          
  
 Gaussian format, type: g94, g98, g03= F F F
  #P Geom=AllCheck Guess=TCheck SCRF=Check GenChk RB3LYP/6-311G(d,p) Fre    
 energy type= B3LYP   
 Original G94 input coords:
  6 -1.483552 -1.196984  0.000000
  6 -2.874166 -1.198774  0.000000
  6 -3.581826  0.000000  0.000000
  6 -2.874166  1.198774  0.000000
  6 -1.483552  1.196984  0.000000
  6 -0.746979  0.000000  0.000000
  6  0.746979  0.000000  0.000000
  6  1.483552 -1.196984  0.000000
  6  2.874166 -1.198774  0.000000
  6  3.581826  0.000000  0.000000
  6  2.874166  1.198774  0.000000
  6  1.483552  1.196984  0.000000
  1 -0.975039 -2.151634  0.000000
  1 -3.405267 -2.144203  0.000000
  1 -4.665481  0.000000  0.000000
  1 -3.405267  2.144203  0.000000
  1 -0.975039  2.151634  0.000000
  1  0.975039 -2.151634  0.000000
  1  3.405267 -2.144203  0.000000
  1  4.665481  0.000000  0.000000
  1  3.405267  2.144203  0.000000
  1  0.975039  2.151634  0.000000
 nber atoms=          22
 Original standard coords:
  6  0.000000  1.196984  1.483552
  6  0.000000  1.198774  2.874166
  6  0.000000  0.000000  3.581826
  6  0.000000 -1.198774  2.874166
  6  0.000000 -1.196984  1.483552
  6  0.000000  0.000000  0.746979
  6  0.000000  0.000000 -0.746979
  6  0.000000  1.196984 -1.483552
  6  0.000000  1.198774 -2.874166
  6  0.000000  0.000000 -3.581826
  6  0.000000 -1.198774 -2.874166
  6  0.000000 -1.196984 -1.483552
  1  0.000000  2.151634  0.975039
  1  0.000000  2.144203  3.405267
  1  0.000000  0.000000  4.665481
  1  0.000000 -2.144203  3.405267
  1  0.000000 -2.151634  0.975039
  1  0.000000  2.151634 -0.975039
  1  0.000000  2.144203 -3.405267
  1  0.000000  0.000000 -4.665481
  1  0.000000 -2.144203 -3.405267
  1  0.000000 -2.151634 -0.975039
  SCF Done:  E(RB3LYP) =  -463.414537481     A.U. after    1 cycles             
  
          23          40 "  -463.414537481"
After scan for Atom:   Atom  AN      X      Y      Z        X      Y      Z        X      Y      Z   
After scan for Atom:   Atom  AN      X      Y      Z        X      Y      Z        X      Y      Z   
After scan for Atom:   Atom  AN      X      Y      Z        X      Y      Z        X      Y      Z   
After scan for Atom:   Atom  AN      X      Y      Z        X      Y      Z        X      Y      Z   
After scan for Atom:   Atom  AN      X      Y      Z        X      Y      Z        X      Y      Z   
After scan for Atom:   Atom  AN      X      Y      Z        X      Y      Z        X      Y      Z   
After scan for Atom:   Atom  AN      X      Y      Z        X      Y      Z        X      Y      Z   
After scan for Atom:   Atom  AN      X      Y      Z        X      Y      Z        X      Y      Z   
After scan for Atom:   Atom  AN      X      Y      Z        X      Y      Z        X      Y      Z   
After scan for Atom:   Atom  AN      X      Y      Z        X      Y      Z        X      Y      Z   
After scan for Atom:   Atom  AN      X      Y      Z        X      Y      Z        X      Y      Z   
After scan for Atom:   Atom  AN      X      Y      Z        X      Y      Z        X      Y      Z   
After scan for Atom:   Atom  AN      X      Y      Z        X      Y      Z        X      Y      Z   
After scan for Atom:   Atom  AN      X      Y      Z        X      Y      Z        X      Y      Z   
After scan for Atom:   Atom  AN      X      Y      Z        X      Y      Z        X      Y      Z   
After scan for Atom:   Atom  AN      X      Y      Z        X      Y      Z        X      Y      Z   
After scan for Atom:   Atom  AN      X      Y      Z        X      Y      Z        X      Y      Z   
After scan for Atom:   Atom  AN      X      Y      Z        X      Y      Z        X      Y      Z   
After scan for Atom:   Atom  AN      X      Y      Z        X      Y      Z        X      Y      Z   
After scan for Atom:   Atom  AN      X      Y      Z        X      Y      Z        X      Y      Z   
 g94    frequencies=
     0.0    0.0    0.0    0.0    0.0    0.0  -84.4   95.4  189.9  224.4
   335.6  392.6  413.3  415.2  447.8  555.2  624.3  626.9  644.9  679.5
   714.1  747.5  753.5  802.1  820.8  851.0  919.4  919.7  962.5  976.7
   995.0  999.2 1009.8 1019.0 1024.1 1063.8 1064.4 1106.0 1118.9 1181.5
  1190.3 1204.9 1238.5 1283.4 1300.1 1323.8 1356.3 1379.2 1460.1 1494.3
  1517.8 1550.8 1614.5 1628.4 1640.6 1649.4 3161.5 3162.5 3168.7 3170.6
  3184.6 3188.1 3192.6 3196.4 3209.1 3211.1
 g94    symmetries=
                                                AU     B3     B2     B2
      AG     AU     B3     B1     B3     B2     B1     B3     B2     B2
      B3     B3     AG     B2     AU     B1     B3     B2     AU     B1
      B2     B3     B1     AG     B1     B1     AG     B3     B2     B3
      B2     B1     AG     AG     B2     B3     B3     B2     B2     B3
      B1     AG     B2     B3     AG     B1     B1     AG     B3     B2
      B1     AG     B3     B1     B2     AG
 atomic masses:
 12.0000 12.0000 12.0000 12.0000 12.0000 12.0000 12.0000 12.0000 12.0000 12.0000
 12.0000 12.0000  1.0078  1.0078  1.0078  1.0078  1.0078  1.0078  1.0078  1.0078
  1.0078  1.0078
 looking for force constants in 
 ./Phenyls_0_C0S0.fchk                                                          
  
 Cartesian Force Constants                  R   N=        2211                  
  
 n3=          66        2211
 g94-fc frequencies=
   -84.4   -5.0   -4.3   -4.2   -0.0   -0.0    0.0   95.4  189.9  224.5
   335.6  392.6  413.3  415.2  447.8  555.2  624.3  626.9  644.9  679.5
   714.1  747.5  753.5  802.1  820.8  851.0  919.5  919.7  962.5  976.8
   995.1  999.2 1009.8 1019.0 1024.2 1063.8 1064.5 1106.1 1119.0 1181.5
  1190.3 1204.9 1238.5 1283.4 1300.1 1323.8 1356.4 1379.3 1460.2 1494.3
  1517.8 1550.9 1614.5 1628.4 1640.6 1649.4 3161.5 3162.6 3168.8 3170.7
  3184.7 3188.1 3192.6 3196.4 3209.2 3211.1
 at 99999: n3=          66
 symm operator            1 :  T  nop=           1
 symm operator            2 :  T  nop=           2
 symm operator            3 :  T  nop=           3
 symm operator            4 :  T  nop=           4
 symm operator            5 :  T  nop=           5
 symm operator            6 :  T  nop=           6
 symm operator            7 :  T  nop=           7
 The point group of the molecule is D2H
 enforcing symm op           1  jsymt=          -1          -1           1
 enforcing symm op           2  jsymt=          -1           1          -1
 enforcing symm op           3  jsymt=           1          -1          -1
 enforcing symm op           4  jsymt=          -1          -1          -1
 enforcing symm op           5  jsymt=           1           1          -1
 enforcing symm op           6  jsymt=           1          -1           1
 enforcing symm op           7  jsymt=          -1           1           1
 cartesian coord symmetries:
 Ag :   11 Au :    4 B1g:    4 B1u:   11 B2g:    7 B2u:   11 B3g:   11 B3u:    7
 Symmetry rotation matrix:
   1.00000   0.00000   0.00000
   0.00000   1.00000   0.00000
   0.00000   0.00000   1.00000

 Projecting out zero-frequency components
 generating redundant internal coords
         300        3600          22
 search for int coords
   1 str   2   1   1.391
   2 str   3   2   1.392
   3 str   4   3   1.392
   4 str   5   4   1.391
   5 str   6   1   1.405
   6 str   6   5   1.405
   7 str   7   6   1.494
   8 str   8   7   1.405
   9 str   9   8   1.391
  10 str  10   9   1.392
  11 str  11  10   1.392
  12 str  12   7   1.405
  13 str  12  11   1.391
  14 str  13   1   1.082
  15 str  14   2   1.084
  16 str  15   3   1.084
  17 str  16   4   1.084
  18 str  17   5   1.082
  19 str  18   8   1.082
  20 str  19   9   1.084
  21 str  20  10   1.084
  22 str  21  11   1.084
  23 str  22  12   1.082
 nber stretches=          23
  24 ben   1   2   3
  25 prop tor   1   2   3   4
  26 prop tor   1   2   3  15
  27 ben   1   2  14
  28 ben   1   6   5
  29 ben   1   6   7
  30 prop tor   1   6   7   8
  31 prop tor   1   6   7  12
  32 ben   2   1   6
  33 prop tor   2   1   6   5
  34 prop tor   2   1   6   7
  35 ben   2   1  13
  36 ben   2   3   4
  37 prop tor   2   3   4   5
  38 prop tor   2   3   4  16
  39 ben   2   3  15
  40 ben   3   2  14
  41 ben   3   4   5
  42 prop tor   3   4   5   6
  43 prop tor   3   4   5  17
  44 ben   3   4  16
  45 ben   4   3  15
  46 ben   4   5   6
  47 prop tor   4   5   6   1
  48 prop tor   4   5   6   7
  49 ben   4   5  17
  50 ben   5   4  16
  51 ben   5   6   7
  52 prop tor   5   6   7   8
  53 prop tor   5   6   7  12
  54 prop tor   6   1   2   3
  55 prop tor   6   1   2  14
  56 ben   6   1  13
  57 ben   6   5  17
  58 ben   6   7   8
  59 prop tor   6   7   8   9
  60 prop tor   6   7   8  18
  61 ben   6   7  12
  62 prop tor   6   7  12  11
  63 prop tor   6   7  12  22
  64 ben   7   8   9
  65 prop tor   7   8   9  10
  66 prop tor   7   8   9  19
  67 ben   7   8  18
  68 ben   7  12  11
  69 ben   7  12  22
  70 ben   8   7  12
  71 prop tor   8   7  12  11
  72 prop tor   8   7  12  22
  73 ben   8   9  10
  74 prop tor   8   9  10  11
  75 prop tor   8   9  10  20
  76 ben   8   9  19
  77 ben   9   8  18
  78 ben   9  10  11
  79 prop tor   9  10  11  12
  80 prop tor   9  10  11  21
  81 ben   9  10  20
  82 ben  10   9  19
  83 ben  10  11  12
  84 prop tor  10  11  12   7
  85 prop tor  10  11  12  22
  86 ben  10  11  21
  87 ben  11  10  20
  88 ben  11  12  22
  89 prop tor  12   7   8   9
  90 prop tor  12   7   8  18
  91 ben  12  11  21
  92 prop tor  13   1   2   3
  93 prop tor  13   1   2  14
  94 prop tor  13   1   6   5
  95 prop tor  13   1   6   7
  96 prop tor  14   2   3   4
  97 prop tor  14   2   3  15
  98 prop tor  15   3   4   5
  99 prop tor  15   3   4  16
 100 prop tor  16   4   5   6
 101 prop tor  16   4   5  17
 102 prop tor  17   5   6   1
 103 prop tor  17   5   6   7
 104 prop tor  18   8   9  10
 105 prop tor  18   8   9  19
 106 prop tor  19   9  10  11
 107 prop tor  19   9  10  20
 108 prop tor  20  10  11  12
 109 prop tor  20  10  11  21
 110 prop tor  21  11  12   7
 111 prop tor  21  11  12  22
 nber bend=              36
 nber lin bend=           0
 nber prop tor=          52
 nber impr tor=           0
 nber tot redund int=         111
 Eigenvalues of G in red int coords
    Gval -0.00000000 -0.00000000 -0.00000000 -0.00000000 -0.00000000 -0.00000000 -0.00000000 -0.00000000
    Gval -0.00000000 -0.00000000 -0.00000000 -0.00000000 -0.00000000 -0.00000000 -0.00000000 -0.00000000
    Gval -0.00000000 -0.00000000 -0.00000000 -0.00000000 -0.00000000 -0.00000000 -0.00000000 -0.00000000
    Gval  0.00000000  0.00000000  0.00000000  0.00000000  0.00000000  0.00000000  0.00000000  0.00000000
    Gval  0.00000000  0.00000000  0.00000000  0.00000000  0.00000000  0.00000000  0.00000000  0.00000000
    Gval  0.00000000  0.00000000  0.00000000  0.00000000  0.00000000  0.00000000  0.00000000  0.00000000
    Gval  0.00000000  0.00000000  0.00000000  0.00000532  0.00000768  0.00002373  0.00003668  0.00004250
    Gval  0.00004496  0.00004919  0.00005754  0.00005758  0.00006679  0.00006709  0.00009792  0.00011445
    Gval  0.00011700  0.00011718  0.00012817  0.00019226  0.00020048  0.00025793  0.00027687  0.00027741
    Gval  0.00035457  0.00037854  0.00041377  0.00052155  0.00057640  0.00058168  0.00059307  0.00059308
    Gval  0.00059312  0.00059389  0.00060385  0.00060428  0.00062000  0.00063005  0.00066002  0.00066198
    Gval  0.00088772  0.00104026  0.00104311  0.00111018  0.00111208  0.00113844  0.00114003  0.00116956
    Gval  0.00117058  0.00117332  0.00117333  0.00141602  0.00143644  0.00163995  0.00201632  0.00234534
    Gval  0.00235968  0.00302916  0.00323554  0.00370024  0.00371371  0.00406380  0.00407187
  5.322266402832551E-006  5.322266402832551E-006
  7.683763339459627E-006  5.322266402832551E-006
  2.372792668672354E-005  5.322266402832551E-006
  3.668414215374891E-005  5.322266402832551E-006
  4.250296716327768E-005  5.322266402832551E-006
  4.495726142759069E-005  5.322266402832551E-006
  4.919015804123424E-005  5.322266402832551E-006
  5.754090860579417E-005  5.322266402832551E-006
  5.757954554855313E-005  5.322266402832551E-006
  6.679456130855756E-005  5.322266402832551E-006
  6.709387625738571E-005  5.322266402832551E-006
  9.792191414165662E-005  5.322266402832551E-006
  1.144528277576116E-004  5.322266402832551E-006
  1.170004488183275E-004  5.322266402832551E-006
  1.171798537675073E-004  5.322266402832551E-006
  1.281684700471759E-004  5.322266402832551E-006
  1.922621541397580E-004  5.322266402832551E-006
  2.004780243318978E-004  5.322266402832551E-006
  2.579265111821138E-004  5.322266402832551E-006
  2.768668602616753E-004  5.322266402832551E-006
  2.774065254664240E-004  5.322266402832551E-006
  3.545684583522049E-004  5.322266402832551E-006
  3.785429070860316E-004  5.322266402832551E-006
  4.137730492448435E-004  5.322266402832551E-006
  5.215464423358882E-004  5.322266402832551E-006
  5.764001300541822E-004  5.322266402832551E-006
  5.816769274114355E-004  5.322266402832551E-006
  5.930724156458141E-004  5.322266402832551E-006
  5.930814178418265E-004  5.322266402832551E-006
  5.931189396939563E-004  5.322266402832551E-006
  5.938927867461781E-004  5.322266402832551E-006
  6.038532324682895E-004  5.322266402832551E-006
  6.042758443079490E-004  5.322266402832551E-006
  6.200016962736423E-004  5.322266402832551E-006
  6.300472015298337E-004  5.322266402832551E-006
  6.600217256213872E-004  5.322266402832551E-006
  6.619803119674984E-004  5.322266402832551E-006
  8.877239485617670E-004  5.322266402832551E-006
  1.040263813498708E-003  5.322266402832551E-006
  1.043107066275153E-003  5.322266402832551E-006
  1.110183663393455E-003  5.322266402832551E-006
  1.112084351935949E-003  5.322266402832551E-006
  1.138440487831875E-003  5.322266402832551E-006
  1.140031274481161E-003  5.322266402832551E-006
  1.169557093576042E-003  5.322266402832551E-006
  1.170579403646204E-003  5.322266402832551E-006
  1.173322142589803E-003  5.322266402832551E-006
  1.173328090879020E-003  5.322266402832551E-006
  1.416024291513456E-003  5.322266402832551E-006
  1.436439261051637E-003  5.322266402832551E-006
  1.639947704030103E-003  5.322266402832551E-006
  2.016321816519426E-003  5.322266402832551E-006
  2.345337334246751E-003  5.322266402832551E-006
  2.359684800580871E-003  5.322266402832551E-006
  3.029157874099304E-003  5.322266402832551E-006
  3.235544325883333E-003  5.322266402832551E-006
  3.700241317112754E-003  5.322266402832551E-006
  3.713712768582969E-003  5.322266402832551E-006
  4.063804481981751E-003  5.322266402832551E-006
  4.071874717061007E-003  5.322266402832551E-006
 cut=1d-8, nber non-redundant internal coords=          60
 Check on Eigenvals of non-red overlap matrix:
  0.00000532  0.00000768  0.00002373  0.00003668  0.00004250  0.00004496  0.00004919  0.00005754
  0.00005758  0.00006679  0.00006709  0.00009792  0.00011445  0.00011700  0.00011718  0.00012817
  0.00019226  0.00020048  0.00025793  0.00027687  0.00027741  0.00035457  0.00037854  0.00041377
  0.00052155  0.00057640  0.00058168  0.00059307  0.00059308  0.00059312  0.00059389  0.00060385
  0.00060428  0.00062000  0.00063005  0.00066002  0.00066198  0.00088772  0.00104026  0.00104311
  0.00111018  0.00111208  0.00113844  0.00114003  0.00116956  0.00117058  0.00117332  0.00117333
  0.00141602  0.00143644  0.00163995  0.00201632  0.00234534  0.00235968  0.00302916  0.00323554
  0.00370024  0.00371371  0.00406380  0.00407187
 Checking for correct frequencies
 recalc frequencies=
   -84.4   -0.0   -0.0   -0.0   -0.0   -0.0    0.0   95.4  189.9  224.5
   335.6  392.6  413.3  415.2  447.8  555.2  624.3  626.9  644.9  679.5
   714.1  747.5  753.5  802.1  820.8  851.0  919.5  919.7  962.5  976.8
   995.1  999.2 1009.8 1019.0 1024.2 1063.8 1064.5 1106.1 1119.0 1181.5
  1190.3 1204.9 1238.5 1283.4 1300.1 1323.8 1356.4 1379.3 1460.2 1494.3
  1517.8 1550.9 1614.5 1628.4 1640.6 1649.4 3161.5 3162.6 3168.8 3170.7
  3184.7 3188.1 3192.6 3196.4 3209.2 3211.1
 recalc symmetries=
     Au     B2u    B3g    B1g    B2g    B3u    B1u    B3u    B2u    B2g
     Ag     Au     B3g    B1g    B3u    B2g    B1u    B3g    B2u    B2g
     B3u    B3u    Ag     B2g    Au     B1g    B3u    B2g    Au     B1g
     B2g    B3u    B1u    Ag     B1u    B1u    Ag     B3g    B2u    B3g
     B2u    B1u    Ag     Ag     B2u    B3g    B3g    B2u    B2u    B3g
     B1u    Ag     B2u    B3g    Ag     B1u    B1u    Ag     B3g    B2u
     B1u    Ag     B3g    B1u    B2u    Ag 
 recalc freqs check OK
 Zero-point lengths:
 26.9842 10.0000 10.0000 10.0000 10.0000 10.0000 10.0000 25.3829 17.9917 16.5476
 13.5333 12.5120 12.1941 12.1668 11.7154 10.5216  9.9222  9.9016  9.7623  9.5102
  9.2769  9.0674  9.0313  8.7534  8.6530  8.4983  8.1758  8.1747  7.9908  7.9324
  7.8591  7.8428  7.8014  7.7662  7.7466  7.6010  7.5986  7.4543  7.4112  7.2123
  7.1857  7.1419  7.0443  6.9200  6.8756  6.8136  6.7315  6.6753  6.4878  6.4131
  6.3634  6.2952  6.1699  6.1435  6.1205  6.1042  4.4091  4.4084  4.4040  4.4027
  4.3930  4.3906  4.3875  4.3849  4.3762  4.3749
 highest evec of mol 1
  0.0000  0.1203 -0.0645
  0.0000  0.0350  0.0227
  0.0000  0.0000  0.0241
  0.0000 -0.0350  0.0227
  0.0000 -0.1203 -0.0645
  0.0000  0.0000 -0.0052
  0.0000  0.0000  0.0052
  0.0000  0.1203  0.0645
  0.0000  0.0350 -0.0227
  0.0000  0.0000 -0.0241
  0.0000 -0.0350 -0.0227
  0.0000 -0.1203  0.0645
  0.0000 -0.4017  0.2220
  0.0000 -0.1099 -0.0629
  0.0000  0.0000 -0.0727
  0.0000  0.1099 -0.0629
  0.0000  0.4017  0.2220
  0.0000 -0.4017 -0.2220
  0.0000 -0.1099  0.0629
  0.0000  0.0000  0.0727
  0.0000  0.1099  0.0629
  0.0000  0.4017 -0.2220
 generating redundant internal coords
         300        3600          22
 Adding extra bonds for z output only
           6           6           6           6           6           6
           6           6           6           6           6           6
           1           1           1           1           1           1
           1           1           1           1
 search for int coords
   1 str   2   1   1.391
   2 str   3   2   1.392
   3 str   4   3   1.392
   4 str   5   4   1.391
   5 str   6   1   1.405
   6 str   6   5   1.405
   7 str   7   6   1.494
   8 str   8   7   1.405
   9 str   9   8   1.391
  10 str  10   9   1.392
  11 str  11  10   1.392
  12 str  12   7   1.405
  13 str  12  11   1.391
  14 str  13   1   1.082
  15 str  14   2   1.084
  16 str  15   3   1.084
  17 str  16   4   1.084
  18 str  17   5   1.082
  19 str  18   8   1.082
  20 str  19   9   1.084
  21 str  20  10   1.084
  22 str  21  11   1.084
  23 str  22  12   1.082
 nber stretches=          23
  24 ben   1   2   3
  25 prop tor   1   2   3   4
  26 prop tor   1   2   3  15
  27 ben   1   2  14
  28 ben   1   6   5
  29 ben   1   6   7
  30 prop tor   1   6   7   8
  31 prop tor   1   6   7  12
  32 ben   2   1   6
  33 prop tor   2   1   6   5
  34 prop tor   2   1   6   7
  35 ben   2   1  13
  36 ben   2   3   4
  37 prop tor   2   3   4   5
  38 prop tor   2   3   4  16
  39 ben   2   3  15
  40 ben   3   2  14
  41 ben   3   4   5
  42 prop tor   3   4   5   6
  43 prop tor   3   4   5  17
  44 ben   3   4  16
  45 ben   4   3  15
  46 ben   4   5   6
  47 prop tor   4   5   6   1
  48 prop tor   4   5   6   7
  49 ben   4   5  17
  50 ben   5   4  16
  51 ben   5   6   7
  52 prop tor   5   6   7   8
  53 prop tor   5   6   7  12
  54 prop tor   6   1   2   3
  55 prop tor   6   1   2  14
  56 ben   6   1  13
  57 ben   6   5  17
  58 ben   6   7   8
  59 prop tor   6   7   8   9
  60 prop tor   6   7   8  18
  61 ben   6   7  12
  62 prop tor   6   7  12  11
  63 prop tor   6   7  12  22
  64 ben   7   8   9
  65 prop tor   7   8   9  10
  66 prop tor   7   8   9  19
  67 ben   7   8  18
  68 ben   7  12  11
  69 ben   7  12  22
  70 ben   8   7  12
  71 prop tor   8   7  12  11
  72 prop tor   8   7  12  22
  73 ben   8   9  10
  74 prop tor   8   9  10  11
  75 prop tor   8   9  10  20
  76 ben   8   9  19
  77 ben   9   8  18
  78 ben   9  10  11
  79 prop tor   9  10  11  12
  80 prop tor   9  10  11  21
  81 ben   9  10  20
  82 ben  10   9  19
  83 ben  10  11  12
  84 prop tor  10  11  12   7
  85 prop tor  10  11  12  22
  86 ben  10  11  21
  87 ben  11  10  20
  88 ben  11  12  22
  89 prop tor  12   7   8   9
  90 prop tor  12   7   8  18
  91 ben  12  11  21
  92 prop tor  13   1   2   3
  93 prop tor  13   1   2  14
  94 prop tor  13   1   6   5
  95 prop tor  13   1   6   7
  96 prop tor  14   2   3   4
  97 prop tor  14   2   3  15
  98 prop tor  15   3   4   5
  99 prop tor  15   3   4  16
 100 prop tor  16   4   5   6
 101 prop tor  16   4   5  17
 102 prop tor  17   5   6   1
 103 prop tor  17   5   6   7
 104 prop tor  18   8   9  10
 105 prop tor  18   8   9  19
 106 prop tor  19   9  10  11
 107 prop tor  19   9  10  20
 108 prop tor  20  10  11  12
 109 prop tor  20  10  11  21
 110 prop tor  21  11  12   7
 111 prop tor  21  11  12  22
 nber bend=              36
 nber lin bend=           0
 nber prop tor=          52
 nber impr tor=           0
 nber tot redund int=         111
 Reading file: 
 ./Phenyls_0_C0S1.log                                                           
                                          
  Entering Gaussian System, Link 0=g16                                          
  
 Gaussian format, type: g94, g98, g03= F F F
  #P Geom=AllCheck Guess=TCheck SCRF=Check GenChk RB3LYP TD(FC,Read)/6-3    
 energy type= TD      
 Original G94 input coords:
  6 -1.459587 -1.225953  0.000000
  6 -2.834325 -1.213227  0.000000
  6 -3.533874  0.000000  0.000000
  6 -2.834325  1.213227  0.000000
  6 -1.459587  1.225953  0.000000
  6 -0.719883  0.000000  0.000000
  6  0.719883  0.000000  0.000000
  6  1.459587 -1.225953  0.000000
  6  2.834325 -1.213227  0.000000
  6  3.533874  0.000000  0.000000
  6  2.834325  1.213227  0.000000
  6  1.459587  1.225953  0.000000
  1 -0.952692 -2.206098  0.000000
  1 -3.373512 -2.163323  0.000000
  1 -4.628010  0.000000  0.000000
  1 -3.373512  2.163323  0.000000
  1 -0.952692  2.206098  0.000000
  1  0.952692 -2.206098  0.000000
  1  3.373512 -2.163323  0.000000
  1  4.628010  0.000000  0.000000
  1  3.373512  2.163323  0.000000
  1  0.952692  2.206098  0.000000
 nber atoms=          22
 Original standard coords:
  6  0.000000  1.225953  1.459587
  6  0.000000  1.213227  2.834325
  6  0.000000  0.000000  3.533874
  6  0.000000 -1.213227  2.834325
  6  0.000000 -1.225953  1.459587
  6  0.000000  0.000000  0.719883
  6  0.000000  0.000000 -0.719883
  6  0.000000  1.225953 -1.459587
  6  0.000000  1.213227 -2.834325
  6  0.000000  0.000000 -3.533874
  6  0.000000 -1.213227 -2.834325
  6  0.000000 -1.225953 -1.459587
  1  0.000000  2.206098  0.952692
  1  0.000000  2.163323  3.373512
  1  0.000000  0.000000  4.628010
  1  0.000000 -2.163323  3.373512
  1  0.000000 -2.206098  0.952692
  1  0.000000  2.206098 -0.952692
  1  0.000000  2.163323 -3.373512
  1  0.000000  0.000000 -4.628010
  1  0.000000 -2.163323 -3.373512
  1  0.000000 -2.206098 -0.952692
  Total Energy, E(TD-HF/TD-DFT) =  -463.184682542                               
  
          32          49 "  -463.184682542"
After scan for Atom:   Atom  AN      X      Y      Z        X      Y      Z        X      Y      Z   
After scan for Atom:   Atom  AN      X      Y      Z        X      Y      Z        X      Y      Z   
After scan for Atom:   Atom  AN      X      Y      Z        X      Y      Z        X      Y      Z   
After scan for Atom:   Atom  AN      X      Y      Z        X      Y      Z        X      Y      Z   
After scan for Atom:   Atom  AN      X      Y      Z        X      Y      Z        X      Y      Z   
After scan for Atom:   Atom  AN      X      Y      Z        X      Y      Z        X      Y      Z   
After scan for Atom:   Atom  AN      X      Y      Z        X      Y      Z        X      Y      Z   
After scan for Atom:   Atom  AN      X      Y      Z        X      Y      Z        X      Y      Z   
After scan for Atom:   Atom  AN      X      Y      Z        X      Y      Z        X      Y      Z   
After scan for Atom:   Atom  AN      X      Y      Z        X      Y      Z        X      Y      Z   
After scan for Atom:   Atom  AN      X      Y      Z        X      Y      Z        X      Y      Z   
After scan for Atom:   Atom  AN      X      Y      Z        X      Y      Z        X      Y      Z   
After scan for Atom:   Atom  AN      X      Y      Z        X      Y      Z        X      Y      Z   
After scan for Atom:   Atom  AN      X      Y      Z        X      Y      Z        X      Y      Z   
After scan for Atom:   Atom  AN      X      Y      Z        X      Y      Z        X      Y      Z   
After scan for Atom:   Atom  AN      X      Y      Z        X      Y      Z        X      Y      Z   
After scan for Atom:   Atom  AN      X      Y      Z        X      Y      Z        X      Y      Z   
After scan for Atom:   Atom  AN      X      Y      Z        X      Y      Z        X      Y      Z   
After scan for Atom:   Atom  AN      X      Y      Z        X      Y      Z        X      Y      Z   
After scan for Atom:   Atom  AN      X      Y      Z        X      Y      Z        X      Y      Z   
 g94    frequencies=
     0.0    0.0    0.0    0.0    0.0    0.0 -399.8   79.7   80.3  186.4
   335.1  372.0  390.2  413.1  431.8  433.4  590.8  606.3  606.6  610.3
   649.1  742.6  760.5  823.4  827.7  855.3  913.4  959.5  968.4  973.0
   990.5 1024.5 1025.6 1030.9 1038.4 1080.6 1095.1 1099.9 1101.3 1107.4
  1150.1 1151.8 1230.1 1253.5 1336.4 1360.7 1379.4 1382.1 1439.6 1463.4
  1470.2 1533.6 1545.5 1547.6 1592.2 1645.7 2494.9 2566.6 2796.6 2830.9
  2918.0 3014.0 3024.5 3025.9 3031.2 3044.7
 g94    symmetries=
                                                B2     B3     AU     B2
      AG     B2     B1     AU     B3     B3     B3     B2     B1     B3
      B2     AG     B3     B1     B2     AU     B2     B1     AG     B3
      B1     B1     B3     B2     AG     B1     AU     B3     B1     B2
      B2     B3     AG     B2     B3     AG     B2     B3     B2     B3
      B1     AG     B3     B2     B1     AG     B2     B1     AG     B3
      B1     AG     B1     B2     B3     AG
 atomic masses:
 12.0000 12.0000 12.0000 12.0000 12.0000 12.0000 12.0000 12.0000 12.0000 12.0000
 12.0000 12.0000  1.0078  1.0078  1.0078  1.0078  1.0078  1.0078  1.0078  1.0078
  1.0078  1.0078
 looking for force constants in 
 ./Phenyls_0_C0S1.fchk                                                          
  
 Cartesian Force Constants                  R   N=        2211                  
  
 n3=          66        2211
 g94-fc frequencies=
  -399.8  -10.2   -4.1   -3.0   -0.0   -0.0    0.0   79.7   80.3  186.4
   335.1  372.0  390.3  413.2  431.8  433.4  590.8  606.3  606.6  610.3
   649.1  742.6  760.5  823.4  827.8  855.4  913.4  959.5  968.4  973.0
   990.5 1024.5 1025.6 1030.9 1038.4 1080.6 1095.1 1100.0 1101.4 1107.4
  1150.1 1151.8 1230.2 1253.5 1336.5 1360.7 1379.4 1382.1 1439.6 1463.5
  1470.2 1533.6 1545.6 1547.6 1592.3 1645.7 2495.0 2566.6 2796.7 2831.0
  2918.1 3014.0 3024.6 3026.0 3031.3 3044.8
 at 99999: n3=          66
 symm operator            1 :  T  nop=           1
 symm operator            2 :  T  nop=           2
 symm operator            3 :  T  nop=           3
 symm operator            4 :  T  nop=           4
 symm operator            5 :  T  nop=           5
 symm operator            6 :  T  nop=           6
 symm operator            7 :  T  nop=           7
 The point group of the molecule is D2H
 enforcing symm op           1  jsymt=          -1          -1           1
 enforcing symm op           2  jsymt=          -1           1          -1
 enforcing symm op           3  jsymt=           1          -1          -1
 enforcing symm op           4  jsymt=          -1          -1          -1
 enforcing symm op           5  jsymt=           1           1          -1
 enforcing symm op           6  jsymt=           1          -1           1
 enforcing symm op           7  jsymt=          -1           1           1
 cartesian coord symmetries:
 Ag :   11 Au :    4 B1g:    4 B1u:   11 B2g:    7 B2u:   11 B3g:   11 B3u:    7
 Symmetry rotation matrix:
   1.00000   0.00000   0.00000
   0.00000   1.00000   0.00000
   0.00000   0.00000   1.00000

 Projecting out zero-frequency components
 generating redundant internal coords
         300        3600          22
 search for int coords
   1 str   2   1   1.375
   2 str   3   2   1.400
   3 str   4   3   1.400
   4 str   5   4   1.375
   5 str   6   1   1.432
   6 str   6   5   1.432
   7 str   7   6   1.440
   8 str   8   7   1.432
   9 str   9   8   1.375
  10 str  10   9   1.400
  11 str  11  10   1.400
  12 str  12   7   1.432
  13 str  12  11   1.375
  14 str  13   1   1.103
  15 str  14   2   1.092
  16 str  15   3   1.094
  17 str  16   4   1.092
  18 str  17   5   1.103
  19 str  18   8   1.103
  20 str  19   9   1.092
  21 str  20  10   1.094
  22 str  21  11   1.092
  23 str  22  12   1.103
 nber stretches=          23
  24 ben   1   2   3
  25 prop tor   1   2   3   4
  26 prop tor   1   2   3  15
  27 ben   1   2  14
  28 ben   1   6   5
  29 ben   1   6   7
  30 prop tor   1   6   7   8
  31 prop tor   1   6   7  12
  32 ben   2   1   6
  33 prop tor   2   1   6   5
  34 prop tor   2   1   6   7
  35 ben   2   1  13
  36 ben   2   3   4
  37 prop tor   2   3   4   5
  38 prop tor   2   3   4  16
  39 ben   2   3  15
  40 ben   3   2  14
  41 ben   3   4   5
  42 prop tor   3   4   5   6
  43 prop tor   3   4   5  17
  44 ben   3   4  16
  45 ben   4   3  15
  46 ben   4   5   6
  47 prop tor   4   5   6   1
  48 prop tor   4   5   6   7
  49 ben   4   5  17
  50 ben   5   4  16
  51 ben   5   6   7
  52 prop tor   5   6   7   8
  53 prop tor   5   6   7  12
  54 prop tor   6   1   2   3
  55 prop tor   6   1   2  14
  56 ben   6   1  13
  57 ben   6   5  17
  58 ben   6   7   8
  59 prop tor   6   7   8   9
  60 prop tor   6   7   8  18
  61 ben   6   7  12
  62 prop tor   6   7  12  11
  63 prop tor   6   7  12  22
  64 ben   7   8   9
  65 prop tor   7   8   9  10
  66 prop tor   7   8   9  19
  67 ben   7   8  18
  68 ben   7  12  11
  69 ben   7  12  22
  70 ben   8   7  12
  71 prop tor   8   7  12  11
  72 prop tor   8   7  12  22
  73 ben   8   9  10
  74 prop tor   8   9  10  11
  75 prop tor   8   9  10  20
  76 ben   8   9  19
  77 ben   9   8  18
  78 ben   9  10  11
  79 prop tor   9  10  11  12
  80 prop tor   9  10  11  21
  81 ben   9  10  20
  82 ben  10   9  19
  83 ben  10  11  12
  84 prop tor  10  11  12   7
  85 prop tor  10  11  12  22
  86 ben  10  11  21
  87 ben  11  10  20
  88 ben  11  12  22
  89 prop tor  12   7   8   9
  90 prop tor  12   7   8  18
  91 ben  12  11  21
  92 prop tor  13   1   2   3
  93 prop tor  13   1   2  14
  94 prop tor  13   1   6   5
  95 prop tor  13   1   6   7
  96 prop tor  14   2   3   4
  97 prop tor  14   2   3  15
  98 prop tor  15   3   4   5
  99 prop tor  15   3   4  16
 100 prop tor  16   4   5   6
 101 prop tor  16   4   5  17
 102 prop tor  17   5   6   1
 103 prop tor  17   5   6   7
 104 prop tor  18   8   9  10
 105 prop tor  18   8   9  19
 106 prop tor  19   9  10  11
 107 prop tor  19   9  10  20
 108 prop tor  20  10  11  12
 109 prop tor  20  10  11  21
 110 prop tor  21  11  12   7
 111 prop tor  21  11  12  22
 nber bend=              36
 nber lin bend=           0
 nber prop tor=          52
 nber impr tor=           0
 nber tot redund int=         111
 Eigenvalues of G in red int coords
    Gval -0.00000000 -0.00000000 -0.00000000 -0.00000000 -0.00000000 -0.00000000 -0.00000000 -0.00000000
    Gval -0.00000000 -0.00000000 -0.00000000 -0.00000000 -0.00000000 -0.00000000 -0.00000000 -0.00000000
    Gval -0.00000000 -0.00000000 -0.00000000 -0.00000000 -0.00000000 -0.00000000 -0.00000000 -0.00000000
    Gval -0.00000000 -0.00000000 -0.00000000 -0.00000000 -0.00000000  0.00000000  0.00000000  0.00000000
    Gval  0.00000000  0.00000000  0.00000000  0.00000000  0.00000000  0.00000000  0.00000000  0.00000000
    Gval  0.00000000  0.00000000  0.00000000  0.00000000  0.00000000  0.00000000  0.00000000  0.00000000
    Gval  0.00000000  0.00000000  0.00000000  0.00000530  0.00000766  0.00002381  0.00003659  0.00004248
    Gval  0.00004359  0.00004875  0.00005708  0.00005789  0.00006651  0.00006773  0.00009768  0.00011317
    Gval  0.00011680  0.00011717  0.00012802  0.00019394  0.00020334  0.00025394  0.00027483  0.00027562
    Gval  0.00035163  0.00037415  0.00042054  0.00051346  0.00056493  0.00058003  0.00059295  0.00059297
    Gval  0.00059298  0.00059374  0.00060303  0.00060340  0.00061946  0.00062994  0.00065916  0.00066101
    Gval  0.00090455  0.00101591  0.00101937  0.00108017  0.00108258  0.00110786  0.00110900  0.00114609
    Gval  0.00114662  0.00115280  0.00115280  0.00139633  0.00141235  0.00160184  0.00198665  0.00230234
    Gval  0.00231628  0.00294686  0.00316976  0.00362479  0.00363746  0.00397364  0.00398270
  5.299690632045892E-006  5.299690632045892E-006
  7.663895112842425E-006  5.299690632045892E-006
  2.381404393167792E-005  5.299690632045892E-006
  3.658543472061740E-005  5.299690632045892E-006
  4.248259371684751E-005  5.299690632045892E-006
  4.359085048536562E-005  5.299690632045892E-006
  4.874707059982029E-005  5.299690632045892E-006
  5.708013269506834E-005  5.299690632045892E-006
  5.788735661050345E-005  5.299690632045892E-006
  6.651425385341392E-005  5.299690632045892E-006
  6.773418563557593E-005  5.299690632045892E-006
  9.767679882515608E-005  5.299690632045892E-006
  1.131677999680476E-004  5.299690632045892E-006
  1.168002539418196E-004  5.299690632045892E-006
  1.171656685881590E-004  5.299690632045892E-006
  1.280199575994153E-004  5.299690632045892E-006
  1.939404905623290E-004  5.299690632045892E-006
  2.033358267277912E-004  5.299690632045892E-006
  2.539434143430956E-004  5.299690632045892E-006
  2.748277367596571E-004  5.299690632045892E-006
  2.756155576943136E-004  5.299690632045892E-006
  3.516305787741965E-004  5.299690632045892E-006
  3.741459990443753E-004  5.299690632045892E-006
  4.205356859412322E-004  5.299690632045892E-006
  5.134610879377364E-004  5.299690632045892E-006
  5.649291016235528E-004  5.299690632045892E-006
  5.800278103080060E-004  5.299690632045892E-006
  5.929455675669252E-004  5.299690632045892E-006
  5.929661859712024E-004  5.299690632045892E-006
  5.929773688909386E-004  5.299690632045892E-006
  5.937359839885277E-004  5.299690632045892E-006
  6.030316056991862E-004  5.299690632045892E-006
  6.033988107170704E-004  5.299690632045892E-006
  6.194636996106154E-004  5.299690632045892E-006
  6.299378336778546E-004  5.299690632045892E-006
  6.591590783832559E-004  5.299690632045892E-006
  6.610149321686526E-004  5.299690632045892E-006
  9.045450239668033E-004  5.299690632045892E-006
  1.015913634468031E-003  5.299690632045892E-006
  1.019366041408037E-003  5.299690632045892E-006
  1.080169186078217E-003  5.299690632045892E-006
  1.082582839885961E-003  5.299690632045892E-006
  1.107855880069819E-003  5.299690632045892E-006
  1.108995984206144E-003  5.299690632045892E-006
  1.146091823134262E-003  5.299690632045892E-006
  1.146624988666263E-003  5.299690632045892E-006
  1.152801291456797E-003  5.299690632045892E-006
  1.152804188852759E-003  5.299690632045892E-006
  1.396330625557119E-003  5.299690632045892E-006
  1.412349409205071E-003  5.299690632045892E-006
  1.601838164669077E-003  5.299690632045892E-006
  1.986651068571374E-003  5.299690632045892E-006
  2.302338727620891E-003  5.299690632045892E-006
  2.316280130716120E-003  5.299690632045892E-006
  2.946860095761483E-003  5.299690632045892E-006
  3.169760998517050E-003  5.299690632045892E-006
  3.624786849505290E-003  5.299690632045892E-006
  3.637455982011660E-003  5.299690632045892E-006
  3.973641740592402E-003  5.299690632045892E-006
  3.982695205561848E-003  5.299690632045892E-006
 cut=1d-8, nber non-redundant internal coords=          60
 Check on Eigenvals of non-red overlap matrix:
  0.00000530  0.00000766  0.00002381  0.00003659  0.00004248  0.00004359  0.00004875  0.00005708
  0.00005789  0.00006651  0.00006773  0.00009768  0.00011317  0.00011680  0.00011717  0.00012802
  0.00019394  0.00020334  0.00025394  0.00027483  0.00027562  0.00035163  0.00037415  0.00042054
  0.00051346  0.00056493  0.00058003  0.00059295  0.00059297  0.00059298  0.00059374  0.00060303
  0.00060340  0.00061946  0.00062994  0.00065916  0.00066101  0.00090455  0.00101591  0.00101937
  0.00108017  0.00108258  0.00110786  0.00110900  0.00114609  0.00114662  0.00115280  0.00115280
  0.00139633  0.00141235  0.00160184  0.00198665  0.00230234  0.00231628  0.00294686  0.00316976
  0.00362479  0.00363746  0.00397364  0.00398270
 Checking for correct frequencies
 recalc frequencies=
  -399.8   -0.0   -0.0   -0.0    0.0    0.0    0.0   79.7   80.3  186.4
   335.1  372.0  390.3  413.2  431.8  433.4  590.8  606.3  606.6  610.3
   649.1  742.6  760.5  823.4  827.8  855.4  913.4  959.5  968.4  973.0
   990.5 1024.5 1025.6 1030.9 1038.4 1080.6 1095.1 1100.0 1101.4 1107.4
  1150.1 1151.8 1230.2 1253.5 1336.5 1360.7 1379.4 1382.1 1439.6 1463.5
  1470.2 1533.6 1545.6 1547.6 1592.3 1645.7 2495.0 2566.6 2796.7 2831.0
  2918.1 3014.0 3024.6 3026.0 3031.3 3044.8
 recalc symmetries=
     B2g    B2u    B3g    B3u    B2g    B1g    B1u    B3u    Au     B2u
     Ag     B2g    B1g    Au     B3g    B3u    B3g    B2u    B1u    B3u
     B2g    Ag     B3u    B1g    B2g    Au     B2g    B1u    Ag     B3u
     B1u    B1u    B3u    B2g    Ag     B1g    Au     B3g    B1u    B2u
     B2u    B3g    Ag     B2u    B3g    Ag     B2u    B3g    B2u    B3g
     B1u    Ag     B3g    B2u    B1u    Ag     B2u    B1u    Ag     B3g
     B1u    Ag     B1u    B2u    B3g    Ag 
 recalc freqs check OK
 Zero-point lengths:
 12.3993 10.0000 10.0000 10.0000 10.0000 10.0000 10.0000 27.7771 27.6708 18.1594
 13.5430 12.8531 12.5494 12.1966 11.9302 11.9085 10.1993 10.0682 10.0660 10.0352
  9.7303  9.0972  8.9898  8.6396  8.6168  8.4766  8.2027  8.0032  7.9666  7.9477
  7.8772  7.7452  7.7412  7.7213  7.6934  7.5417  7.4914  7.4749  7.4702  7.4498
  7.3101  7.3047  7.0683  7.0021  6.7814  6.7207  6.6749  6.6685  6.5339  6.4805
  6.4656  6.3305  6.3060  6.3019  6.2128  6.1110  4.9632  4.8934  4.6879  4.6594
  4.5893  4.5157  4.5078  4.5067  4.5028  4.4928
 highest evec of mol 2
  0.0000  0.0302 -0.0193
  0.0000  0.1228  0.0718
  0.0000  0.0000  0.0035
  0.0000 -0.1228  0.0718
  0.0000 -0.0302 -0.0193
  0.0000  0.0000 -0.0057
  0.0000  0.0000  0.0057
  0.0000  0.0302  0.0193
  0.0000  0.1228 -0.0718
  0.0000  0.0000 -0.0035
  0.0000 -0.1228 -0.0718
  0.0000 -0.0302  0.0193
  0.0000 -0.1016  0.0543
  0.0000 -0.4019 -0.2316
  0.0000  0.0000  0.0035
  0.0000  0.4019 -0.2316
  0.0000  0.1016  0.0543
  0.0000 -0.1016 -0.0543
  0.0000 -0.4019  0.2316
  0.0000  0.0000 -0.0035
  0.0000  0.4019  0.2316
  0.0000  0.1016 -0.0543
 Enter nber and list of atoms to keep of mol #2
 keep list:          22           1           2           3           4
           5           6           7           8           9          10
          11          12          13          14          15          16
          17          18          19          20          21          22
 reordering atoms
           1   1.45958700000000     
           2   2.83432500000000     
           3   3.53387400000000     
           4   2.83432500000000     
           5   1.45958700000000     
           6  0.719883000000000     
           7 -0.719883000000000     
           8  -1.45958700000000     
           9  -2.83432500000000     
          10  -3.53387400000000     
          11  -2.83432500000000     
          12  -1.45958700000000     
          13  0.952692000000000     
          14   3.37351200000000     
          15   4.62801000000000     
          16   3.37351200000000     
          17  0.952692000000000     
          18 -0.952692000000000     
          19  -3.37351200000000     
          20  -4.62801000000000     
          21  -3.37351200000000     
          22 -0.952692000000000     
           1           1
           2           2
           3           3
           4           4
           5           5
           6           6
           7           7
           8           8
           9           9
          10          10
          11          11
          12          12
          13          13
          14          14
          15          15
          16          16
          17          17
          18          18
          19          19
          20          20
          21          21
          22          22
 initial cartes coords mol 1
   6   0.00000  -1.19698   1.48355
   6   0.00000  -1.19877   2.87417
   6   0.00000   0.00000   3.58183
   6   0.00000   1.19877   2.87417
   6   0.00000   1.19698   1.48355
   6   0.00000   0.00000   0.74698
   6   0.00000   0.00000  -0.74698
   6   0.00000  -1.19698  -1.48355
   6   0.00000  -1.19877  -2.87417
   6   0.00000   0.00000  -3.58183
   6   0.00000   1.19877  -2.87417
   6   0.00000   1.19698  -1.48355
   1   0.00000  -2.15163   0.97504
   1   0.00000  -2.14420   3.40527
   1   0.00000   0.00000   4.66548
   1   0.00000   2.14420   3.40527
   1   0.00000   2.15163   0.97504
   1   0.00000  -2.15163  -0.97504
   1   0.00000  -2.14420  -3.40527
   1   0.00000   0.00000  -4.66548
   1   0.00000   2.14420  -3.40527
   1   0.00000   2.15163  -0.97504
 initial cartes coords mol 2
   6   0.00000  -1.22595   1.45959
   6   0.00000  -1.21323   2.83433
   6   0.00000   0.00000   3.53387
   6   0.00000   1.21323   2.83433
   6   0.00000   1.22595   1.45959
   6   0.00000   0.00000   0.71988
   6   0.00000   0.00000  -0.71988
   6   0.00000  -1.22595  -1.45959
   6   0.00000  -1.21323  -2.83433
   6   0.00000   0.00000  -3.53387
   6   0.00000   1.21323  -2.83433
   6   0.00000   1.22595  -1.45959
   1   0.00000  -2.20610   0.95269
   1   0.00000  -2.16332   3.37351
   1   0.00000   0.00000   4.62801
   1   0.00000   2.16332   3.37351
   1   0.00000   2.20610   0.95269
   1   0.00000  -2.20610  -0.95269
   1   0.00000  -2.16332  -3.37351
   1   0.00000   0.00000  -4.62801
   1   0.00000   2.16332  -3.37351
   1   0.00000   2.20610  -0.95269
 loop 1 0
 mod cartes coords mol 2
   6   0.00000  -1.22595   1.45959
   6   0.00000  -1.21323   2.83433
   6   0.00000   0.00000   3.53387
   6   0.00000   1.21323   2.83433
   6   0.00000   1.22595   1.45959
   6   0.00000   0.00000   0.71988
   6   0.00000   0.00000  -0.71988
   6   0.00000  -1.22595  -1.45959
   6   0.00000  -1.21323  -2.83433
   6   0.00000   0.00000  -3.53387
   6   0.00000   1.21323  -2.83433
   6   0.00000   1.22595  -1.45959
   1   0.00000  -2.20610   0.95269
   1   0.00000  -2.16332   3.37351
   1   0.00000   0.00000   4.62801
   1   0.00000   2.16332   3.37351
   1   0.00000   2.20610   0.95269
   1   0.00000  -2.20610  -0.95269
   1   0.00000  -2.16332  -3.37351
   1   0.00000   0.00000  -4.62801
   1   0.00000   2.16332  -3.37351
   1   0.00000   2.20610  -0.95269
 read in order, maxerr=  0.06 for atom  18
 final axis swaps:           1           1           1
 final xyz swap pattern=           1
 reorder list:
   1   2   3   4   5   6   7   8   9  10  11  12  13  14  15  16  17  18  19  20
  21  22
 axis signs=           1           1           1
  6     0.000000 -1.225953  1.459587     0.000000 -1.196984  1.483552
  6     0.000000 -1.213227  2.834325     0.000000 -1.198774  2.874166
  6     0.000000  0.000000  3.533874     0.000000  0.000000  3.581826
  6     0.000000  1.213227  2.834325     0.000000  1.198774  2.874166
  6     0.000000  1.225953  1.459587     0.000000  1.196984  1.483552
  6     0.000000  0.000000  0.719883     0.000000  0.000000  0.746979
  6     0.000000  0.000000 -0.719883     0.000000  0.000000 -0.746979
  6     0.000000 -1.225953 -1.459587     0.000000 -1.196984 -1.483552
  6     0.000000 -1.213227 -2.834325     0.000000 -1.198774 -2.874166
  6     0.000000  0.000000 -3.533874     0.000000  0.000000 -3.581826
  6     0.000000  1.213227 -2.834325     0.000000  1.198774 -2.874166
  6     0.000000  1.225953 -1.459587     0.000000  1.196984 -1.483552
  1     0.000000 -2.206098  0.952692     0.000000 -2.151634  0.975039
  1     0.000000 -2.163323  3.373512     0.000000 -2.144203  3.405267
  1     0.000000  0.000000  4.628010     0.000000  0.000000  4.665481
  1     0.000000  2.163323  3.373512     0.000000  2.144203  3.405267
  1     0.000000  2.206098  0.952692     0.000000  2.151634  0.975039
  1     0.000000 -2.206098 -0.952692     0.000000 -2.151634 -0.975039
  1     0.000000 -2.163323 -3.373512     0.000000 -2.144203 -3.405267
  1     0.000000  0.000000 -4.628010     0.000000  0.000000 -4.665481
  1     0.000000  2.163323 -3.373512     0.000000  2.144203 -3.405267
  1     0.000000  2.206098 -0.952692     0.000000  2.151634 -0.975039
 generating redundant internal coords
         300        3600          22
 Adding extra bonds for z output only
           6           6           6           6           6           6
           6           6           6           6           6           6
           1           1           1           1           1           1
           1           1           1           1
 search for int coords
   1 str   2   1   1.375
   2 str   3   2   1.400
   3 str   4   3   1.400
   4 str   5   4   1.375
   5 str   6   1   1.432
   6 str   6   5   1.432
   7 str   7   6   1.440
   8 str   8   7   1.432
   9 str   9   8   1.375
  10 str  10   9   1.400
  11 str  11  10   1.400
  12 str  12   7   1.432
  13 str  12  11   1.375
  14 str  13   1   1.103
  15 str  14   2   1.092
  16 str  15   3   1.094
  17 str  16   4   1.092
  18 str  17   5   1.103
  19 str  18   8   1.103
  20 str  19   9   1.092
  21 str  20  10   1.094
  22 str  21  11   1.092
  23 str  22  12   1.103
 nber stretches=          23
  24 ben   1   2   3
  25 prop tor   1   2   3   4
  26 prop tor   1   2   3  15
  27 ben   1   2  14
  28 ben   1   6   5
  29 ben   1   6   7
  30 prop tor   1   6   7   8
  31 prop tor   1   6   7  12
  32 ben   2   1   6
  33 prop tor   2   1   6   5
  34 prop tor   2   1   6   7
  35 ben   2   1  13
  36 ben   2   3   4
  37 prop tor   2   3   4   5
  38 prop tor   2   3   4  16
  39 ben   2   3  15
  40 ben   3   2  14
  41 ben   3   4   5
  42 prop tor   3   4   5   6
  43 prop tor   3   4   5  17
  44 ben   3   4  16
  45 ben   4   3  15
  46 ben   4   5   6
  47 prop tor   4   5   6   1
  48 prop tor   4   5   6   7
  49 ben   4   5  17
  50 ben   5   4  16
  51 ben   5   6   7
  52 prop tor   5   6   7   8
  53 prop tor   5   6   7  12
  54 prop tor   6   1   2   3
  55 prop tor   6   1   2  14
  56 ben   6   1  13
  57 ben   6   5  17
  58 ben   6   7   8
  59 prop tor   6   7   8   9
  60 prop tor   6   7   8  18
  61 ben   6   7  12
  62 prop tor   6   7  12  11
  63 prop tor   6   7  12  22
  64 ben   7   8   9
  65 prop tor   7   8   9  10
  66 prop tor   7   8   9  19
  67 ben   7   8  18
  68 ben   7  12  11
  69 ben   7  12  22
  70 ben   8   7  12
  71 prop tor   8   7  12  11
  72 prop tor   8   7  12  22
  73 ben   8   9  10
  74 prop tor   8   9  10  11
  75 prop tor   8   9  10  20
  76 ben   8   9  19
  77 ben   9   8  18
  78 ben   9  10  11
  79 prop tor   9  10  11  12
  80 prop tor   9  10  11  21
  81 ben   9  10  20
  82 ben  10   9  19
  83 ben  10  11  12
  84 prop tor  10  11  12   7
  85 prop tor  10  11  12  22
  86 ben  10  11  21
  87 ben  11  10  20
  88 ben  11  12  22
  89 prop tor  12   7   8   9
  90 prop tor  12   7   8  18
  91 ben  12  11  21
  92 prop tor  13   1   2   3
  93 prop tor  13   1   2  14
  94 prop tor  13   1   6   5
  95 prop tor  13   1   6   7
  96 prop tor  14   2   3   4
  97 prop tor  14   2   3  15
  98 prop tor  15   3   4   5
  99 prop tor  15   3   4  16
 100 prop tor  16   4   5   6
 101 prop tor  16   4   5  17
 102 prop tor  17   5   6   1
 103 prop tor  17   5   6   7
 104 prop tor  18   8   9  10
 105 prop tor  18   8   9  19
 106 prop tor  19   9  10  11
 107 prop tor  19   9  10  20
 108 prop tor  20  10  11  12
 109 prop tor  20  10  11  21
 110 prop tor  21  11  12   7
 111 prop tor  21  11  12  22
 nber bend=              36
 nber lin bend=           0
 nber prop tor=          52
 nber impr tor=           0
 nber tot redund int=         111
 generating redundant internal coords
         300        3600          22
 search for int coords
   1 str   2   1   1.391
   2 str   3   2   1.392
   3 str   4   3   1.392
   4 str   5   4   1.391
   5 str   6   1   1.405
   6 str   6   5   1.405
   7 str   7   6   1.494
   8 str   8   7   1.405
   9 str   9   8   1.391
  10 str  10   9   1.392
  11 str  11  10   1.392
  12 str  12   7   1.405
  13 str  12  11   1.391
  14 str  13   1   1.082
  15 str  14   2   1.084
  16 str  15   3   1.084
  17 str  16   4   1.084
  18 str  17   5   1.082
  19 str  18   8   1.082
  20 str  19   9   1.084
  21 str  20  10   1.084
  22 str  21  11   1.084
  23 str  22  12   1.082
 nber stretches=          23
  24 ben   1   2   3
  25 prop tor   1   2   3   4
  26 prop tor   1   2   3  15
  27 ben   1   2  14
  28 ben   1   6   5
  29 ben   1   6   7
  30 prop tor   1   6   7   8
  31 prop tor   1   6   7  12
  32 ben   2   1   6
  33 prop tor   2   1   6   5
  34 prop tor   2   1   6   7
  35 ben   2   1  13
  36 ben   2   3   4
  37 prop tor   2   3   4   5
  38 prop tor   2   3   4  16
  39 ben   2   3  15
  40 ben   3   2  14
  41 ben   3   4   5
  42 prop tor   3   4   5   6
  43 prop tor   3   4   5  17
  44 ben   3   4  16
  45 ben   4   3  15
  46 ben   4   5   6
  47 prop tor   4   5   6   1
  48 prop tor   4   5   6   7
  49 ben   4   5  17
  50 ben   5   4  16
  51 ben   5   6   7
  52 prop tor   5   6   7   8
  53 prop tor   5   6   7  12
  54 prop tor   6   1   2   3
  55 prop tor   6   1   2  14
  56 ben   6   1  13
  57 ben   6   5  17
  58 ben   6   7   8
  59 prop tor   6   7   8   9
  60 prop tor   6   7   8  18
  61 ben   6   7  12
  62 prop tor   6   7  12  11
  63 prop tor   6   7  12  22
  64 ben   7   8   9
  65 prop tor   7   8   9  10
  66 prop tor   7   8   9  19
  67 ben   7   8  18
  68 ben   7  12  11
  69 ben   7  12  22
  70 ben   8   7  12
  71 prop tor   8   7  12  11
  72 prop tor   8   7  12  22
  73 ben   8   9  10
  74 prop tor   8   9  10  11
  75 prop tor   8   9  10  20
  76 ben   8   9  19
  77 ben   9   8  18
  78 ben   9  10  11
  79 prop tor   9  10  11  12
  80 prop tor   9  10  11  21
  81 ben   9  10  20
  82 ben  10   9  19
  83 ben  10  11  12
  84 prop tor  10  11  12   7
  85 prop tor  10  11  12  22
  86 ben  10  11  21
  87 ben  11  10  20
  88 ben  11  12  22
  89 prop tor  12   7   8   9
  90 prop tor  12   7   8  18
  91 ben  12  11  21
  92 prop tor  13   1   2   3
  93 prop tor  13   1   2  14
  94 prop tor  13   1   6   5
  95 prop tor  13   1   6   7
  96 prop tor  14   2   3   4
  97 prop tor  14   2   3  15
  98 prop tor  15   3   4   5
  99 prop tor  15   3   4  16
 100 prop tor  16   4   5   6
 101 prop tor  16   4   5  17
 102 prop tor  17   5   6   1
 103 prop tor  17   5   6   7
 104 prop tor  18   8   9  10
 105 prop tor  18   8   9  19
 106 prop tor  19   9  10  11
 107 prop tor  19   9  10  20
 108 prop tor  20  10  11  12
 109 prop tor  20  10  11  21
 110 prop tor  21  11  12   7
 111 prop tor  21  11  12  22
 nber bend=              36
 nber lin bend=           0
 nber prop tor=          52
 nber impr tor=           0
 nber tot redund int=         111
 Eigenvalues of G in red int coords
    Gval -0.00000000 -0.00000000 -0.00000000 -0.00000000 -0.00000000 -0.00000000 -0.00000000 -0.00000000
    Gval -0.00000000 -0.00000000 -0.00000000 -0.00000000 -0.00000000 -0.00000000 -0.00000000 -0.00000000
    Gval -0.00000000 -0.00000000 -0.00000000 -0.00000000 -0.00000000 -0.00000000 -0.00000000 -0.00000000
    Gval  0.00000000  0.00000000  0.00000000  0.00000000  0.00000000  0.00000000  0.00000000  0.00000000
    Gval  0.00000000  0.00000000  0.00000000  0.00000000  0.00000000  0.00000000  0.00000000  0.00000000
    Gval  0.00000000  0.00000000  0.00000000  0.00000000  0.00000000  0.00000000  0.00000000  0.00000000
    Gval  0.00000000  0.00000000  0.00000000  0.00000532  0.00000768  0.00002373  0.00003668  0.00004250
    Gval  0.00004496  0.00004919  0.00005754  0.00005758  0.00006679  0.00006709  0.00009792  0.00011445
    Gval  0.00011700  0.00011718  0.00012817  0.00019226  0.00020048  0.00025793  0.00027687  0.00027741
    Gval  0.00035457  0.00037854  0.00041377  0.00052155  0.00057640  0.00058168  0.00059307  0.00059308
    Gval  0.00059312  0.00059389  0.00060385  0.00060428  0.00062000  0.00063005  0.00066002  0.00066198
    Gval  0.00088772  0.00104026  0.00104311  0.00111018  0.00111208  0.00113844  0.00114003  0.00116956
    Gval  0.00117058  0.00117332  0.00117333  0.00141602  0.00143644  0.00163995  0.00201632  0.00234534
    Gval  0.00235968  0.00302916  0.00323554  0.00370024  0.00371371  0.00406380  0.00407187
  5.322266402832551E-006  5.322266402832551E-006
  7.683763339459627E-006  5.322266402832551E-006
  2.372792668672354E-005  5.322266402832551E-006
  3.668414215374891E-005  5.322266402832551E-006
  4.250296716327768E-005  5.322266402832551E-006
  4.495726142759069E-005  5.322266402832551E-006
  4.919015804123424E-005  5.322266402832551E-006
  5.754090860579417E-005  5.322266402832551E-006
  5.757954554855313E-005  5.322266402832551E-006
  6.679456130855756E-005  5.322266402832551E-006
  6.709387625738571E-005  5.322266402832551E-006
  9.792191414165662E-005  5.322266402832551E-006
  1.144528277576116E-004  5.322266402832551E-006
  1.170004488183275E-004  5.322266402832551E-006
  1.171798537675073E-004  5.322266402832551E-006
  1.281684700471759E-004  5.322266402832551E-006
  1.922621541397580E-004  5.322266402832551E-006
  2.004780243318978E-004  5.322266402832551E-006
  2.579265111821138E-004  5.322266402832551E-006
  2.768668602616753E-004  5.322266402832551E-006
  2.774065254664240E-004  5.322266402832551E-006
  3.545684583522049E-004  5.322266402832551E-006
  3.785429070860316E-004  5.322266402832551E-006
  4.137730492448435E-004  5.322266402832551E-006
  5.215464423358882E-004  5.322266402832551E-006
  5.764001300541822E-004  5.322266402832551E-006
  5.816769274114355E-004  5.322266402832551E-006
  5.930724156458141E-004  5.322266402832551E-006
  5.930814178418265E-004  5.322266402832551E-006
  5.931189396939563E-004  5.322266402832551E-006
  5.938927867461781E-004  5.322266402832551E-006
  6.038532324682895E-004  5.322266402832551E-006
  6.042758443079490E-004  5.322266402832551E-006
  6.200016962736423E-004  5.322266402832551E-006
  6.300472015298337E-004  5.322266402832551E-006
  6.600217256213872E-004  5.322266402832551E-006
  6.619803119674984E-004  5.322266402832551E-006
  8.877239485617670E-004  5.322266402832551E-006
  1.040263813498708E-003  5.322266402832551E-006
  1.043107066275153E-003  5.322266402832551E-006
  1.110183663393455E-003  5.322266402832551E-006
  1.112084351935949E-003  5.322266402832551E-006
  1.138440487831875E-003  5.322266402832551E-006
  1.140031274481161E-003  5.322266402832551E-006
  1.169557093576042E-003  5.322266402832551E-006
  1.170579403646204E-003  5.322266402832551E-006
  1.173322142589803E-003  5.322266402832551E-006
  1.173328090879020E-003  5.322266402832551E-006
  1.416024291513456E-003  5.322266402832551E-006
  1.436439261051637E-003  5.322266402832551E-006
  1.639947704030103E-003  5.322266402832551E-006
  2.016321816519426E-003  5.322266402832551E-006
  2.345337334246751E-003  5.322266402832551E-006
  2.359684800580871E-003  5.322266402832551E-006
  3.029157874099304E-003  5.322266402832551E-006
  3.235544325883333E-003  5.322266402832551E-006
  3.700241317112754E-003  5.322266402832551E-006
  3.713712768582969E-003  5.322266402832551E-006
  4.063804481981751E-003  5.322266402832551E-006
  4.071874717061007E-003  5.322266402832551E-006
 cut=1d-8, nber non-redundant internal coords=          60
 Check on Eigenvals of non-red overlap matrix:
  0.00000532  0.00000768  0.00002373  0.00003668  0.00004250  0.00004496  0.00004919  0.00005754
  0.00005758  0.00006679  0.00006709  0.00009792  0.00011445  0.00011700  0.00011718  0.00012817
  0.00019226  0.00020048  0.00025793  0.00027687  0.00027741  0.00035457  0.00037854  0.00041377
  0.00052155  0.00057640  0.00058168  0.00059307  0.00059308  0.00059312  0.00059389  0.00060385
  0.00060428  0.00062000  0.00063005  0.00066002  0.00066198  0.00088772  0.00104026  0.00104311
  0.00111018  0.00111208  0.00113844  0.00114003  0.00116956  0.00117058  0.00117332  0.00117333
  0.00141602  0.00143644  0.00163995  0.00201632  0.00234534  0.00235968  0.00302916  0.00323554
  0.00370024  0.00371371  0.00406380  0.00407187
 generating redundant internal coords
         300        3600          22
 search for int coords
   1 str   2   1   1.375
   2 str   3   2   1.400
   3 str   4   3   1.400
   4 str   5   4   1.375
   5 str   6   1   1.432
   6 str   6   5   1.432
   7 str   7   6   1.440
   8 str   8   7   1.432
   9 str   9   8   1.375
  10 str  10   9   1.400
  11 str  11  10   1.400
  12 str  12   7   1.432
  13 str  12  11   1.375
  14 str  13   1   1.103
  15 str  14   2   1.092
  16 str  15   3   1.094
  17 str  16   4   1.092
  18 str  17   5   1.103
  19 str  18   8   1.103
  20 str  19   9   1.092
  21 str  20  10   1.094
  22 str  21  11   1.092
  23 str  22  12   1.103
 nber stretches=          23
  24 ben   1   2   3
  25 prop tor   1   2   3   4
  26 prop tor   1   2   3  15
  27 ben   1   2  14
  28 ben   1   6   5
  29 ben   1   6   7
  30 prop tor   1   6   7   8
  31 prop tor   1   6   7  12
  32 ben   2   1   6
  33 prop tor   2   1   6   5
  34 prop tor   2   1   6   7
  35 ben   2   1  13
  36 ben   2   3   4
  37 prop tor   2   3   4   5
  38 prop tor   2   3   4  16
  39 ben   2   3  15
  40 ben   3   2  14
  41 ben   3   4   5
  42 prop tor   3   4   5   6
  43 prop tor   3   4   5  17
  44 ben   3   4  16
  45 ben   4   3  15
  46 ben   4   5   6
  47 prop tor   4   5   6   1
  48 prop tor   4   5   6   7
  49 ben   4   5  17
  50 ben   5   4  16
  51 ben   5   6   7
  52 prop tor   5   6   7   8
  53 prop tor   5   6   7  12
  54 prop tor   6   1   2   3
  55 prop tor   6   1   2  14
  56 ben   6   1  13
  57 ben   6   5  17
  58 ben   6   7   8
  59 prop tor   6   7   8   9
  60 prop tor   6   7   8  18
  61 ben   6   7  12
  62 prop tor   6   7  12  11
  63 prop tor   6   7  12  22
  64 ben   7   8   9
  65 prop tor   7   8   9  10
  66 prop tor   7   8   9  19
  67 ben   7   8  18
  68 ben   7  12  11
  69 ben   7  12  22
  70 ben   8   7  12
  71 prop tor   8   7  12  11
  72 prop tor   8   7  12  22
  73 ben   8   9  10
  74 prop tor   8   9  10  11
  75 prop tor   8   9  10  20
  76 ben   8   9  19
  77 ben   9   8  18
  78 ben   9  10  11
  79 prop tor   9  10  11  12
  80 prop tor   9  10  11  21
  81 ben   9  10  20
  82 ben  10   9  19
  83 ben  10  11  12
  84 prop tor  10  11  12   7
  85 prop tor  10  11  12  22
  86 ben  10  11  21
  87 ben  11  10  20
  88 ben  11  12  22
  89 prop tor  12   7   8   9
  90 prop tor  12   7   8  18
  91 ben  12  11  21
  92 prop tor  13   1   2   3
  93 prop tor  13   1   2  14
  94 prop tor  13   1   6   5
  95 prop tor  13   1   6   7
  96 prop tor  14   2   3   4
  97 prop tor  14   2   3  15
  98 prop tor  15   3   4   5
  99 prop tor  15   3   4  16
 100 prop tor  16   4   5   6
 101 prop tor  16   4   5  17
 102 prop tor  17   5   6   1
 103 prop tor  17   5   6   7
 104 prop tor  18   8   9  10
 105 prop tor  18   8   9  19
 106 prop tor  19   9  10  11
 107 prop tor  19   9  10  20
 108 prop tor  20  10  11  12
 109 prop tor  20  10  11  21
 110 prop tor  21  11  12   7
 111 prop tor  21  11  12  22
 nber bend=              36
 nber lin bend=           0
 nber prop tor=          52
 nber impr tor=           0
 nber tot redund int=         111
 Eigenvalues of G in red int coords
    Gval -0.00000000 -0.00000000 -0.00000000 -0.00000000 -0.00000000 -0.00000000 -0.00000000 -0.00000000
    Gval -0.00000000 -0.00000000 -0.00000000 -0.00000000 -0.00000000 -0.00000000 -0.00000000 -0.00000000
    Gval -0.00000000 -0.00000000 -0.00000000 -0.00000000 -0.00000000 -0.00000000 -0.00000000  0.00000000
    Gval  0.00000000  0.00000000  0.00000000  0.00000000  0.00000000  0.00000000  0.00000000  0.00000000
    Gval  0.00000000  0.00000000  0.00000000  0.00000000  0.00000000  0.00000000  0.00000000  0.00000000
    Gval  0.00000000  0.00000000  0.00000000  0.00000000  0.00000000  0.00000000  0.00000000  0.00000000
    Gval  0.00000000  0.00000000  0.00000000  0.00000530  0.00000766  0.00002381  0.00003659  0.00004248
    Gval  0.00004359  0.00004875  0.00005708  0.00005789  0.00006651  0.00006773  0.00009768  0.00011317
    Gval  0.00011680  0.00011717  0.00012802  0.00019394  0.00020334  0.00025394  0.00027483  0.00027562
    Gval  0.00035163  0.00037415  0.00042054  0.00051346  0.00056493  0.00058003  0.00059295  0.00059297
    Gval  0.00059298  0.00059374  0.00060303  0.00060340  0.00061946  0.00062994  0.00065916  0.00066101
    Gval  0.00090455  0.00101591  0.00101937  0.00108017  0.00108258  0.00110786  0.00110900  0.00114609
    Gval  0.00114662  0.00115280  0.00115280  0.00139633  0.00141235  0.00160184  0.00198665  0.00230234
    Gval  0.00231628  0.00294686  0.00316976  0.00362479  0.00363746  0.00397364  0.00398270
  5.299690632045936E-006  5.299690632045936E-006
  7.663895112842596E-006  5.299690632045936E-006
  2.381404393167798E-005  5.299690632045936E-006
  3.658543472061773E-005  5.299690632045936E-006
  4.248259371684768E-005  5.299690632045936E-006
  4.359085048536551E-005  5.299690632045936E-006
  4.874707059982025E-005  5.299690632045936E-006
  5.708013269506827E-005  5.299690632045936E-006
  5.788735661050349E-005  5.299690632045936E-006
  6.651425385341395E-005  5.299690632045936E-006
  6.773418563557580E-005  5.299690632045936E-006
  9.767679882515593E-005  5.299690632045936E-006
  1.131677999680476E-004  5.299690632045936E-006
  1.168002539418195E-004  5.299690632045936E-006
  1.171656685881591E-004  5.299690632045936E-006
  1.280199575994150E-004  5.299690632045936E-006
  1.939404905623292E-004  5.299690632045936E-006
  2.033358267277911E-004  5.299690632045936E-006
  2.539434143430952E-004  5.299690632045936E-006
  2.748277367596579E-004  5.299690632045936E-006
  2.756155576943138E-004  5.299690632045936E-006
  3.516305787741962E-004  5.299690632045936E-006
  3.741459990443753E-004  5.299690632045936E-006
  4.205356859412328E-004  5.299690632045936E-006
  5.134610879377374E-004  5.299690632045936E-006
  5.649291016235534E-004  5.299690632045936E-006
  5.800278103080052E-004  5.299690632045936E-006
  5.929455675669248E-004  5.299690632045936E-006
  5.929661859712022E-004  5.299690632045936E-006
  5.929773688909383E-004  5.299690632045936E-006
  5.937359839885278E-004  5.299690632045936E-006
  6.030316056991863E-004  5.299690632045936E-006
  6.033988107170705E-004  5.299690632045936E-006
  6.194636996106154E-004  5.299690632045936E-006
  6.299378336778551E-004  5.299690632045936E-006
  6.591590783832556E-004  5.299690632045936E-006
  6.610149321686522E-004  5.299690632045936E-006
  9.045450239668026E-004  5.299690632045936E-006
  1.015913634468032E-003  5.299690632045936E-006
  1.019366041408038E-003  5.299690632045936E-006
  1.080169186078217E-003  5.299690632045936E-006
  1.082582839885961E-003  5.299690632045936E-006
  1.107855880069819E-003  5.299690632045936E-006
  1.108995984206144E-003  5.299690632045936E-006
  1.146091823134262E-003  5.299690632045936E-006
  1.146624988666263E-003  5.299690632045936E-006
  1.152801291456796E-003  5.299690632045936E-006
  1.152804188852759E-003  5.299690632045936E-006
  1.396330625557118E-003  5.299690632045936E-006
  1.412349409205071E-003  5.299690632045936E-006
  1.601838164669077E-003  5.299690632045936E-006
  1.986651068571372E-003  5.299690632045936E-006
  2.302338727620894E-003  5.299690632045936E-006
  2.316280130716121E-003  5.299690632045936E-006
  2.946860095761481E-003  5.299690632045936E-006
  3.169760998517047E-003  5.299690632045936E-006
  3.624786849505289E-003  5.299690632045936E-006
  3.637455982011659E-003  5.299690632045936E-006
  3.973641740592397E-003  5.299690632045936E-006
  3.982695205561843E-003  5.299690632045936E-006
 cut=1d-8, nber non-redundant internal coords=          60
 Check on Eigenvals of non-red overlap matrix:
  0.00000530  0.00000766  0.00002381  0.00003659  0.00004248  0.00004359  0.00004875  0.00005708
  0.00005789  0.00006651  0.00006773  0.00009768  0.00011317  0.00011680  0.00011717  0.00012802
  0.00019394  0.00020334  0.00025394  0.00027483  0.00027562  0.00035163  0.00037415  0.00042054
  0.00051346  0.00056493  0.00058003  0.00059295  0.00059297  0.00059298  0.00059374  0.00060303
  0.00060340  0.00061946  0.00062994  0.00065916  0.00066101  0.00090455  0.00101591  0.00101937
  0.00108017  0.00108258  0.00110786  0.00110900  0.00114609  0.00114662  0.00115280  0.00115280
  0.00139633  0.00141235  0.00160184  0.00198665  0.00230234  0.00231628  0.00294686  0.00316976
  0.00362479  0.00363746  0.00397364  0.00398270
 d1=
   0.0  17.0  -0.0   0.0  -0.0  -0.0  10.2   0.0  -0.0   4.9  -0.0   0.0   0.0   5.1   0.0  -0.0   0.0   0.0  -0.0   0.0
  -0.3   0.0  -1.0   0.0   0.0   0.0   0.0  -0.0   1.3   0.0  -0.0  -0.0   1.0   0.0   0.0   0.0  -0.4  -0.0   0.0  -0.0
  -0.0  -1.0   0.0  -0.0   0.0   0.1  -0.0  -0.0  -0.0  -0.0  -0.0   0.0  -0.0   0.0  -0.0  -0.0   0.0   0.0   0.0   0.0
 d2=
  -0.0  17.3   0.0   0.0  -0.0  -0.0  10.2   0.0   0.0  -4.9   0.0   0.0  -0.0  -0.0  -5.1  -0.0   0.0   0.0   0.0  -0.3
  -0.0   0.0  -1.0  -0.0   0.0   0.0   0.0   0.0  -0.0  -1.3  -0.0   0.0  -1.0  -0.0   0.0  -0.0  -0.4   0.0  -0.0  -0.0
   0.0   1.0   0.0  -0.0  -0.0   0.1   0.0  -0.0  -0.0   0.0  -0.0  -0.0  -0.0   0.0  -0.0  -0.0  -0.0  -0.0   0.0  -0.0
 curvilinear- renormalizn of Dush matrix done
  mol 1 sym            1  -> mol 2 sym            1
  mol 1 sym            2  -> mol 2 sym            2
  mol 1 sym            3  -> mol 2 sym            3
  mol 1 sym            4  -> mol 2 sym            4
  mol 1 sym            5  -> mol 2 sym            5
  mol 1 sym            6  -> mol 2 sym            6
  mol 1 sym            7  -> mol 2 sym            7
  mol 1 sym            8  -> mol 2 sym            8

 Dushinsky matrix, ncs 2 in terms of ncs 1

   mode   freq    coeff     %      %tot     of    at

   1 B2g  -400.  0.7953    63.2    99.5  10 B2g   224.
                 0.5322    28.3          16 B2g   555.
   2 B2u    -0. -0.0000     0.0     0.0   9 B2u   190.
   3 B3g    -0. -0.0000     0.0     0.0  13 B3g   413.
   4 B3u    -0. -0.0000     0.0     0.0   8 B3u    95.
   5 B2g     0.  0.0000     0.0     0.0  16 B2g   555.
   6 B1g     0. -0.0000     0.0     0.0  14 B1g   415.
   7 B1u     0.  0.0000     0.0     0.0  56 B1u  1649.
   8 B3u    80.  0.9998   100.0    99.9   8 B3u    95.
   9 Au     80. -0.9963    99.3    96.6   1 Au    -84.
  10 B2u   186.  0.9994    99.9    99.6   9 B2u   190.
  11 Ag    335.  0.9987    99.7    97.6  11 Ag    336.
  12 B2g   372. -0.5964    35.6   102.8  10 B2g   224.
                 0.7631    58.2          16 B2g   555.
  13 B1g   390. -0.9992    99.8    98.3  14 B1g   415.
  14 Au    413.  0.9960    99.2    98.3  12 Au    393.
  15 B3g   432. -0.9993    99.9   104.0  13 B3g   413.
  16 B3u   433.  0.9815    96.3   100.0  15 B3u   448.
  17 B3g   591.  0.9974    99.5    99.9  18 B3g   627.
  18 B2u   606.  0.9985    99.7    99.8  19 B2u   645.
  19 B1u   607.  0.9970    99.4    98.3  17 B1u   624.
  20 B3u   610.  0.9588    91.9    97.9  21 B3u   714.
  21 B2g   649.  0.9706    94.2    98.5  20 B2g   680.
  22 Ag    743. -0.9920    98.4   100.2  23 Ag    753.
  23 B3u   760.  0.9737    94.8    97.6  22 B3u   748.
  24 B1g   823.  0.9969    99.4    98.2  26 B1g   851.
  25 B2g   828. -0.9739    94.8    98.7  24 B2g   802.
  26 Au    855.  0.9825    96.5    98.1  25 Au    821.
  27 B2g   913. -0.7296    53.2    98.3  28 B2g   920.
                 0.5715    32.7          31 B2g   995.
  28 B1u   960. -0.9119    83.2   100.3  33 B1u  1010.
                -0.3250    10.6          36 B1u  1064.
  29 Ag    968.  0.9900    98.0   100.4  34 Ag   1019.
  30 B3u   973.  0.9893    97.9    97.3  27 B3u   919.
  31 B1u   990. -0.9675    93.6    99.2  35 B1u  1024.
  32 B1u  1025.  0.3375    11.4    97.6  33 B1u  1010.
                -0.9022    81.4          36 B1u  1064.
  33 B3u  1026.  0.9871    97.4    98.3  32 B3u   999.
  34 B2g  1031.  0.6218    38.7    98.0  28 B2g   920.
                 0.7693    59.2          31 B2g   995.
  35 Ag   1038.  0.9886    97.7    99.1  37 Ag   1064.
  36 B1g  1081.  0.9975    99.5    98.0  30 B1g   977.
  37 Au   1095.  0.9823    96.5    98.0  29 Au    962.
  38 B3g  1100.  0.9909    98.2    98.0  38 B3g  1106.
  39 B1u  1101.  0.9524    90.7    98.3  42 B1u  1205.
  40 B2u  1107. -0.9851    97.0    98.5  39 B2u  1119.
  41 B2u  1150.  0.9666    93.4    98.8  41 B2u  1190.
  42 B3g  1152.  0.9866    97.3    98.6  40 B3g  1182.
  43 Ag   1230. -0.9872    97.5    97.7  43 Ag   1239.
  44 B2u  1253. -0.7628    58.2    98.5  45 B2u  1300.
                 0.4017    16.1          48 B2u  1379.
                 0.3380    11.4          49 B2u  1460.
  45 B3g  1336. -0.5134    26.4    99.2  46 B3g  1324.
                 0.7980    63.7          47 B3g  1356.
  46 Ag   1361. -0.9860    97.2    98.9  44 Ag   1283.
  47 B2u  1379.  0.5113    26.1    99.4  45 B2u  1300.
                 0.8156    66.5          48 B2u  1379.
  48 B3g  1382.  0.8075    65.2    99.2  46 B3g  1324.
                 0.5522    30.5          47 B3g  1356.
  49 B2u  1440. -0.3387    11.5    98.6  48 B2u  1379.
                 0.8267    68.3          49 B2u  1460.
                 0.3422    11.7          53 B2u  1614.
  50 B3g  1463. -0.7408    54.9    99.7  50 B3g  1494.
                -0.5944    35.3          54 B3g  1628.
  51 B1u  1470. -0.9844    96.9    98.6  51 B1u  1518.
  52 Ag   1534.  0.9904    98.1    98.7  52 Ag   1551.
  53 B3g  1546.  0.6160    38.0    99.0  50 B3g  1494.
                -0.7759    60.2          54 B3g  1628.
  54 B2u  1548.  0.4423    19.6    98.8  49 B2u  1460.
                -0.8728    76.2          53 B2u  1614.
  55 B1u  1592. -0.9830    96.6    99.3  56 B1u  1649.
  56 Ag   1646.  0.9957    99.1    99.1  55 Ag   1641.
  57 B2u  2495.  0.9922    98.5   100.0  65 B2u  3209.
  58 B1u  2567. -0.9880    97.6    99.9  64 B1u  3196.
  59 Ag   2797. -0.5052    25.5   100.0  62 Ag   3188.
                -0.8268    68.4          66 Ag   3211.
  60 B3g  2831. -0.9795    95.9   100.0  63 B3g  3193.
  61 B1u  2918. -0.3568    12.7   100.0  57 B1u  3161.
                 0.9317    86.8          61 B1u  3185.
  62 Ag   3014.  0.6085    37.0   100.0  58 Ag   3162.
                 0.7439    55.3          62 Ag   3188.
  63 B1u  3025. -0.9335    87.2   100.0  57 B1u  3161.
                -0.3581    12.8          61 B1u  3185.
  64 B2u  3026.  0.9982    99.6   100.0  60 B2u  3171.
  65 B3g  3031.  0.9802    96.1   100.0  59 B3g  3169.
  66 Ag   3045.  0.7551    57.0   100.0  58 Ag   3162.
                -0.4362    19.0          62 Ag   3188.
                 0.4893    23.9          66 Ag   3211.
 nber times 1st assigned=           1           0
 nber times 1st assigned=           2           0
 nber times 1st assigned=           3           0
 nber times 1st assigned=           4           0
 nber times 1st assigned=           5           0
 nber times 1st assigned=           6           0
 nber times 1st assigned=           7           0
 nber times 1st assigned=          10           0
 nber times 1st assigned=          11           0
 nber times 1st assigned=          12           0
 nber times 1st assigned=          15           0
 nber times 1st assigned=          17           0
 nber times 1st assigned=          18           0
 nber times 1st assigned=          19           0
 nber times 1st assigned=          20           0
 nber times 1st assigned=          21           0
 nber times 1st assigned=          22           0
 nber times 1st assigned=          23           0
 nber times 1st assigned=          24           0
 nber times 1st assigned=          25           0
 nber times 1st assigned=          26           0
 nber times 1st assigned=          27           0
 nber times 1st assigned=          28           0
 nber times 1st assigned=          29           0
 nber times 1st assigned=          30           0
 nber times 1st assigned=          31           0
 nber times 1st assigned=          32           0
 nber times 1st assigned=          33           0
 nber times 1st assigned=          34           0
 nber times 1st assigned=          35           0
 nber times 1st assigned=          36           0
 nber times 1st assigned=          37           0
 nber times 1st assigned=          38           0
 nber times 1st assigned=          39           0
 nber times 1st assigned=          40           0
 nber times 1st assigned=          41           0
 nber times 1st assigned=          42           0
 nber times 1st assigned=          43           0
 nber times 1st assigned=          44           0
 nber times 1st assigned=          45           0
 nber times 1st assigned=          46           0
 nber times 1st assigned=          47           0
 nber times 1st assigned=          48           0
 nber times 1st assigned=          49           0
 nber times 1st assigned=          50           0
 nber times 1st assigned=          51           0
 nber times 1st assigned=          52           0
 nber times 1st assigned=          53           0
 nber times 1st assigned=          54           0
 nber times 1st assigned=          55           0
 nber times 1st assigned=          57           0
 nber times 1st assigned=          58           0
 nber times 1st assigned=          59           0
 nber times 1st assigned=          60           0
 nber times 1st assigned=          61           0
 nber times 1st assigned=          62           0
 nber times 1st assigned=          63           0
 nber times 1st assigned=          64           0
 nber times 1st assigned=          65           0
 nber times 1st assigned=          66           0
 Dushinsky matrix written to .out file
 modes represented=   59.4525039752186     

 Dushinsky matrix, ncs 1 in terms of ncs 2

   mode   freq    coeff     %      %tot     of    at

   1 Au    -84. -0.9963    99.3    96.4   9 Au     80.
   8 B3u    95.  0.9998   100.0    99.9   8 B3u    80.
   9 B2u   190.  0.9994    99.9    99.8  10 B2u   186.
  10 B2g   224.  0.7953    63.2   101.3   1 B2g  -400.
                -0.5964    35.6          12 B2g   372.
  11 Ag    336.  0.9987    99.7    98.3  11 Ag    335.
  12 Au    393.  0.9960    99.2    98.5  14 Au    413.
  13 B3g   413. -0.9993    99.9   104.4  15 B3g   432.
  14 B1g   415. -0.9992    99.8    98.3  13 B1g   390.
  15 B3u   448.  0.9815    96.3    99.5  16 B3u   433.
  16 B2g   555.  0.5322    28.3   101.6   1 B2g  -400.
                 0.7631    58.2          12 B2g   372.
  17 B1u   624.  0.9970    99.4    98.2  19 B1u   607.
  18 B3g   627.  0.9974    99.5    99.7  17 B3g   591.
  19 B2u   645.  0.9985    99.7    99.7  18 B2u   606.
  20 B2g   680.  0.9706    94.2    98.7  21 B2g   649.
  21 B3u   714.  0.9588    91.9    98.7  20 B3u   610.
  22 B3u   748.  0.9737    94.8    97.6  23 B3u   760.
  23 Ag    753. -0.9920    98.4   100.0  22 Ag    743.
  24 B2g   802. -0.9739    94.8    98.4  25 B2g   828.
  25 Au    821.  0.9825    96.5    97.9  26 Au    855.
  26 B1g   851.  0.9969    99.4    98.1  24 B1g   823.
  27 B3u   919.  0.9893    97.9    97.2  30 B3u   973.
  28 B2g   920. -0.7296    53.2    97.7  27 B2g   913.
                 0.6218    38.7          34 B2g  1031.
  29 Au    962.  0.9823    96.5    98.3  37 Au   1095.
  30 B1g   977.  0.9975    99.5    98.1  36 B1g  1081.
  31 B2g   995.  0.5715    32.7    98.0  27 B2g   913.
                 0.7693    59.2          34 B2g  1031.
  32 B3u   999.  0.9871    97.4    98.0  33 B3u  1026.
  33 B1u  1010. -0.9119    83.2   100.4  28 B1u   960.
                 0.3375    11.4          32 B1u  1025.
  34 Ag   1019.  0.9900    98.0   100.1  29 Ag    968.
  35 B1u  1024. -0.9675    93.6    99.3  31 B1u   990.
  36 B1u  1064. -0.3250    10.6    98.2  28 B1u   960.
                -0.9022    81.4          32 B1u  1025.
  37 Ag   1064.  0.9886    97.7    99.2  35 Ag   1038.
  38 B3g  1106.  0.9909    98.2    98.0  38 B3g  1100.
  39 B2u  1119. -0.9851    97.0    98.3  40 B2u  1107.
  40 B3g  1182.  0.9866    97.3    98.6  42 B3g  1152.
  41 B2u  1190.  0.9666    93.4    98.6  41 B2u  1150.
  42 B1u  1205.  0.9524    90.7    97.8  39 B1u  1101.
  43 Ag   1239. -0.9872    97.5    97.9  43 Ag   1230.
  44 Ag   1283. -0.9860    97.2    98.7  46 Ag   1361.
  45 B2u  1300. -0.7628    58.2    99.2  44 B2u  1253.
                 0.5113    26.1          47 B2u  1379.
  46 B3g  1324. -0.5134    26.4   100.0  45 B3g  1336.
                 0.8075    65.2          48 B3g  1382.
  47 B3g  1356.  0.7980    63.7    97.7  45 B3g  1336.
                 0.5522    30.5          48 B3g  1382.
  48 B2u  1379.  0.4017    16.1    97.7  44 B2u  1253.
                 0.8156    66.5          47 B2u  1379.
                -0.3387    11.5          49 B2u  1440.
  49 B2u  1460.  0.3380    11.4    98.8  44 B2u  1253.
                 0.8267    68.3          49 B2u  1440.
                 0.4423    19.6          54 B2u  1548.
  50 B3g  1494. -0.7408    54.9    98.8  50 B3g  1463.
                 0.6160    38.0          53 B3g  1546.
  51 B1u  1518. -0.9844    96.9    98.7  51 B1u  1470.
  52 Ag   1551.  0.9904    98.1    98.7  52 Ag   1534.
  53 B2u  1614.  0.3422    11.7    99.8  49 B2u  1440.
                -0.8728    76.2          54 B2u  1548.
  54 B3g  1628. -0.5944    35.3   100.4  50 B3g  1463.
                -0.7759    60.2          53 B3g  1546.
  55 Ag   1641.  0.9957    99.1    98.8  56 Ag   1646.
  56 B1u  1649. -0.9830    96.6    98.9  55 B1u  1592.
  57 B1u  3161. -0.3568    12.7   100.0  61 B1u  2918.
                -0.9335    87.2          63 B1u  3025.
  58 Ag   3162.  0.6085    37.0   100.0  62 Ag   3014.
                 0.7551    57.0          66 Ag   3045.
  59 B3g  3169.  0.9802    96.1   100.0  65 B3g  3031.
  60 B2u  3171.  0.9982    99.6   100.0  64 B2u  3026.
  61 B1u  3185.  0.9317    86.8   100.0  61 B1u  2918.
                -0.3581    12.8          63 B1u  3025.
  62 Ag   3188. -0.5052    25.5   100.0  59 Ag   2797.
                 0.7439    55.3          62 Ag   3014.
                -0.4362    19.0          66 Ag   3045.
  63 B3g  3193. -0.9795    95.9   100.0  60 B3g  2831.
  64 B1u  3196. -0.9880    97.6   100.0  58 B1u  2567.
  65 B2u  3209.  0.9922    98.5   100.0  57 B2u  2495.
  66 Ag   3211. -0.8268    68.4   100.0  59 Ag   2797.
                 0.4893    23.9          66 Ag   3045.
 nber times 1st assigned=           1           0
 nber times 1st assigned=           2           0
 nber times 1st assigned=           3           0
 nber times 1st assigned=           4           0
 nber times 1st assigned=           5           0
 nber times 1st assigned=           6           0
 nber times 1st assigned=           7           0
 nber times 1st assigned=           8           0
 nber times 1st assigned=           9           0
 nber times 1st assigned=          10           0
 nber times 1st assigned=          11           0
 nber times 1st assigned=          12           0
 nber times 1st assigned=          13           0
 nber times 1st assigned=          14           0
 nber times 1st assigned=          15           0
 nber times 1st assigned=          16           0
 nber times 1st assigned=          17           0
 nber times 1st assigned=          18           0
 nber times 1st assigned=          19           0
 nber times 1st assigned=          20           0
 nber times 1st assigned=          21           0
 nber times 1st assigned=          22           0
 nber times 1st assigned=          23           0
 nber times 1st assigned=          24           0
 nber times 1st assigned=          25           0
 nber times 1st assigned=          26           0
 nber times 1st assigned=          27           0
 nber times 1st assigned=          28           0
 nber times 1st assigned=          29           0
 nber times 1st assigned=          30           0
 nber times 1st assigned=          31           0
 nber times 1st assigned=          32           0
 nber times 1st assigned=          33           0
 nber times 1st assigned=          34           0
 nber times 1st assigned=          35           0
 nber times 1st assigned=          36           0
 nber times 1st assigned=          37           0
 nber times 1st assigned=          38           0
 nber times 1st assigned=          39           0
 nber times 1st assigned=          40           0
 nber times 1st assigned=          41           0
 nber times 1st assigned=          42           0
 nber times 1st assigned=          43           0
 nber times 1st assigned=          44           0
 nber times 1st assigned=          45           0
 nber times 1st assigned=          46           0
 nber times 1st assigned=          47           0
 nber times 1st assigned=          48           0
 nber times 1st assigned=          49           0
 nber times 1st assigned=          50           0
 nber times 1st assigned=          51           0
 nber times 1st assigned=          52           0
 nber times 1st assigned=          53           0
 nber times 1st assigned=          54           0
 nber times 1st assigned=          55           0
 nber times 1st assigned=          56           0
 nber times 1st assigned=          57           0
 nber times 1st assigned=          58           0
 nber times 1st assigned=          59           0
 nber times 1st assigned=          60           0
 nber times 1st assigned=          61           0
 nber times 1st assigned=          62           0
 nber times 1st assigned=          63           0
 nber times 1st assigned=          64           0
 nber times 1st assigned=          65           0
 nber times 1st assigned=          66           0
 modes represented=   59.4525039752186     
 p1=
   -0.   -0.    0.   -0.    0.    0.   -0.    0.    0.   -0.  -19.   -0.   -0.    0.   -0.   -0.    0.    0.   -0.   -0.
   -0.    0.   -5.   -0.   -0.   -0.   -0.   -0.   -0.   -0.    0.    0.   -0.   -5.    0.    0.    1.   -0.    0.    0.
    0.   -0.    4.    3.    0.   -0.    0.    0.    0.    0.    0.   -1.   -0.    0.   -3.   -0.    0.    0.    0.   -0.
   -0.    0.   -0.   -0.   -0.   -2.
 p2=
   -0.    0.    0.    0.   -0.    0.    0.   -0.   -0.   -0.   19.    0.    0.    0.   -0.   -0.    0.    0.   -0.    0.
    0.   -5.   -0.    0.    0.    0.    0.   -0.    4.    0.    0.   -0.   -0.   -0.   -1.    0.    0.    0.    0.   -0.
    0.   -0.    4.    0.   -0.    3.   -0.   -0.    0.   -0.    0.    2.    0.   -0.    0.    4.   -0.    0.   -1.    0.
   -0.   -1.   -0.   -0.   -0.    1.

 Displacement: in terms of nc of 1 THEN of nc of 2

   1 Au  freq=   -84. Q= -0.000 lam=    -0.0 B2g freq=  -400. Q= -0.000 lam=    -0.0
   2 B2u freq=    -0. Q= -0.000 lam=    -0.0 B2u freq=    -0. Q= -0.000 lam=    -0.0
   3 B3g freq=    -0. Q=  0.000 lam=    -0.0 B3g freq=    -0. Q=  0.000 lam=    -0.0
   4 B1g freq=    -0. Q= -0.000 lam=    -0.0 B3u freq=    -0. Q= -0.000 lam=    -0.0
   5 B2g freq=    -0. Q=  0.000 lam=    -0.0 B2g freq=     0. Q=  0.000 lam=     0.0
   6 B3u freq=    -0. Q=  0.000 lam=    -0.0 B1g freq=     0. Q=  0.000 lam=     0.0
   7 B1u freq=     0. Q= -0.000 lam=     0.0 B1u freq=     0. Q= -0.000 lam=     0.0
   8 B3u freq=    95. Q=  0.000 lam=     0.0 B3u freq=    80. Q=  0.000 lam=     0.0
   9 B2u freq=   190. Q=  0.000 lam=     0.0 Au  freq=    80. Q=  0.000 lam=     0.0
  10 B2g freq=   224. Q= -0.000 lam=     0.0 B2u freq=   186. Q= -0.000 lam=     0.0
  11 Ag  freq=   336. Q= -1.393 lam=   325.5 Ag  freq=   335. Q= -1.426 lam=   340.7
  12 Au  freq=   393. Q= -0.000 lam=     0.0 B2g freq=   372. Q= -0.000 lam=     0.0
  13 B3g freq=   413. Q= -0.000 lam=     0.0 B1g freq=   390. Q= -0.000 lam=     0.0
  14 B1g freq=   415. Q=  0.000 lam=     0.0 Au  freq=   413. Q=  0.000 lam=     0.0
  15 B3u freq=   448. Q= -0.000 lam=     0.0 B3g freq=   432. Q= -0.000 lam=     0.0
  16 B2g freq=   555. Q= -0.000 lam=     0.0 B3u freq=   433. Q= -0.000 lam=     0.0
  17 B1u freq=   624. Q=  0.000 lam=     0.0 B3g freq=   591. Q=  0.000 lam=     0.0
  18 B3g freq=   627. Q=  0.000 lam=     0.0 B2u freq=   606. Q=  0.000 lam=     0.0
  19 B2u freq=   645. Q= -0.000 lam=     0.0 B1u freq=   607. Q= -0.000 lam=     0.0
  20 B2g freq=   680. Q= -0.000 lam=     0.0 B3u freq=   610. Q= -0.000 lam=     0.0
  21 B3u freq=   714. Q= -0.000 lam=     0.0 B2g freq=   649. Q= -0.000 lam=     0.0
  22 B3u freq=   748. Q=  0.000 lam=     0.0 Ag  freq=   743. Q=  0.559 lam=   116.0
  23 Ag  freq=   753. Q= -0.550 lam=   114.1 B3u freq=   760. Q= -0.000 lam=     0.0
  24 B2g freq=   802. Q= -0.000 lam=     0.0 B1g freq=   823. Q= -0.000 lam=     0.0
  25 Au  freq=   821. Q= -0.000 lam=     0.0 B2g freq=   828. Q= -0.000 lam=     0.0
  26 B1g freq=   851. Q= -0.000 lam=     0.0 Au  freq=   855. Q= -0.000 lam=     0.0
  27 B3u freq=   919. Q= -0.000 lam=     0.0 B2g freq=   913. Q= -0.000 lam=     0.0
  28 B2g freq=   920. Q= -0.000 lam=     0.0 B1u freq=   960. Q= -0.000 lam=     0.0
  29 Au  freq=   962. Q= -0.000 lam=     0.0 Ag  freq=   968. Q= -0.555 lam=   149.2
  30 B1g freq=   977. Q= -0.000 lam=     0.0 B3u freq=   973. Q= -0.000 lam=     0.0
  31 B2g freq=   995. Q=  0.000 lam=     0.0 B1u freq=   990. Q=  0.000 lam=     0.0
  32 B3u freq=   999. Q=  0.000 lam=     0.0 B1u freq=  1025. Q=  0.000 lam=     0.0
  33 B1u freq=  1010. Q= -0.000 lam=     0.0 B3u freq=  1026. Q= -0.000 lam=     0.0
  34 Ag  freq=  1019. Q= -0.630 lam=   202.3 B2g freq=  1031. Q= -0.000 lam=     0.0
  35 B1u freq=  1024. Q=  0.000 lam=     0.0 Ag  freq=  1038. Q=  0.168 lam=    14.6
  36 B1u freq=  1064. Q=  0.000 lam=     0.0 B1g freq=  1081. Q=  0.000 lam=     0.0
  37 Ag  freq=  1064. Q=  0.072 lam=     2.8 Au  freq=  1095. Q=  0.000 lam=     0.0
  38 B3g freq=  1106. Q= -0.000 lam=     0.0 B3g freq=  1100. Q= -0.000 lam=     0.0
  39 B2u freq=  1119. Q=  0.000 lam=     0.0 B1u freq=  1101. Q=  0.000 lam=     0.0
  40 B3g freq=  1182. Q=  0.000 lam=     0.0 B2u freq=  1107. Q=  0.000 lam=     0.0
  41 B2u freq=  1190. Q=  0.000 lam=     0.0 B2u freq=  1150. Q=  0.000 lam=     0.0
  42 B1u freq=  1205. Q= -0.000 lam=     0.0 B3g freq=  1152. Q= -0.000 lam=     0.0
  43 Ag  freq=  1239. Q=  0.614 lam=   233.5 Ag  freq=  1230. Q=  0.508 lam=   158.7
  44 Ag  freq=  1283. Q=  0.491 lam=   154.5 B2u freq=  1253. Q=  0.000 lam=     0.0
  45 B2u freq=  1300. Q=  0.000 lam=     0.0 B3g freq=  1336. Q=  0.000 lam=     0.0
  46 B3g freq=  1324. Q= -0.000 lam=     0.0 Ag  freq=  1361. Q= -0.390 lam=   103.5
  47 B3g freq=  1356. Q=  0.000 lam=     0.0 B2u freq=  1379. Q=  0.000 lam=     0.0
  48 B2u freq=  1379. Q=  0.000 lam=     0.0 B3g freq=  1382. Q=  0.000 lam=     0.0
  49 B2u freq=  1460. Q=  0.000 lam=     0.0 B2u freq=  1440. Q=  0.000 lam=     0.0
  50 B3g freq=  1494. Q=  0.000 lam=     0.0 B3g freq=  1463. Q=  0.000 lam=     0.0
  51 B1u freq=  1518. Q=  0.000 lam=     0.0 B1u freq=  1470. Q=  0.000 lam=     0.0
  52 Ag  freq=  1551. Q= -0.226 lam=    39.8 Ag  freq=  1534. Q= -0.267 lam=    54.6
  53 B2u freq=  1614. Q= -0.000 lam=     0.0 B3g freq=  1546. Q= -0.000 lam=     0.0
  54 B3g freq=  1628. Q=  0.000 lam=     0.0 B2u freq=  1548. Q=  0.000 lam=     0.0
  55 Ag  freq=  1641. Q= -0.483 lam=   191.5 B1u freq=  1592. Q= -0.000 lam=     0.0
  56 B1u freq=  1649. Q= -0.000 lam=     0.0 Ag  freq=  1646. Q= -0.594 lam=   290.3
  57 B1u freq=  3161. Q=  0.000 lam=     0.0 B2u freq=  2495. Q=  0.000 lam=     0.0
  58 Ag  freq=  3162. Q=  0.022 lam=     0.7 B1u freq=  2567. Q=  0.000 lam=     0.0
  59 B3g freq=  3169. Q=  0.000 lam=     0.0 Ag  freq=  2797. Q=  0.256 lam=    91.4
  60 B2u freq=  3171. Q= -0.000 lam=     0.0 B3g freq=  2831. Q= -0.000 lam=     0.0
  61 B1u freq=  3185. Q= -0.000 lam=     0.0 B1u freq=  2918. Q= -0.000 lam=     0.0
  62 Ag  freq=  3188. Q=  0.089 lam=    12.7 Ag  freq=  3014. Q=  0.207 lam=    64.6
  63 B3g freq=  3193. Q= -0.000 lam=     0.0 B1u freq=  3025. Q= -0.000 lam=     0.0
  64 B1u freq=  3196. Q= -0.000 lam=     0.0 B2u freq=  3026. Q= -0.000 lam=     0.0
  65 B2u freq=  3209. Q= -0.000 lam=     0.0 B3g freq=  3031. Q= -0.000 lam=     0.0
  66 Ag  freq=  3211. Q= -0.446 lam=   319.1 Ag  freq=  3045. Q= -0.240 lam=    87.4

 total reorg energy (cm**-1, kcal/mol)=     1597.     1471.      4.56      4.21
 Nber of molecules processed=           2
