 Enter ifcurve (0=recti, 1=orth curvi, 2=apprx curvi, -1 = skip
 And atom ordering flag, 0= never changes, 1= use the first order thenceforth,
  2= deduce it (does read on fail), 3= always read it
 Reading file: 
 ./Benzene_Conj_5_C0S0.log                                                      
                                          
  Entering Gaussian System, Link 0=g16                                          
  
 Gaussian format, type: g94, g98, g03= F F F
  #P Geom=AllCheck Guess=TCheck SCRF=Check GenChk RB3LYP/6-311G(d,p) Fre    
 energy type= B3LYP   
 Original G94 input coords:
  6  6.163667 -1.409140  0.000000
  6  4.899767 -0.727864  0.000000
  6  3.693525 -1.407191  0.000000
  6  2.450616 -0.729028  0.000000
  6  1.230680 -1.408030  0.000000
  6  0.000000 -0.729599  0.000000
  6 -1.230680 -1.408030  0.000000
  6 -2.450616 -0.729028  0.000000
  6 -3.693525 -1.407191  0.000000
  6 -4.899767 -0.727864  0.000000
  6 -6.163667 -1.409140  0.000000
  6 -7.335169 -0.716572  0.000000
  6 -7.335169  0.716572  0.000000
  6 -6.163667  1.409140  0.000000
  6 -4.899767  0.727864  0.000000
  6 -3.693525  1.407191  0.000000
  6 -2.450616  0.729028  0.000000
  6 -1.230680  1.408030  0.000000
  6  0.000000  0.729599  0.000000
  6  1.230680  1.408030  0.000000
  6  2.450616  0.729028  0.000000
  6  3.693525  1.407191  0.000000
  6  4.899767  0.727864  0.000000
  6  6.163667  1.409140  0.000000
  6  7.335169  0.716572  0.000000
  6  7.335169 -0.716572  0.000000
  1  6.163802 -2.494321  0.000000
  1  3.694332 -2.492775  0.000000
  1  1.230970 -2.493533  0.000000
  1 -1.230970 -2.493533  0.000000
  1 -3.694332 -2.492775  0.000000
  1 -6.163802 -2.494321  0.000000
  1 -8.281293 -1.245651  0.000000
  1 -8.281293  1.245651  0.000000
  1 -6.163802  2.494321  0.000000
  1 -3.694332  2.492775  0.000000
  1 -1.230970  2.493533  0.000000
  1  1.230970  2.493533  0.000000
  1  3.694332  2.492775  0.000000
  1  6.163802  2.494321  0.000000
  1  8.281293  1.245651  0.000000
  1  8.281293 -1.245651  0.000000
 nber atoms=          42
 Original standard coords:
  6  0.000000  6.163667  1.409140
  6  0.000000  4.899767  0.727864
  6  0.000000  3.693525  1.407191
  6  0.000000  2.450616  0.729028
  6  0.000000  1.230680  1.408030
  6  0.000000  0.000000  0.729599
  6  0.000000 -1.230680  1.408030
  6  0.000000 -2.450616  0.729028
  6  0.000000 -3.693525  1.407191
  6  0.000000 -4.899767  0.727864
  6  0.000000 -6.163667  1.409140
  6  0.000000 -7.335169  0.716572
  6  0.000000 -7.335169 -0.716572
  6  0.000000 -6.163667 -1.409140
  6  0.000000 -4.899767 -0.727864
  6  0.000000 -3.693525 -1.407191
  6  0.000000 -2.450616 -0.729028
  6  0.000000 -1.230680 -1.408030
  6  0.000000  0.000000 -0.729599
  6  0.000000  1.230680 -1.408030
  6  0.000000  2.450616 -0.729028
  6  0.000000  3.693525 -1.407191
  6  0.000000  4.899767 -0.727864
  6  0.000000  6.163667 -1.409140
  6  0.000000  7.335169 -0.716572
  6  0.000000  7.335169  0.716572
  1  0.000000  6.163802  2.494321
  1  0.000000  3.694332  2.492775
  1  0.000000  1.230970  2.493533
  1  0.000000 -1.230970  2.493533
  1  0.000000 -3.694332  2.492775
  1  0.000000 -6.163802  2.494321
  1  0.000000 -8.281293  1.245651
  1  0.000000 -8.281293 -1.245651
  1  0.000000 -6.163802 -2.494321
  1  0.000000 -3.694332 -2.492775
  1  0.000000 -1.230970 -2.493533
  1  0.000000  1.230970 -2.493533
  1  0.000000  3.694332 -2.492775
  1  0.000000  6.163802 -2.494321
  1  0.000000  8.281293 -1.245651
  1  0.000000  8.281293  1.245651
  SCF Done:  E(RB3LYP) =  -1000.65540186     A.U. after    1 cycles             
  
          23          40 "  -1000.65540186"
After scan for Atom:   Atom  AN      X      Y      Z        X      Y      Z        X      Y      Z   
After scan for Atom:   Atom  AN      X      Y      Z        X      Y      Z        X      Y      Z   
After scan for Atom:   Atom  AN      X      Y      Z        X      Y      Z        X      Y      Z   
After scan for Atom:   Atom  AN      X      Y      Z        X      Y      Z        X      Y      Z   
After scan for Atom:   Atom  AN      X      Y      Z        X      Y      Z        X      Y      Z   
After scan for Atom:   Atom  AN      X      Y      Z        X      Y      Z        X      Y      Z   
After scan for Atom:   Atom  AN      X      Y      Z        X      Y      Z        X      Y      Z   
After scan for Atom:   Atom  AN      X      Y      Z        X      Y      Z        X      Y      Z   
After scan for Atom:   Atom  AN      X      Y      Z        X      Y      Z        X      Y      Z   
After scan for Atom:   Atom  AN      X      Y      Z        X      Y      Z        X      Y      Z   
After scan for Atom:   Atom  AN      X      Y      Z        X      Y      Z        X      Y      Z   
After scan for Atom:   Atom  AN      X      Y      Z        X      Y      Z        X      Y      Z   
After scan for Atom:   Atom  AN      X      Y      Z        X      Y      Z        X      Y      Z   
After scan for Atom:   Atom  AN      X      Y      Z        X      Y      Z        X      Y      Z   
After scan for Atom:   Atom  AN      X      Y      Z        X      Y      Z        X      Y      Z   
After scan for Atom:   Atom  AN      X      Y      Z        X      Y      Z        X      Y      Z   
After scan for Atom:   Atom  AN      X      Y      Z        X      Y      Z        X      Y      Z   
After scan for Atom:   Atom  AN      X      Y      Z        X      Y      Z        X      Y      Z   
After scan for Atom:   Atom  AN      X      Y      Z        X      Y      Z        X      Y      Z   
After scan for Atom:   Atom  AN      X      Y      Z        X      Y      Z        X      Y      Z   
After scan for Atom:   Atom  AN      X      Y      Z        X      Y      Z        X      Y      Z   
After scan for Atom:   Atom  AN      X      Y      Z        X      Y      Z        X      Y      Z   
After scan for Atom:   Atom  AN      X      Y      Z        X      Y      Z        X      Y      Z   
After scan for Atom:   Atom  AN      X      Y      Z        X      Y      Z        X      Y      Z   
After scan for Atom:   Atom  AN      X      Y      Z        X      Y      Z        X      Y      Z   
After scan for Atom:   Atom  AN      X      Y      Z        X      Y      Z        X      Y      Z   
After scan for Atom:   Atom  AN      X      Y      Z        X      Y      Z        X      Y      Z   
After scan for Atom:   Atom  AN      X      Y      Z        X      Y      Z        X      Y      Z   
After scan for Atom:   Atom  AN      X      Y      Z        X      Y      Z        X      Y      Z   
After scan for Atom:   Atom  AN      X      Y      Z        X      Y      Z        X      Y      Z   
After scan for Atom:   Atom  AN      X      Y      Z        X      Y      Z        X      Y      Z   
After scan for Atom:   Atom  AN      X      Y      Z        X      Y      Z        X      Y      Z   
After scan for Atom:   Atom  AN      X      Y      Z        X      Y      Z        X      Y      Z   
After scan for Atom:   Atom  AN      X      Y      Z        X      Y      Z        X      Y      Z   
After scan for Atom:   Atom  AN      X      Y      Z        X      Y      Z        X      Y      Z   
After scan for Atom:   Atom  AN      X      Y      Z        X      Y      Z        X      Y      Z   
After scan for Atom:   Atom  AN      X      Y      Z        X      Y      Z        X      Y      Z   
After scan for Atom:   Atom  AN      X      Y      Z        X      Y      Z        X      Y      Z   
After scan for Atom:   Atom  AN      X      Y      Z        X      Y      Z        X      Y      Z   
After scan for Atom:   Atom  AN      X      Y      Z        X      Y      Z        X      Y      Z   
 g94    frequencies=
     0.0    0.0    0.0    0.0    0.0    0.0   26.0   59.0   72.4   90.1
   122.0  140.4  190.1  193.4  223.6  224.8  276.5  296.3  308.1  369.5
   377.0  391.7  428.3  466.8  468.8  471.7  473.9  476.5  478.2  494.0
   529.6  545.6  562.5  579.0  630.9  642.8  647.9  672.0  702.9  739.0
   742.9  745.8  748.8  757.0  758.9  761.0  770.8  772.3  802.0  824.4
   831.1  839.3  843.9  846.2  863.4  866.4  887.0  899.0  901.0  905.7
   915.4  924.2  928.7  933.2  973.3  973.4  995.2  995.2 1014.5 1016.4
  1121.5 1149.5 1152.1 1183.4 1186.7 1197.6 1197.9 1205.2 1216.1 1228.1
  1261.2 1271.1 1293.8 1296.9 1305.2 1315.7 1327.3 1343.0 1351.1 1385.7
  1404.4 1418.2 1418.4 1420.6 1427.9 1434.4 1475.0 1476.2 1488.0 1530.2
  1546.6 1555.8 1575.4 1578.2 1580.7 1615.0 1629.0 1651.5 1671.2 1675.9
  3154.5 3155.1 3156.3 3156.4 3157.2 3157.6 3159.1 3159.2 3161.0 3161.0
  3162.3 3164.1 3175.8 3175.8 3188.3 3188.4
 g94    symmetries=
                                                B3     AU     B1     B1
      B2     B3     B3     AU     B1     AG     B2     B1     B3     AU
      B1     B3     B2     B3     B1     B3     B3     B1     B1     B3
      B2     AU     B1     AG     B2     AG     B2     B3     B2     AU
      B2     B1     B3     AG     B2     AG     AU     B2     B1     B1
      B2     AU     B2     B3     AU     B3     B2     AG     B1     AU
      B2     B3     B1     B3     B1     B3     AU     B2     B2     AG
      B2     B3     B1     AG     B2     AG     B3     B1     B3     B2
      B1     AG     B1     B3     B3     B1     B1     B2     B2     B3
      AG     AG     B2     B1     AG     B2     B3     AG     B2     AG
      AG     B2     B2     AG     B1     B3     B3     B1     B1     B3
      B3     B1     B2     B3     AG     B1     B3     B2     B1     AG
      B2     AG     B3     B1     B2     AG
 atomic masses:
 12.0000 12.0000 12.0000 12.0000 12.0000 12.0000 12.0000 12.0000 12.0000 12.0000
 12.0000 12.0000 12.0000 12.0000 12.0000 12.0000 12.0000 12.0000 12.0000 12.0000
 12.0000 12.0000 12.0000 12.0000 12.0000 12.0000  1.0078  1.0078  1.0078  1.0078
  1.0078  1.0078  1.0078  1.0078  1.0078  1.0078  1.0078  1.0078  1.0078  1.0078
  1.0078  1.0078
 looking for force constants in 
 ./Benzene_Conj_5_C0S0.fchk                                                     
  
 Cartesian Force Constants                  R   N=        8001                  
  
 n3=         126        8001
 g94-fc frequencies=
    -2.2   -2.1   -0.0   -0.0    0.0    5.5   26.0   59.0   72.4   90.1
   122.0  140.4  190.1  193.4  223.6  224.8  276.5  296.3  308.1  369.6
   377.0  391.7  428.3  466.8  468.9  471.7  473.9  476.5  478.3  494.0
   529.6  545.6  562.5  579.0  631.0  642.8  647.9  672.0  702.9  739.0
   742.9  745.8  748.8  757.0  758.9  761.1  770.8  772.3  802.1  824.4
   831.1  839.3  844.0  846.2  863.4  866.5  887.1  899.0  901.0  905.7
   915.5  924.3  928.7  933.3  973.3  973.4  995.2  995.2 1014.5 1016.4
  1121.5 1149.5 1152.1 1183.4 1186.8 1197.6 1197.9 1205.2 1216.1 1228.2
  1261.2 1271.1 1293.8 1296.9 1305.2 1315.8 1327.3 1343.0 1351.1 1385.7
  1404.4 1418.2 1418.5 1420.6 1427.9 1434.4 1475.0 1476.3 1488.1 1530.2
  1546.7 1555.9 1575.5 1578.2 1580.8 1615.0 1629.1 1651.6 1671.3 1676.0
  3154.6 3155.2 3156.4 3156.5 3157.3 3157.7 3159.1 3159.2 3161.1 3161.1
  3162.3 3164.2 3175.8 3175.9 3188.3 3188.5
 at 99999: n3=         126
 symm operator            1 :  T  nop=           1
 symm operator            2 :  T  nop=           2
 symm operator            3 :  T  nop=           3
 symm operator            4 :  T  nop=           4
 symm operator            5 :  T  nop=           5
 symm operator            6 :  T  nop=           6
 symm operator            7 :  T  nop=           7
 The point group of the molecule is D2H
 enforcing symm op           1  jsymt=          -1          -1           1
 enforcing symm op           2  jsymt=          -1           1          -1
 enforcing symm op           3  jsymt=           1          -1          -1
 enforcing symm op           4  jsymt=          -1          -1          -1
 enforcing symm op           5  jsymt=           1           1          -1
 enforcing symm op           6  jsymt=           1          -1           1
 enforcing symm op           7  jsymt=          -1           1           1
 cartesian coord symmetries:
 Ag :   21 Au :   10 B1g:   10 B1u:   21 B2g:   11 B2u:   21 B3g:   21 B3u:   11
 Symmetry rotation matrix:
   1.00000   0.00000   0.00000
   0.00000   1.00000   0.00000
   0.00000   0.00000   1.00000

 Projecting out zero-frequency components
 generating redundant internal coords
         300        3600          42
 search for int coords
   1 str   2   1   1.436
   2 str   3   2   1.384
   3 str   4   3   1.416
   4 str   5   4   1.396
   5 str   6   5   1.405
   6 str   7   6   1.405
   7 str   8   7   1.396
   8 str   9   8   1.416
   9 str  10   9   1.384
  10 str  11  10   1.436
  11 str  12  11   1.361
  12 str  13  12   1.433
  13 str  14  13   1.361
  14 str  15  10   1.456
  15 str  15  14   1.436
  16 str  16  15   1.384
  17 str  17   8   1.458
  18 str  17  16   1.416
  19 str  18  17   1.396
  20 str  19   6   1.459
  21 str  19  18   1.405
  22 str  20  19   1.405
  23 str  21   4   1.458
  24 str  21  20   1.396
  25 str  22  21   1.416
  26 str  23   2   1.456
  27 str  23  22   1.384
  28 str  24  23   1.436
  29 str  25  24   1.361
  30 str  26   1   1.361
  31 str  26  25   1.433
  32 str  27   1   1.085
  33 str  28   3   1.086
  34 str  29   5   1.086
  35 str  30   7   1.086
  36 str  31   9   1.086
  37 str  32  11   1.085
  38 str  33  12   1.084
  39 str  34  13   1.084
  40 str  35  14   1.085
  41 str  36  16   1.086
  42 str  37  18   1.086
  43 str  38  20   1.086
  44 str  39  22   1.086
  45 str  40  24   1.085
  46 str  41  25   1.084
  47 str  42  26   1.084
 nber stretches=          47
  48 ben   1   2   3
  49 prop tor   1   2   3   4
  50 prop tor   1   2   3  28
  51 ben   1   2  23
  52 prop tor   1   2  23  22
  53 prop tor   1   2  23  24
  54 ben   1  26  25
  55 ben   1  26  42
  56 ben   2   1  26
  57 prop tor   2   1  26  25
  58 prop tor   2   1  26  42
  59 ben   2   1  27
  60 ben   2   3   4
  61 prop tor   2   3   4   5
  62 prop tor   2   3   4  21
  63 ben   2   3  28
  64 ben   2  23  22
  65 ben   2  23  24
  66 prop tor   2  23  24  25
  67 prop tor   2  23  24  40
  68 ben   3   2  23
  69 prop tor   3   2  23  22
  70 prop tor   3   2  23  24
  71 ben   3   4   5
  72 prop tor   3   4   5   6
  73 prop tor   3   4   5  29
  74 ben   3   4  21
  75 prop tor   3   4  21  20
  76 prop tor   3   4  21  22
  77 ben   4   3  28
  78 ben   4   5   6
  79 prop tor   4   5   6   7
  80 prop tor   4   5   6  19
  81 ben   4   5  29
  82 ben   4  21  20
  83 ben   4  21  22
  84 prop tor   4  21  22  23
  85 prop tor   4  21  22  39
  86 ben   5   4  21
  87 prop tor   5   4  21  20
  88 prop tor   5   4  21  22
  89 ben   5   6   7
  90 prop tor   5   6   7   8
  91 prop tor   5   6   7  30
  92 ben   5   6  19
  93 prop tor   5   6  19  18
  94 prop tor   5   6  19  20
  95 ben   6   5  29
  96 ben   6   7   8
  97 prop tor   6   7   8   9
  98 prop tor   6   7   8  17
  99 ben   6   7  30
 100 ben   6  19  18
 101 ben   6  19  20
 102 prop tor   6  19  20  21
 103 prop tor   6  19  20  38
 104 ben   7   6  19
 105 prop tor   7   6  19  18
 106 prop tor   7   6  19  20
 107 ben   7   8   9
 108 prop tor   7   8   9  10
 109 prop tor   7   8   9  31
 110 ben   7   8  17
 111 prop tor   7   8  17  16
 112 prop tor   7   8  17  18
 113 ben   8   7  30
 114 ben   8   9  10
 115 prop tor   8   9  10  11
 116 prop tor   8   9  10  15
 117 ben   8   9  31
 118 ben   8  17  16
 119 ben   8  17  18
 120 prop tor   8  17  18  19
 121 prop tor   8  17  18  37
 122 ben   9   8  17
 123 prop tor   9   8  17  16
 124 prop tor   9   8  17  18
 125 ben   9  10  11
 126 prop tor   9  10  11  12
 127 prop tor   9  10  11  32
 128 ben   9  10  15
 129 prop tor   9  10  15  14
 130 prop tor   9  10  15  16
 131 ben  10   9  31
 132 ben  10  11  12
 133 prop tor  10  11  12  13
 134 prop tor  10  11  12  33
 135 ben  10  11  32
 136 ben  10  15  14
 137 ben  10  15  16
 138 prop tor  10  15  16  17
 139 prop tor  10  15  16  36
 140 ben  11  10  15
 141 prop tor  11  10  15  14
 142 prop tor  11  10  15  16
 143 ben  11  12  13
 144 prop tor  11  12  13  14
 145 prop tor  11  12  13  34
 146 ben  11  12  33
 147 ben  12  11  32
 148 ben  12  13  14
 149 prop tor  12  13  14  15
 150 prop tor  12  13  14  35
 151 ben  12  13  34
 152 ben  13  12  33
 153 ben  13  14  15
 154 prop tor  13  14  15  10
 155 prop tor  13  14  15  16
 156 ben  13  14  35
 157 ben  14  13  34
 158 ben  14  15  16
 159 prop tor  14  15  16  17
 160 prop tor  14  15  16  36
 161 prop tor  15  10  11  12
 162 prop tor  15  10  11  32
 163 ben  15  14  35
 164 ben  15  16  17
 165 prop tor  15  16  17   8
 166 prop tor  15  16  17  18
 167 ben  15  16  36
 168 ben  16  17  18
 169 prop tor  16  17  18  19
 170 prop tor  16  17  18  37
 171 prop tor  17   8   9  10
 172 prop tor  17   8   9  31
 173 ben  17  16  36
 174 ben  17  18  19
 175 prop tor  17  18  19   6
 176 prop tor  17  18  19  20
 177 ben  17  18  37
 178 ben  18  19  20
 179 prop tor  18  19  20  21
 180 prop tor  18  19  20  38
 181 prop tor  19   6   7   8
 182 prop tor  19   6   7  30
 183 ben  19  18  37
 184 ben  19  20  21
 185 prop tor  19  20  21   4
 186 prop tor  19  20  21  22
 187 ben  19  20  38
 188 ben  20  21  22
 189 prop tor  20  21  22  23
 190 prop tor  20  21  22  39
 191 prop tor  21   4   5   6
 192 prop tor  21   4   5  29
 193 ben  21  20  38
 194 ben  21  22  23
 195 prop tor  21  22  23   2
 196 prop tor  21  22  23  24
 197 ben  21  22  39
 198 ben  22  23  24
 199 prop tor  22  23  24  25
 200 prop tor  22  23  24  40
 201 prop tor  23   2   3   4
 202 prop tor  23   2   3  28
 203 ben  23  22  39
 204 ben  23  24  25
 205 prop tor  23  24  25  26
 206 prop tor  23  24  25  41
 207 ben  23  24  40
 208 ben  24  25  26
 209 prop tor  24  25  26   1
 210 prop tor  24  25  26  42
 211 ben  24  25  41
 212 ben  25  24  40
 213 ben  25  26  42
 214 prop tor  26   1   2   3
 215 prop tor  26   1   2  23
 216 ben  26   1  27
 217 ben  26  25  41
 218 prop tor  27   1   2   3
 219 prop tor  27   1   2  23
 220 prop tor  27   1  26  25
 221 prop tor  27   1  26  42
 222 prop tor  28   3   4   5
 223 prop tor  28   3   4  21
 224 prop tor  29   5   6   7
 225 prop tor  29   5   6  19
 226 prop tor  30   7   8   9
 227 prop tor  30   7   8  17
 228 prop tor  31   9  10  11
 229 prop tor  31   9  10  15
 230 prop tor  32  11  12  13
 231 prop tor  32  11  12  33
 232 prop tor  33  12  13  14
 233 prop tor  33  12  13  34
 234 prop tor  34  13  14  15
 235 prop tor  34  13  14  35
 236 prop tor  35  14  15  10
 237 prop tor  35  14  15  16
 238 prop tor  36  16  17   8
 239 prop tor  36  16  17  18
 240 prop tor  37  18  19   6
 241 prop tor  37  18  19  20
 242 prop tor  38  20  21   4
 243 prop tor  38  20  21  22
 244 prop tor  39  22  23   2
 245 prop tor  39  22  23  24
 246 prop tor  40  24  25  26
 247 prop tor  40  24  25  41
 248 prop tor  41  25  26   1
 249 prop tor  41  25  26  42
 nber bend=              78
 nber lin bend=           0
 nber prop tor=         124
 nber impr tor=           0
 nber tot redund int=         249
 Eigenvalues of G in red int coords
    Gval -0.00000000 -0.00000000 -0.00000000 -0.00000000 -0.00000000 -0.00000000 -0.00000000 -0.00000000
    Gval -0.00000000 -0.00000000 -0.00000000 -0.00000000 -0.00000000 -0.00000000 -0.00000000 -0.00000000
    Gval -0.00000000 -0.00000000 -0.00000000 -0.00000000 -0.00000000 -0.00000000 -0.00000000 -0.00000000
    Gval -0.00000000 -0.00000000 -0.00000000 -0.00000000 -0.00000000 -0.00000000 -0.00000000 -0.00000000
    Gval -0.00000000 -0.00000000 -0.00000000 -0.00000000 -0.00000000 -0.00000000 -0.00000000 -0.00000000
    Gval -0.00000000 -0.00000000 -0.00000000 -0.00000000 -0.00000000 -0.00000000 -0.00000000 -0.00000000
    Gval -0.00000000 -0.00000000 -0.00000000 -0.00000000 -0.00000000 -0.00000000 -0.00000000 -0.00000000
    Gval -0.00000000 -0.00000000 -0.00000000 -0.00000000 -0.00000000 -0.00000000 -0.00000000 -0.00000000
    Gval  0.00000000  0.00000000  0.00000000  0.00000000  0.00000000  0.00000000  0.00000000  0.00000000
    Gval  0.00000000  0.00000000  0.00000000  0.00000000  0.00000000  0.00000000  0.00000000  0.00000000
    Gval  0.00000000  0.00000000  0.00000000  0.00000000  0.00000000  0.00000000  0.00000000  0.00000000
    Gval  0.00000000  0.00000000  0.00000000  0.00000000  0.00000000  0.00000000  0.00000000  0.00000000
    Gval  0.00000000  0.00000000  0.00000000  0.00000000  0.00000000  0.00000000  0.00000000  0.00000000
    Gval  0.00000000  0.00000000  0.00000000  0.00000000  0.00000000  0.00000000  0.00000000  0.00000000
    Gval  0.00000000  0.00000000  0.00000000  0.00000000  0.00000000  0.00000000  0.00000000  0.00000000
    Gval  0.00000000  0.00000000  0.00000000  0.00000000  0.00000000  0.00000000  0.00000000  0.00000000
    Gval  0.00000000  0.00000106  0.00000296  0.00000313  0.00000596  0.00001147  0.00001716  0.00001990
    Gval  0.00002282  0.00002449  0.00002906  0.00003745  0.00003835  0.00004018  0.00004047  0.00004474
    Gval  0.00005145  0.00005262  0.00005812  0.00005935  0.00006477  0.00007355  0.00007366  0.00007956
    Gval  0.00007965  0.00008104  0.00008423  0.00008493  0.00009995  0.00010262  0.00010986  0.00012114
    Gval  0.00012366  0.00013494  0.00013828  0.00014092  0.00015645  0.00016889  0.00018085  0.00019564
    Gval  0.00019611  0.00020069  0.00024276  0.00026229  0.00028071  0.00031530  0.00032133  0.00032811
    Gval  0.00034487  0.00036469  0.00037568  0.00038235  0.00038386  0.00041005  0.00041310  0.00041434
    Gval  0.00041522  0.00041793  0.00044352  0.00047986  0.00052021  0.00059310  0.00059310  0.00059684
    Gval  0.00059684  0.00060801  0.00061040  0.00061625  0.00061813  0.00062465  0.00062662  0.00063413
    Gval  0.00064089  0.00064424  0.00065466  0.00065695  0.00065746  0.00071106  0.00075466  0.00075650
    Gval  0.00082287  0.00083017  0.00093319  0.00096984  0.00105057  0.00105059  0.00110622  0.00111176
    Gval  0.00111191  0.00111501  0.00111777  0.00112181  0.00112416  0.00112555  0.00112809  0.00113073
    Gval  0.00116207  0.00116207  0.00117010  0.00117010  0.00154320  0.00173823  0.00176971  0.00177000
    Gval  0.00187601  0.00196645  0.00202181  0.00256737  0.00257260  0.00274412  0.00280077  0.00293540
    Gval  0.00300641  0.00316837  0.00322163  0.00337477  0.00338063  0.00356945  0.00358022  0.00400109
    Gval  0.00400116
  1.063262312877117E-006  1.063262312877117E-006
  2.955359036540388E-006  1.063262312877117E-006
  3.126845234733005E-006  1.063262312877117E-006
  5.955479126720484E-006  1.063262312877117E-006
  1.147164631244905E-005  1.063262312877117E-006
  1.715689666584608E-005  1.063262312877117E-006
  1.989653560285235E-005  1.063262312877117E-006
  2.281704161486002E-005  1.063262312877117E-006
  2.449030302204720E-005  1.063262312877117E-006
  2.905755404996532E-005  1.063262312877117E-006
  3.745104158073653E-005  1.063262312877117E-006
  3.835332169165529E-005  1.063262312877117E-006
  4.018448099916092E-005  1.063262312877117E-006
  4.047420952927348E-005  1.063262312877117E-006
  4.474161314361997E-005  1.063262312877117E-006
  5.144702806348481E-005  1.063262312877117E-006
  5.262060472374015E-005  1.063262312877117E-006
  5.811503594232286E-005  1.063262312877117E-006
  5.934934578817731E-005  1.063262312877117E-006
  6.477053217805381E-005  1.063262312877117E-006
  7.354516946711904E-005  1.063262312877117E-006
  7.365725842508965E-005  1.063262312877117E-006
  7.956470472640066E-005  1.063262312877117E-006
  7.965250740868701E-005  1.063262312877117E-006
  8.104208344450172E-005  1.063262312877117E-006
  8.422810149000349E-005  1.063262312877117E-006
  8.493153317957675E-005  1.063262312877117E-006
  9.995243708669241E-005  1.063262312877117E-006
  1.026178328732168E-004  1.063262312877117E-006
  1.098584834215561E-004  1.063262312877117E-006
  1.211392427271300E-004  1.063262312877117E-006
  1.236642353427780E-004  1.063262312877117E-006
  1.349358734387615E-004  1.063262312877117E-006
  1.382777567622018E-004  1.063262312877117E-006
  1.409188945349415E-004  1.063262312877117E-006
  1.564452238395359E-004  1.063262312877117E-006
  1.688949605331784E-004  1.063262312877117E-006
  1.808508914769964E-004  1.063262312877117E-006
  1.956403220699173E-004  1.063262312877117E-006
  1.961126635686399E-004  1.063262312877117E-006
  2.006857527056157E-004  1.063262312877117E-006
  2.427613354017682E-004  1.063262312877117E-006
  2.622937088565794E-004  1.063262312877117E-006
  2.807098808793762E-004  1.063262312877117E-006
  3.153014996691771E-004  1.063262312877117E-006
  3.213302501549444E-004  1.063262312877117E-006
  3.281077418139642E-004  1.063262312877117E-006
  3.448704879990901E-004  1.063262312877117E-006
  3.646917017657963E-004  1.063262312877117E-006
  3.756782651101525E-004  1.063262312877117E-006
  3.823490114705296E-004  1.063262312877117E-006
  3.838561301579914E-004  1.063262312877117E-006
  4.100513403964859E-004  1.063262312877117E-006
  4.131008823719210E-004  1.063262312877117E-006
  4.143411992217102E-004  1.063262312877117E-006
  4.152223776451336E-004  1.063262312877117E-006
  4.179310348743236E-004  1.063262312877117E-006
  4.435218683275104E-004  1.063262312877117E-006
  4.798594957552615E-004  1.063262312877117E-006
  5.202139597436442E-004  1.063262312877117E-006
  5.930952604854968E-004  1.063262312877117E-006
  5.930957102160079E-004  1.063262312877117E-006
  5.968376936107447E-004  1.063262312877117E-006
  5.968394400611146E-004  1.063262312877117E-006
  6.080067712683641E-004  1.063262312877117E-006
  6.103981778360176E-004  1.063262312877117E-006
  6.162482278391445E-004  1.063262312877117E-006
  6.181336060492753E-004  1.063262312877117E-006
  6.246493837490768E-004  1.063262312877117E-006
  6.266172471505558E-004  1.063262312877117E-006
  6.341307152831901E-004  1.063262312877117E-006
  6.408942247911963E-004  1.063262312877117E-006
  6.442387018638761E-004  1.063262312877117E-006
  6.546636111597582E-004  1.063262312877117E-006
  6.569500057006876E-004  1.063262312877117E-006
  6.574555725143232E-004  1.063262312877117E-006
  7.110615427182280E-004  1.063262312877117E-006
  7.546568506762325E-004  1.063262312877117E-006
  7.565028593162127E-004  1.063262312877117E-006
  8.228693834870181E-004  1.063262312877117E-006
  8.301701561131366E-004  1.063262312877117E-006
  9.331926345530665E-004  1.063262312877117E-006
  9.698352481343595E-004  1.063262312877117E-006
  1.050568425544472E-003  1.063262312877117E-006
  1.050587931770579E-003  1.063262312877117E-006
  1.106220194930163E-003  1.063262312877117E-006
  1.111762826896388E-003  1.063262312877117E-006
  1.111912994209476E-003  1.063262312877117E-006
  1.115006204938523E-003  1.063262312877117E-006
  1.117769275428317E-003  1.063262312877117E-006
  1.121807115010600E-003  1.063262312877117E-006
  1.124158275029500E-003  1.063262312877117E-006
  1.125551852899552E-003  1.063262312877117E-006
  1.128086945826935E-003  1.063262312877117E-006
  1.130726948180290E-003  1.063262312877117E-006
  1.162070306558790E-003  1.063262312877117E-006
  1.162070991069236E-003  1.063262312877117E-006
  1.170095726782087E-003  1.063262312877117E-006
  1.170095726793775E-003  1.063262312877117E-006
  1.543196959785053E-003  1.063262312877117E-006
  1.738232354391400E-003  1.063262312877117E-006
  1.769713891370678E-003  1.063262312877117E-006
  1.769999721653846E-003  1.063262312877117E-006
  1.876007338332891E-003  1.063262312877117E-006
  1.966451474859048E-003  1.063262312877117E-006
  2.021807502102178E-003  1.063262312877117E-006
  2.567365746961622E-003  1.063262312877117E-006
  2.572602995724361E-003  1.063262312877117E-006
  2.744124828381007E-003  1.063262312877117E-006
  2.800765183377200E-003  1.063262312877117E-006
  2.935404138466606E-003  1.063262312877117E-006
  3.006411828895300E-003  1.063262312877117E-006
  3.168370056208765E-003  1.063262312877117E-006
  3.221626062217825E-003  1.063262312877117E-006
  3.374765193432531E-003  1.063262312877117E-006
  3.380632702421795E-003  1.063262312877117E-006
  3.569453954297309E-003  1.063262312877117E-006
  3.580220764874945E-003  1.063262312877117E-006
  4.001093162232613E-003  1.063262312877117E-006
  4.001163744203357E-003  1.063262312877117E-006
 cut=1d-8, nber non-redundant internal coords=         120
 Check on Eigenvals of non-red overlap matrix:
  0.00000106  0.00000296  0.00000313  0.00000596  0.00001147  0.00001716  0.00001990  0.00002282
  0.00002449  0.00002906  0.00003745  0.00003835  0.00004018  0.00004047  0.00004474  0.00005145
  0.00005262  0.00005812  0.00005935  0.00006477  0.00007355  0.00007366  0.00007956  0.00007965
  0.00008104  0.00008423  0.00008493  0.00009995  0.00010262  0.00010986  0.00012114  0.00012366
  0.00013494  0.00013828  0.00014092  0.00015645  0.00016889  0.00018085  0.00019564  0.00019611
  0.00020069  0.00024276  0.00026229  0.00028071  0.00031530  0.00032133  0.00032811  0.00034487
  0.00036469  0.00037568  0.00038235  0.00038386  0.00041005  0.00041310  0.00041434  0.00041522
  0.00041793  0.00044352  0.00047986  0.00052021  0.00059310  0.00059310  0.00059684  0.00059684
  0.00060801  0.00061040  0.00061625  0.00061813  0.00062465  0.00062662  0.00063413  0.00064089
  0.00064424  0.00065466  0.00065695  0.00065746  0.00071106  0.00075466  0.00075650  0.00082287
  0.00083017  0.00093319  0.00096984  0.00105057  0.00105059  0.00110622  0.00111176  0.00111191
  0.00111501  0.00111777  0.00112181  0.00112416  0.00112555  0.00112809  0.00113073  0.00116207
  0.00116207  0.00117010  0.00117010  0.00154320  0.00173823  0.00176971  0.00177000  0.00187601
  0.00196645  0.00202181  0.00256737  0.00257260  0.00274412  0.00280077  0.00293540  0.00300641
  0.00316837  0.00322163  0.00337477  0.00338063  0.00356945  0.00358022  0.00400109  0.00400116
 Checking for correct frequencies
 recalc frequencies=
    -0.0   -0.0   -0.0   -0.0   -0.0    0.0   26.0   59.0   72.4   90.1
   122.0  140.4  190.1  193.4  223.6  224.8  276.5  296.3  308.1  369.6
   377.0  391.7  428.3  466.8  468.9  471.7  473.9  476.5  478.3  494.0
   529.6  545.6  562.5  579.0  631.0  642.8  647.9  672.0  702.9  739.0
   742.9  745.8  748.8  757.0  758.9  761.1  770.8  772.3  802.1  824.4
   831.1  839.3  844.0  846.2  863.4  866.5  887.1  899.0  901.0  905.7
   915.5  924.3  928.7  933.3  973.3  973.4  995.2  995.2 1014.5 1016.4
  1121.5 1149.5 1152.1 1183.4 1186.8 1197.6 1197.9 1205.2 1216.1 1228.2
  1261.2 1271.1 1293.8 1296.9 1305.2 1315.8 1327.3 1343.0 1351.1 1385.7
  1404.4 1418.2 1418.5 1420.6 1427.9 1434.4 1475.0 1476.3 1488.1 1530.2
  1546.7 1555.9 1575.5 1578.2 1580.8 1615.0 1629.1 1651.6 1671.3 1676.0
  3154.6 3155.2 3156.4 3156.5 3157.3 3157.7 3159.1 3159.2 3161.1 3161.1
  3162.3 3164.2 3175.8 3175.9 3188.3 3188.5
 recalc symmetries=
     B3g    B2g    B1u    B1g    B3u    B2u    B3u    Au     B1g    B1u
     B2g    B3u    B3g    Au     B1g    Ag     B2g    B1u    B3u    Au 
     B1g    B3g    B2u    B3u    B1g    B3u    B3u    B1g    B1u    B3g
     B2g    Au     B1u    Ag     B2u    Ag     B2u    B3g    B2g    Au 
     B2u    B1g    B3u    Ag     B2g    Ag     Au     B2g    B1u    B1g
     B2u    Au     B2g    B3g    Au     B3u    B2g    Ag     B1g    Au 
     B2g    B3u    B1u    B3g    B1g    B3u    Au     B2g    B2u    Ag 
     B2u    B3g    B1u    Ag     B2u    Ag     B3g    B1u    B3g    B2u
     B1u    Ag     B1u    B3g    B3g    B1u    B1u    B2u    B2u    B3g
     Ag     Ag     B2u    B1u    Ag     B2u    B3g    Ag     B2u    Ag 
     Ag     B2u    B2u    Ag     B1u    B3g    B3g    B1u    B1u    B3g
     B3g    B1u    B2u    B3g    Ag     B1u    B3g    B2u    B1u    Ag 
     B2u    Ag     B3g    B1u    B2u    Ag 
 recalc freqs check OK
 Zero-point lengths:
 10.0000 10.0000 10.0000 10.0000 10.0000 10.0000 48.6465 32.2661 29.1267 26.1109
 22.4485 20.9188 17.9826 17.8261 16.5782 16.5355 14.9086 14.4024 14.1245 12.8961
 12.7681 12.5262 11.9788 11.4746 11.4493 11.4146 11.3880 11.3571 11.3361 11.1539
 10.7726 10.6136 10.4528 10.3024  9.8696  9.7784  9.7396  9.5631  9.3507  9.1195
  9.0956  9.0776  9.0597  9.0104  8.9993  8.9865  8.9292  8.9209  8.7538  8.6345
  8.5994  8.5574  8.5336  8.5224  8.4369  8.4221  8.3238  8.2682  8.2590  8.2376
  8.1936  8.1545  8.1348  8.1151  7.9464  7.9459  7.8586  7.8585  7.7832  7.7761
  7.4028  7.3120  7.3039  7.2066  7.1964  7.1636  7.1628  7.1410  7.1090  7.0741
  6.9808  6.9536  6.8923  6.8840  6.8621  6.8345  6.8047  6.7648  6.7445  6.6597
  6.6153  6.5830  6.5824  6.5775  6.5606  6.5457  6.4550  6.4523  6.4266  6.3375
  6.3037  6.2850  6.2458  6.2404  6.2354  6.1689  6.1422  6.1003  6.0642  6.0556
  4.4139  4.4135  4.4127  4.4126  4.4120  4.4118  4.4108  4.4107  4.4094  4.4094
  4.4085  4.4072  4.3991  4.3991  4.3905  4.3904
 highest evec of mol 1
  0.0000  0.0068 -0.0586
  0.0000  0.0025  0.0004
  0.0000 -0.0001 -0.0049
  0.0000 -0.0001  0.0001
  0.0000  0.0000 -0.0021
  0.0000  0.0000  0.0000
  0.0000 -0.0000 -0.0021
  0.0000  0.0001  0.0001
  0.0000  0.0001 -0.0049
  0.0000 -0.0025  0.0004
  0.0000 -0.0068 -0.0586
  0.0000  0.1199 -0.0660
  0.0000  0.1199  0.0660
  0.0000 -0.0068  0.0586
  0.0000 -0.0025 -0.0004
  0.0000  0.0001  0.0049
  0.0000  0.0001 -0.0001
  0.0000 -0.0000  0.0021
  0.0000  0.0000 -0.0000
  0.0000  0.0000  0.0021
  0.0000 -0.0001 -0.0001
  0.0000 -0.0001  0.0049
  0.0000  0.0025 -0.0004
  0.0000  0.0068  0.0586
  0.0000 -0.1199  0.0660
  0.0000 -0.1199 -0.0660
  0.0000 -0.0017  0.1811
  0.0000 -0.0005  0.0164
  0.0000 -0.0000  0.0067
  0.0000  0.0000  0.0067
  0.0000  0.0005  0.0164
  0.0000  0.0017  0.1811
  0.0000 -0.3845  0.2163
  0.0000 -0.3845 -0.2163
  0.0000  0.0017 -0.1811
  0.0000  0.0005 -0.0164
  0.0000  0.0000 -0.0067
  0.0000 -0.0000 -0.0067
  0.0000 -0.0005 -0.0164
  0.0000 -0.0017 -0.1811
  0.0000  0.3845 -0.2163
  0.0000  0.3845  0.2163
 generating redundant internal coords
         300        3600          42
 Adding extra bonds for z output only
           6           6           6           6           6           6
           6           6           6           6           6           6
           6           6           6           6           6           6
           6           6           6           6           6           6
           6           6           1           1           1           1
           1           1           1           1           1           1
           1           1           1           1           1           1
 search for int coords
   1 str   2   1   1.436
   2 str   3   2   1.384
   3 str   4   3   1.416
   4 str   5   4   1.396
   5 str   6   5   1.405
   6 str   7   6   1.405
   7 str   8   7   1.396
   8 str   9   8   1.416
   9 str  10   9   1.384
  10 str  11  10   1.436
  11 str  12  11   1.361
  12 str  13  12   1.433
  13 str  14  13   1.361
  14 str  15  10   1.456
  15 str  15  14   1.436
  16 str  16  15   1.384
  17 str  17   8   1.458
  18 str  17  16   1.416
  19 str  18  17   1.396
  20 str  19   6   1.459
  21 str  19  18   1.405
  22 str  20  19   1.405
  23 str  21   4   1.458
  24 str  21  20   1.396
  25 str  22  21   1.416
  26 str  23   2   1.456
  27 str  23  22   1.384
  28 str  24  23   1.436
  29 str  25  24   1.361
  30 str  26   1   1.361
  31 str  26  25   1.433
  32 str  27   1   1.085
  33 str  28   3   1.086
  34 str  29   5   1.086
  35 str  30   7   1.086
  36 str  31   9   1.086
  37 str  32  11   1.085
  38 str  33  12   1.084
  39 str  34  13   1.084
  40 str  35  14   1.085
  41 str  36  16   1.086
  42 str  37  18   1.086
  43 str  38  20   1.086
  44 str  39  22   1.086
  45 str  40  24   1.085
  46 str  41  25   1.084
  47 str  42  26   1.084
 nber stretches=          47
  48 ben   1   2   3
  49 prop tor   1   2   3   4
  50 prop tor   1   2   3  28
  51 ben   1   2  23
  52 prop tor   1   2  23  22
  53 prop tor   1   2  23  24
  54 ben   1  26  25
  55 ben   1  26  42
  56 ben   2   1  26
  57 prop tor   2   1  26  25
  58 prop tor   2   1  26  42
  59 ben   2   1  27
  60 ben   2   3   4
  61 prop tor   2   3   4   5
  62 prop tor   2   3   4  21
  63 ben   2   3  28
  64 ben   2  23  22
  65 ben   2  23  24
  66 prop tor   2  23  24  25
  67 prop tor   2  23  24  40
  68 ben   3   2  23
  69 prop tor   3   2  23  22
  70 prop tor   3   2  23  24
  71 ben   3   4   5
  72 prop tor   3   4   5   6
  73 prop tor   3   4   5  29
  74 ben   3   4  21
  75 prop tor   3   4  21  20
  76 prop tor   3   4  21  22
  77 ben   4   3  28
  78 ben   4   5   6
  79 prop tor   4   5   6   7
  80 prop tor   4   5   6  19
  81 ben   4   5  29
  82 ben   4  21  20
  83 ben   4  21  22
  84 prop tor   4  21  22  23
  85 prop tor   4  21  22  39
  86 ben   5   4  21
  87 prop tor   5   4  21  20
  88 prop tor   5   4  21  22
  89 ben   5   6   7
  90 prop tor   5   6   7   8
  91 prop tor   5   6   7  30
  92 ben   5   6  19
  93 prop tor   5   6  19  18
  94 prop tor   5   6  19  20
  95 ben   6   5  29
  96 ben   6   7   8
  97 prop tor   6   7   8   9
  98 prop tor   6   7   8  17
  99 ben   6   7  30
 100 ben   6  19  18
 101 ben   6  19  20
 102 prop tor   6  19  20  21
 103 prop tor   6  19  20  38
 104 ben   7   6  19
 105 prop tor   7   6  19  18
 106 prop tor   7   6  19  20
 107 ben   7   8   9
 108 prop tor   7   8   9  10
 109 prop tor   7   8   9  31
 110 ben   7   8  17
 111 prop tor   7   8  17  16
 112 prop tor   7   8  17  18
 113 ben   8   7  30
 114 ben   8   9  10
 115 prop tor   8   9  10  11
 116 prop tor   8   9  10  15
 117 ben   8   9  31
 118 ben   8  17  16
 119 ben   8  17  18
 120 prop tor   8  17  18  19
 121 prop tor   8  17  18  37
 122 ben   9   8  17
 123 prop tor   9   8  17  16
 124 prop tor   9   8  17  18
 125 ben   9  10  11
 126 prop tor   9  10  11  12
 127 prop tor   9  10  11  32
 128 ben   9  10  15
 129 prop tor   9  10  15  14
 130 prop tor   9  10  15  16
 131 ben  10   9  31
 132 ben  10  11  12
 133 prop tor  10  11  12  13
 134 prop tor  10  11  12  33
 135 ben  10  11  32
 136 ben  10  15  14
 137 ben  10  15  16
 138 prop tor  10  15  16  17
 139 prop tor  10  15  16  36
 140 ben  11  10  15
 141 prop tor  11  10  15  14
 142 prop tor  11  10  15  16
 143 ben  11  12  13
 144 prop tor  11  12  13  14
 145 prop tor  11  12  13  34
 146 ben  11  12  33
 147 ben  12  11  32
 148 ben  12  13  14
 149 prop tor  12  13  14  15
 150 prop tor  12  13  14  35
 151 ben  12  13  34
 152 ben  13  12  33
 153 ben  13  14  15
 154 prop tor  13  14  15  10
 155 prop tor  13  14  15  16
 156 ben  13  14  35
 157 ben  14  13  34
 158 ben  14  15  16
 159 prop tor  14  15  16  17
 160 prop tor  14  15  16  36
 161 prop tor  15  10  11  12
 162 prop tor  15  10  11  32
 163 ben  15  14  35
 164 ben  15  16  17
 165 prop tor  15  16  17   8
 166 prop tor  15  16  17  18
 167 ben  15  16  36
 168 ben  16  17  18
 169 prop tor  16  17  18  19
 170 prop tor  16  17  18  37
 171 prop tor  17   8   9  10
 172 prop tor  17   8   9  31
 173 ben  17  16  36
 174 ben  17  18  19
 175 prop tor  17  18  19   6
 176 prop tor  17  18  19  20
 177 ben  17  18  37
 178 ben  18  19  20
 179 prop tor  18  19  20  21
 180 prop tor  18  19  20  38
 181 prop tor  19   6   7   8
 182 prop tor  19   6   7  30
 183 ben  19  18  37
 184 ben  19  20  21
 185 prop tor  19  20  21   4
 186 prop tor  19  20  21  22
 187 ben  19  20  38
 188 ben  20  21  22
 189 prop tor  20  21  22  23
 190 prop tor  20  21  22  39
 191 prop tor  21   4   5   6
 192 prop tor  21   4   5  29
 193 ben  21  20  38
 194 ben  21  22  23
 195 prop tor  21  22  23   2
 196 prop tor  21  22  23  24
 197 ben  21  22  39
 198 ben  22  23  24
 199 prop tor  22  23  24  25
 200 prop tor  22  23  24  40
 201 prop tor  23   2   3   4
 202 prop tor  23   2   3  28
 203 ben  23  22  39
 204 ben  23  24  25
 205 prop tor  23  24  25  26
 206 prop tor  23  24  25  41
 207 ben  23  24  40
 208 ben  24  25  26
 209 prop tor  24  25  26   1
 210 prop tor  24  25  26  42
 211 ben  24  25  41
 212 ben  25  24  40
 213 ben  25  26  42
 214 prop tor  26   1   2   3
 215 prop tor  26   1   2  23
 216 ben  26   1  27
 217 ben  26  25  41
 218 prop tor  27   1   2   3
 219 prop tor  27   1   2  23
 220 prop tor  27   1  26  25
 221 prop tor  27   1  26  42
 222 prop tor  28   3   4   5
 223 prop tor  28   3   4  21
 224 prop tor  29   5   6   7
 225 prop tor  29   5   6  19
 226 prop tor  30   7   8   9
 227 prop tor  30   7   8  17
 228 prop tor  31   9  10  11
 229 prop tor  31   9  10  15
 230 prop tor  32  11  12  13
 231 prop tor  32  11  12  33
 232 prop tor  33  12  13  14
 233 prop tor  33  12  13  34
 234 prop tor  34  13  14  15
 235 prop tor  34  13  14  35
 236 prop tor  35  14  15  10
 237 prop tor  35  14  15  16
 238 prop tor  36  16  17   8
 239 prop tor  36  16  17  18
 240 prop tor  37  18  19   6
 241 prop tor  37  18  19  20
 242 prop tor  38  20  21   4
 243 prop tor  38  20  21  22
 244 prop tor  39  22  23   2
 245 prop tor  39  22  23  24
 246 prop tor  40  24  25  26
 247 prop tor  40  24  25  41
 248 prop tor  41  25  26   1
 249 prop tor  41  25  26  42
 nber bend=              78
 nber lin bend=           0
 nber prop tor=         124
 nber impr tor=           0
 nber tot redund int=         249
 Reading file: 
 ./Benzene_Conj_5_C1S0.log                                                      
                                          
  Entering Gaussian System, Link 0=g16                                          
  
 Gaussian format, type: g94, g98, g03= F F F
  #P Geom=AllCheck Guess=TCheck SCRF=Check GenChk UB3LYP/6-311G(d,p) Fre    
 energy type= B3LYP   
 Original G94 input coords:
  6  6.148185 -1.409391  0.000000
  6  4.899661 -0.724036  0.000000
  6  3.680751 -1.408097  0.000000
  6  2.452513 -0.727558  0.000000
  6  1.225712 -1.409973  0.000000
  6  0.000000 -0.729080  0.000000
  6 -1.225712 -1.409973  0.000000
  6 -2.452513 -0.727558  0.000000
  6 -3.680751 -1.408097  0.000000
  6 -4.899661 -0.724036  0.000000
  6 -6.148185 -1.409391  0.000000
  6 -7.326538 -0.710784  0.000000
  6 -7.326538  0.710784  0.000000
  6 -6.148185  1.409391  0.000000
  6 -4.899661  0.724036  0.000000
  6 -3.680751  1.408097  0.000000
  6 -2.452513  0.727558  0.000000
  6 -1.225712  1.409973  0.000000
  6  0.000000  0.729080  0.000000
  6  1.225712  1.409973  0.000000
  6  2.452513  0.727558  0.000000
  6  3.680751  1.408097  0.000000
  6  4.899661  0.724036  0.000000
  6  6.148185  1.409391  0.000000
  6  7.326538  0.710784  0.000000
  6  7.326538 -0.710784  0.000000
  1  6.150742 -2.493467  0.000000
  1  3.683065 -2.493026  0.000000
  1  1.226520 -2.495054  0.000000
  1 -1.226520 -2.495054  0.000000
  1 -3.683065 -2.493026  0.000000
  1 -6.150742 -2.493467  0.000000
  1 -8.271221 -1.241044  0.000000
  1 -8.271221  1.241044  0.000000
  1 -6.150742  2.493467  0.000000
  1 -3.683065  2.493026  0.000000
  1 -1.226520  2.495054  0.000000
  1  1.226520  2.495054  0.000000
  1  3.683065  2.493026  0.000000
  1  6.150742  2.493467  0.000000
  1  8.271221  1.241044  0.000000
  1  8.271221 -1.241044  0.000000
 nber atoms=          42
 Original standard coords:
  6  0.000000  6.148185  1.409391
  6  0.000000  4.899661  0.724036
  6  0.000000  3.680751  1.408097
  6  0.000000  2.452513  0.727558
  6  0.000000  1.225712  1.409973
  6  0.000000  0.000000  0.729080
  6  0.000000 -1.225712  1.409973
  6  0.000000 -2.452513  0.727558
  6  0.000000 -3.680751  1.408097
  6  0.000000 -4.899661  0.724036
  6  0.000000 -6.148185  1.409391
  6  0.000000 -7.326538  0.710784
  6  0.000000 -7.326538 -0.710784
  6  0.000000 -6.148185 -1.409391
  6  0.000000 -4.899661 -0.724036
  6  0.000000 -3.680751 -1.408097
  6  0.000000 -2.452513 -0.727558
  6  0.000000 -1.225712 -1.409973
  6  0.000000  0.000000 -0.729080
  6  0.000000  1.225712 -1.409973
  6  0.000000  2.452513 -0.727558
  6  0.000000  3.680751 -1.408097
  6  0.000000  4.899661 -0.724036
  6  0.000000  6.148185 -1.409391
  6  0.000000  7.326538 -0.710784
  6  0.000000  7.326538  0.710784
  1  0.000000  6.150742  2.493467
  1  0.000000  3.683065  2.493026
  1  0.000000  1.226520  2.495054
  1  0.000000 -1.226520  2.495054
  1  0.000000 -3.683065  2.493026
  1  0.000000 -6.150742  2.493467
  1  0.000000 -8.271221  1.241044
  1  0.000000 -8.271221 -1.241044
  1  0.000000 -6.150742 -2.493467
  1  0.000000 -3.683065 -2.493026
  1  0.000000 -1.226520 -2.495054
  1  0.000000  1.226520 -2.495054
  1  0.000000  3.683065 -2.493026
  1  0.000000  6.150742 -2.493467
  1  0.000000  8.271221 -1.241044
  1  0.000000  8.271221  1.241044
  SCF Done:  E(UB3LYP) =  -1000.44070816     A.U. after    1 cycles             
  
          23          40 "  -1000.44070816"
After scan for Atom:   Atom  AN      X      Y      Z        X      Y      Z        X      Y      Z   
After scan for Atom:   Atom  AN      X      Y      Z        X      Y      Z        X      Y      Z   
After scan for Atom:   Atom  AN      X      Y      Z        X      Y      Z        X      Y      Z   
After scan for Atom:   Atom  AN      X      Y      Z        X      Y      Z        X      Y      Z   
After scan for Atom:   Atom  AN      X      Y      Z        X      Y      Z        X      Y      Z   
After scan for Atom:   Atom  AN      X      Y      Z        X      Y      Z        X      Y      Z   
After scan for Atom:   Atom  AN      X      Y      Z        X      Y      Z        X      Y      Z   
After scan for Atom:   Atom  AN      X      Y      Z        X      Y      Z        X      Y      Z   
After scan for Atom:   Atom  AN      X      Y      Z        X      Y      Z        X      Y      Z   
After scan for Atom:   Atom  AN      X      Y      Z        X      Y      Z        X      Y      Z   
After scan for Atom:   Atom  AN      X      Y      Z        X      Y      Z        X      Y      Z   
After scan for Atom:   Atom  AN      X      Y      Z        X      Y      Z        X      Y      Z   
After scan for Atom:   Atom  AN      X      Y      Z        X      Y      Z        X      Y      Z   
After scan for Atom:   Atom  AN      X      Y      Z        X      Y      Z        X      Y      Z   
After scan for Atom:   Atom  AN      X      Y      Z        X      Y      Z        X      Y      Z   
After scan for Atom:   Atom  AN      X      Y      Z        X      Y      Z        X      Y      Z   
After scan for Atom:   Atom  AN      X      Y      Z        X      Y      Z        X      Y      Z   
After scan for Atom:   Atom  AN      X      Y      Z        X      Y      Z        X      Y      Z   
After scan for Atom:   Atom  AN      X      Y      Z        X      Y      Z        X      Y      Z   
After scan for Atom:   Atom  AN      X      Y      Z        X      Y      Z        X      Y      Z   
After scan for Atom:   Atom  AN      X      Y      Z        X      Y      Z        X      Y      Z   
After scan for Atom:   Atom  AN      X      Y      Z        X      Y      Z        X      Y      Z   
After scan for Atom:   Atom  AN      X      Y      Z        X      Y      Z        X      Y      Z   
After scan for Atom:   Atom  AN      X      Y      Z        X      Y      Z        X      Y      Z   
After scan for Atom:   Atom  AN      X      Y      Z        X      Y      Z        X      Y      Z   
After scan for Atom:   Atom  AN      X      Y      Z        X      Y      Z        X      Y      Z   
After scan for Atom:   Atom  AN      X      Y      Z        X      Y      Z        X      Y      Z   
After scan for Atom:   Atom  AN      X      Y      Z        X      Y      Z        X      Y      Z   
After scan for Atom:   Atom  AN      X      Y      Z        X      Y      Z        X      Y      Z   
After scan for Atom:   Atom  AN      X      Y      Z        X      Y      Z        X      Y      Z   
After scan for Atom:   Atom  AN      X      Y      Z        X      Y      Z        X      Y      Z   
After scan for Atom:   Atom  AN      X      Y      Z        X      Y      Z        X      Y      Z   
After scan for Atom:   Atom  AN      X      Y      Z        X      Y      Z        X      Y      Z   
After scan for Atom:   Atom  AN      X      Y      Z        X      Y      Z        X      Y      Z   
After scan for Atom:   Atom  AN      X      Y      Z        X      Y      Z        X      Y      Z   
After scan for Atom:   Atom  AN      X      Y      Z        X      Y      Z        X      Y      Z   
After scan for Atom:   Atom  AN      X      Y      Z        X      Y      Z        X      Y      Z   
After scan for Atom:   Atom  AN      X      Y      Z        X      Y      Z        X      Y      Z   
After scan for Atom:   Atom  AN      X      Y      Z        X      Y      Z        X      Y      Z   
After scan for Atom:   Atom  AN      X      Y      Z        X      Y      Z        X      Y      Z   
 g94    frequencies=
     0.0    0.0    0.0    0.0    0.0    0.0   25.5   58.7   70.6   88.7
   122.4  136.3  190.7  195.2  217.3  224.3  279.8  297.7  300.4  379.0
   385.1  391.9  427.3  445.8  453.5  465.2  476.5  477.7  481.5  485.2
   519.0  537.3  561.7  576.7  629.2  638.9  639.4  673.9  690.2  731.0
   749.7  751.1  757.5  764.2  764.8  767.3  769.5  770.2  805.6  837.4
   851.5  859.4  863.4  865.4  885.5  896.7  904.7  908.5  927.2  927.7
   929.2  931.6  942.6  954.4  992.5  992.7 1021.0 1021.0 1033.5 1034.2
  1152.7 1155.0 1169.4 1193.0 1193.3 1197.2 1208.1 1208.2 1224.1 1232.4
  1279.7 1282.1 1299.0 1304.7 1306.6 1317.3 1331.4 1339.4 1383.4 1401.3
  1413.1 1415.7 1417.6 1423.2 1429.5 1432.9 1477.0 1479.3 1498.5 1522.3
  1535.6 1542.5 1546.1 1560.3 1569.8 1574.1 1615.0 1615.8 1650.8 1655.0
  3170.3 3171.5 3172.2 3173.2 3173.3 3174.8 3174.9 3176.7 3176.8 3176.9
  3180.2 3180.4 3192.2 3192.2 3202.4 3202.5
 g94    symmetries=
                                                B3     AU     B1     B1
      B2     B3     B3     AU     B1     AG     B2     B1     B3     AU
      B1     B3     B2     B3     B3     B1     B1     B3     B1     B3
      B2     AU     B1     AG     B2     AG     B2     B3     B2     AU
      B2     B2     AG     B1     B3     AG     AU     B2     B1     B2
      B3     AU     B1     B2     AU     B3     AG     B2     AU     B1
      B1     B3     B2     B3     B1     B3     AU     B2     B2     AG
      B3     B1     B2     B3     AG     B2     AG     B1     B3     B2
      B1     AG     B1     B3     B3     B1     B1     B2     B3     B2
      B2     AG     AG     B2     AG     B1     AG     B3     B2     AG
      B2     B3     AG     B1     B2     AG     B3     B1     B1     B3
      B3     B1     B2     B3     AG     B1     B2     B1     B3     AG
      B2     AG     B1     B3     B2     AG
 atomic masses:
 12.0000 12.0000 12.0000 12.0000 12.0000 12.0000 12.0000 12.0000 12.0000 12.0000
 12.0000 12.0000 12.0000 12.0000 12.0000 12.0000 12.0000 12.0000 12.0000 12.0000
 12.0000 12.0000 12.0000 12.0000 12.0000 12.0000  1.0078  1.0078  1.0078  1.0078
  1.0078  1.0078  1.0078  1.0078  1.0078  1.0078  1.0078  1.0078  1.0078  1.0078
  1.0078  1.0078
 looking for force constants in 
 ./Benzene_Conj_5_C1S0.fchk                                                     
  
 Cartesian Force Constants                  R   N=        8001                  
  
 n3=         126        8001
 g94-fc frequencies=
    -2.5   -2.1   -0.0   -0.0    0.0    3.2   25.5   58.7   70.6   88.7
   122.4  136.4  190.7  195.2  217.3  224.3  279.8  297.7  300.4  379.0
   385.1  391.9  427.3  445.8  453.5  465.3  476.5  477.7  481.5  485.2
   519.0  537.3  561.7  576.7  629.2  638.9  639.4  673.9  690.2  731.0
   749.7  751.1  757.5  764.2  764.8  767.3  769.5  770.3  805.6  837.4
   851.5  859.4  863.5  865.4  885.5  896.7  904.7  908.5  927.2  927.7
   929.2  931.6  942.7  954.4  992.5  992.7 1021.1 1021.1 1033.5 1034.2
  1152.7 1155.1 1169.5 1193.0 1193.3 1197.2 1208.1 1208.2 1224.1 1232.5
  1279.8 1282.1 1299.0 1304.8 1306.6 1317.3 1331.4 1339.4 1383.4 1401.3
  1413.2 1415.7 1417.6 1423.2 1429.5 1433.0 1477.0 1479.3 1498.5 1522.3
  1535.7 1542.5 1546.1 1560.3 1569.8 1574.2 1615.1 1615.8 1650.9 1655.0
  3170.4 3171.6 3172.2 3173.3 3173.3 3174.9 3175.0 3176.8 3176.8 3176.9
  3180.3 3180.4 3192.3 3192.3 3202.5 3202.5
 at 99999: n3=         126
 symm operator            1 :  T  nop=           1
 symm operator            2 :  T  nop=           2
 symm operator            3 :  T  nop=           3
 symm operator            4 :  T  nop=           4
 symm operator            5 :  T  nop=           5
 symm operator            6 :  T  nop=           6
 symm operator            7 :  T  nop=           7
 The point group of the molecule is D2H
 enforcing symm op           1  jsymt=          -1          -1           1
 enforcing symm op           2  jsymt=          -1           1          -1
 enforcing symm op           3  jsymt=           1          -1          -1
 enforcing symm op           4  jsymt=          -1          -1          -1
 enforcing symm op           5  jsymt=           1           1          -1
 enforcing symm op           6  jsymt=           1          -1           1
 enforcing symm op           7  jsymt=          -1           1           1
 cartesian coord symmetries:
 Ag :   21 Au :   10 B1g:   10 B1u:   21 B2g:   11 B2u:   21 B3g:   21 B3u:   11
 Symmetry rotation matrix:
   1.00000   0.00000   0.00000
   0.00000   1.00000   0.00000
   0.00000   0.00000   1.00000

 Projecting out zero-frequency components
 generating redundant internal coords
         300        3600          42
 search for int coords
   1 str   2   1   1.424
   2 str   3   2   1.398
   3 str   4   3   1.404
   4 str   5   4   1.404
   5 str   6   5   1.402
   6 str   7   6   1.402
   7 str   8   7   1.404
   8 str   9   8   1.404
   9 str  10   9   1.398
  10 str  11  10   1.424
  11 str  12  11   1.370
  12 str  13  12   1.422
  13 str  14  13   1.370
  14 str  15  10   1.448
  15 str  15  14   1.424
  16 str  16  15   1.398
  17 str  17   8   1.455
  18 str  17  16   1.404
  19 str  18  17   1.404
  20 str  19   6   1.458
  21 str  19  18   1.402
  22 str  20  19   1.402
  23 str  21   4   1.455
  24 str  21  20   1.404
  25 str  22  21   1.404
  26 str  23   2   1.448
  27 str  23  22   1.398
  28 str  24  23   1.424
  29 str  25  24   1.370
  30 str  26   1   1.370
  31 str  26  25   1.422
  32 str  27   1   1.084
  33 str  28   3   1.085
  34 str  29   5   1.085
  35 str  30   7   1.085
  36 str  31   9   1.085
  37 str  32  11   1.084
  38 str  33  12   1.083
  39 str  34  13   1.083
  40 str  35  14   1.084
  41 str  36  16   1.085
  42 str  37  18   1.085
  43 str  38  20   1.085
  44 str  39  22   1.085
  45 str  40  24   1.084
  46 str  41  25   1.083
  47 str  42  26   1.083
 nber stretches=          47
  48 ben   1   2   3
  49 prop tor   1   2   3   4
  50 prop tor   1   2   3  28
  51 ben   1   2  23
  52 prop tor   1   2  23  22
  53 prop tor   1   2  23  24
  54 ben   1  26  25
  55 ben   1  26  42
  56 ben   2   1  26
  57 prop tor   2   1  26  25
  58 prop tor   2   1  26  42
  59 ben   2   1  27
  60 ben   2   3   4
  61 prop tor   2   3   4   5
  62 prop tor   2   3   4  21
  63 ben   2   3  28
  64 ben   2  23  22
  65 ben   2  23  24
  66 prop tor   2  23  24  25
  67 prop tor   2  23  24  40
  68 ben   3   2  23
  69 prop tor   3   2  23  22
  70 prop tor   3   2  23  24
  71 ben   3   4   5
  72 prop tor   3   4   5   6
  73 prop tor   3   4   5  29
  74 ben   3   4  21
  75 prop tor   3   4  21  20
  76 prop tor   3   4  21  22
  77 ben   4   3  28
  78 ben   4   5   6
  79 prop tor   4   5   6   7
  80 prop tor   4   5   6  19
  81 ben   4   5  29
  82 ben   4  21  20
  83 ben   4  21  22
  84 prop tor   4  21  22  23
  85 prop tor   4  21  22  39
  86 ben   5   4  21
  87 prop tor   5   4  21  20
  88 prop tor   5   4  21  22
  89 ben   5   6   7
  90 prop tor   5   6   7   8
  91 prop tor   5   6   7  30
  92 ben   5   6  19
  93 prop tor   5   6  19  18
  94 prop tor   5   6  19  20
  95 ben   6   5  29
  96 ben   6   7   8
  97 prop tor   6   7   8   9
  98 prop tor   6   7   8  17
  99 ben   6   7  30
 100 ben   6  19  18
 101 ben   6  19  20
 102 prop tor   6  19  20  21
 103 prop tor   6  19  20  38
 104 ben   7   6  19
 105 prop tor   7   6  19  18
 106 prop tor   7   6  19  20
 107 ben   7   8   9
 108 prop tor   7   8   9  10
 109 prop tor   7   8   9  31
 110 ben   7   8  17
 111 prop tor   7   8  17  16
 112 prop tor   7   8  17  18
 113 ben   8   7  30
 114 ben   8   9  10
 115 prop tor   8   9  10  11
 116 prop tor   8   9  10  15
 117 ben   8   9  31
 118 ben   8  17  16
 119 ben   8  17  18
 120 prop tor   8  17  18  19
 121 prop tor   8  17  18  37
 122 ben   9   8  17
 123 prop tor   9   8  17  16
 124 prop tor   9   8  17  18
 125 ben   9  10  11
 126 prop tor   9  10  11  12
 127 prop tor   9  10  11  32
 128 ben   9  10  15
 129 prop tor   9  10  15  14
 130 prop tor   9  10  15  16
 131 ben  10   9  31
 132 ben  10  11  12
 133 prop tor  10  11  12  13
 134 prop tor  10  11  12  33
 135 ben  10  11  32
 136 ben  10  15  14
 137 ben  10  15  16
 138 prop tor  10  15  16  17
 139 prop tor  10  15  16  36
 140 ben  11  10  15
 141 prop tor  11  10  15  14
 142 prop tor  11  10  15  16
 143 ben  11  12  13
 144 prop tor  11  12  13  14
 145 prop tor  11  12  13  34
 146 ben  11  12  33
 147 ben  12  11  32
 148 ben  12  13  14
 149 prop tor  12  13  14  15
 150 prop tor  12  13  14  35
 151 ben  12  13  34
 152 ben  13  12  33
 153 ben  13  14  15
 154 prop tor  13  14  15  10
 155 prop tor  13  14  15  16
 156 ben  13  14  35
 157 ben  14  13  34
 158 ben  14  15  16
 159 prop tor  14  15  16  17
 160 prop tor  14  15  16  36
 161 prop tor  15  10  11  12
 162 prop tor  15  10  11  32
 163 ben  15  14  35
 164 ben  15  16  17
 165 prop tor  15  16  17   8
 166 prop tor  15  16  17  18
 167 ben  15  16  36
 168 ben  16  17  18
 169 prop tor  16  17  18  19
 170 prop tor  16  17  18  37
 171 prop tor  17   8   9  10
 172 prop tor  17   8   9  31
 173 ben  17  16  36
 174 ben  17  18  19
 175 prop tor  17  18  19   6
 176 prop tor  17  18  19  20
 177 ben  17  18  37
 178 ben  18  19  20
 179 prop tor  18  19  20  21
 180 prop tor  18  19  20  38
 181 prop tor  19   6   7   8
 182 prop tor  19   6   7  30
 183 ben  19  18  37
 184 ben  19  20  21
 185 prop tor  19  20  21   4
 186 prop tor  19  20  21  22
 187 ben  19  20  38
 188 ben  20  21  22
 189 prop tor  20  21  22  23
 190 prop tor  20  21  22  39
 191 prop tor  21   4   5   6
 192 prop tor  21   4   5  29
 193 ben  21  20  38
 194 ben  21  22  23
 195 prop tor  21  22  23   2
 196 prop tor  21  22  23  24
 197 ben  21  22  39
 198 ben  22  23  24
 199 prop tor  22  23  24  25
 200 prop tor  22  23  24  40
 201 prop tor  23   2   3   4
 202 prop tor  23   2   3  28
 203 ben  23  22  39
 204 ben  23  24  25
 205 prop tor  23  24  25  26
 206 prop tor  23  24  25  41
 207 ben  23  24  40
 208 ben  24  25  26
 209 prop tor  24  25  26   1
 210 prop tor  24  25  26  42
 211 ben  24  25  41
 212 ben  25  24  40
 213 ben  25  26  42
 214 prop tor  26   1   2   3
 215 prop tor  26   1   2  23
 216 ben  26   1  27
 217 ben  26  25  41
 218 prop tor  27   1   2   3
 219 prop tor  27   1   2  23
 220 prop tor  27   1  26  25
 221 prop tor  27   1  26  42
 222 prop tor  28   3   4   5
 223 prop tor  28   3   4  21
 224 prop tor  29   5   6   7
 225 prop tor  29   5   6  19
 226 prop tor  30   7   8   9
 227 prop tor  30   7   8  17
 228 prop tor  31   9  10  11
 229 prop tor  31   9  10  15
 230 prop tor  32  11  12  13
 231 prop tor  32  11  12  33
 232 prop tor  33  12  13  14
 233 prop tor  33  12  13  34
 234 prop tor  34  13  14  15
 235 prop tor  34  13  14  35
 236 prop tor  35  14  15  10
 237 prop tor  35  14  15  16
 238 prop tor  36  16  17   8
 239 prop tor  36  16  17  18
 240 prop tor  37  18  19   6
 241 prop tor  37  18  19  20
 242 prop tor  38  20  21   4
 243 prop tor  38  20  21  22
 244 prop tor  39  22  23   2
 245 prop tor  39  22  23  24
 246 prop tor  40  24  25  26
 247 prop tor  40  24  25  41
 248 prop tor  41  25  26   1
 249 prop tor  41  25  26  42
 nber bend=              78
 nber lin bend=           0
 nber prop tor=         124
 nber impr tor=           0
 nber tot redund int=         249
 Eigenvalues of G in red int coords
    Gval -0.00000000 -0.00000000 -0.00000000 -0.00000000 -0.00000000 -0.00000000 -0.00000000 -0.00000000
    Gval -0.00000000 -0.00000000 -0.00000000 -0.00000000 -0.00000000 -0.00000000 -0.00000000 -0.00000000
    Gval -0.00000000 -0.00000000 -0.00000000 -0.00000000 -0.00000000 -0.00000000 -0.00000000 -0.00000000
    Gval -0.00000000 -0.00000000 -0.00000000 -0.00000000 -0.00000000 -0.00000000 -0.00000000 -0.00000000
    Gval -0.00000000 -0.00000000 -0.00000000 -0.00000000 -0.00000000 -0.00000000 -0.00000000 -0.00000000
    Gval -0.00000000 -0.00000000 -0.00000000 -0.00000000 -0.00000000 -0.00000000 -0.00000000 -0.00000000
    Gval -0.00000000 -0.00000000 -0.00000000 -0.00000000 -0.00000000 -0.00000000 -0.00000000 -0.00000000
    Gval -0.00000000 -0.00000000 -0.00000000  0.00000000  0.00000000  0.00000000  0.00000000  0.00000000
    Gval  0.00000000  0.00000000  0.00000000  0.00000000  0.00000000  0.00000000  0.00000000  0.00000000
    Gval  0.00000000  0.00000000  0.00000000  0.00000000  0.00000000  0.00000000  0.00000000  0.00000000
    Gval  0.00000000  0.00000000  0.00000000  0.00000000  0.00000000  0.00000000  0.00000000  0.00000000
    Gval  0.00000000  0.00000000  0.00000000  0.00000000  0.00000000  0.00000000  0.00000000  0.00000000
    Gval  0.00000000  0.00000000  0.00000000  0.00000000  0.00000000  0.00000000  0.00000000  0.00000000
    Gval  0.00000000  0.00000000  0.00000000  0.00000000  0.00000000  0.00000000  0.00000000  0.00000000
    Gval  0.00000000  0.00000000  0.00000000  0.00000000  0.00000000  0.00000000  0.00000000  0.00000000
    Gval  0.00000000  0.00000000  0.00000000  0.00000000  0.00000000  0.00000000  0.00000000  0.00000000
    Gval  0.00000000  0.00000107  0.00000296  0.00000311  0.00000597  0.00001149  0.00001718  0.00002004
    Gval  0.00002267  0.00002453  0.00002904  0.00003744  0.00003838  0.00004023  0.00004042  0.00004474
    Gval  0.00005153  0.00005269  0.00005806  0.00005932  0.00006491  0.00007355  0.00007356  0.00007959
    Gval  0.00007997  0.00008045  0.00008458  0.00008481  0.00009962  0.00010266  0.00010960  0.00012118
    Gval  0.00012342  0.00013509  0.00013811  0.00014069  0.00015726  0.00016796  0.00018177  0.00019405
    Gval  0.00019517  0.00020094  0.00024322  0.00026310  0.00028123  0.00031569  0.00032116  0.00032972
    Gval  0.00034443  0.00035688  0.00037522  0.00038488  0.00038661  0.00041093  0.00041316  0.00041424
    Gval  0.00041552  0.00041735  0.00044299  0.00047521  0.00052420  0.00059310  0.00059310  0.00059693
    Gval  0.00059693  0.00060794  0.00061041  0.00061620  0.00061800  0.00062456  0.00062647  0.00063396
    Gval  0.00064061  0.00064390  0.00065422  0.00065714  0.00065758  0.00071012  0.00075266  0.00075431
    Gval  0.00082113  0.00082784  0.00092680  0.00096271  0.00105277  0.00105279  0.00110705  0.00111503
    Gval  0.00111538  0.00111621  0.00111906  0.00112329  0.00112538  0.00112698  0.00112910  0.00113171
    Gval  0.00116295  0.00116295  0.00117158  0.00117158  0.00155359  0.00174541  0.00177532  0.00177558
    Gval  0.00188482  0.00197662  0.00203099  0.00258370  0.00258954  0.00274814  0.00280470  0.00294088
    Gval  0.00301035  0.00317317  0.00322431  0.00337821  0.00338146  0.00357777  0.00358796  0.00400776
    Gval  0.00400783
  1.067688940690038E-006  1.067688940690038E-006
  2.960608023712576E-006  1.067688940690038E-006
  3.110576277437762E-006  1.067688940690038E-006
  5.968621904331069E-006  1.067688940690038E-006
  1.149173010698734E-005  1.067688940690038E-006
  1.717563623143284E-005  1.067688940690038E-006
  2.003525577484512E-005  1.067688940690038E-006
  2.267022043461441E-005  1.067688940690038E-006
  2.452633044268185E-005  1.067688940690038E-006
  2.904144536734332E-005  1.067688940690038E-006
  3.743604663821168E-005  1.067688940690038E-006
  3.837524570454011E-005  1.067688940690038E-006
  4.023392085811236E-005  1.067688940690038E-006
  4.042126853630318E-005  1.067688940690038E-006
  4.474193773779019E-005  1.067688940690038E-006
  5.152605579517636E-005  1.067688940690038E-006
  5.269441947647345E-005  1.067688940690038E-006
  5.805528288162512E-005  1.067688940690038E-006
  5.932481056761425E-005  1.067688940690038E-006
  6.491339042088492E-005  1.067688940690038E-006
  7.354858997086526E-005  1.067688940690038E-006
  7.356410745692385E-005  1.067688940690038E-006
  7.959252274824913E-005  1.067688940690038E-006
  7.997437343684807E-005  1.067688940690038E-006
  8.045358778028694E-005  1.067688940690038E-006
  8.458065999678581E-005  1.067688940690038E-006
  8.481185503392444E-005  1.067688940690038E-006
  9.962311865594227E-005  1.067688940690038E-006
  1.026567323605499E-004  1.067688940690038E-006
  1.095951126204954E-004  1.067688940690038E-006
  1.211768303623861E-004  1.067688940690038E-006
  1.234247899678322E-004  1.067688940690038E-006
  1.350939370116730E-004  1.067688940690038E-006
  1.381132312707847E-004  1.067688940690038E-006
  1.406946615555823E-004  1.067688940690038E-006
  1.572567652234678E-004  1.067688940690038E-006
  1.679628456992506E-004  1.067688940690038E-006
  1.817702591793302E-004  1.067688940690038E-006
  1.940493656537286E-004  1.067688940690038E-006
  1.951734223150397E-004  1.067688940690038E-006
  2.009446384876153E-004  1.067688940690038E-006
  2.432176210940127E-004  1.067688940690038E-006
  2.631035552639080E-004  1.067688940690038E-006
  2.812328432345379E-004  1.067688940690038E-006
  3.156947186577523E-004  1.067688940690038E-006
  3.211613672317484E-004  1.067688940690038E-006
  3.297198906774183E-004  1.067688940690038E-006
  3.444288961684500E-004  1.067688940690038E-006
  3.568753591424141E-004  1.067688940690038E-006
  3.752163049369955E-004  1.067688940690038E-006
  3.848767202531757E-004  1.067688940690038E-006
  3.866097770611399E-004  1.067688940690038E-006
  4.109278457254975E-004  1.067688940690038E-006
  4.131557459931476E-004  1.067688940690038E-006
  4.142414183403889E-004  1.067688940690038E-006
  4.155234684283360E-004  1.067688940690038E-006
  4.173481853598221E-004  1.067688940690038E-006
  4.429916633618472E-004  1.067688940690038E-006
  4.752131965011420E-004  1.067688940690038E-006
  5.241992484757536E-004  1.067688940690038E-006
  5.931023559744235E-004  1.067688940690038E-006
  5.931028064286886E-004  1.067688940690038E-006
  5.969306883382741E-004  1.067688940690038E-006
  5.969324499753010E-004  1.067688940690038E-006
  6.079407923818903E-004  1.067688940690038E-006
  6.104102707384541E-004  1.067688940690038E-006
  6.161975510145114E-004  1.067688940690038E-006
  6.179993747903845E-004  1.067688940690038E-006
  6.245570001859842E-004  1.067688940690038E-006
  6.264723146270823E-004  1.067688940690038E-006
  6.339631630495683E-004  1.067688940690038E-006
  6.406067680039010E-004  1.067688940690038E-006
  6.439043024547441E-004  1.067688940690038E-006
  6.542222889956033E-004  1.067688940690038E-006
  6.571393605604164E-004  1.067688940690038E-006
  6.575822735781157E-004  1.067688940690038E-006
  7.101223554467706E-004  1.067688940690038E-006
  7.526648098379842E-004  1.067688940690038E-006
  7.543097509032679E-004  1.067688940690038E-006
  8.211258291242488E-004  1.067688940690038E-006
  8.278444560923124E-004  1.067688940690038E-006
  9.267995506364212E-004  1.067688940690038E-006
  9.627059376789890E-004  1.067688940690038E-006
  1.052766224741697E-003  1.067688940690038E-006
  1.052785709429337E-003  1.067688940690038E-006
  1.107053757077522E-003  1.067688940690038E-006
  1.115030751111871E-003  1.067688940690038E-006
  1.115380346811534E-003  1.067688940690038E-006
  1.116211618673093E-003  1.067688940690038E-006
  1.119060787594520E-003  1.067688940690038E-006
  1.123289164121566E-003  1.067688940690038E-006
  1.125383515257724E-003  1.067688940690038E-006
  1.126976890437625E-003  1.067688940690038E-006
  1.129096646926998E-003  1.067688940690038E-006
  1.131714325465565E-003  1.067688940690038E-006
  1.162951322806596E-003  1.067688940690038E-006
  1.162952068175579E-003  1.067688940690038E-006
  1.171583420247342E-003  1.067688940690038E-006
  1.171583420261350E-003  1.067688940690038E-006
  1.553587285909559E-003  1.067688940690038E-006
  1.745409378258737E-003  1.067688940690038E-006
  1.775315779464089E-003  1.067688940690038E-006
  1.775584170902277E-003  1.067688940690038E-006
  1.884820953929314E-003  1.067688940690038E-006
  1.976620369880029E-003  1.067688940690038E-006
  2.030991444135281E-003  1.067688940690038E-006
  2.583698599829849E-003  1.067688940690038E-006
  2.589543474711761E-003  1.067688940690038E-006
  2.748140687791224E-003  1.067688940690038E-006
  2.804703617775943E-003  1.067688940690038E-006
  2.940879529397601E-003  1.067688940690038E-006
  3.010350547524888E-003  1.067688940690038E-006
  3.173173724683724E-003  1.067688940690038E-006
  3.224308121779420E-003  1.067688940690038E-006
  3.378205988463621E-003  1.067688940690038E-006
  3.381464771600186E-003  1.067688940690038E-006
  3.577771612667569E-003  1.067688940690038E-006
  3.587964430211765E-003  1.067688940690038E-006
  4.007757379503135E-003  1.067688940690038E-006
  4.007825912579316E-003  1.067688940690038E-006
 cut=1d-8, nber non-redundant internal coords=         120
 Check on Eigenvals of non-red overlap matrix:
  0.00000107  0.00000296  0.00000311  0.00000597  0.00001149  0.00001718  0.00002004  0.00002267
  0.00002453  0.00002904  0.00003744  0.00003838  0.00004023  0.00004042  0.00004474  0.00005153
  0.00005269  0.00005806  0.00005932  0.00006491  0.00007355  0.00007356  0.00007959  0.00007997
  0.00008045  0.00008458  0.00008481  0.00009962  0.00010266  0.00010960  0.00012118  0.00012342
  0.00013509  0.00013811  0.00014069  0.00015726  0.00016796  0.00018177  0.00019405  0.00019517
  0.00020094  0.00024322  0.00026310  0.00028123  0.00031569  0.00032116  0.00032972  0.00034443
  0.00035688  0.00037522  0.00038488  0.00038661  0.00041093  0.00041316  0.00041424  0.00041552
  0.00041735  0.00044299  0.00047521  0.00052420  0.00059310  0.00059310  0.00059693  0.00059693
  0.00060794  0.00061041  0.00061620  0.00061800  0.00062456  0.00062647  0.00063396  0.00064061
  0.00064390  0.00065422  0.00065714  0.00065758  0.00071012  0.00075266  0.00075431  0.00082113
  0.00082784  0.00092680  0.00096271  0.00105277  0.00105279  0.00110705  0.00111503  0.00111538
  0.00111621  0.00111906  0.00112329  0.00112538  0.00112698  0.00112910  0.00113171  0.00116295
  0.00116295  0.00117158  0.00117158  0.00155359  0.00174541  0.00177532  0.00177558  0.00188482
  0.00197662  0.00203099  0.00258370  0.00258954  0.00274814  0.00280470  0.00294088  0.00301035
  0.00317317  0.00322431  0.00337821  0.00338146  0.00357777  0.00358796  0.00400776  0.00400783
 Checking for correct frequencies
 recalc frequencies=
    -0.0   -0.0   -0.0    0.0    0.0    0.0   25.5   58.7   70.6   88.7
   122.4  136.4  190.7  195.2  217.3  224.3  279.8  297.7  300.4  379.0
   385.1  391.9  427.3  445.8  453.5  465.3  476.5  477.7  481.5  485.2
   519.0  537.3  561.7  576.7  629.2  638.9  639.4  673.9  690.2  731.0
   749.7  751.1  757.5  764.2  764.8  767.3  769.5  770.3  805.6  837.4
   851.5  859.4  863.5  865.4  885.5  896.7  904.7  908.5  927.2  927.7
   929.2  931.6  942.7  954.4  992.5  992.7 1021.1 1021.1 1033.5 1034.2
  1152.7 1155.1 1169.5 1193.0 1193.3 1197.2 1208.1 1208.2 1224.1 1232.5
  1279.8 1282.1 1299.0 1304.8 1306.6 1317.3 1331.4 1339.4 1383.4 1401.3
  1413.2 1415.7 1417.6 1423.2 1429.5 1433.0 1477.0 1479.3 1498.5 1522.3
  1535.7 1542.5 1546.1 1560.3 1569.8 1574.2 1615.1 1615.8 1650.9 1655.0
  3170.4 3171.6 3172.2 3173.3 3173.3 3174.9 3175.0 3176.8 3176.8 3176.9
  3180.3 3180.4 3192.3 3192.3 3202.5 3202.5
 recalc symmetries=
     B1u    B2g    B1g    B3u    B3g    B2u    B3u    Au     B1g    B1u
     B2g    B3u    B3g    Au     B1g    Ag     B2g    B1u    B3u    Au 
     B1g    B3g    B2u    B3u    B3u    B1g    B1u    B3u    B1g    B3g
     B2g    Au     B1u    Ag     B2u    Ag     B2u    B3g    B2g    Au 
     B2u    B2g    Ag     B1g    B3u    Ag     Au     B2g    B1u    B2u
     B3g    Au     B1g    B2g    Au     B3u    Ag     B2g    Au     B1u
     B1g    B3g    B2g    B3u    B1g    B3u    Au     B2g    B2u    Ag 
     B3g    B1u    B2u    B3g    Ag     B2u    Ag     B1u    B3g    B2u
     B1u    Ag     B1u    B3g    B3g    B1u    B1u    B2u    B3g    B2u
     B2u    Ag     Ag     B2u    Ag     B1u    Ag     B3g    B2u    Ag 
     B2u    B3g    Ag     B1u    B2u    Ag     B3g    B1u    B1u    B3g
     B3g    B1u    B2u    B3g    Ag     B1u    B2u    B1u    B3g    Ag 
     B2u    Ag     B1u    B3g    B2u    Ag 
 recalc freqs check OK
 Zero-point lengths:
 10.0000 10.0000 10.0000 10.0000 10.0000 10.0000 49.1260 32.3573 29.5039 26.3159
 22.4109 21.2308 17.9525 17.7451 16.8166 16.5529 14.8208 14.3685 14.3037 12.7343
 12.6331 12.5233 11.9925 11.7411 11.6419 11.4934 11.3569 11.3430 11.2976 11.2551
 10.8819 10.6949 10.4606 10.3231  9.8830  9.8082  9.8041  9.5500  9.4362  9.1694
  9.0544  9.0455  9.0073  8.9677  8.9646  8.9499  8.9369  8.9326  8.7345  8.5671
  8.4959  8.4567  8.4368  8.4271  8.3309  8.2789  8.2422  8.2250  8.1415  8.1393
  8.1327  8.1224  8.0746  8.0246  7.8690  7.8682  7.7584  7.7584  7.7114  7.7088
  7.3019  7.2944  7.2494  7.1775  7.1767  7.1650  7.1326  7.1322  7.0858  7.0617
  6.9300  6.9235  6.8784  6.8633  6.8584  6.8304  6.7943  6.7739  6.6653  6.6226
  6.5947  6.5888  6.5844  6.5714  6.5569  6.5490  6.4507  6.4456  6.4041  6.3540
  6.3263  6.3122  6.3048  6.2761  6.2571  6.2484  6.1688  6.1674  6.1016  6.0939
  4.4029  4.4021  4.4016  4.4009  4.4009  4.3998  4.3997  4.3985  4.3984  4.3984
  4.3960  4.3959  4.3878  4.3878  4.3808  4.3807
 highest evec of mol 2
  0.0000  0.0064 -0.0562
  0.0000  0.0025  0.0005
  0.0000  0.0000 -0.0029
  0.0000 -0.0002  0.0001
  0.0000  0.0001 -0.0009
  0.0000  0.0000  0.0000
  0.0000 -0.0001 -0.0009
  0.0000  0.0002  0.0001
  0.0000 -0.0000 -0.0029
  0.0000 -0.0025  0.0005
  0.0000 -0.0064 -0.0562
  0.0000  0.1204 -0.0679
  0.0000  0.1204  0.0679
  0.0000 -0.0064  0.0562
  0.0000 -0.0025 -0.0005
  0.0000 -0.0000  0.0029
  0.0000  0.0002 -0.0001
  0.0000 -0.0001  0.0009
  0.0000  0.0000 -0.0000
  0.0000  0.0001  0.0009
  0.0000 -0.0002 -0.0001
  0.0000  0.0000  0.0029
  0.0000  0.0025 -0.0005
  0.0000  0.0064  0.0562
  0.0000 -0.1204  0.0679
  0.0000 -0.1204 -0.0679
  0.0000 -0.0013  0.1736
  0.0000 -0.0005  0.0095
  0.0000 -0.0000  0.0028
  0.0000  0.0000  0.0028
  0.0000  0.0005  0.0095
  0.0000  0.0013  0.1736
  0.0000 -0.3870  0.2183
  0.0000 -0.3870 -0.2183
  0.0000  0.0013 -0.1736
  0.0000  0.0005 -0.0095
  0.0000  0.0000 -0.0028
  0.0000 -0.0000 -0.0028
  0.0000 -0.0005 -0.0095
  0.0000 -0.0013 -0.1736
  0.0000  0.3870 -0.2183
  0.0000  0.3870  0.2183
 Enter nber and list of atoms to keep of mol #2
 keep list:          42           1           2           3           4
           5           6           7           8           9          10
          11          12          13          14          15          16
          17          18          19          20          21          22
          23          24          25          26          27          28
          29          30          31          32          33          34
          35          36          37          38          39          40
          41          42
 reordering atoms
           1  -6.14818500000000     
           2  -4.89966100000000     
           3  -3.68075100000000     
           4  -2.45251300000000     
           5  -1.22571200000000     
           6 -1.821904450666923E-016
           7   1.22571200000000     
           8   2.45251300000000     
           9   3.68075100000000     
          10   4.89966100000000     
          11   6.14818500000000     
          12   7.32653800000000     
          13   7.32653800000000     
          14   6.14818500000000     
          15   4.89966100000000     
          16   3.68075100000000     
          17   2.45251300000000     
          18   1.22571200000000     
          19 -1.821904450666923E-016
          20  -1.22571200000000     
          21  -2.45251300000000     
          22  -3.68075100000000     
          23  -4.89966100000000     
          24  -6.14818500000000     
          25  -7.32653800000000     
          26  -7.32653800000000     
          27  -6.15074200000000     
          28  -3.68306500000000     
          29  -1.22652000000000     
          30   1.22652000000000     
          31   3.68306500000000     
          32   6.15074200000000     
          33   8.27122100000000     
          34   8.27122100000000     
          35   6.15074200000000     
          36   3.68306500000000     
          37   1.22652000000000     
          38  -1.22652000000000     
          39  -3.68306500000000     
          40  -6.15074200000000     
          41  -8.27122100000000     
          42  -8.27122100000000     
           1           1
           2           2
           3           3
           4           4
           5           5
           6           6
           7           7
           8           8
           9           9
          10          10
          11          11
          12          12
          13          13
          14          14
          15          15
          16          16
          17          17
          18          18
          19          19
          20          20
          21          21
          22          22
          23          23
          24          24
          25          25
          26          26
          27          27
          28          28
          29          29
          30          30
          31          31
          32          32
          33          33
          34          34
          35          35
          36          36
          37          37
          38          38
          39          39
          40          40
          41          41
          42          42
 initial cartes coords mol 1
   6   0.00000   1.40914  -6.16367
   6   0.00000   0.72786  -4.89977
   6   0.00000   1.40719  -3.69353
   6   0.00000   0.72903  -2.45062
   6   0.00000   1.40803  -1.23068
   6   0.00000   0.72960   0.00000
   6   0.00000   1.40803   1.23068
   6   0.00000   0.72903   2.45062
   6   0.00000   1.40719   3.69353
   6   0.00000   0.72786   4.89977
   6   0.00000   1.40914   6.16367
   6   0.00000   0.71657   7.33517
   6   0.00000  -0.71657   7.33517
   6   0.00000  -1.40914   6.16367
   6   0.00000  -0.72786   4.89977
   6   0.00000  -1.40719   3.69353
   6   0.00000  -0.72903   2.45062
   6   0.00000  -1.40803   1.23068
   6   0.00000  -0.72960   0.00000
   6   0.00000  -1.40803  -1.23068
   6   0.00000  -0.72903  -2.45062
   6   0.00000  -1.40719  -3.69353
   6   0.00000  -0.72786  -4.89977
   6   0.00000  -1.40914  -6.16367
   6   0.00000  -0.71657  -7.33517
   6   0.00000   0.71657  -7.33517
   1   0.00000   2.49432  -6.16380
   1   0.00000   2.49277  -3.69433
   1   0.00000   2.49353  -1.23097
   1   0.00000   2.49353   1.23097
   1   0.00000   2.49277   3.69433
   1   0.00000   2.49432   6.16380
   1   0.00000   1.24565   8.28129
   1   0.00000  -1.24565   8.28129
   1   0.00000  -2.49432   6.16380
   1   0.00000  -2.49277   3.69433
   1   0.00000  -2.49353   1.23097
   1   0.00000  -2.49353  -1.23097
   1   0.00000  -2.49277  -3.69433
   1   0.00000  -2.49432  -6.16380
   1   0.00000  -1.24565  -8.28129
   1   0.00000   1.24565  -8.28129
 initial cartes coords mol 2
   6   0.00000   1.40939  -6.14818
   6   0.00000   0.72404  -4.89966
   6   0.00000   1.40810  -3.68075
   6   0.00000   0.72756  -2.45251
   6   0.00000   1.40997  -1.22571
   6   0.00000   0.72908  -0.00000
   6   0.00000   1.40997   1.22571
   6   0.00000   0.72756   2.45251
   6   0.00000   1.40810   3.68075
[...]
                -0.6725    45.2         114 B3g  3173.
                 0.6434    41.4         119 B3g  3177.
 115 Ag   3157. -0.9629    92.7   100.0 115 Ag   3173.
 116 B1u  3158. -0.4656    21.7   100.0 112 B1u  3172.
                 0.3879    15.0         116 B1u  3175.
                 0.7953    63.3         118 B1u  3177.
 117 B3g  3159.  0.6828    46.6   100.0 114 B3g  3173.
                 0.7298    53.3         119 B3g  3177.
 118 B2u  3159.  0.8786    77.2   100.0 117 B2u  3175.
                 0.4254    18.1         121 B2u  3180.
 119 B1u  3161.  0.8848    78.3   100.0 116 B1u  3175.
                -0.4627    21.4         118 B1u  3177.
 120 Ag   3161.  0.6157    37.9   100.0 120 Ag   3177.
                -0.7403    54.8         122 Ag   3180.
 121 B2u  3162. -0.4400    19.4   100.0 117 B2u  3175.
                 0.8975    80.6         121 B2u  3180.
 122 Ag   3164.  0.7696    59.2   100.0 120 Ag   3177.
                 0.6381    40.7         122 Ag   3180.
 123 B3g  3176.  0.9998   100.0   100.0 124 B3g  3192.
 124 B1u  3176.  0.9998   100.0   100.0 123 B1u  3192.
 125 B2u  3188.  0.9998   100.0   100.0 125 B2u  3202.
 126 Ag   3188.  0.9997    99.9   100.0 126 Ag   3202.
 nber times 1st assigned=           1           0
 nber times 1st assigned=           2           0
 nber times 1st assigned=           3           0
 nber times 1st assigned=           4           0
 nber times 1st assigned=           5           0
 nber times 1st assigned=           6           0
 nber times 1st assigned=           7           0
 nber times 1st assigned=           8           0
 nber times 1st assigned=           9           0
 nber times 1st assigned=          10           0
 nber times 1st assigned=          11           0
 nber times 1st assigned=          12           0
 nber times 1st assigned=          13           0
 nber times 1st assigned=          14           0
 nber times 1st assigned=          15           0
 nber times 1st assigned=          16           0
 nber times 1st assigned=          17           0
 nber times 1st assigned=          18           0
 nber times 1st assigned=          19           0
 nber times 1st assigned=          20           0
 nber times 1st assigned=          21           0
 nber times 1st assigned=          22           0
 nber times 1st assigned=          23           0
 nber times 1st assigned=          24           0
 nber times 1st assigned=          25           0
 nber times 1st assigned=          26           0
 nber times 1st assigned=          27           0
 nber times 1st assigned=          28           0
 nber times 1st assigned=          29           0
 nber times 1st assigned=          30           0
 nber times 1st assigned=          31           0
 nber times 1st assigned=          32           0
 nber times 1st assigned=          33           0
 nber times 1st assigned=          34           0
 nber times 1st assigned=          35           0
 nber times 1st assigned=          36           0
 nber times 1st assigned=          37           0
 nber times 1st assigned=          38           0
 nber times 1st assigned=          39           0
 nber times 1st assigned=          40           0
 nber times 1st assigned=          41           0
 nber times 1st assigned=          42           0
 nber times 1st assigned=          43           0
 nber times 1st assigned=          44           0
 nber times 1st assigned=          45           0
 nber times 1st assigned=          46           0
 nber times 1st assigned=          47           0
 nber times 1st assigned=          48           0
 nber times 1st assigned=          49           0
 nber times 1st assigned=          50           0
 nber times 1st assigned=          51           0
 nber times 1st assigned=          52           0
 nber times 1st assigned=          53           0
 nber times 1st assigned=          54           0
 nber times 1st assigned=          55           0
 nber times 1st assigned=          56           0
 nber times 1st assigned=          57           0
 nber times 1st assigned=          58           0
 nber times 1st assigned=          59           0
 nber times 1st assigned=          60           0
 nber times 1st assigned=          61           0
 nber times 1st assigned=          62           0
 nber times 1st assigned=          63           0
 nber times 1st assigned=          64           0
 nber times 1st assigned=          65           0
 nber times 1st assigned=          66           0
 nber times 1st assigned=          67           0
 nber times 1st assigned=          68           0
 nber times 1st assigned=          69           0
 nber times 1st assigned=          70           0
 nber times 1st assigned=          71           0
 nber times 1st assigned=          72           0
 nber times 1st assigned=          73           0
 nber times 1st assigned=          74           0
 nber times 1st assigned=          75           0
 nber times 1st assigned=          76           0
 nber times 1st assigned=          77           0
 nber times 1st assigned=          78           0
 nber times 1st assigned=          79           0
 nber times 1st assigned=          80           0
 nber times 1st assigned=          81           0
 nber times 1st assigned=          82           0
 nber times 1st assigned=          83           0
 nber times 1st assigned=          84           0
 nber times 1st assigned=          85           0
 nber times 1st assigned=          86           0
 nber times 1st assigned=          87           0
 nber times 1st assigned=          88           0
 nber times 1st assigned=          89           0
 nber times 1st assigned=          90           0
 nber times 1st assigned=          91           0
 nber times 1st assigned=          92           0
 nber times 1st assigned=          93           0
 nber times 1st assigned=          94           0
 nber times 1st assigned=          95           0
 nber times 1st assigned=          96           0
 nber times 1st assigned=          97           0
 nber times 1st assigned=          98           0
 nber times 1st assigned=          99           0
 nber times 1st assigned=         100           0
 nber times 1st assigned=         101           0
 nber times 1st assigned=         102           0
 nber times 1st assigned=         103           0
 nber times 1st assigned=         104           0
 nber times 1st assigned=         105           0
 nber times 1st assigned=         106           0
 nber times 1st assigned=         107           0
 nber times 1st assigned=         108           0
 nber times 1st assigned=         109           0
 nber times 1st assigned=         110           0
 nber times 1st assigned=         111           0
 nber times 1st assigned=         112           0
 nber times 1st assigned=         113           0
 nber times 1st assigned=         114           0
 nber times 1st assigned=         115           0
 nber times 1st assigned=         116           0
 nber times 1st assigned=         117           0
 nber times 1st assigned=         118           0
 nber times 1st assigned=         119           0
 nber times 1st assigned=         120           0
 nber times 1st assigned=         121           0
 nber times 1st assigned=         122           0
 nber times 1st assigned=         123           0
 nber times 1st assigned=         124           0
 nber times 1st assigned=         125           0
 nber times 1st assigned=         126           0
 modes represented=   120.063325159477     
 p1=
   -0.   -0.   -0.    0.   -0.   -0.   -0.   -0.    0.   -0.   -0.    0.   -0.    0.   -0.    6.    0.    0.   -0.    0.
    0.   -0.   -0.   -0.    0.   -0.    0.    0.    0.    0.    0.   -0.   -0.    0.    0.    0.    0.    0.   -0.    0.
   -0.    0.    0.    1.   -0.   -1.   -0.   -0.    0.    0.    0.    0.   -0.   -0.   -0.    0.   -0.   -0.    0.    0.
    0.    0.   -0.    0.    0.   -0.   -0.   -0.    0.    1.   -0.    0.    0.    2.   -0.    2.    0.   -0.   -0.    0.
    0.   -0.    0.    0.    0.   -0.    0.    0.    0.    0.   -3.    0.   -0.   -0.    1.    0.   -0.    0.    0.   -0.
    2.   -0.    0.   -1.   -0.    0.    0.    0.    0.   -0.   -0.   -0.    0.   -0.   -0.   -0.    0.   -0.    0.   -0.
    0.    0.    0.    0.    0.   -0.
 p2=
   -0.    0.    0.    0.   -0.   -0.   -0.    0.    0.   -0.   -0.   -0.   -0.   -0.   -0.    6.   -0.    0.    0.   -0.
    0.    0.   -0.    0.    0.    0.   -0.    0.   -0.   -0.    0.    0.    0.   -0.    0.    0.    0.    0.   -0.   -0.
   -0.   -0.    0.    0.   -0.    1.    0.    0.   -0.   -0.    0.   -0.   -0.    0.   -0.    0.    0.    0.   -0.    0.
   -0.   -0.    0.   -0.   -0.    0.    0.   -0.    0.    1.   -0.    0.    0.    0.    2.    0.   -2.    0.    0.   -0.
   -0.   -0.    0.    0.    0.   -0.    0.   -0.    0.   -0.   -0.   -0.    3.   -0.    1.    0.   -0.   -0.    0.    0.
    0.    0.    2.    0.    0.    1.    0.    0.    0.   -0.   -0.    0.    0.    0.   -0.    0.    0.    0.    0.   -0.
   -0.   -0.   -0.    0.    0.    0.

 Displacement: in terms of nc of 1 THEN of nc of 2

   1 B3g freq=    -0. Q= -0.000 lam=    -0.0 B1u freq=    -0. Q= -0.000 lam=    -0.0
   2 B2g freq=    -0. Q= -0.000 lam=    -0.0 B2g freq=    -0. Q= -0.000 lam=    -0.0
   3 B1u freq=    -0. Q= -0.000 lam=    -0.0 B1g freq=    -0. Q= -0.000 lam=    -0.0
   4 B1g freq=    -0. Q=  0.000 lam=    -0.0 B3u freq=     0. Q=  0.000 lam=     0.0
   5 B3u freq=    -0. Q= -0.000 lam=    -0.0 B3g freq=     0. Q= -0.000 lam=     0.0
   6 B2u freq=     0. Q= -0.000 lam=     0.0 B2u freq=     0. Q= -0.000 lam=     0.0
   7 B3u freq=    26. Q= -0.000 lam=     0.0 B3u freq=    25. Q= -0.000 lam=     0.0
   8 Au  freq=    59. Q= -0.000 lam=     0.0 Au  freq=    59. Q= -0.000 lam=     0.0
   9 B1g freq=    72. Q=  0.000 lam=     0.0 B1g freq=    71. Q=  0.000 lam=     0.0
  10 B1u freq=    90. Q= -0.000 lam=     0.0 B1u freq=    89. Q= -0.000 lam=     0.0
  11 B2g freq=   122. Q= -0.000 lam=     0.0 B2g freq=   122. Q= -0.000 lam=     0.0
  12 B3u freq=   140. Q=  0.000 lam=     0.0 B3u freq=   136. Q=  0.000 lam=     0.0
  13 B3g freq=   190. Q= -0.000 lam=     0.0 B3g freq=   191. Q= -0.000 lam=     0.0
  14 Au  freq=   193. Q=  0.000 lam=     0.0 Au  freq=   195. Q=  0.000 lam=     0.0
  15 B1g freq=   224. Q= -0.000 lam=     0.0 B1g freq=   217. Q= -0.000 lam=     0.0
  16 Ag  freq=   225. Q=  0.337 lam=    12.8 Ag  freq=   224. Q=  0.335 lam=    12.6
  17 B2g freq=   277. Q=  0.000 lam=     0.0 B2g freq=   280. Q=  0.000 lam=     0.0
  18 B1u freq=   296. Q=  0.000 lam=     0.0 B1u freq=   298. Q=  0.000 lam=     0.0
  19 B3u freq=   308. Q= -0.000 lam=     0.0 B3u freq=   300. Q= -0.000 lam=     0.0
  20 Au  freq=   370. Q=  0.000 lam=     0.0 Au  freq=   379. Q=  0.000 lam=     0.0
  21 B1g freq=   377. Q=  0.000 lam=     0.0 B1g freq=   385. Q=  0.000 lam=     0.0
  22 B3g freq=   392. Q= -0.000 lam=     0.0 B3g freq=   392. Q= -0.000 lam=     0.0
  23 B2u freq=   428. Q= -0.000 lam=     0.0 B2u freq=   427. Q= -0.000 lam=     0.0
  24 B3u freq=   467. Q= -0.000 lam=     0.0 B3u freq=   446. Q= -0.000 lam=     0.0
  25 B1g freq=   469. Q=  0.000 lam=     0.0 B3u freq=   453. Q=  0.000 lam=     0.0
  26 B3u freq=   472. Q= -0.000 lam=     0.0 B1g freq=   465. Q= -0.000 lam=     0.0
  27 B3u freq=   474. Q=  0.000 lam=     0.0 B1u freq=   477. Q=  0.000 lam=     0.0
  28 B1g freq=   476. Q=  0.000 lam=     0.0 B3u freq=   478. Q=  0.000 lam=     0.0
  29 B1u freq=   478. Q=  0.000 lam=     0.0 B1g freq=   482. Q=  0.000 lam=     0.0
  30 B3g freq=   494. Q=  0.000 lam=     0.0 B3g freq=   485. Q=  0.000 lam=     0.0
  31 B2g freq=   530. Q=  0.000 lam=     0.0 B2g freq=   519. Q=  0.000 lam=     0.0
  32 Au  freq=   546. Q= -0.000 lam=     0.0 Au  freq=   537. Q= -0.000 lam=     0.0
  33 B1u freq=   562. Q= -0.000 lam=     0.0 B1u freq=   562. Q= -0.000 lam=     0.0
  34 Ag  freq=   579. Q=  0.036 lam=     0.4 Ag  freq=   577. Q=  0.032 lam=     0.3
  35 B2u freq=   631. Q=  0.000 lam=     0.0 B2u freq=   629. Q=  0.000 lam=     0.0
  36 Ag  freq=   643. Q=  0.001 lam=     0.0 Ag  freq=   639. Q=  0.003 lam=     0.0
  37 B2u freq=   648. Q=  0.000 lam=     0.0 B2u freq=   639. Q=  0.000 lam=     0.0
  38 B3g freq=   672. Q=  0.000 lam=     0.0 B3g freq=   674. Q=  0.000 lam=     0.0
  39 B2g freq=   703. Q= -0.000 lam=     0.0 B2g freq=   690. Q= -0.000 lam=     0.0
  40 Au  freq=   739. Q=  0.000 lam=     0.0 Au  freq=   731. Q=  0.000 lam=     0.0
  41 B2u freq=   743. Q= -0.000 lam=     0.0 B2u freq=   750. Q= -0.000 lam=     0.0
  42 B1g freq=   746. Q=  0.000 lam=     0.0 B2g freq=   751. Q=  0.000 lam=     0.0
  43 B3u freq=   749. Q=  0.000 lam=     0.0 Ag  freq=   758. Q=  0.008 lam=     0.0
  44 Ag  freq=   757. Q=  0.066 lam=     1.6 B1g freq=   764. Q=  0.000 lam=     0.0
  45 B2g freq=   759. Q= -0.000 lam=     0.0 B3u freq=   765. Q= -0.000 lam=     0.0
  46 Ag  freq=   761. Q= -0.069 lam=     1.8 Ag  freq=   767. Q= -0.082 lam=     2.6
  47 Au  freq=   771. Q= -0.000 lam=     0.0 Au  freq=   769. Q= -0.000 lam=     0.0
  48 B2g freq=   772. Q= -0.000 lam=     0.0 B2g freq=   770. Q= -0.000 lam=     0.0
  49 B1u freq=   802. Q=  0.000 lam=     0.0 B1u freq=   806. Q=  0.000 lam=     0.0
  50 B1g freq=   824. Q=  0.000 lam=     0.0 B2u freq=   837. Q=  0.000 lam=     0.0
  51 B2u freq=   831. Q=  0.000 lam=     0.0 B3g freq=   851. Q=  0.000 lam=     0.0
  52 Au  freq=   839. Q=  0.000 lam=     0.0 Au  freq=   859. Q=  0.000 lam=     0.0
  53 B2g freq=   844. Q= -0.000 lam=     0.0 B1g freq=   863. Q= -0.000 lam=     0.0
  54 B3g freq=   846. Q= -0.000 lam=     0.0 B2g freq=   865. Q= -0.000 lam=     0.0
  55 Au  freq=   863. Q= -0.000 lam=     0.0 Au  freq=   886. Q= -0.000 lam=     0.0
  56 B3u freq=   866. Q=  0.000 lam=     0.0 B3u freq=   897. Q=  0.000 lam=     0.0
  57 B2g freq=   887. Q= -0.000 lam=     0.0 Ag  freq=   905. Q= -0.026 lam=     0.3
  58 Ag  freq=   899. Q= -0.023 lam=     0.2 B2g freq=   908. Q= -0.000 lam=     0.0
  59 B1g freq=   901. Q=  0.000 lam=     0.0 Au  freq=   927. Q=  0.000 lam=     0.0
  60 Au  freq=   906. Q=  0.000 lam=     0.0 B1u freq=   928. Q=  0.000 lam=     0.0
  61 B2g freq=   915. Q=  0.000 lam=     0.0 B1g freq=   929. Q=  0.000 lam=     0.0
  62 B3u freq=   924. Q=  0.000 lam=     0.0 B3g freq=   932. Q=  0.000 lam=     0.0
  63 B1u freq=   929. Q= -0.000 lam=     0.0 B2g freq=   943. Q= -0.000 lam=     0.0
  64 B3g freq=   933. Q=  0.000 lam=     0.0 B3u freq=   954. Q=  0.000 lam=     0.0
  65 B1g freq=   973. Q=  0.000 lam=     0.0 B1g freq=   993. Q=  0.000 lam=     0.0
  66 B3u freq=   973. Q= -0.000 lam=     0.0 B3u freq=   993. Q= -0.000 lam=     0.0
  67 Au  freq=   995. Q= -0.000 lam=     0.0 Au  freq=  1021. Q= -0.000 lam=     0.0
  68 B2g freq=   995. Q= -0.000 lam=     0.0 B2g freq=  1021. Q= -0.000 lam=     0.0
  69 B2u freq=  1015. Q=  0.000 lam=     0.0 B2u freq=  1034. Q=  0.000 lam=     0.0
  70 Ag  freq=  1016. Q=  0.105 lam=     5.6 Ag  freq=  1034. Q=  0.090 lam=     4.2
  71 B2u freq=  1121. Q= -0.000 lam=     0.0 B3g freq=  1153. Q= -0.000 lam=     0.0
  72 B3g freq=  1150. Q=  0.000 lam=     0.0 B1u freq=  1155. Q=  0.000 lam=     0.0
  73 B1u freq=  1152. Q=  0.000 lam=     0.0 B2u freq=  1169. Q=  0.000 lam=     0.0
  74 Ag  freq=  1183. Q=  0.211 lam=    26.4 B3g freq=  1193. Q=  0.000 lam=     0.0
  75 B2u freq=  1187. Q= -0.000 lam=     0.0 Ag  freq=  1193. Q= -0.253 lam=    38.1
  76 Ag  freq=  1198. Q=  0.287 lam=    49.2 B2u freq=  1197. Q=  0.000 lam=     0.0
  77 B3g freq=  1198. Q=  0.000 lam=     0.0 Ag  freq=  1208. Q=  0.269 lam=    43.6
  78 B1u freq=  1205. Q= -0.000 lam=     0.0 B1u freq=  1208. Q= -0.000 lam=     0.0
  79 B3g freq=  1216. Q= -0.000 lam=     0.0 B3g freq=  1224. Q= -0.000 lam=     0.0
  80 B2u freq=  1228. Q=  0.000 lam=     0.0 B2u freq=  1232. Q=  0.000 lam=     0.0
  81 B1u freq=  1261. Q=  0.000 lam=     0.0 B1u freq=  1280. Q=  0.000 lam=     0.0
  82 Ag  freq=  1271. Q= -0.014 lam=     0.1 Ag  freq=  1282. Q= -0.044 lam=     1.2
  83 B1u freq=  1294. Q=  0.000 lam=     0.0 B1u freq=  1299. Q=  0.000 lam=     0.0
  84 B3g freq=  1297. Q=  0.000 lam=     0.0 B3g freq=  1305. Q=  0.000 lam=     0.0
  85 B3g freq=  1305. Q=  0.000 lam=     0.0 B3g freq=  1307. Q=  0.000 lam=     0.0
  86 B1u freq=  1316. Q= -0.000 lam=     0.0 B1u freq=  1317. Q= -0.000 lam=     0.0
  87 B1u freq=  1327. Q=  0.000 lam=     0.0 B1u freq=  1331. Q=  0.000 lam=     0.0
  88 B2u freq=  1343. Q=  0.000 lam=     0.0 B2u freq=  1339. Q=  0.000 lam=     0.0
  89 B2u freq=  1351. Q=  0.000 lam=     0.0 B3g freq=  1383. Q=  0.000 lam=     0.0
  90 B3g freq=  1386. Q=  0.000 lam=     0.0 B2u freq=  1401. Q=  0.000 lam=     0.0
  91 Ag  freq=  1404. Q= -0.398 lam=   111.0 B2u freq=  1413. Q= -0.000 lam=     0.0
  92 Ag  freq=  1418. Q=  0.035 lam=     0.9 Ag  freq=  1416. Q=  0.025 lam=     0.4
  93 B2u freq=  1418. Q= -0.000 lam=     0.0 Ag  freq=  1418. Q= -0.405 lam=   116.3
  94 B1u freq=  1421. Q= -0.000 lam=     0.0 B2u freq=  1423. Q= -0.000 lam=     0.0
  95 Ag  freq=  1428. Q=  0.093 lam=     6.2 Ag  freq=  1429. Q=  0.153 lam=    16.8
  96 B2u freq=  1434. Q=  0.000 lam=     0.0 B1u freq=  1433. Q=  0.000 lam=     0.0
  97 B3g freq=  1475. Q= -0.000 lam=     0.0 Ag  freq=  1477. Q= -0.047 lam=     1.6
  98 Ag  freq=  1476. Q=  0.063 lam=     2.9 B3g freq=  1479. Q=  0.000 lam=     0.0
  99 B2u freq=  1488. Q=  0.000 lam=     0.0 B2u freq=  1499. Q=  0.000 lam=     0.0
 100 Ag  freq=  1530. Q= -0.003 lam=     0.0 Ag  freq=  1522. Q= -0.050 lam=     1.9
 101 Ag  freq=  1547. Q=  0.367 lam=   104.3 B2u freq=  1536. Q=  0.000 lam=     0.0
 102 B2u freq=  1556. Q= -0.000 lam=     0.0 B3g freq=  1542. Q= -0.000 lam=     0.0
 103 B2u freq=  1575. Q=  0.000 lam=     0.0 Ag  freq=  1546. Q=  0.315 lam=    76.7
 104 Ag  freq=  1578. Q= -0.087 lam=     5.9 B1u freq=  1560. Q= -0.000 lam=     0.0
 105 B1u freq=  1581. Q= -0.000 lam=     0.0 B2u freq=  1570. Q= -0.000 lam=     0.0
 106 B3g freq=  1615. Q=  0.000 lam=     0.0 Ag  freq=  1574. Q=  0.161 lam=    20.4
 107 B3g freq=  1629. Q=  0.000 lam=     0.0 B3g freq=  1615. Q=  0.000 lam=     0.0
 108 B1u freq=  1652. Q=  0.000 lam=     0.0 B1u freq=  1616. Q=  0.000 lam=     0.0
 109 B1u freq=  1671. Q=  0.000 lam=     0.0 B1u freq=  1651. Q=  0.000 lam=     0.0
 110 B3g freq=  1676. Q= -0.000 lam=     0.0 B3g freq=  1655. Q= -0.000 lam=     0.0
 111 B3g freq=  3155. Q= -0.000 lam=     0.0 B3g freq=  3170. Q= -0.000 lam=     0.0
 112 B1u freq=  3155. Q= -0.000 lam=     0.0 B1u freq=  3172. Q= -0.000 lam=     0.0
 113 B2u freq=  3156. Q=  0.000 lam=     0.0 B2u freq=  3172. Q=  0.000 lam=     0.0
 114 B3g freq=  3156. Q= -0.000 lam=     0.0 B3g freq=  3173. Q= -0.000 lam=     0.0
 115 Ag  freq=  3157. Q= -0.001 lam=     0.0 Ag  freq=  3173. Q= -0.003 lam=     0.0
 116 B1u freq=  3158. Q= -0.000 lam=     0.0 B1u freq=  3175. Q= -0.000 lam=     0.0
 117 B3g freq=  3159. Q=  0.000 lam=     0.0 B2u freq=  3175. Q=  0.000 lam=     0.0
 118 B2u freq=  3159. Q= -0.000 lam=     0.0 B1u freq=  3177. Q= -0.000 lam=     0.0
 119 B1u freq=  3161. Q=  0.000 lam=     0.0 B3g freq=  3177. Q=  0.000 lam=     0.0
 120 Ag  freq=  3161. Q= -0.008 lam=     0.1 Ag  freq=  3177. Q= -0.009 lam=     0.1
 121 B2u freq=  3162. Q=  0.000 lam=     0.0 B2u freq=  3180. Q=  0.000 lam=     0.0
 122 Ag  freq=  3164. Q=  0.017 lam=     0.5 Ag  freq=  3180. Q=  0.018 lam=     0.5
 123 B3g freq=  3176. Q=  0.000 lam=     0.0 B1u freq=  3192. Q=  0.000 lam=     0.0
 124 B1u freq=  3176. Q=  0.000 lam=     0.0 B3g freq=  3192. Q=  0.000 lam=     0.0
 125 B2u freq=  3188. Q=  0.000 lam=     0.0 B2u freq=  3202. Q=  0.000 lam=     0.0
 126 Ag  freq=  3188. Q= -0.021 lam=     0.7 Ag  freq=  3202. Q= -0.020 lam=     0.6

 total reorg energy (cm**-1, kcal/mol)=      331.      338.      0.95      0.97
 Nber of molecules processed=           2
