 Enter ifcurve (0=recti, 1=orth curvi, 2=apprx curvi, -1 = skip
 And atom ordering flag, 0= never changes, 1= use the first order thenceforth,
  2= deduce it (does read on fail), 3= always read it
 Reading file: 
 ./PDI_2_C1S0.log                                                               
                                          
  Entering Gaussian System, Link 0=g16                                          
  
 Gaussian format, type: g94, g98, g03= F F F
  #P Geom=AllCheck Guess=TCheck SCRF=Check GenChk UB3LYP/6-311G(d,p) Fre    
 energy type= B3LYP   
 Original G94 input coords:
  6  1.069012  0.401608 -0.039151
  6  2.571588  0.116031  0.021734
  6  3.153976  0.151428  1.436828
  7  2.914745 -1.175944 -0.681630
  6  2.416221 -2.378494 -0.183814
  8  1.710433 -2.436348  0.801390
  6  2.780332 -3.636855 -0.911332
  6  2.295160 -4.851660 -0.436182
  6  2.616568 -6.032549 -1.089266
  6  3.433714 -6.052357 -2.241061
  6  3.777189 -7.278447 -2.932161
  6  3.319514 -8.543597 -2.504405
  6  3.655285 -9.711246 -3.174332
  6  4.465793 -9.659725 -4.303779
  6  4.809097-10.937640 -5.002835
  8  4.389178-11.997855 -4.592962
  7  5.624714-10.838704 -6.131616
  6  5.991589-12.070628 -6.856074
  6  6.129937 -9.641905 -6.637564
  8  6.834860 -9.617362 -7.623156
  6  5.766842 -8.385719 -5.914325
  6  6.251483 -7.171265 -6.388577
  6  5.928607 -5.990908 -5.734819
  6  5.111015 -5.973619 -4.583892
  6  4.766991 -4.747614 -3.892657
  6  5.223399 -3.481046 -4.319197
  6  4.886991 -2.314226 -3.648463
  6  4.076520 -2.367735 -2.518216
  6  3.730695 -1.091556 -1.815480
  8  4.157898 -0.037989 -2.237957
  6  3.598451 -3.608973 -2.056980
  6  3.936310 -4.814600 -2.736838
  6  4.608465 -7.212353 -4.088457
  6  4.946646 -8.418405 -4.768209
  1  0.891381  1.410738  0.339490
  1  0.494839 -0.297424  0.567600
  1  0.704191  0.366508 -1.068659
  1  3.086020  0.862794 -0.578449
  1  2.660924 -0.558325  2.099889
  1  3.015453  1.155228  1.844807
  1  4.227088 -0.054714  1.424897
  1  1.667867 -4.851676  0.446008
  1  2.220460 -6.955463 -0.689673
  1  2.687892 -8.625132 -1.631096
  1  3.296978-10.674675 -2.834747
  1  5.524208-12.907646 -6.347990
  1  7.075436-12.181687 -6.859202
  1  5.642389-12.004354 -7.885945
  1  6.879583 -7.170184 -7.270367
  1  6.324022 -5.067197 -6.133129
  1  5.854767 -3.398015 -5.192586
  1  5.244365 -1.350343 -3.987393
 nber atoms=          52
  SCF Done:  E(UB3LYP) =  -1488.45423598     A.U. after    1 cycles             
  
          23          40 "  -1488.45423598"
After scan for Atom:   Atom  AN      X      Y      Z        X      Y      Z        X      Y      Z   
After scan for Atom:   Atom  AN      X      Y      Z        X      Y      Z        X      Y      Z   
After scan for Atom:   Atom  AN      X      Y      Z        X      Y      Z        X      Y      Z   
After scan for Atom:   Atom  AN      X      Y      Z        X      Y      Z        X      Y      Z   
After scan for Atom:   Atom  AN      X      Y      Z        X      Y      Z        X      Y      Z   
After scan for Atom:   Atom  AN      X      Y      Z        X      Y      Z        X      Y      Z   
After scan for Atom:   Atom  AN      X      Y      Z        X      Y      Z        X      Y      Z   
After scan for Atom:   Atom  AN      X      Y      Z        X      Y      Z        X      Y      Z   
After scan for Atom:   Atom  AN      X      Y      Z        X      Y      Z        X      Y      Z   
After scan for Atom:   Atom  AN      X      Y      Z        X      Y      Z        X      Y      Z   
After scan for Atom:   Atom  AN      X      Y      Z        X      Y      Z        X      Y      Z   
After scan for Atom:   Atom  AN      X      Y      Z        X      Y      Z        X      Y      Z   
After scan for Atom:   Atom  AN      X      Y      Z        X      Y      Z        X      Y      Z   
After scan for Atom:   Atom  AN      X      Y      Z        X      Y      Z        X      Y      Z   
After scan for Atom:   Atom  AN      X      Y      Z        X      Y      Z        X      Y      Z   
After scan for Atom:   Atom  AN      X      Y      Z        X      Y      Z        X      Y      Z   
After scan for Atom:   Atom  AN      X      Y      Z        X      Y      Z        X      Y      Z   
After scan for Atom:   Atom  AN      X      Y      Z        X      Y      Z        X      Y      Z   
After scan for Atom:   Atom  AN      X      Y      Z        X      Y      Z        X      Y      Z   
After scan for Atom:   Atom  AN      X      Y      Z        X      Y      Z        X      Y      Z   
After scan for Atom:   Atom  AN      X      Y      Z        X      Y      Z        X      Y      Z   
After scan for Atom:   Atom  AN      X      Y      Z        X      Y      Z        X      Y      Z   
After scan for Atom:   Atom  AN      X      Y      Z        X      Y      Z        X      Y      Z   
After scan for Atom:   Atom  AN      X      Y      Z        X      Y      Z        X      Y      Z   
After scan for Atom:   Atom  AN      X      Y      Z        X      Y      Z        X      Y      Z   
After scan for Atom:   Atom  AN      X      Y      Z        X      Y      Z        X      Y      Z   
After scan for Atom:   Atom  AN      X      Y      Z        X      Y      Z        X      Y      Z   
After scan for Atom:   Atom  AN      X      Y      Z        X      Y      Z        X      Y      Z   
After scan for Atom:   Atom  AN      X      Y      Z        X      Y      Z        X      Y      Z   
After scan for Atom:   Atom  AN      X      Y      Z        X      Y      Z        X      Y      Z   
After scan for Atom:   Atom  AN      X      Y      Z        X      Y      Z        X      Y      Z   
After scan for Atom:   Atom  AN      X      Y      Z        X      Y      Z        X      Y      Z   
After scan for Atom:   Atom  AN      X      Y      Z        X      Y      Z        X      Y      Z   
After scan for Atom:   Atom  AN      X      Y      Z        X      Y      Z        X      Y      Z   
After scan for Atom:   Atom  AN      X      Y      Z        X      Y      Z        X      Y      Z   
After scan for Atom:   Atom  AN      X      Y      Z        X      Y      Z        X      Y      Z   
After scan for Atom:   Atom  AN      X      Y      Z        X      Y      Z        X      Y      Z   
After scan for Atom:   Atom  AN      X      Y      Z        X      Y      Z        X      Y      Z   
After scan for Atom:   Atom  AN      X      Y      Z        X      Y      Z        X      Y      Z   
After scan for Atom:   Atom  AN      X      Y      Z        X      Y      Z        X      Y      Z   
After scan for Atom:   Atom  AN      X      Y      Z        X      Y      Z        X      Y      Z   
After scan for Atom:   Atom  AN      X      Y      Z        X      Y      Z        X      Y      Z   
After scan for Atom:   Atom  AN      X      Y      Z        X      Y      Z        X      Y      Z   
After scan for Atom:   Atom  AN      X      Y      Z        X      Y      Z        X      Y      Z   
After scan for Atom:   Atom  AN      X      Y      Z        X      Y      Z        X      Y      Z   
After scan for Atom:   Atom  AN      X      Y      Z        X      Y      Z        X      Y      Z   
After scan for Atom:   Atom  AN      X      Y      Z        X      Y      Z        X      Y      Z   
After scan for Atom:   Atom  AN      X      Y      Z        X      Y      Z        X      Y      Z   
After scan for Atom:   Atom  AN      X      Y      Z        X      Y      Z        X      Y      Z   
After scan for Atom:   Atom  AN      X      Y      Z        X      Y      Z        X      Y      Z   
 g94    frequencies=
     0.0    0.0    0.0    0.0    0.0    0.0   24.2   29.0   49.9   53.3
    57.8   73.0   85.6   91.4  106.2  115.9  163.7  168.9  177.6  184.1
   200.9  206.9  234.6  237.6  260.2  268.0  271.2  286.8  311.3  334.8
   339.2  367.5  387.6  395.1  409.4  428.7  433.8  435.7  437.6  445.1
   463.5  473.9  478.5  485.3  518.8  522.5  544.2  565.7  572.0  572.3
   597.5  611.8  615.9  631.1  663.4  704.3  707.7  708.7  711.1  722.2
   757.6  767.5  768.2  771.4  799.4  806.0  821.2  842.6  867.7  869.1
   875.0  877.6  886.2  909.4  937.1  946.9  948.1  957.9 1003.2 1011.4
  1012.9 1020.3 1021.4 1050.3 1079.3 1095.7 1104.8 1151.9 1155.9 1157.7
  1162.1 1175.1 1192.2 1206.7 1209.5 1222.0 1235.5 1238.7 1253.6 1280.1
  1311.8 1316.6 1319.8 1333.1 1359.6 1366.6 1374.1 1376.3 1383.6 1401.5
  1403.5 1406.8 1423.1 1424.8 1441.6 1450.9 1464.3 1480.5 1484.3 1486.1
  1494.7 1495.8 1500.3 1502.7 1505.0 1520.6 1525.4 1565.7 1570.9 1575.5
  1587.5 1591.5 1608.1 1625.3 1711.1 1722.1 1759.6 1768.3 3042.3 3045.5
  3072.1 3103.0 3106.2 3118.6 3135.2 3139.3 3146.6 3192.0 3204.7 3205.0
  3210.0 3210.2 3216.5 3216.6 3228.5 3228.7
 g94    symmetries=
                                                 A      A      A      A
       A      A      A      A      A      A      A      A      A      A
       A      A      A      A      A      A      A      A      A      A
       A      A      A      A      A      A      A      A      A      A
       A      A      A      A      A      A      A      A      A      A
       A      A      A      A      A      A      A      A      A      A
       A      A      A      A      A      A      A      A      A      A
       A      A      A      A      A      A      A      A      A      A
       A      A      A      A      A      A      A      A      A      A
       A      A      A      A      A      A      A      A      A      A
       A      A      A      A      A      A      A      A      A      A
       A      A      A      A      A      A      A      A      A      A
       A      A      A      A      A      A      A      A      A      A
       A      A      A      A      A      A      A      A      A      A
       A      A      A      A      A      A      A      A      A      A
       A      A      A      A      A      A
 atomic masses:
 12.0000 12.0000 12.0000 14.0031 12.0000 15.9949 12.0000 12.0000 12.0000 12.0000
 12.0000 12.0000 12.0000 12.0000 12.0000 15.9949 14.0031 12.0000 12.0000 15.9949
 12.0000 12.0000 12.0000 12.0000 12.0000 12.0000 12.0000 12.0000 12.0000 15.9949
 12.0000 12.0000 12.0000 12.0000  1.0078  1.0078  1.0078  1.0078  1.0078  1.0078
  1.0078  1.0078  1.0078  1.0078  1.0078  1.0078  1.0078  1.0078  1.0078  1.0078
  1.0078  1.0078
 looking for force constants in 
 ./PDI_2_C1S0.fchk                                                              
  
 Cartesian Force Constants                  R   N=       12246                  
  
 n3=         156       12246
 g94-fc frequencies=
    -1.7   -0.0    0.0    0.0    1.2    3.4   24.2   29.0   49.9   53.3
    57.8   73.0   85.6   91.4  106.2  115.9  163.7  168.9  177.6  184.1
   200.9  206.9  234.6  237.6  260.2  268.0  271.2  286.8  311.3  334.8
   339.2  367.5  387.7  395.1  409.5  428.7  433.8  435.7  437.6  445.1
   463.6  473.9  478.5  485.3  518.8  522.5  544.2  565.7  572.0  572.3
   597.5  611.8  615.9  631.1  663.4  704.3  707.7  708.7  711.1  722.2
   757.7  767.5  768.3  771.4  799.5  806.0  821.2  842.6  867.7  869.1
   875.1  877.6  886.2  909.4  937.2  946.9  948.1  958.0 1003.2 1011.5
  1012.9 1020.4 1021.4 1050.3 1079.4 1095.7 1104.9 1151.9 1155.9 1157.7
  1162.2 1175.2 1192.2 1206.7 1209.5 1222.0 1235.5 1238.7 1253.6 1280.1
  1311.8 1316.6 1319.8 1333.1 1359.6 1366.6 1374.2 1376.3 1383.6 1401.5
  1403.6 1406.9 1423.2 1424.8 1441.6 1451.0 1464.3 1480.5 1484.3 1486.1
  1494.8 1495.8 1500.3 1502.7 1505.0 1520.6 1525.4 1565.7 1570.9 1575.6
  1587.5 1591.6 1608.1 1625.3 1711.1 1722.1 1759.7 1768.4 3042.4 3045.6
  3072.2 3103.0 3106.3 3118.7 3135.3 3139.4 3146.6 3192.1 3204.8 3205.1
  3210.1 3210.2 3216.6 3216.6 3228.6 3228.7
 at 99999: n3=         156
 symm operator            1 :  F  nop=           0
 symm operator            2 :  F  nop=           0
 symm operator            3 :  F  nop=           0
 symm operator            4 :  F  nop=           0
 symm operator            5 :  F  nop=           0
 symm operator            6 :  F  nop=           0
 symm operator            7 :  F  nop=           0
 The point group of the molecule is  C1
 Symmetry rotation matrix:
   1.00000   0.00000   0.00000
   0.00000   1.00000   0.00000
   0.00000   0.00000   1.00000

 Projecting out zero-frequency components
 generating redundant internal coords
         300        3600          52
 search for int coords
   1 str   2   1   1.531
   2 str   3   2   1.531
   3 str   4   2   1.511
   4 str   5   4   1.394
   5 str   6   5   1.213
   6 str   7   5   1.498
   7 str   8   7   1.392
   8 str   9   8   1.387
   9 str  10   9   1.412
  10 str  11  10   1.449
  11 str  12  11   1.412
  12 str  13  12   1.387
  13 str  14  13   1.391
  14 str  15  14   1.497
  15 str  16  15   1.212
  16 str  17  15   1.396
  17 str  18  17   1.475
  18 str  19  17   1.394
  19 str  20  19   1.212
  20 str  21  19   1.494
  21 str  22  21   1.391
  22 str  23  22   1.387
  23 str  24  23   1.412
  24 str  25  24   1.449
  25 str  26  25   1.412
  26 str  27  26   1.387
  27 str  28  27   1.392
  28 str  29   4   1.399
  29 str  29  28   1.497
  30 str  30  29   1.213
  31 str  31   7   1.408
  32 str  31  28   1.408
  33 str  32  10   1.425
  34 str  32  25   1.425
  35 str  32  31   1.425
  36 str  33  11   1.426
  37 str  33  24   1.426
  38 str  34  14   1.410
  39 str  34  21   1.410
  40 str  34  33   1.425
  41 str  35   1   1.092
  42 str  36   1   1.089
  43 str  37   1   1.093
  44 str  38   2   1.087
  45 str  39   3   1.089
  46 str  40   3   1.092
  47 str  41   3   1.093
  48 str  42   8   1.082
  49 str  43   9   1.081
  50 str  44  12   1.081
  51 str  45  13   1.083
  52 str  46  18   1.085
  53 str  47  18   1.090
  54 str  48  18   1.089
  55 str  49  22   1.083
  56 str  50  23   1.081
  57 str  51  26   1.081
  58 str  52  27   1.082
 nber stretches=          58
  59 ben   1   2   3
  60 prop tor   1   2   3  39
  61 prop tor   1   2   3  40
  62 prop tor   1   2   3  41
  63 ben   1   2   4
  64 prop tor   1   2   4   5
  65 prop tor   1   2   4  29
  66 ben   1   2  38
  67 ben   2   1  35
  68 ben   2   1  36
  69 ben   2   1  37
  70 ben   2   3  39
  71 ben   2   3  40
  72 ben   2   3  41
  73 ben   2   4   5
  74 prop tor   2   4   5   6
  75 prop tor   2   4   5   7
  76 ben   2   4  29
  77 prop tor   2   4  29  28
  78 prop tor   2   4  29  30
  79 ben   3   2   4
  80 prop tor   3   2   4   5
  81 prop tor   3   2   4  29
  82 ben   3   2  38
  83 prop tor   4   2   3  39
  84 prop tor   4   2   3  40
  85 prop tor   4   2   3  41
  86 ben   4   2  38
  87 ben   4   5   6
  88 ben   4   5   7
  89 prop tor   4   5   7   8
  90 prop tor   4   5   7  31
  91 ben   4  29  28
  92 ben   4  29  30
  93 ben   5   4  29
  94 prop tor   5   4  29  28
  95 prop tor   5   4  29  30
  96 ben   5   7   8
  97 prop tor   5   7   8   9
  98 prop tor   5   7   8  42
  99 ben   5   7  31
 100 prop tor   5   7  31  28
 101 prop tor   5   7  31  32
 102 ben   6   5   7
 103 prop tor   6   5   7   8
 104 prop tor   6   5   7  31
 105 ben   7   8   9
 106 prop tor   7   8   9  10
 107 prop tor   7   8   9  43
 108 ben   7   8  42
 109 ben   7  31  28
 110 ben   7  31  32
 111 prop tor   7  31  32  10
 112 prop tor   7  31  32  25
 113 ben   8   7  31
 114 prop tor   8   7  31  28
 115 prop tor   8   7  31  32
 116 ben   8   9  10
 117 prop tor   8   9  10  11
 118 prop tor   8   9  10  32
 119 ben   8   9  43
 120 ben   9   8  42
 121 ben   9  10  11
 122 prop tor   9  10  11  12
 123 prop tor   9  10  11  33
 124 ben   9  10  32
 125 prop tor   9  10  32  25
 126 prop tor   9  10  32  31
 127 ben  10   9  43
 128 ben  10  11  12
 129 prop tor  10  11  12  13
 130 prop tor  10  11  12  44
 131 ben  10  11  33
 132 prop tor  10  11  33  24
 133 prop tor  10  11  33  34
 134 ben  10  32  25
 135 ben  10  32  31
 136 ben  11  10  32
 137 prop tor  11  10  32  25
 138 prop tor  11  10  32  31
 139 ben  11  12  13
 140 prop tor  11  12  13  14
 141 prop tor  11  12  13  45
 142 ben  11  12  44
 143 ben  11  33  24
 144 ben  11  33  34
 145 prop tor  11  33  34  14
 146 prop tor  11  33  34  21
 147 ben  12  11  33
 148 prop tor  12  11  33  24
 149 prop tor  12  11  33  34
 150 ben  12  13  14
 151 prop tor  12  13  14  15
 152 prop tor  12  13  14  34
 153 ben  12  13  45
 154 ben  13  12  44
 155 ben  13  14  15
 156 prop tor  13  14  15  16
 157 prop tor  13  14  15  17
 158 ben  13  14  34
 159 prop tor  13  14  34  21
 160 prop tor  13  14  34  33
 161 ben  14  13  45
 162 ben  14  15  16
 163 ben  14  15  17
 164 prop tor  14  15  17  18
 165 prop tor  14  15  17  19
 166 ben  14  34  21
 167 ben  14  34  33
 168 ben  15  14  34
 169 prop tor  15  14  34  21
 170 prop tor  15  14  34  33
 171 ben  15  17  18
 172 prop tor  15  17  18  46
 173 prop tor  15  17  18  47
 174 prop tor  15  17  18  48
 175 ben  15  17  19
 176 prop tor  15  17  19  20
 177 prop tor  15  17  19  21
 178 ben  16  15  17
 179 prop tor  16  15  17  18
 180 prop tor  16  15  17  19
 181 ben  17  18  46
 182 ben  17  18  47
 183 ben  17  18  48
 184 ben  17  19  20
 185 ben  17  19  21
 186 prop tor  17  19  21  22
 187 prop tor  17  19  21  34
 188 ben  18  17  19
 189 prop tor  18  17  19  20
 190 prop tor  18  17  19  21
 191 prop tor  19  17  18  46
 192 prop tor  19  17  18  47
 193 prop tor  19  17  18  48
 194 ben  19  21  22
 195 prop tor  19  21  22  23
 196 prop tor  19  21  22  49
 197 ben  19  21  34
 198 prop tor  19  21  34  14
 199 prop tor  19  21  34  33
 200 ben  20  19  21
 201 prop tor  20  19  21  22
 202 prop tor  20  19  21  34
 203 ben  21  22  23
 204 prop tor  21  22  23  24
 205 prop tor  21  22  23  50
 206 ben  21  22  49
 207 ben  21  34  33
 208 ben  22  21  34
 209 prop tor  22  21  34  14
 210 prop tor  22  21  34  33
 211 ben  22  23  24
 212 prop tor  22  23  24  25
 213 prop tor  22  23  24  33
 214 ben  22  23  50
 215 ben  23  22  49
 216 ben  23  24  25
 217 prop tor  23  24  25  26
 218 prop tor  23  24  25  32
 219 ben  23  24  33
 220 prop tor  23  24  33  11
 221 prop tor  23  24  33  34
 222 ben  24  23  50
 223 ben  24  25  26
 224 prop tor  24  25  26  27
 225 prop tor  24  25  26  51
 226 ben  24  25  32
 227 prop tor  24  25  32  10
 228 prop tor  24  25  32  31
 229 ben  24  33  34
 230 prop tor  24  33  34  14
 231 prop tor  24  33  34  21
 232 ben  25  24  33
 233 prop tor  25  24  33  11
 234 prop tor  25  24  33  34
 235 ben  25  26  27
 236 prop tor  25  26  27  28
 237 prop tor  25  26  27  52
 238 ben  25  26  51
 239 ben  25  32  31
 240 ben  26  25  32
 241 prop tor  26  25  32  10
 242 prop tor  26  25  32  31
 243 ben  26  27  28
 244 prop tor  26  27  28  29
 245 prop tor  26  27  28  31
 246 ben  26  27  52
 247 ben  27  26  51
 248 ben  27  28  29
 249 prop tor  27  28  29   4
 250 prop tor  27  28  29  30
 251 ben  27  28  31
 252 prop tor  27  28  31   7
 253 prop tor  27  28  31  32
 254 ben  28  27  52
 255 ben  28  29  30
 256 ben  28  31  32
 257 prop tor  28  31  32  10
 258 prop tor  28  31  32  25
 259 prop tor  29   4   5   6
 260 prop tor  29   4   5   7
 261 ben  29  28  31
 262 prop tor  29  28  31   7
 263 prop tor  29  28  31  32
 264 prop tor  31   7   8   9
 265 prop tor  31   7   8  42
 266 prop tor  31  28  29   4
 267 prop tor  31  28  29  30
 268 prop tor  32  10  11  12
 269 prop tor  32  10  11  33
 270 prop tor  32  25  26  27
 271 prop tor  32  25  26  51
 272 prop tor  33  11  12  13
 273 prop tor  33  11  12  44
 274 prop tor  33  24  25  26
 275 prop tor  33  24  25  32
 276 prop tor  34  14  15  16
 277 prop tor  34  14  15  17
 278 prop tor  34  21  22  23
 279 prop tor  34  21  22  49
 280 prop tor  35   1   2   3
 281 prop tor  35   1   2   4
 282 prop tor  35   1   2  38
 283 ben  35   1  36
 284 ben  35   1  37
 285 prop tor  36   1   2   3
 286 prop tor  36   1   2   4
 287 prop tor  36   1   2  38
 288 ben  36   1  37
 289 prop tor  37   1   2   3
 290 prop tor  37   1   2   4
 291 prop tor  37   1   2  38
 292 prop tor  38   2   3  39
 293 prop tor  38   2   3  40
 294 prop tor  38   2   3  41
 295 prop tor  38   2   4   5
 296 prop tor  38   2   4  29
 297 ben  39   3  40
 298 ben  39   3  41
 299 ben  40   3  41
 300 prop tor  42   8   9  10
 301 prop tor  42   8   9  43
 302 prop tor  43   9  10  11
 303 prop tor  43   9  10  32
 304 prop tor  44  12  13  14
 305 prop tor  44  12  13  45
 306 prop tor  45  13  14  15
 307 prop tor  45  13  14  34
 308 ben  46  18  47
 309 ben  46  18  48
 310 ben  47  18  48
 311 prop tor  49  22  23  24
 312 prop tor  49  22  23  50
 313 prop tor  50  23  24  25
 314 prop tor  50  23  24  33
 315 prop tor  51  26  27  28
 316 prop tor  51  26  27  52
 317 prop tor  52  27  28  29
 318 prop tor  52  27  28  31
 nber bend=             102
 nber lin bend=           0
 nber prop tor=         158
 nber impr tor=           0
 nber tot redund int=         318
 Eigenvalues of G in red int coords
    Gval -0.00000000 -0.00000000 -0.00000000 -0.00000000 -0.00000000 -0.00000000 -0.00000000 -0.00000000
    Gval -0.00000000 -0.00000000 -0.00000000 -0.00000000 -0.00000000 -0.00000000 -0.00000000 -0.00000000
    Gval -0.00000000 -0.00000000 -0.00000000 -0.00000000 -0.00000000 -0.00000000 -0.00000000 -0.00000000
    Gval -0.00000000 -0.00000000 -0.00000000 -0.00000000 -0.00000000 -0.00000000 -0.00000000 -0.00000000
    Gval -0.00000000 -0.00000000 -0.00000000 -0.00000000 -0.00000000 -0.00000000 -0.00000000 -0.00000000
    Gval -0.00000000 -0.00000000 -0.00000000 -0.00000000 -0.00000000 -0.00000000 -0.00000000 -0.00000000
    Gval -0.00000000 -0.00000000 -0.00000000 -0.00000000 -0.00000000 -0.00000000 -0.00000000 -0.00000000
    Gval -0.00000000 -0.00000000 -0.00000000 -0.00000000 -0.00000000 -0.00000000 -0.00000000 -0.00000000
    Gval -0.00000000 -0.00000000 -0.00000000 -0.00000000 -0.00000000 -0.00000000 -0.00000000 -0.00000000
    Gval -0.00000000 -0.00000000 -0.00000000 -0.00000000 -0.00000000 -0.00000000 -0.00000000 -0.00000000
    Gval -0.00000000 -0.00000000 -0.00000000 -0.00000000 -0.00000000 -0.00000000 -0.00000000 -0.00000000
    Gval -0.00000000 -0.00000000  0.00000000  0.00000000  0.00000000  0.00000000  0.00000000  0.00000000
    Gval  0.00000000  0.00000000  0.00000000  0.00000000  0.00000000  0.00000000  0.00000000  0.00000000
    Gval  0.00000000  0.00000000  0.00000000  0.00000000  0.00000000  0.00000000  0.00000000  0.00000000
    Gval  0.00000000  0.00000000  0.00000000  0.00000000  0.00000000  0.00000000  0.00000000  0.00000000
    Gval  0.00000000  0.00000000  0.00000000  0.00000000  0.00000000  0.00000000  0.00000000  0.00000000
    Gval  0.00000000  0.00000000  0.00000000  0.00000000  0.00000000  0.00000000  0.00000000  0.00000000
    Gval  0.00000000  0.00000000  0.00000000  0.00000000  0.00000000  0.00000000  0.00000000  0.00000000
    Gval  0.00000000  0.00000000  0.00000000  0.00000000  0.00000000  0.00000000  0.00000000  0.00000000
    Gval  0.00000000  0.00000000  0.00000000  0.00000000  0.00000000  0.00000000  0.00000000  0.00000000
    Gval  0.00000000  0.00000000  0.00000000  0.00000000  0.00000000  0.00000000  0.00000000  0.00000000
    Gval  0.00000123  0.00000280  0.00000297  0.00000497  0.00000845  0.00001012  0.00001109  0.00001291
    Gval  0.00001374  0.00001458  0.00001708  0.00001737  0.00001833  0.00002096  0.00002136  0.00002336
    Gval  0.00002528  0.00002582  0.00002701  0.00002800  0.00003171  0.00003572  0.00003992  0.00004716
    Gval  0.00004897  0.00005100  0.00005285  0.00005641  0.00005649  0.00006128  0.00006808  0.00007097
    Gval  0.00007312  0.00008131  0.00008233  0.00008341  0.00008700  0.00008850  0.00009301  0.00009348
    Gval  0.00009492  0.00009729  0.00010949  0.00011960  0.00012263  0.00013667  0.00013719  0.00013742
    Gval  0.00014100  0.00015728  0.00015967  0.00016751  0.00017306  0.00018072  0.00020088  0.00022251
    Gval  0.00022887  0.00022971  0.00024727  0.00027485  0.00028376  0.00029178  0.00029815  0.00034038
    Gval  0.00035155  0.00035955  0.00037898  0.00039087  0.00039237  0.00039489  0.00041482  0.00042149
    Gval  0.00042949  0.00043241  0.00043679  0.00044130  0.00044347  0.00046191  0.00046553  0.00046831
    Gval  0.00049434  0.00051709  0.00053483  0.00053689  0.00054537  0.00054646  0.00055409  0.00055491
    Gval  0.00055598  0.00055617  0.00056140  0.00059171  0.00059851  0.00059929  0.00059959  0.00059989
    Gval  0.00060215  0.00064103  0.00064466  0.00064533  0.00064727  0.00066762  0.00068624  0.00069241
    Gval  0.00069912  0.00070664  0.00074775  0.00081653  0.00092730  0.00094374  0.00109430  0.00109528
    Gval  0.00109598  0.00109650  0.00112029  0.00112592  0.00113630  0.00116410  0.00116422  0.00116459
    Gval  0.00116480  0.00117614  0.00117697  0.00126844  0.00129099  0.00130156  0.00140151  0.00150016
    Gval  0.00160291  0.00172075  0.00181122  0.00192632  0.00229145  0.00234766  0.00245338  0.00247416
    Gval  0.00253464  0.00254271  0.00257380  0.00280047  0.00291505  0.00302504  0.00304071  0.00307912
    Gval  0.00310485  0.00366753  0.00366947  0.00371537  0.00371702  0.00396879
  1.225089162062043E-006  1.225089162062043E-006
  2.795634005027074E-006  1.225089162062043E-006
  2.968982526392539E-006  1.225089162062043E-006
  4.966355903637512E-006  1.225089162062043E-006
  8.446444555986792E-006  1.225089162062043E-006
  1.012052261265298E-005  1.225089162062043E-006
  1.109066927163118E-005  1.225089162062043E-006
  1.291391674221675E-005  1.225089162062043E-006
  1.373866062821836E-005  1.225089162062043E-006
  1.458077616569314E-005  1.225089162062043E-006
  1.708002750636231E-005  1.225089162062043E-006
  1.736831636371440E-005  1.225089162062043E-006
  1.833041427777870E-005  1.225089162062043E-006
  2.095906144488252E-005  1.225089162062043E-006
  2.135756771455631E-005  1.225089162062043E-006
  2.336071151280044E-005  1.225089162062043E-006
  2.528477140160817E-005  1.225089162062043E-006
  2.581696568600457E-005  1.225089162062043E-006
  2.701478499538628E-005  1.225089162062043E-006
  2.800191391933117E-005  1.225089162062043E-006
  3.170559105384374E-005  1.225089162062043E-006
  3.571617811311116E-005  1.225089162062043E-006
  3.992298400949155E-005  1.225089162062043E-006
  4.716207417421348E-005  1.225089162062043E-006
  4.897036578715493E-005  1.225089162062043E-006
  5.099905903081641E-005  1.225089162062043E-006
  5.285067201263456E-005  1.225089162062043E-006
  5.640739214478868E-005  1.225089162062043E-006
  5.649409921066626E-005  1.225089162062043E-006
  6.127800039703881E-005  1.225089162062043E-006
  6.807656784964292E-005  1.225089162062043E-006
  7.096679570592762E-005  1.225089162062043E-006
  7.312471758289564E-005  1.225089162062043E-006
  8.131163101526319E-005  1.225089162062043E-006
  8.233154029295147E-005  1.225089162062043E-006
  8.340658507416012E-005  1.225089162062043E-006
  8.699526431455969E-005  1.225089162062043E-006
  8.849568919825855E-005  1.225089162062043E-006
  9.301185170087616E-005  1.225089162062043E-006
  9.347702002139391E-005  1.225089162062043E-006
  9.491717120358030E-005  1.225089162062043E-006
  9.729371802535978E-005  1.225089162062043E-006
  1.094944226123409E-004  1.225089162062043E-006
  1.196034788862669E-004  1.225089162062043E-006
  1.226275008690871E-004  1.225089162062043E-006
  1.366730219372556E-004  1.225089162062043E-006
  1.371908319171406E-004  1.225089162062043E-006
  1.374234392295712E-004  1.225089162062043E-006
  1.410008737023164E-004  1.225089162062043E-006
  1.572758417136657E-004  1.225089162062043E-006
  1.596716621083962E-004  1.225089162062043E-006
  1.675058105739311E-004  1.225089162062043E-006
  1.730583092090010E-004  1.225089162062043E-006
  1.807154167875402E-004  1.225089162062043E-006
  2.008810808758101E-004  1.225089162062043E-006
  2.225059202122633E-004  1.225089162062043E-006
  2.288695420315536E-004  1.225089162062043E-006
  2.297127920176994E-004  1.225089162062043E-006
  2.472742290128705E-004  1.225089162062043E-006
  2.748492044703698E-004  1.225089162062043E-006
  2.837578065400592E-004  1.225089162062043E-006
  2.917832448069826E-004  1.225089162062043E-006
  2.981531631229835E-004  1.225089162062043E-006
  3.403800607731812E-004  1.225089162062043E-006
  3.515523097551522E-004  1.225089162062043E-006
  3.595530861432000E-004  1.225089162062043E-006
  3.789837916815254E-004  1.225089162062043E-006
  3.908747847480750E-004  1.225089162062043E-006
  3.923732973851279E-004  1.225089162062043E-006
  3.948885685497984E-004  1.225089162062043E-006
  4.148186476354157E-004  1.225089162062043E-006
  4.214881444929661E-004  1.225089162062043E-006
  4.294882751048902E-004  1.225089162062043E-006
  4.324065487708373E-004  1.225089162062043E-006
  4.367851393336925E-004  1.225089162062043E-006
  4.412980689402588E-004  1.225089162062043E-006
  4.434681475046998E-004  1.225089162062043E-006
  4.619060084426766E-004  1.225089162062043E-006
  4.655265801829893E-004  1.225089162062043E-006
  4.683135106400371E-004  1.225089162062043E-006
  4.943415936427623E-004  1.225089162062043E-006
  5.170893191999390E-004  1.225089162062043E-006
  5.348266307826764E-004  1.225089162062043E-006
  5.368902226052329E-004  1.225089162062043E-006
  5.453725341887445E-004  1.225089162062043E-006
  5.464612228741438E-004  1.225089162062043E-006
  5.540893603655332E-004  1.225089162062043E-006
  5.549129665632185E-004  1.225089162062043E-006
  5.559810067835424E-004  1.225089162062043E-006
  5.561715297095374E-004  1.225089162062043E-006
  5.614015793680776E-004  1.225089162062043E-006
  5.917119164065835E-004  1.225089162062043E-006
  5.985111467896266E-004  1.225089162062043E-006
  5.992863389211949E-004  1.225089162062043E-006
  5.995894256751999E-004  1.225089162062043E-006
  5.998879368788288E-004  1.225089162062043E-006
  6.021450744189681E-004  1.225089162062043E-006
  6.410311029461089E-004  1.225089162062043E-006
  6.446556324827319E-004  1.225089162062043E-006
  6.453256428400947E-004  1.225089162062043E-006
  6.472653604243458E-004  1.225089162062043E-006
  6.676179778795923E-004  1.225089162062043E-006
  6.862368958048044E-004  1.225089162062043E-006
  6.924108496007133E-004  1.225089162062043E-006
  6.991191125673235E-004  1.225089162062043E-006
  7.066400159616980E-004  1.225089162062043E-006
  7.477463431875414E-004  1.225089162062043E-006
  8.165328712167175E-004  1.225089162062043E-006
  9.273010918244108E-004  1.225089162062043E-006
  9.437374855434150E-004  1.225089162062043E-006
  1.094302661958681E-003  1.225089162062043E-006
  1.095280608985087E-003  1.225089162062043E-006
  1.095976092410428E-003  1.225089162062043E-006
  1.096502190275546E-003  1.225089162062043E-006
  1.120287673697831E-003  1.225089162062043E-006
  1.125919705389917E-003  1.225089162062043E-006
  1.136299057227590E-003  1.225089162062043E-006
  1.164101532416647E-003  1.225089162062043E-006
  1.164215005185708E-003  1.225089162062043E-006
  1.164585573268522E-003  1.225089162062043E-006
  1.164799174955394E-003  1.225089162062043E-006
  1.176142268818795E-003  1.225089162062043E-006
  1.176974962627137E-003  1.225089162062043E-006
  1.268436022480389E-003  1.225089162062043E-006
  1.290989593767277E-003  1.225089162062043E-006
  1.301564515136726E-003  1.225089162062043E-006
  1.401509152437474E-003  1.225089162062043E-006
  1.500161681103610E-003  1.225089162062043E-006
  1.602912729051040E-003  1.225089162062043E-006
  1.720745844508622E-003  1.225089162062043E-006
  1.811222669909662E-003  1.225089162062043E-006
  1.926316460554769E-003  1.225089162062043E-006
  2.291445074555830E-003  1.225089162062043E-006
  2.347659892656388E-003  1.225089162062043E-006
  2.453379254257387E-003  1.225089162062043E-006
  2.474158812976221E-003  1.225089162062043E-006
  2.534639560028183E-003  1.225089162062043E-006
  2.542710674185310E-003  1.225089162062043E-006
  2.573802459770159E-003  1.225089162062043E-006
  2.800467826024689E-003  1.225089162062043E-006
  2.915049599302426E-003  1.225089162062043E-006
  3.025039491709862E-003  1.225089162062043E-006
  3.040710531391425E-003  1.225089162062043E-006
  3.079123371822813E-003  1.225089162062043E-006
  3.104846896320393E-003  1.225089162062043E-006
  3.667525241015347E-003  1.225089162062043E-006
  3.669465992794170E-003  1.225089162062043E-006
  3.715368596228500E-003  1.225089162062043E-006
  3.717020373934841E-003  1.225089162062043E-006
  3.968793783429160E-003  1.225089162062043E-006
 cut=1d-8, nber non-redundant internal coords=         150
 Check on Eigenvals of non-red overlap matrix:
  0.00000123  0.00000280  0.00000297  0.00000497  0.00000845  0.00001012  0.00001109  0.00001291
  0.00001374  0.00001458  0.00001708  0.00001737  0.00001833  0.00002096  0.00002136  0.00002336
  0.00002528  0.00002582  0.00002701  0.00002800  0.00003171  0.00003572  0.00003992  0.00004716
  0.00004897  0.00005100  0.00005285  0.00005641  0.00005649  0.00006128  0.00006808  0.00007097
  0.00007312  0.00008131  0.00008233  0.00008341  0.00008700  0.00008850  0.00009301  0.00009348
  0.00009492  0.00009729  0.00010949  0.00011960  0.00012263  0.00013667  0.00013719  0.00013742
  0.00014100  0.00015728  0.00015967  0.00016751  0.00017306  0.00018072  0.00020088  0.00022251
  0.00022887  0.00022971  0.00024727  0.00027485  0.00028376  0.00029178  0.00029815  0.00034038
  0.00035155  0.00035955  0.00037898  0.00039087  0.00039237  0.00039489  0.00041482  0.00042149
  0.00042949  0.00043241  0.00043679  0.00044130  0.00044347  0.00046191  0.00046553  0.00046831
  0.00049434  0.00051709  0.00053483  0.00053689  0.00054537  0.00054646  0.00055409  0.00055491
  0.00055598  0.00055617  0.00056140  0.00059171  0.00059851  0.00059929  0.00059959  0.00059989
  0.00060215  0.00064103  0.00064466  0.00064533  0.00064727  0.00066762  0.00068624  0.00069241
  0.00069912  0.00070664  0.00074775  0.00081653  0.00092730  0.00094374  0.00109430  0.00109528
  0.00109598  0.00109650  0.00112029  0.00112592  0.00113630  0.00116410  0.00116422  0.00116459
  0.00116480  0.00117614  0.00117697  0.00126844  0.00129099  0.00130156  0.00140151  0.00150016
  0.00160291  0.00172075  0.00181122  0.00192632  0.00229145  0.00234766  0.00245338  0.00247416
  0.00253464  0.00254271  0.00257380  0.00280047  0.00291505  0.00302504  0.00304071  0.00307912
  0.00310485  0.00366753  0.00366947  0.00371537  0.00371702  0.00396879
 Checking for correct frequencies
 recalc frequencies=
    -0.0   -0.0    0.0    0.0    0.0    0.0   24.2   29.0   49.9   53.3
    57.8   73.0   85.6   91.4  106.2  115.9  163.7  168.9  177.6  184.1
   200.9  206.9  234.6  237.6  260.2  268.0  271.2  286.8  311.3  334.8
   339.2  367.5  387.7  395.1  409.5  428.7  433.8  435.7  437.6  445.1
   463.6  473.9  478.5  485.3  518.8  522.5  544.2  565.7  572.0  572.3
   597.5  611.8  615.9  631.1  663.4  704.3  707.7  708.7  711.1  722.2
   757.7  767.5  768.3  771.4  799.5  806.0  821.2  842.6  867.7  869.1
   875.1  877.6  886.2  909.4  937.2  946.9  948.1  958.0 1003.2 1011.5
  1012.9 1020.4 1021.4 1050.3 1079.4 1095.7 1104.9 1151.9 1155.9 1157.7
  1162.2 1175.2 1192.2 1206.7 1209.5 1222.0 1235.5 1238.7 1253.6 1280.1
  1311.8 1316.6 1319.8 1333.1 1359.6 1366.6 1374.2 1376.3 1383.6 1401.5
  1403.6 1406.9 1423.2 1424.8 1441.6 1451.0 1464.3 1480.5 1484.3 1486.1
  1494.8 1495.8 1500.3 1502.7 1505.0 1520.6 1525.4 1565.7 1570.9 1575.6
  1587.5 1591.6 1608.1 1625.3 1711.1 1722.1 1759.7 1768.4 3042.4 3045.6
  3072.2 3103.0 3106.3 3118.7 3135.3 3139.4 3146.6 3192.1 3204.8 3205.1
  3210.1 3210.2 3216.6 3216.6 3228.6 3228.7
 recalc symmetries=
                                                                       
                                                                       
                                                                       
                                                                       
                                                                       
                                                                       
                                                                       
                                                                       
                                                                       
                                                                       
                                                                       
                                                                       
                                                                       
                                                                       
                                                                       
                                           
 recalc freqs check OK
 Zero-point lengths:
 10.0000 10.0000 10.0000 10.0000 10.0000 10.0000 50.3592 46.0587 35.1116 33.9717
 32.6109 29.0114 26.7955 25.9267 24.0530 23.0294 19.3764 19.0747 18.6042 18.2734
 17.4899 17.2346 16.1864 16.0829 15.3701 15.1435 15.0526 14.6381 14.0514 13.5488
 13.4597 12.9322 12.5914 12.4716 12.2516 11.9728 11.9032 11.8764 11.8508 11.7511
 11.5145 11.3877 11.3327 11.2538 10.8838 10.8458 10.6270 10.4234 10.3653 10.3631
 10.1422 10.0230  9.9892  9.8680  9.6249  9.3415  9.3192  9.3123  9.2967  9.2252
  9.0066  8.9485  8.9443  8.9258  8.7680  8.7322  8.6510  8.5406  8.4161  8.4092
  8.3806  8.3685  8.3278  8.2207  8.0982  8.0563  8.0513  8.0098  7.8272  7.7951
  7.7894  7.7610  7.7571  7.6496  7.5459  7.4893  7.4583  7.3044  7.2917  7.2862
  7.2721  7.2318  7.1799  7.1367  7.1284  7.0919  7.0529  7.0438  7.0018  6.9290
  6.8448  6.8324  6.8240  6.7899  6.7234  6.7061  6.6877  6.6825  6.6649  6.6222
  6.6173  6.6095  6.5716  6.5678  6.5294  6.5083  6.4786  6.4430  6.4347  6.4309
  6.4122  6.4100  6.4004  6.3953  6.3904  6.3575  6.3475  6.2653  6.2549  6.2456
  6.2221  6.2142  6.1821  6.1493  5.9931  5.9740  5.9099  5.8953  4.4946  4.4922
  4.4727  4.4504  4.4481  4.4392  4.4275  4.4246  4.4195  4.3879  4.3792  4.3790
  4.3756  4.3755  4.3712  4.3711  4.3630  4.3629
 highest evec of mol 1
 -0.0000  0.0000 -0.0000
  0.0000  0.0002 -0.0000
  0.0000  0.0000  0.0000
  0.0001 -0.0002 -0.0002
 -0.0003 -0.0000  0.0004
  0.0001  0.0001 -0.0001
  0.0006  0.0011 -0.0006
 -0.0160  0.0017  0.0227
 -0.0278 -0.0664  0.0277
  0.0011 -0.0005 -0.0016
  0.0004  0.0021 -0.0002
 -0.0467 -0.0049  0.0648
 -0.0084 -0.0256  0.0074
  0.0008  0.0002 -0.0011
 -0.0002 -0.0004  0.0002
  0.0001  0.0001 -0.0001
 -0.0000  0.0002  0.0001
  0.0000 -0.0001 -0.0001
  0.0005 -0.0000 -0.0007
 -0.0002 -0.0002  0.0002
 -0.0010 -0.0024  0.0010
  0.0328 -0.0043 -0.0468
  0.0629  0.1515 -0.0626
 -0.0023  0.0008  0.0033
 -0.0009 -0.0039  0.0006
  0.1023  0.0103 -0.1420
  0.0189  0.0586 -0.0167
 -0.0017 -0.0002  0.0024
  0.0003  0.0008 -0.0003
 -0.0002 -0.0002  0.0003
 -0.0002 -0.0000  0.0003
 -0.0004 -0.0003  0.0005
 -0.0003 -0.0005  0.0004
 -0.0001 -0.0003  0.0001
  0.0000 -0.0001 -0.0000
 -0.0000 -0.0000  0.0000
  0.0000  0.0000  0.0001
 -0.0002 -0.0003  0.0002
 -0.0000 -0.0000  0.0000
 -0.0000 -0.0001 -0.0001
 -0.0001  0.0000  0.0000
  0.0504  0.0005 -0.0707
  0.0929  0.2231 -0.0926
  0.1566  0.0160 -0.2173
  0.0290  0.0772 -0.0276
  0.0000  0.0001 -0.0000
 -0.0001  0.0000  0.0000
  0.0000  0.0000  0.0001
 -0.1030 -0.0009  0.1444
 -0.2110 -0.5080  0.2100
 -0.3429 -0.0356  0.4760
 -0.0662 -0.1766  0.0631
 generating redundant internal coords
         300        3600          52
 Adding extra bonds for z output only
           6           6           6           7           6           8
           6           6           6           6           6           6
           6           6           6           8           7           6
           6           8           6           6           6           6
           6           6           6           6           6           8
           6           6           6           6           1           1
           1           1           1           1           1           1
           1           1           1           1           1           1
           1           1           1           1
 search for int coords
   1 str   2   1   1.531
   2 str   3   2   1.531
   3 str   4   2   1.511
   4 str   5   4   1.394
   5 str   6   5   1.213
   6 str   7   5   1.498
   7 str   8   7   1.392
   8 str   9   8   1.387
   9 str  10   9   1.412
  10 str  11  10   1.449
  11 str  12  11   1.412
  12 str  13  12   1.387
  13 str  14  13   1.391
  14 str  15  14   1.497
  15 str  16  15   1.212
  16 str  17  15   1.396
  17 str  18  17   1.475
  18 str  19  17   1.394
  19 str  20  19   1.212
  20 str  21  19   1.494
  21 str  22  21   1.391
  22 str  23  22   1.387
  23 str  24  23   1.412
  24 str  25  24   1.449
  25 str  26  25   1.412
  26 str  27  26   1.387
  27 str  28  27   1.392
  28 str  29   4   1.399
  29 str  29  28   1.497
  30 str  30  29   1.213
  31 str  31   7   1.408
  32 str  31  28   1.408
  33 str  32  10   1.425
  34 str  32  25   1.425
  35 str  32  31   1.425
  36 str  33  11   1.426
  37 str  33  24   1.426
  38 str  34  14   1.410
  39 str  34  21   1.410
  40 str  34  33   1.425
  41 str  35   1   1.092
  42 str  36   1   1.089
  43 str  37   1   1.093
  44 str  38   2   1.087
  45 str  39   3   1.089
  46 str  40   3   1.092
  47 str  41   3   1.093
  48 str  42   8   1.082
  49 str  43   9   1.081
  50 str  44  12   1.081
  51 str  45  13   1.083
  52 str  46  18   1.085
  53 str  47  18   1.090
  54 str  48  18   1.089
  55 str  49  22   1.083
  56 str  50  23   1.081
  57 str  51  26   1.081
  58 str  52  27   1.082
 nber stretches=          58
  59 ben   1   2   3
  60 prop tor   1   2   3  39
  61 prop tor   1   2   3  40
  62 prop tor   1   2   3  41
  63 ben   1   2   4
  64 prop tor   1   2   4   5
  65 prop tor   1   2   4  29
  66 ben   1   2  38
  67 ben   2   1  35
  68 ben   2   1  36
  69 ben   2   1  37
  70 ben   2   3  39
  71 ben   2   3  40
  72 ben   2   3  41
  73 ben   2   4   5
  74 prop tor   2   4   5   6
  75 prop tor   2   4   5   7
  76 ben   2   4  29
  77 prop tor   2   4  29  28
  78 prop tor   2   4  29  30
  79 ben   3   2   4
  80 prop tor   3   2   4   5
  81 prop tor   3   2   4  29
  82 ben   3   2  38
  83 prop tor   4   2   3  39
  84 prop tor   4   2   3  40
  85 prop tor   4   2   3  41
  86 ben   4   2  38
  87 ben   4   5   6
  88 ben   4   5   7
  89 prop tor   4   5   7   8
  90 prop tor   4   5   7  31
  91 ben   4  29  28
  92 ben   4  29  30
  93 ben   5   4  29
  94 prop tor   5   4  29  28
  95 prop tor   5   4  29  30
  96 ben   5   7   8
  97 prop tor   5   7   8   9
  98 prop tor   5   7   8  42
  99 ben   5   7  31
 100 prop tor   5   7  31  28
 101 prop tor   5   7  31  32
 102 ben   6   5   7
 103 prop tor   6   5   7   8
 104 prop tor   6   5   7  31
 105 ben   7   8   9
 106 prop tor   7   8   9  10
 107 prop tor   7   8   9  43
 108 ben   7   8  42
 109 ben   7  31  28
 110 ben   7  31  32
 111 prop tor   7  31  32  10
 112 prop tor   7  31  32  25
 113 ben   8   7  31
 114 prop tor   8   7  31  28
 115 prop tor   8   7  31  32
 116 ben   8   9  10
 117 prop tor   8   9  10  11
 118 prop tor   8   9  10  32
 119 ben   8   9  43
 120 ben   9   8  42
 121 ben   9  10  11
 122 prop tor   9  10  11  12
 123 prop tor   9  10  11  33
 124 ben   9  10  32
 125 prop tor   9  10  32  25
 126 prop tor   9  10  32  31
 127 ben  10   9  43
 128 ben  10  11  12
 129 prop tor  10  11  12  13
 130 prop tor  10  11  12  44
 131 ben  10  11  33
 132 prop tor  10  11  33  24
 133 prop tor  10  11  33  34
 134 ben  10  32  25
 135 ben  10  32  31
 136 ben  11  10  32
 137 prop tor  11  10  32  25
 138 prop tor  11  10  32  31
 139 ben  11  12  13
 140 prop tor  11  12  13  14
 141 prop tor  11  12  13  45
 142 ben  11  12  44
 143 ben  11  33  24
 144 ben  11  33  34
 145 prop tor  11  33  34  14
 146 prop tor  11  33  34  21
 147 ben  12  11  33
 148 prop tor  12  11  33  24
 149 prop tor  12  11  33  34
 150 ben  12  13  14
 151 prop tor  12  13  14  15
 152 prop tor  12  13  14  34
 153 ben  12  13  45
 154 ben  13  12  44
 155 ben  13  14  15
 156 prop tor  13  14  15  16
 157 prop tor  13  14  15  17
 158 ben  13  14  34
 159 prop tor  13  14  34  21
 160 prop tor  13  14  34  33
 161 ben  14  13  45
 162 ben  14  15  16
 163 ben  14  15  17
 164 prop tor  14  15  17  18
 165 prop tor  14  15  17  19
 166 ben  14  34  21
 167 ben  14  34  33
 168 ben  15  14  34
 169 prop tor  15  14  34  21
 170 prop tor  15  14  34  33
 171 ben  15  17  18
 172 prop tor  15  17  18  46
 173 prop tor  15  17  18  47
 174 prop tor  15  17  18  48
 175 ben  15  17  19
 176 prop tor  15  17  19  20
 177 prop tor  15  17  19  21
 178 ben  16  15  17
 179 prop tor  16  15  17  18
 180 prop tor  16  15  17  19
 181 ben  17  18  46
 182 ben  17  18  47
 183 ben  17  18  48
 184 ben  17  19  20
 185 ben  17  19  21
 186 prop tor  17  19  21  22
 187 prop tor  17  19  21  34
 188 ben  18  17  19
 189 prop tor  18  17  19  20
 190 prop tor  18  17  19  21
 191 prop tor  19  17  18  46
 192 prop tor  19  17  18  47
 193 prop tor  19  17  18  48
 194 ben  19  21  22
 195 prop tor  19  21  22  23
 196 prop tor  19  21  22  49
 197 ben  19  21  34
 198 prop tor  19  21  34  14
 199 prop tor  19  21  34  33
 200 ben  20  19  21
 201 prop tor  20  19  21  22
 202 prop tor  20  19  21  34
 203 ben  21  22  23
 204 prop tor  21  22  23  24
 205 prop tor  21  22  23  50
 206 ben  21  22  49
 207 ben  21  34  33
 208 ben  22  21  34
 209 prop tor  22  21  34  14
 210 prop tor  22  21  34  33
 211 ben  22  23  24
 212 prop tor  22  23  24  25
 213 prop tor  22  23  24  33
 214 ben  22  23  50
 215 ben  23  22  49
 216 ben  23  24  25
 217 prop tor  23  24  25  26
 218 prop tor  23  24  25  32
 219 ben  23  24  33
 220 prop tor  23  24  33  11
 221 prop tor  23  24  33  34
 222 ben  24  23  50
 223 ben  24  25  26
 224 prop tor  24  25  26  27
 225 prop tor  24  25  26  51
 226 ben  24  25  32
 227 prop tor  24  25  32  10
 228 prop tor  24  25  32  31
 229 ben  24  33  34
 230 prop tor  24  33  34  14
 231 prop tor  24  33  34  21
 232 ben  25  24  33
 233 prop tor  25  24  33  11
 234 prop tor  25  24  33  34
 235 ben  25  26  27
 236 prop tor  25  26  27  28
 237 prop tor  25  26  27  52
 238 ben  25  26  51
 239 ben  25  32  31
 240 ben  26  25  32
 241 prop tor  26  25  32  10
 242 prop tor  26  25  32  31
 243 ben  26  27  28
 244 prop tor  26  27  28  29
 245 prop tor  26  27  28  31
 246 ben  26  27  52
 247 ben  27  26  51
 248 ben  27  28  29
 249 prop tor  27  28  29   4
 250 prop tor  27  28  29  30
 251 ben  27  28  31
 252 prop tor  27  28  31   7
 253 prop tor  27  28  31  32
 254 ben  28  27  52
 255 ben  28  29  30
 256 ben  28  31  32
 257 prop tor  28  31  32  10
 258 prop tor  28  31  32  25
 259 prop tor  29   4   5   6
 260 prop tor  29   4   5   7
 261 ben  29  28  31
 262 prop tor  29  28  31   7
 263 prop tor  29  28  31  32
 264 prop tor  31   7   8   9
 265 prop tor  31   7   8  42
 266 prop tor  31  28  29   4
 267 prop tor  31  28  29  30
 268 prop tor  32  10  11  12
 269 prop tor  32  10  11  33
 270 prop tor  32  25  26  27
 271 prop tor  32  25  26  51
 272 prop tor  33  11  12  13
 273 prop tor  33  11  12  44
 274 prop tor  33  24  25  26
 275 prop tor  33  24  25  32
 276 prop tor  34  14  15  16
 277 prop tor  34  14  15  17
 278 prop tor  34  21  22  23
 279 prop tor  34  21  22  49
 280 prop tor  35   1   2   3
 281 prop tor  35   1   2   4
 282 prop tor  35   1   2  38
 283 ben  35   1  36
 284 ben  35   1  37
 285 prop tor  36   1   2   3
 286 prop tor  36   1   2   4
 287 prop tor  36   1   2  38
 288 ben  36   1  37
 289 prop tor  37   1   2   3
 290 prop tor  37   1   2   4
 291 prop tor  37   1   2  38
 292 prop tor  38   2   3  39
 293 prop tor  38   2   3  40
 294 prop tor  38   2   3  41
 295 prop tor  38   2   4   5
 296 prop tor  38   2   4  29
 297 ben  39   3  40
 298 ben  39   3  41
 299 ben  40   3  41
 300 prop tor  42   8   9  10
 301 prop tor  42   8   9  43
 302 prop tor  43   9  10  11
 303 prop tor  43   9  10  32
 304 prop tor  44  12  13  14
 305 prop tor  44  12  13  45
 306 prop tor  45  13  14  15
 307 prop tor  45  13  14  34
 308 ben  46  18  47
 309 ben  46  18  48
 310 ben  47  18  48
 311 prop tor  49  22  23  24
 312 prop tor  49  22  23  50
 313 prop tor  50  23  24  25
 314 prop tor  50  23  24  33
 315 prop tor  51  26  27  28
 316 prop tor  51  26  27  52
 317 prop tor  52  27  28  29
 318 prop tor  52  27  28  31
 nber bend=             102
 nber lin bend=           0
 nber prop tor=         158
 nber impr tor=           0
 nber tot redund int=         318
 Reading file: 
 ./PDI_2_C0S0.log                                                               
                                          
  Entering Gaussian System, Link 0=g16                                          
  
 Gaussian format, type: g94, g98, g03= F F F
  #P Geom=AllCheck Guess=TCheck SCRF=Check GenChk RB3LYP/6-311G(d,p) Fre    
 energy type= B3LYP   
 Original G94 input coords:
  6  1.072418  0.400210 -0.040511
  6  2.574685  0.104449  0.015645
  6  3.153909  0.150000  1.433308
  7  2.914164 -1.177739 -0.681044
  6  2.411067 -2.384009 -0.176998
  8  1.704121 -2.411303  0.815126
  6  2.773618 -3.630054 -0.900070
  6  2.297987 -4.841707 -0.437094
  6  2.623189 -6.029240 -1.096802
  6  3.429550 -6.044710 -2.233574
  6  3.777800 -7.288096 -2.934907
  6  3.324029 -8.535564 -2.510282
  6  3.660546 -9.712290 -3.182981
  6  4.464930 -9.673038 -4.305440
  6  4.804076-10.941640 -4.997119
  8  4.396301-12.020287 -4.607891
  7  5.624005-10.835827 -6.130232
  6  5.989315-12.061836 -6.851485
  6  6.134261 -9.637091 -6.642414
  8  6.840178 -9.642782 -7.634086
  6  5.772977 -8.391981 -5.923686
  6  6.248703 -7.180309 -6.385451
  6  5.922028 -5.993593 -5.725425
  6  5.114355 -5.980293 -4.589653
  6  4.765133 -4.736929 -3.888620
  6  5.217054 -3.488373 -4.312624
  6  4.879773 -2.312111 -3.639126
  6  4.076149 -2.353452 -2.515813
  6  3.735083 -1.086647 -1.821222
  8  4.149300 -0.014131 -2.222479
  6  3.594027 -3.595317 -2.048416
  6  3.932614 -4.803127 -2.729704
  6  4.611095 -7.222777 -4.094020
  6  4.950032 -8.431002 -4.775237
  1  0.894821  1.409041  0.341855
  1  0.499431 -0.305097  0.559904
  1  0.709799  0.366407 -1.071122
  1  3.088784  0.852606 -0.583480
  1  2.665092 -0.566400  2.092196
  1  3.012043  1.153890  1.842634
  1  4.227499 -0.054924  1.419243
  1  1.670234 -4.850107  0.444941
  1  2.227772 -6.952991 -0.697703
  1  2.692090 -8.616200 -1.636769
  1  3.298169-10.672316 -2.837569
  1  5.520850-12.897751 -6.341973
  1  7.073669-12.176126 -6.859322
  1  5.644192-11.998994 -7.883844
  1  6.877727 -7.171253 -7.266761
  1  6.317168 -5.069058 -6.122857
  1  5.848307 -3.406187 -5.186517
  1  5.240964 -1.351765 -3.984507
 nber atoms=          52
  SCF Done:  E(RB3LYP) =  -1488.72539299     A.U. after    1 cycles             
  
          23          40 "  -1488.72539299"
After scan for Atom:   Atom  AN      X      Y      Z        X      Y      Z        X      Y      Z   
After scan for Atom:   Atom  AN      X      Y      Z        X      Y      Z        X      Y      Z   
After scan for Atom:   Atom  AN      X      Y      Z        X      Y      Z        X      Y      Z   
After scan for Atom:   Atom  AN      X      Y      Z        X      Y      Z        X      Y      Z   
After scan for Atom:   Atom  AN      X      Y      Z        X      Y      Z        X      Y      Z   
After scan for Atom:   Atom  AN      X      Y      Z        X      Y      Z        X      Y      Z   
After scan for Atom:   Atom  AN      X      Y      Z        X      Y      Z        X      Y      Z   
After scan for Atom:   Atom  AN      X      Y      Z        X      Y      Z        X      Y      Z   
After scan for Atom:   Atom  AN      X      Y      Z        X      Y      Z        X      Y      Z   
After scan for Atom:   Atom  AN      X      Y      Z        X      Y      Z        X      Y      Z   
After scan for Atom:   Atom  AN      X      Y      Z        X      Y      Z        X      Y      Z   
After scan for Atom:   Atom  AN      X      Y      Z        X      Y      Z        X      Y      Z   
After scan for Atom:   Atom  AN      X      Y      Z        X      Y      Z        X      Y      Z   
After scan for Atom:   Atom  AN      X      Y      Z        X      Y      Z        X      Y      Z   
After scan for Atom:   Atom  AN      X      Y      Z        X      Y      Z        X      Y      Z   
After scan for Atom:   Atom  AN      X      Y      Z        X      Y      Z        X      Y      Z   
After scan for Atom:   Atom  AN      X      Y      Z        X      Y      Z        X      Y      Z   
After scan for Atom:   Atom  AN      X      Y      Z        X      Y      Z        X      Y      Z   
After scan for Atom:   Atom  AN      X      Y      Z        X      Y      Z        X      Y      Z   
After scan for Atom:   Atom  AN      X      Y      Z        X      Y      Z        X      Y      Z   
After scan for Atom:   Atom  AN      X      Y      Z        X      Y      Z        X      Y      Z   
After scan for Atom:   Atom  AN      X      Y      Z        X      Y      Z        X      Y      Z   
After scan for Atom:   Atom  AN      X      Y      Z        X      Y      Z        X      Y      Z   
After scan for Atom:   Atom  AN      X      Y      Z        X      Y      Z        X      Y      Z   
After scan for Atom:   Atom  AN      X      Y      Z        X      Y      Z        X      Y      Z   
After scan for Atom:   Atom  AN      X      Y      Z        X      Y      Z        X      Y      Z   
After scan for Atom:   Atom  AN      X      Y      Z        X      Y      Z        X      Y      Z   
After scan for Atom:   Atom  AN      X      Y      Z        X      Y      Z        X      Y      Z   
After scan for Atom:   Atom  AN      X      Y      Z        X      Y      Z        X      Y      Z   
After scan for Atom:   Atom  AN      X      Y      Z        X      Y      Z        X      Y      Z   
After scan for Atom:   Atom  AN      X      Y      Z        X      Y      Z        X      Y      Z   
After scan for Atom:   Atom  AN      X      Y      Z        X      Y      Z        X      Y      Z   
After scan for Atom:   Atom  AN      X      Y      Z        X      Y      Z        X      Y      Z   
After scan for Atom:   Atom  AN      X      Y      Z        X      Y      Z        X      Y      Z   
After scan for Atom:   Atom  AN      X      Y      Z        X      Y      Z        X      Y      Z   
After scan for Atom:   Atom  AN      X      Y      Z        X      Y      Z        X      Y      Z   
After scan for Atom:   Atom  AN      X      Y      Z        X      Y      Z        X      Y      Z   
After scan for Atom:   Atom  AN      X      Y      Z        X      Y      Z        X      Y      Z   
After scan for Atom:   Atom  AN      X      Y      Z        X      Y      Z        X      Y      Z   
After scan for Atom:   Atom  AN      X      Y      Z        X      Y      Z        X      Y      Z   
After scan for Atom:   Atom  AN      X      Y      Z        X      Y      Z        X      Y      Z   
After scan for Atom:   Atom  AN      X      Y      Z        X      Y      Z        X      Y      Z   
After scan for Atom:   Atom  AN      X      Y      Z        X      Y      Z        X      Y      Z   
After scan for Atom:   Atom  AN      X      Y      Z        X      Y      Z        X      Y      Z   
After scan for Atom:   Atom  AN      X      Y      Z        X      Y      Z        X      Y      Z   
After scan for Atom:   Atom  AN      X      Y      Z        X      Y      Z        X      Y      Z   
After scan for Atom:   Atom  AN      X      Y      Z        X      Y      Z        X      Y      Z   
After scan for Atom:   Atom  AN      X      Y      Z        X      Y      Z        X      Y      Z   
After scan for Atom:   Atom  AN      X      Y      Z        X      Y      Z        X      Y      Z   
After scan for Atom:   Atom  AN      X      Y      Z        X      Y      Z        X      Y      Z   
 g94    frequencies=
     0.0    0.0    0.0    0.0    0.0    0.0   22.6   25.5   50.7   54.9
    64.1   77.0   85.3   92.1  108.5  118.1  159.9  168.9  186.5  187.5
   202.8  208.2  234.6  235.2  271.8  271.9  274.0  288.6  315.6  341.2
   356.4  374.4  392.8  398.8  414.8  432.7  437.4  441.1  447.0  448.4
   474.1  476.7  480.6  485.6  517.1  535.2  542.4  570.5  577.9  591.8
   602.9  622.4  631.7  653.4  666.5  714.6  716.5  725.0  740.1  746.6
   762.8  771.5  782.2  787.2  803.0  808.6  824.5  844.5  863.9  864.9
   869.7  871.1  895.4  918.4  945.4  951.8  956.9  969.2  992.0  996.2
  1000.9 1005.3 1016.7 1052.6 1076.2 1093.4 1102.3 1153.2 1153.3 1155.6
  1169.7 1180.4 1194.5 1206.1 1213.2 1218.2 1240.2 1241.0 1251.0 1267.3
  1303.7 1309.0 1317.0 1326.2 1338.4 1358.2 1369.7 1375.2 1382.2 1387.5
  1400.6 1406.6 1417.0 1428.9 1435.6 1444.5 1462.3 1478.6 1485.2 1491.4
  1496.5 1498.0 1505.4 1505.6 1507.6 1522.7 1542.8 1560.7 1604.2 1614.9
  1620.2 1631.5 1631.9 1648.9 1713.1 1722.0 1750.8 1759.4 3034.7 3038.8
  3062.1 3092.5 3095.7 3113.1 3121.3 3133.2 3143.5 3183.2 3193.6 3193.8
  3200.9 3201.1 3208.3 3208.3 3218.0 3218.1
 g94    symmetries=
                                                 A      A      A      A
       A      A      A      A      A      A      A      A      A      A
       A      A      A      A      A      A      A      A      A      A
       A      A      A      A      A      A      A      A      A      A
       A      A      A      A      A      A      A      A      A      A
       A      A      A      A      A      A      A      A      A      A
       A      A      A      A      A      A      A      A      A      A
       A      A      A      A      A      A      A      A      A      A
       A      A      A      A      A      A      A      A      A      A
       A      A      A      A      A      A      A      A      A      A
       A      A      A      A      A      A      A      A      A      A
       A      A      A      A      A      A      A      A      A      A
       A      A      A      A      A      A      A      A      A      A
       A      A      A      A      A      A      A      A      A      A
       A      A      A      A      A      A      A      A      A      A
       A      A      A      A      A      A
 atomic masses:
 12.0000 12.0000 12.0000 14.0031 12.0000 15.9949 12.0000 12.0000 12.0000 12.0000
 12.0000 12.0000 12.0000 12.0000 12.0000 15.9949 14.0031 12.0000 12.0000 15.9949
 12.0000 12.0000 12.0000 12.0000 12.0000 12.0000 12.0000 12.0000 12.0000 15.9949
 12.0000 12.0000 12.0000 12.0000  1.0078  1.0078  1.0078  1.0078  1.0078  1.0078
  1.0078  1.0078  1.0078  1.0078  1.0078  1.0078  1.0078  1.0078  1.0078  1.0078
  1.0078  1.0078
 looking for force constants in 
 ./PDI_2_C0S0.fchk                                                              
  
 Cartesian Force Constants                  R   N=       12246                  
  
 n3=         156       12246
 g94-fc frequencies=
    -1.8   -0.0    0.0    0.0    1.3    3.5   22.6   25.5   50.7   54.9
    64.1   77.0   85.3   92.1  108.5  118.1  159.9  168.9  186.5  187.5
   202.8  208.2  234.7  235.2  271.8  271.9  274.0  288.6  315.6  341.3
   356.4  374.4  392.8  398.8  414.8  432.7  437.4  441.1  447.0  448.4
   474.1  476.7  480.6  485.7  517.1  535.2  542.5  570.5  578.0  591.8
   602.9  622.4  631.7  653.4  666.5  714.6  716.6  725.0  740.1  746.6
   762.8  771.6  782.2  787.2  803.1  808.6  824.5  844.5  864.0  864.9
   869.7  871.2  895.5  918.4  945.5  951.8  956.9  969.3  992.1  996.2
  1000.9 1005.3 1016.7 1052.6 1076.2 1093.4 1102.3 1153.2 1153.4 1155.6
  1169.7 1180.4 1194.6 1206.1 1213.2 1218.2 1240.2 1241.0 1251.0 1267.3
  1303.7 1309.0 1317.1 1326.2 1338.5 1358.2 1369.8 1375.3 1382.2 1387.6
  1400.6 1406.7 1417.1 1429.0 1435.6 1444.5 1462.4 1478.6 1485.2 1491.5
  1496.6 1498.1 1505.5 1505.6 1507.6 1522.8 1542.9 1560.7 1604.2 1614.9
  1620.2 1631.6 1631.9 1648.9 1713.2 1722.0 1750.9 1759.4 3034.7 3038.8
  3062.2 3092.5 3095.8 3113.2 3121.4 3133.2 3143.6 3183.3 3193.7 3193.8
  3201.0 3201.2 3208.3 3208.4 3218.1 3218.2
 at 99999: n3=         156
 symm operator            1 :  F  nop=           0
 symm operator            2 :  F  nop=           0
 symm operator            3 :  F  nop=           0
 symm operator            4 :  F  nop=           0
 symm operator            5 :  F  nop=           0
 symm operator            6 :  F  nop=           0
 symm operator            7 :  F  nop=           0
 The point group of the molecule is  C1
 Symmetry rotation matrix:
   1.00000   0.00000   0.00000
   0.00000   1.00000   0.00000
   0.00000   0.00000   1.00000

 Projecting out zero-frequency components
 generating redundant internal coords
         300        3600          52
 search for int coords
   1 str   2   1   1.532
   2 str   3   2   1.532
   3 str   4   2   1.498
   4 str   5   4   1.401
   5 str   6   5   1.219
   6 str   7   5   1.486
   7 str   8   7   1.382
   8 str   9   8   1.397
   9 str  10   9   1.394
  10 str  11  10   1.469
  11 str  12  11   1.394
  12 str  13  12   1.397
  13 str  14  13   1.381
  14 str  15  14   1.484
  15 str  16  15   1.217
  16 str  17  15   1.403
  17 str  18  17   1.469
  18 str  19  17   1.400
  19 str  20  19   1.217
  20 str  21  19   1.482
  21 str  22  21   1.381
  22 str  23  22   1.397
  23 str  24  23   1.394
  24 str  25  24   1.469
  25 str  26  25   1.394
  26 str  27  26   1.397
  27 str  28  27   1.382
  28 str  29   4   1.408
  29 str  29  28   1.484
  30 str  30  29   1.218
  31 str  31   7   1.412
  32 str  31  28   1.412
  33 str  32  10   1.429
  34 str  32  25   1.428
  35 str  32  31   1.427
  36 str  33  11   1.429
  37 str  33  24   1.429
  38 str  34  14   1.414
  39 str  34  21   1.413
  40 str  34  33   1.428
  41 str  35   1   1.093
  42 str  36   1   1.089
  43 str  37   1   1.093
  44 str  38   2   1.088
  45 str  39   3   1.089
  46 str  40   3   1.093
  47 str  41   3   1.093
  48 str  42   8   1.083
  49 str  43   9   1.081
  50 str  44  12   1.081
  51 str  45  13   1.083
  52 str  46  18   1.085
  53 str  47  18   1.090
  54 str  48  18   1.090
  55 str  49  22   1.083
  56 str  50  23   1.081
  57 str  51  26   1.081
  58 str  52  27   1.083
 nber stretches=          58
  59 ben   1   2   3
  60 prop tor   1   2   3  39
  61 prop tor   1   2   3  40
  62 prop tor   1   2   3  41
  63 ben   1   2   4
  64 prop tor   1   2   4   5
  65 prop tor   1   2   4  29
  66 ben   1   2  38
  67 ben   2   1  35
  68 ben   2   1  36
  69 ben   2   1  37
  70 ben   2   3  39
  71 ben   2   3  40
  72 ben   2   3  41
  73 ben   2   4   5
  74 prop tor   2   4   5   6
  75 prop tor   2   4   5   7
  76 ben   2   4  29
  77 prop tor   2   4  29  28
  78 prop tor   2   4  29  30
  79 ben   3   2   4
  80 prop tor   3   2   4   5
  81 prop tor   3   2   4  29
  82 ben   3   2  38
  83 prop tor   4   2   3  39
  84 prop tor   4   2   3  40
  85 prop tor   4   2   3  41
  86 ben   4   2  38
  87 ben   4   5   6
  88 ben   4   5   7
  89 prop tor   4   5   7   8
  90 prop tor   4   5   7  31
  91 ben   4  29  28
  92 ben   4  29  30
  93 ben   5   4  29
  94 prop tor   5   4  29  28
  95 prop tor   5   4  29  30
  96 ben   5   7   8
  97 prop tor   5   7   8   9
  98 prop tor   5   7   8  42
  99 ben   5   7  31
 100 prop tor   5   7  31  28
 101 prop tor   5   7  31  32
 102 ben   6   5   7
 103 prop tor   6   5   7   8
 104 prop tor   6   5   7  31
 105 ben   7   8   9
 106 prop tor   7   8   9  10
 107 prop tor   7   8   9  43
 108 ben   7   8  42
 109 ben   7  31  28
 110 ben   7  31  32
 111 prop tor   7  31  32  10
 112 prop tor   7  31  32  25
 113 ben   8   7  31
 114 prop tor   8   7  31  28
 115 prop tor   8   7  31  32
 116 ben   8   9  10
 117 prop tor   8   9  10  11
 118 prop tor   8   9  10  32
 119 ben   8   9  43
 120 ben   9   8  42
 121 ben   9  10  11
 122 prop tor   9  10  11  12
 123 prop tor   9  10  11  33
 124 ben   9  10  32
 125 prop tor   9  10  32  25
 126 prop tor   9  10  32  31
 127 ben  10   9  43
 128 ben  10  11  12
 129 prop tor  10  11  12  13
 130 prop tor  10  11  12  44
 131 ben  10  11  33
 132 prop tor  10  11  33  24
 133 prop tor  10  11  33  34
 134 ben  10  32  25
 135 ben  10  32  31
 136 ben  11  10  32
 137 prop tor  11  10  32  25
 138 prop tor  11  10  32  31
 139 ben  11  12  13
 140 prop tor  11  12  13  14
 141 prop tor  11  12  13  45
 142 ben  11  12  44
 143 ben  11  33  24
 144 ben  11  33  34
 145 prop tor  11  33  34  14
 146 prop tor  11  33  34  21
 147 ben  12  11  33
 148 prop tor  12  11  33  24
 149 prop tor  12  11  33  34
 150 ben  12  13  14
 151 prop tor  12  13  14  15
 152 prop tor  12  13  14  34
 153 ben  12  13  45
 154 ben  13  12  44
 155 ben  13  14  15
 156 prop tor  13  14  15  16
 157 prop tor  13  14  15  17
 158 ben  13  14  34
 159 prop tor  13  14  34  21
 160 prop tor  13  14  34  33
 161 ben  14  13  45
 162 ben  14  15  16
 163 ben  14  15  17
 164 prop tor  14  15  17  18
 165 prop tor  14  15  17  19
 166 ben  14  34  21
 167 ben  14  34  33
 168 ben  15  14  34
 169 prop tor  15  14  34  21
 170 prop tor  15  14  34  33
 171 ben  15  17  18
 172 prop tor  15  17  18  46
 173 prop tor  15  17  18  47
 174 prop tor  15  17  18  48
 175 ben  15  17  19
 176 prop tor  15  17  19  20
 177 prop tor  15  17  19  21
 178 ben  16  15  17
 179 prop tor  16  15  17  18
 180 prop tor  16  15  17  19
 181 ben  17  18  46
 182 ben  17  18  47
 183 ben  17  18  48
 184 ben  17  19  20
 185 ben  17  19  21
 186 prop tor  17  19  21  22
 187 prop tor  17  19  21  34
 188 ben  18  17  19
 189 prop tor  18  17  19  20
 190 prop tor  18  17  19  21
 191 prop tor  19  17  18  46
 192 prop tor  19  17  18  47
 193 prop tor  19  17  18  48
 194 ben  19  21  22
 195 prop tor  19  21  22  23
 196 prop tor  19  21  22  49
 197 ben  19  21  34
 198 prop tor  19  21  34  14
 199 prop tor  19  21  34  33
 200 ben  20  19  21
 201 prop tor  20  19  21  22
 202 prop tor  20  19  21  34
 203 ben  21  22  23
 204 prop tor  21  22  23  24
 205 prop tor  21  22  23  50
 206 ben  21  22  49
 207 ben  21  34  33
 208 ben  22  21  34
 209 prop tor  22  21  34  14
 210 prop tor  22  21  34  33
 211 ben  22  23  24
 212 prop tor  22  23  24  25
 213 prop tor  22  23  24  33
 214 ben  22  23  50
 215 ben  23  22  49
 216 ben  23  24  25
 217 prop tor  23  24  25  26
 218 prop tor  23  24  25  32
 219 ben  23  24  33
 220 prop tor  23  24  33  11
 221 prop tor  23  24  33  34
 222 ben  24  23  50
 223 ben  24  25  26
 224 prop tor  24  25  26  27
 225 prop tor  24  25  26  51
 226 ben  24  25  32
 227 prop tor  24  25  32  10
 228 prop tor  24  25  32  31
 229 ben  24  33  34
 230 prop tor  24  33  34  14
 231 prop tor  24  33  34  21
 232 ben  25  24  33
 233 prop tor  25  24  33  11
 234 prop tor  25  24  33  34
 235 ben  25  26  27
 236 prop tor  25  26  27  28
 237 prop tor  25  26  27  52
 238 ben  25  26  51
 239 ben  25  32  31
 240 ben  26  25  32
 241 prop tor  26  25  32  10
 242 prop tor  26  25  32  31
 243 ben  26  27  28
 244 prop tor  26  27  28  29
 245 prop tor  26  27  28  31
 246 ben  26  27  52
 247 ben  27  26  51
 248 ben  27  28  29
 249 prop tor  27  28  29   4
 250 prop tor  27  28  29  30
 251 ben  27  28  31
 252 prop tor  27  28  31   7
 253 prop tor  27  28  31  32
 254 ben  28  27  52
 255 ben  28  29  30
 256 ben  28  31  32
 257 prop tor  28  31  32  10
 258 prop tor  28  31  32  25
 259 prop tor  29   4   5   6
 260 prop tor  29   4   5   7
 261 ben  29  28  31
 262 prop tor  29  28  31   7
 263 prop tor  29  28  31  32
 264 prop tor  31   7   8   9
 265 prop tor  31   7   8  42
 266 prop tor  31  28  29   4
 267 prop tor  31  28  29  30
 268 prop tor  32  10  11  12
 269 prop tor  32  10  11  33
 270 prop tor  32  25  26  27
 271 prop tor  32  25  26  51
 272 prop tor  33  11  12  13
 273 prop tor  33  11  12  44
 274 prop tor  33  24  25  26
 275 prop tor  33  24  25  32
 276 prop tor  34  14  15  16
 277 prop tor  34  14  15  17
 278 prop tor  34  21  22  23
 279 prop tor  34  21  22  49
 280 prop tor  35   1   2   3
 281 prop tor  35   1   2   4
 282 prop tor  35   1   2  38
 283 ben  35   1  36
 284 ben  35   1  37
 285 prop tor  36   1   2   3
 286 prop tor  36   1   2   4
 287 prop tor  36   1   2  38
 288 ben  36   1  37
 289 prop tor  37   1   2   3
 290 prop tor  37   1   2   4
 291 prop tor  37   1   2  38
 292 prop tor  38   2   3  39
 293 prop tor  38   2   3  40
 294 prop tor  38   2   3  41
 295 prop tor  38   2   4   5
 296 prop tor  38   2   4  29
 297 ben  39   3  40
 298 ben  39   3  41
 299 ben  40   3  41
 300 prop tor  42   8   9  10
 301 prop tor  42   8   9  43
 302 prop tor  43   9  10  11
 303 prop tor  43   9  10  32
 304 prop tor  44  12  13  14
 305 prop tor  44  12  13  45
 306 prop tor  45  13  14  15
 307 prop tor  45  13  14  34
 308 ben  46  18  47
 309 ben  46  18  48
 310 ben  47  18  48
 311 prop tor  49  22  23  24
 312 prop tor  49  22  23  50
 313 prop tor  50  23  24  25
 314 prop tor  50  23  24  33
 315 prop tor  51  26  27  28
 316 prop tor  51  26  27  52
 317 prop tor  52  27  28  29
 318 prop tor  52  27  28  31
 nber bend=             102
 nber lin bend=           0
 nber prop tor=         158
 nber impr tor=           0
 nber tot redund int=         318
 Eigenvalues of G in red int coords
    Gval -0.00000000 -0.00000000 -0.00000000 -0.00000000 -0.00000000 -0.00000000 -0.00000000 -0.00000000
    Gval -0.00000000 -0.00000000 -0.00000000 -0.00000000 -0.00000000 -0.00000000 -0.00000000 -0.00000000
    Gval -0.00000000 -0.00000000 -0.00000000 -0.00000000 -0.00000000 -0.00000000 -0.00000000 -0.00000000
    Gval -0.00000000 -0.00000000 -0.00000000 -0.00000000 -0.00000000 -0.00000000 -0.00000000 -0.00000000
    Gval -0.00000000 -0.00000000 -0.00000000 -0.00000000 -0.00000000 -0.00000000 -0.00000000 -0.00000000
    Gval -0.00000000 -0.00000000 -0.00000000 -0.00000000 -0.00000000 -0.00000000 -0.00000000 -0.00000000
    Gval -0.00000000 -0.00000000 -0.00000000 -0.00000000 -0.00000000 -0.00000000 -0.00000000 -0.00000000
    Gval -0.00000000 -0.00000000 -0.00000000 -0.00000000 -0.00000000 -0.00000000 -0.00000000 -0.00000000
    Gval -0.00000000 -0.00000000 -0.00000000 -0.00000000 -0.00000000 -0.00000000 -0.00000000 -0.00000000
    Gval -0.00000000 -0.00000000 -0.00000000 -0.00000000 -0.00000000 -0.00000000 -0.00000000 -0.00000000
    Gval -0.00000000 -0.00000000 -0.00000000 -0.00000000 -0.00000000 -0.00000000 -0.00000000 -0.00000000
    Gval -0.00000000  0.00000000  0.00000000  0.00000000  0.00000000  0.00000000  0.00000000  0.00000000
    Gval  0.00000000  0.00000000  0.00000000  0.00000000  0.00000000  0.00000000  0.00000000  0.00000000
    Gval  0.00000000  0.00000000  0.00000000  0.00000000  0.00000000  0.00000000  0.00000000  0.00000000
    Gval  0.00000000  0.00000000  0.00000000  0.00000000  0.00000000  0.00000000  0.00000000  0.00000000
    Gval  0.00000000  0.00000000  0.00000000  0.00000000  0.00000000  0.00000000  0.00000000  0.00000000
    Gval  0.00000000  0.00000000  0.00000000  0.00000000  0.00000000  0.00000000  0.00000000  0.00000000
    Gval  0.00000000  0.00000000  0.00000000  0.00000000  0.00000000  0.00000000  0.00000000  0.00000000
    Gval  0.00000000  0.00000000  0.00000000  0.00000000  0.00000000  0.00000000  0.00000000  0.00000000
    Gval  0.00000000  0.00000000  0.00000000  0.00000000  0.00000000  0.00000000  0.00000000  0.00000000
    Gval  0.00000000  0.00000000  0.00000000  0.00000000  0.00000000  0.00000000  0.00000000  0.00000000
    Gval  0.00000123  0.00000280  0.00000298  0.00000498  0.00000844  0.00001012  0.00001107  0.00001291
    Gval  0.00001373  0.00001462  0.00001707  0.00001731  0.00001831  0.00002097  0.00002141  0.00002335
    Gval  0.00002528  0.00002584  0.00002701  0.00002810  0.00003170  0.00003577  0.00003994  0.00004707
    Gval  0.00004920  0.00005085  0.00005284  0.00005629  0.00005635  0.00006126  0.00006812  0.00007096
    Gval  0.00007313  0.00008131  0.00008228  0.00008338  0.00008711  0.00008859  0.00009295  0.00009345
    Gval  0.00009442  0.00009729  0.00010923  0.00011950  0.00012269  0.00013670  0.00013714  0.00013793
    Gval  0.00014104  0.00015765  0.00016053  0.00016742  0.00017358  0.00018049  0.00020314  0.00022237
    Gval  0.00022739  0.00023009  0.00024630  0.00027462  0.00028203  0.00029182  0.00030011  0.00034239
    Gval  0.00035456  0.00036126  0.00038201  0.00039246  0.00039292  0.00039533  0.00041213  0.00042254
    Gval  0.00042854  0.00042973  0.00043593  0.00044166  0.00044308  0.00046208  0.00046523  0.00046595
    Gval  0.00049177  0.00051741  0.00053406  0.00053717  0.00054556  0.00054679  0.00055413  0.00055428
    Gval  0.00055587  0.00055603  0.00056192  0.00058895  0.00059865  0.00059944  0.00059970  0.00060002
    Gval  0.00060220  0.00064189  0.00064561  0.00064611  0.00064811  0.00066666  0.00068698  0.00069212
    Gval  0.00069787  0.00070880  0.00074506  0.00082463  0.00093058  0.00094963  0.00109538  0.00109635
    Gval  0.00109708  0.00109761  0.00112458  0.00112623  0.00114382  0.00116246  0.00116256  0.00116296
    Gval  0.00116317  0.00117166  0.00117237  0.00126356  0.00128949  0.00129522  0.00139849  0.00151278
    Gval  0.00159265  0.00172922  0.00180434  0.00191843  0.00229290  0.00235535  0.00245171  0.00247030
    Gval  0.00253750  0.00254810  0.00257473  0.00278674  0.00292289  0.00302362  0.00304217  0.00308151
    Gval  0.00309680  0.00365585  0.00365793  0.00370444  0.00370627  0.00394321
  1.229676435610466E-006  1.229676435610466E-006
  2.798985182208991E-006  1.229676435610466E-006
  2.975804923447715E-006  1.229676435610466E-006
  4.981426254405716E-006  1.229676435610466E-006
  8.442755682449440E-006  1.229676435610466E-006
  1.011868777171251E-005  1.229676435610466E-006
  1.106712592111868E-005  1.229676435610466E-006
  1.291466904889953E-005  1.229676435610466E-006
  1.372804398281089E-005  1.229676435610466E-006
  1.461741377711344E-005  1.229676435610466E-006
  1.706718689856807E-005  1.229676435610466E-006
  1.731075743745038E-005  1.229676435610466E-006
  1.830590534452825E-005  1.229676435610466E-006
  2.096964107481979E-005  1.229676435610466E-006
  2.141438452051000E-005  1.229676435610466E-006
  2.334620182742577E-005  1.229676435610466E-006
  2.527636720324968E-005  1.229676435610466E-006
  2.584387188740599E-005  1.229676435610466E-006
  2.700968755929037E-005  1.229676435610466E-006
  2.809957077538036E-005  1.229676435610466E-006
  3.170326080258360E-005  1.229676435610466E-006
  3.576772548174345E-005  1.229676435610466E-006
  3.993586967613479E-005  1.229676435610466E-006
  4.707301269756534E-005  1.229676435610466E-006
  4.919538197134379E-005  1.229676435610466E-006
  5.085263951277846E-005  1.229676435610466E-006
  5.284216336981992E-005  1.229676435610466E-006
  5.629041735340373E-005  1.229676435610466E-006
  5.634530740003736E-005  1.229676435610466E-006
  6.125564345839901E-005  1.229676435610466E-006
  6.811848783494907E-005  1.229676435610466E-006
  7.095852194916541E-005  1.229676435610466E-006
  7.312812708225467E-005  1.229676435610466E-006
  8.130910824560180E-005  1.229676435610466E-006
  8.228222807911141E-005  1.229676435610466E-006
  8.337684480553492E-005  1.229676435610466E-006
  8.711124104085018E-005  1.229676435610466E-006
  8.858960115473800E-005  1.229676435610466E-006
  9.295299855121647E-005  1.229676435610466E-006
  9.345006664867743E-005  1.229676435610466E-006
  9.441949514145731E-005  1.229676435610466E-006
  9.729149096635656E-005  1.229676435610466E-006
  1.092288406823252E-004  1.229676435610466E-006
  1.195022503289860E-004  1.229676435610466E-006
  1.226932347016089E-004  1.229676435610466E-006
  1.366995329452431E-004  1.229676435610466E-006
  1.371441005568383E-004  1.229676435610466E-006
  1.379316166533411E-004  1.229676435610466E-006
  1.410392668938796E-004  1.229676435610466E-006
  1.576491318854902E-004  1.229676435610466E-006
  1.605272662465544E-004  1.229676435610466E-006
  1.674179565824884E-004  1.229676435610466E-006
  1.735838718077231E-004  1.229676435610466E-006
  1.804872295422423E-004  1.229676435610466E-006
  2.031441609904203E-004  1.229676435610466E-006
  2.223715106125553E-004  1.229676435610466E-006
  2.273921214496290E-004  1.229676435610466E-006
  2.300938850344584E-004  1.229676435610466E-006
  2.463004683124725E-004  1.229676435610466E-006
  2.746198745168904E-004  1.229676435610466E-006
  2.820331367706544E-004  1.229676435610466E-006
  2.918196167841883E-004  1.229676435610466E-006
  3.001134709994853E-004  1.229676435610466E-006
  3.423922854262081E-004  1.229676435610466E-006
  3.545629133683880E-004  1.229676435610466E-006
  3.612623771994346E-004  1.229676435610466E-006
  3.820108168489422E-004  1.229676435610466E-006
  3.924574994362419E-004  1.229676435610466E-006
  3.929242632913435E-004  1.229676435610466E-006
  3.953312605619783E-004  1.229676435610466E-006
  4.121285369907604E-004  1.229676435610466E-006
  4.225359497655874E-004  1.229676435610466E-006
  4.285445961822943E-004  1.229676435610466E-006
  4.297339558619151E-004  1.229676435610466E-006
  4.359259306010085E-004  1.229676435610466E-006
  4.416609714126755E-004  1.229676435610466E-006
  4.430784231191414E-004  1.229676435610466E-006
  4.620837359427066E-004  1.229676435610466E-006
  4.652277264872438E-004  1.229676435610466E-006
  4.659506627944972E-004  1.229676435610466E-006
  4.917698914949242E-004  1.229676435610466E-006
  5.174102394433403E-004  1.229676435610466E-006
  5.340601577454718E-004  1.229676435610466E-006
  5.371730001133172E-004  1.229676435610466E-006
  5.455645598039582E-004  1.229676435610466E-006
  5.467927088240827E-004  1.229676435610466E-006
  5.541277675568311E-004  1.229676435610466E-006
  5.542759123937643E-004  1.229676435610466E-006
  5.558689249802553E-004  1.229676435610466E-006
  5.560292949536860E-004  1.229676435610466E-006
  5.619198871712214E-004  1.229676435610466E-006
  5.889487860254368E-004  1.229676435610466E-006
  5.986511343888997E-004  1.229676435610466E-006
  5.994424118205176E-004  1.229676435610466E-006
  5.996974020838500E-004  1.229676435610466E-006
  6.000223064344786E-004  1.229676435610466E-006
  6.021969346358952E-004  1.229676435610466E-006
  6.418932683106650E-004  1.229676435610466E-006
  6.456080075314979E-004  1.229676435610466E-006
  6.461119089029542E-004  1.229676435610466E-006
  6.481133559139539E-004  1.229676435610466E-006
  6.666580885495301E-004  1.229676435610466E-006
  6.869827949863754E-004  1.229676435610466E-006
  6.921202384959144E-004  1.229676435610466E-006
  6.978741526100813E-004  1.229676435610466E-006
  7.087961609040852E-004  1.229676435610466E-006
  7.450561908660370E-004  1.229676435610466E-006
  8.246300425907623E-004  1.229676435610466E-006
  9.305847416747707E-004  1.229676435610466E-006
  9.496314636173136E-004  1.229676435610466E-006
  1.095383413405972E-003  1.229676435610466E-006
  1.096354406766823E-003  1.229676435610466E-006
  1.097082957864621E-003  1.229676435610466E-006
  1.097605650650734E-003  1.229676435610466E-006
  1.124579157639113E-003  1.229676435610466E-006
  1.126233262073393E-003  1.229676435610466E-006
  1.143817839876226E-003  1.229676435610466E-006
  1.162461063323198E-003  1.229676435610466E-006
  1.162564894000171E-003  1.229676435610466E-006
  1.162955896917647E-003  1.229676435610466E-006
  1.163171161428976E-003  1.229676435610466E-006
  1.171660732575988E-003  1.229676435610466E-006
  1.172374019457247E-003  1.229676435610466E-006
  1.263562949591930E-003  1.229676435610466E-006
  1.289485857673597E-003  1.229676435610466E-006
  1.295217801695655E-003  1.229676435610466E-006
  1.398485835595990E-003  1.229676435610466E-006
  1.512779981639251E-003  1.229676435610466E-006
  1.592651426096512E-003  1.229676435610466E-006
  1.729223204775192E-003  1.229676435610466E-006
  1.804341019633625E-003  1.229676435610466E-006
[...]
 nber times 1st assigned=          65           0
 nber times 1st assigned=          66           0
 nber times 1st assigned=          67           0
 nber times 1st assigned=          68           0
 nber times 1st assigned=          69           0
 nber times 1st assigned=          70           0
 nber times 1st assigned=          71           0
 nber times 1st assigned=          72           0
 nber times 1st assigned=          73           0
 nber times 1st assigned=          74           0
 nber times 1st assigned=          75           0
 nber times 1st assigned=          76           0
 nber times 1st assigned=          77           0
 nber times 1st assigned=          78           0
 nber times 1st assigned=          79           0
 nber times 1st assigned=          80           0
 nber times 1st assigned=          81           0
 nber times 1st assigned=          82           0
 nber times 1st assigned=          83           0
 nber times 1st assigned=          84           0
 nber times 1st assigned=          85           0
 nber times 1st assigned=          86           0
 nber times 1st assigned=          87           0
 nber times 1st assigned=          88           0
 nber times 1st assigned=          89           0
 nber times 1st assigned=          90           0
 nber times 1st assigned=          91           0
 nber times 1st assigned=          92           0
 nber times 1st assigned=          93           0
 nber times 1st assigned=          94           0
 nber times 1st assigned=          95           0
 nber times 1st assigned=          96           0
 nber times 1st assigned=          97           0
 nber times 1st assigned=          98           0
 nber times 1st assigned=          99           0
 nber times 1st assigned=         100           0
 nber times 1st assigned=         101           0
 nber times 1st assigned=         102           0
 nber times 1st assigned=         103           0
 nber times 1st assigned=         104           0
 nber times 1st assigned=         105           0
 nber times 1st assigned=         106           0
 nber times 1st assigned=         107           0
 nber times 1st assigned=         108           0
 nber times 1st assigned=         109           0
 nber times 1st assigned=         110           0
 nber times 1st assigned=         111           0
 nber times 1st assigned=         112           0
 nber times 1st assigned=         113           0
 nber times 1st assigned=         114           0
 nber times 1st assigned=         115           0
 nber times 1st assigned=         116           0
 nber times 1st assigned=         117           0
 nber times 1st assigned=         118           0
 nber times 1st assigned=         119           0
 nber times 1st assigned=         120           0
 nber times 1st assigned=         121           0
 nber times 1st assigned=         122           0
 nber times 1st assigned=         123           0
 nber times 1st assigned=         124           0
 nber times 1st assigned=         125           0
 nber times 1st assigned=         126           0
 nber times 1st assigned=         127           0
 nber times 1st assigned=         128           0
 nber times 1st assigned=         129           0
 nber times 1st assigned=         130           0
 nber times 1st assigned=         131           0
 nber times 1st assigned=         132           0
 nber times 1st assigned=         133           0
 nber times 1st assigned=         134           0
 nber times 1st assigned=         135           0
 nber times 1st assigned=         136           0
 nber times 1st assigned=         137           0
 nber times 1st assigned=         138           0
 nber times 1st assigned=         139           0
 nber times 1st assigned=         140           0
 nber times 1st assigned=         141           0
 nber times 1st assigned=         142           0
 nber times 1st assigned=         143           0
 nber times 1st assigned=         144           0
 nber times 1st assigned=         145           0
 nber times 1st assigned=         146           0
 nber times 1st assigned=         147           0
 nber times 1st assigned=         148           0
 nber times 1st assigned=         149           0
 nber times 1st assigned=         150           0
 nber times 1st assigned=         151           0
 nber times 1st assigned=         152           0
 nber times 1st assigned=         153           0
 nber times 1st assigned=         154           0
 nber times 1st assigned=         155           0
 nber times 1st assigned=         156           0
 modes represented=   150.039533548423     
 p1=
   -0.    0.    0.   -0.   -0.    0.   -0.   -0.    0.    0.    0.    0.   -0.   -0.    0.   -0.   -0.   -0.   -0.   -3.
    4.   -0.   -0.    1.    0.    2.    0.    6.    0.    1.    0.   -1.    0.   -1.   -6.    4.   -3.    1.    0.   -0.
    0.   -0.   -0.    2.   -0.    0.    2.    4.    0.   -0.   -1.   -0.   -0.    0.   -0.   -0.    0.   -0.   -0.    1.
    0.   -0.    0.    0.   -1.    0.    1.    2.   -0.   -0.   -0.    0.    1.    0.   -2.    1.   -0.   -0.    1.   -0.
    0.   -0.   -0.   -0.   -0.   -1.    0.   -0.   -0.    0.   -0.    0.   -0.   -0.   -0.   -1.   -0.   -0.   -0.   -0.
    4.   -1.    0.    0.    0.    0.    0.    0.   -1.    0.   -0.   -0.    2.    0.   -0.    1.   -0.   -0.    0.    0.
    0.    1.   -0.   -0.   -0.   -0.    0.   -0.    0.    1.    0.    0.    0.   -2.    0.   -0.   -1.    1.   -0.    0.
   -0.   -0.   -0.    0.    0.   -0.   -0.   -0.   -0.   -0.    0.    0.   -0.   -0.   -0.   -0.
 p2=
   -0.    0.   -0.   -0.   -0.   -0.   -0.    0.    0.    0.    0.   -0.   -0.   -0.    0.   -0.    0.    0.   -3.    0.
    3.   -0.    0.   -1.   -2.    1.   -0.   -6.    0.   -1.    0.   -1.   -0.   -1.   -6.    3.   -4.   -1.   -0.   -0.
    0.   -0.   -0.   -2.   -0.    0.    2.   -4.    0.    0.    1.    0.    0.   -0.   -0.   -0.    0.    1.    0.    0.
   -0.    0.   -0.   -0.    1.    0.    0.    2.   -0.    0.    0.    0.   -1.    0.    0.    2.    0.    0.   -0.   -0.
   -0.   -0.   -1.    0.    0.    0.   -0.    0.   -0.    0.    0.   -0.   -0.   -0.   -0.    1.    0.    0.   -0.   -0.
    0.    1.    0.    4.    0.    0.    0.    0.    0.    1.    0.   -2.   -0.    0.   -0.   -1.    0.    2.    0.   -0.
    0.   -0.   -0.   -0.    0.    0.    0.   -0.    2.    0.   -0.    0.   -0.   -0.   -0.    0.    1.   -1.    0.    0.
    0.    0.    0.   -0.   -0.    0.   -0.    0.   -0.    0.    0.    0.   -0.    0.    0.    0.

 Displacement: in terms of nc of 1 THEN of nc of 2

   1     freq=    -0. Q= -0.000 lam=    -0.0     freq=    -0. Q= -0.000 lam=    -0.0
   2     freq=    -0. Q=  0.000 lam=    -0.0     freq=    -0. Q=  0.000 lam=    -0.0
   3     freq=     0. Q=  0.000 lam=     0.0     freq=    -0. Q=  0.000 lam=    -0.0
   4     freq=     0. Q= -0.000 lam=     0.0     freq=     0. Q= -0.000 lam=     0.0
   5     freq=     0. Q= -0.000 lam=     0.0     freq=     0. Q= -0.000 lam=     0.0
   6     freq=     0. Q=  0.000 lam=     0.0     freq=     0. Q=  0.000 lam=     0.0
   7     freq=    24. Q= -0.001 lam=     0.0     freq=    23. Q= -0.005 lam=     0.0
   8     freq=    29. Q= -0.005 lam=     0.0     freq=    25. Q= -0.001 lam=     0.0
   9     freq=    50. Q=  0.004 lam=     0.0     freq=    51. Q=  0.003 lam=     0.0
  10     freq=    53. Q=  0.005 lam=     0.0     freq=    55. Q=  0.005 lam=     0.0
  11     freq=    58. Q=  0.002 lam=     0.0     freq=    64. Q=  0.001 lam=     0.0
  12     freq=    73. Q=  0.001 lam=     0.0     freq=    77. Q=  0.001 lam=     0.0
  13     freq=    86. Q= -0.003 lam=     0.0     freq=    85. Q= -0.002 lam=     0.0
  14     freq=    91. Q= -0.003 lam=     0.0     freq=    92. Q= -0.001 lam=     0.0
  15     freq=   106. Q=  0.012 lam=     0.0     freq=   108. Q=  0.013 lam=     0.0
  16     freq=   116. Q= -0.001 lam=     0.0     freq=   118. Q= -0.001 lam=     0.0
  17     freq=   164. Q= -0.001 lam=     0.0     freq=   160. Q= -0.001 lam=     0.0
  18     freq=   169. Q= -0.000 lam=     0.0     freq=   169. Q= -0.001 lam=     0.0
  19     freq=   178. Q= -0.001 lam=     0.0     freq=   187. Q= -0.174 lam=     2.8
  20     freq=   184. Q= -0.154 lam=     2.2     freq=   188. Q= -0.007 lam=     0.0
  21     freq=   201. Q=  0.201 lam=     4.0     freq=   203. Q=  0.189 lam=     3.6
  22     freq=   207. Q= -0.000 lam=     0.0     freq=   208. Q= -0.000 lam=     0.0
  23     freq=   235. Q= -0.006 lam=     0.0     freq=   235. Q= -0.003 lam=     0.0
  24     freq=   238. Q=  0.057 lam=     0.4     freq=   235. Q=  0.058 lam=     0.4
  25     freq=   260. Q=  0.000 lam=     0.0     freq=   272. Q=  0.125 lam=     2.1
  26     freq=   268. Q=  0.128 lam=     2.2     freq=   272. Q=  0.042 lam=     0.2
  27     freq=   271. Q=  0.001 lam=     0.0     freq=   274. Q=  0.000 lam=     0.0
  28     freq=   287. Q=  0.410 lam=    24.1     freq=   289. Q=  0.401 lam=    23.2
  29     freq=   311. Q=  0.001 lam=     0.0     freq=   316. Q=  0.001 lam=     0.0
  30     freq=   335. Q=  0.070 lam=     0.8     freq=   341. Q=  0.076 lam=     1.0
  31     freq=   339. Q=  0.001 lam=     0.0     freq=   356. Q=  0.001 lam=     0.0
  32     freq=   367. Q= -0.102 lam=     1.9     freq=   374. Q= -0.113 lam=     2.4
  33     freq=   388. Q=  0.009 lam=     0.0     freq=   393. Q=  0.030 lam=     0.2
  34     freq=   395. Q= -0.050 lam=     0.5     freq=   399. Q= -0.041 lam=     0.3
  35     freq=   409. Q= -0.491 lam=    49.3     freq=   415. Q= -0.488 lam=    49.4
  36     freq=   429. Q=  0.316 lam=    21.4     freq=   433. Q=  0.268 lam=    15.6
  37     freq=   434. Q= -0.259 lam=    14.6     freq=   437. Q= -0.307 lam=    20.6
  38     freq=   436. Q=  0.054 lam=     0.6     freq=   441. Q=  0.051 lam=     0.6
  39     freq=   438. Q=  0.007 lam=     0.0     freq=   447. Q=  0.003 lam=     0.0
  40     freq=   445. Q= -0.000 lam=     0.0     freq=   448. Q= -0.000 lam=     0.0
  41     freq=   464. Q=  0.000 lam=     0.0     freq=   474. Q=  0.001 lam=     0.0
  42     freq=   474. Q= -0.017 lam=     0.1     freq=   477. Q= -0.043 lam=     0.4
  43     freq=   479. Q= -0.001 lam=     0.0     freq=   481. Q= -0.001 lam=     0.0
  44     freq=   485. Q=  0.158 lam=     6.0     freq=   486. Q=  0.175 lam=     7.5
  45     freq=   519. Q= -0.028 lam=     0.2     freq=   517. Q= -0.023 lam=     0.1
  46     freq=   522. Q=  0.000 lam=     0.0     freq=   535. Q=  0.000 lam=     0.0
  47     freq=   544. Q=  0.176 lam=     8.5     freq=   542. Q=  0.143 lam=     5.5
  48     freq=   566. Q=  0.339 lam=    32.4     freq=   571. Q=  0.352 lam=    35.3
  49     freq=   572. Q=  0.012 lam=     0.0     freq=   578. Q=  0.011 lam=     0.0
  50     freq=   572. Q= -0.001 lam=     0.0     freq=   592. Q= -0.000 lam=     0.0
  51     freq=   597. Q= -0.075 lam=     1.7     freq=   603. Q= -0.070 lam=     1.5
  52     freq=   612. Q= -0.015 lam=     0.1     freq=   622. Q= -0.016 lam=     0.1
  53     freq=   616. Q= -0.000 lam=     0.0     freq=   632. Q= -0.000 lam=     0.0
  54     freq=   631. Q=  0.000 lam=     0.0     freq=   653. Q=  0.000 lam=     0.0
  55     freq=   663. Q= -0.000 lam=     0.0     freq=   667. Q= -0.000 lam=     0.0
  56     freq=   704. Q= -0.000 lam=     0.0     freq=   715. Q= -0.006 lam=     0.0
  57     freq=   708. Q=  0.000 lam=     0.0     freq=   717. Q=  0.006 lam=     0.0
  58     freq=   709. Q= -0.013 lam=     0.1     freq=   725. Q= -0.093 lam=     3.1
  59     freq=   711. Q= -0.002 lam=     0.0     freq=   740. Q= -0.000 lam=     0.0
  60     freq=   722. Q=  0.087 lam=     2.7     freq=   747. Q=  0.000 lam=     0.0
  61     freq=   758. Q=  0.000 lam=     0.0     freq=   763. Q=  0.000 lam=     0.0
  62     freq=   768. Q= -0.000 lam=     0.0     freq=   772. Q= -0.000 lam=     0.0
  63     freq=   768. Q=  0.000 lam=     0.0     freq=   782. Q=  0.000 lam=     0.0
  64     freq=   771. Q=  0.000 lam=     0.0     freq=   787. Q=  0.000 lam=     0.0
  65     freq=   799. Q= -0.097 lam=     3.8     freq=   803. Q= -0.080 lam=     2.6
  66     freq=   806. Q=  0.022 lam=     0.2     freq=   809. Q=  0.002 lam=     0.0
  67     freq=   821. Q=  0.081 lam=     2.7     freq=   824. Q=  0.053 lam=     1.2
  68     freq=   843. Q=  0.181 lam=    13.8     freq=   844. Q=  0.190 lam=    15.2
  69     freq=   868. Q= -0.000 lam=     0.0     freq=   864. Q= -0.000 lam=     0.0
  70     freq=   869. Q= -0.000 lam=     0.0     freq=   865. Q= -0.000 lam=     0.0
  71     freq=   875. Q= -0.000 lam=     0.0     freq=   870. Q= -0.000 lam=     0.0
  72     freq=   878. Q=  0.000 lam=     0.0     freq=   871. Q=  0.000 lam=     0.0
  73     freq=   886. Q=  0.061 lam=     1.6     freq=   895. Q=  0.060 lam=     1.6
  74     freq=   909. Q=  0.004 lam=     0.0     freq=   918. Q=  0.001 lam=     0.0
  75     freq=   937. Q= -0.187 lam=    16.4     freq=   945. Q= -0.002 lam=     0.0
  76     freq=   947. Q=  0.109 lam=     5.6     freq=   952. Q=  0.220 lam=    23.0
  77     freq=   948. Q= -0.002 lam=     0.0     freq=   957. Q= -0.002 lam=     0.0
  78     freq=   958. Q= -0.001 lam=     0.0     freq=   969. Q= -0.058 lam=     1.6
  79     freq=  1003. Q=  0.107 lam=     5.7     freq=   992. Q=  0.000 lam=     0.0
  80     freq=  1011. Q= -0.000 lam=     0.0     freq=   996. Q= -0.000 lam=     0.0
  81     freq=  1013. Q=  0.000 lam=     0.0     freq=  1001. Q=  0.000 lam=     0.0
  82     freq=  1020. Q= -0.000 lam=     0.0     freq=  1005. Q= -0.000 lam=     0.0
  83     freq=  1021. Q= -0.000 lam=     0.0     freq=  1017. Q= -0.098 lam=     4.9
  84     freq=  1050. Q= -0.036 lam=     0.7     freq=  1053. Q= -0.038 lam=     0.8
  85     freq=  1079. Q= -0.000 lam=     0.0     freq=  1076. Q= -0.019 lam=     0.2
  86     freq=  1096. Q= -0.078 lam=     3.4     freq=  1093. Q= -0.063 lam=     2.2
  87     freq=  1105. Q=  0.063 lam=     2.2     freq=  1102. Q=  0.046 lam=     1.2
  88     freq=  1152. Q= -0.000 lam=     0.0     freq=  1153. Q= -0.008 lam=     0.0
  89     freq=  1156. Q= -0.000 lam=     0.0     freq=  1153. Q= -0.001 lam=     0.0
  90     freq=  1158. Q=  0.035 lam=     0.7     freq=  1156. Q=  0.000 lam=     0.0
  91     freq=  1162. Q= -0.006 lam=     0.0     freq=  1170. Q= -0.038 lam=     0.8
  92     freq=  1175. Q=  0.036 lam=     0.8     freq=  1180. Q=  0.033 lam=     0.6
  93     freq=  1192. Q= -0.029 lam=     0.5     freq=  1195. Q= -0.010 lam=     0.1
  94     freq=  1207. Q= -0.009 lam=     0.1     freq=  1206. Q= -0.000 lam=     0.0
  95     freq=  1209. Q= -0.003 lam=     0.0     freq=  1213. Q= -0.022 lam=     0.3
  96     freq=  1222. Q= -0.110 lam=     7.3     freq=  1218. Q= -0.086 lam=     4.5
  97     freq=  1236. Q= -0.015 lam=     0.1     freq=  1240. Q= -0.010 lam=     0.1
  98     freq=  1239. Q= -0.002 lam=     0.0     freq=  1241. Q= -0.045 lam=     1.3
  99     freq=  1254. Q= -0.013 lam=     0.1     freq=  1251. Q= -0.003 lam=     0.0
 100     freq=  1280. Q= -0.024 lam=     0.4     freq=  1267. Q= -0.025 lam=     0.4
 101     freq=  1312. Q=  0.517 lam=   175.2     freq=  1304. Q=  0.000 lam=     0.0
 102     freq=  1317. Q= -0.138 lam=    12.5     freq=  1309. Q= -0.093 lam=     5.6
 103     freq=  1320. Q=  0.005 lam=     0.0     freq=  1317. Q=  0.027 lam=     0.5
 104     freq=  1333. Q=  0.015 lam=     0.1     freq=  1326. Q=  0.515 lam=   176.2
 105     freq=  1360. Q=  0.064 lam=     2.8     freq=  1338. Q=  0.012 lam=     0.1
 106     freq=  1367. Q=  0.001 lam=     0.0     freq=  1358. Q=  0.014 lam=     0.1
 107     freq=  1374. Q=  0.032 lam=     0.7     freq=  1370. Q=  0.003 lam=     0.0
 108     freq=  1376. Q=  0.000 lam=     0.0     freq=  1375. Q=  0.043 lam=     1.3
 109     freq=  1384. Q= -0.178 lam=    21.9     freq=  1382. Q= -0.000 lam=     0.0
 110     freq=  1401. Q=  0.005 lam=     0.0     freq=  1388. Q=  0.088 lam=     5.3
 111     freq=  1404. Q= -0.009 lam=     0.1     freq=  1401. Q= -0.000 lam=     0.0
 112     freq=  1407. Q= -0.000 lam=     0.0     freq=  1407. Q= -0.307 lam=    66.3
 113     freq=  1423. Q=  0.273 lam=    52.9     freq=  1417. Q=  0.050 lam=     1.8
 114     freq=  1425. Q=  0.001 lam=     0.0     freq=  1429. Q=  0.018 lam=     0.2
 115     freq=  1442. Q= -0.040 lam=     1.2     freq=  1436. Q= -0.019 lam=     0.3
 116     freq=  1451. Q=  0.093 lam=     6.3     freq=  1444. Q=  0.087 lam=     5.5
 117     freq=  1464. Q= -0.068 lam=     3.4     freq=  1462. Q= -0.021 lam=     0.3
 118     freq=  1480. Q= -0.000 lam=     0.0     freq=  1479. Q= -0.253 lam=    47.3
 119     freq=  1484. Q=  0.000 lam=     0.0     freq=  1485. Q=  0.001 lam=     0.0
 120     freq=  1486. Q=  0.000 lam=     0.0     freq=  1491. Q=  0.002 lam=     0.0
 121     freq=  1495. Q=  0.007 lam=     0.0     freq=  1497. Q=  0.001 lam=     0.0
 122     freq=  1496. Q=  0.202 lam=    30.4     freq=  1498. Q=  0.037 lam=     1.0
 123     freq=  1500. Q= -0.044 lam=     1.5     freq=  1505. Q= -0.000 lam=     0.0
 124     freq=  1503. Q= -0.001 lam=     0.0     freq=  1506. Q= -0.002 lam=     0.0
 125     freq=  1505. Q= -0.023 lam=     0.4     freq=  1508. Q= -0.006 lam=     0.0
 126     freq=  1521. Q= -0.025 lam=     0.5     freq=  1523. Q= -0.027 lam=     0.6
 127     freq=  1525. Q=  0.001 lam=     0.0     freq=  1543. Q=  0.003 lam=     0.0
 128     freq=  1566. Q= -0.005 lam=     0.0     freq=  1561. Q= -0.005 lam=     0.0
 129     freq=  1571. Q=  0.036 lam=     1.0     freq=  1604. Q=  0.305 lam=    74.7
 130     freq=  1576. Q=  0.133 lam=    13.9     freq=  1615. Q=  0.008 lam=     0.1
 131     freq=  1587. Q=  0.001 lam=     0.0     freq=  1620. Q=  0.040 lam=     1.3
 132     freq=  1592. Q=  0.004 lam=     0.0     freq=  1632. Q=  0.003 lam=     0.0
 133     freq=  1608. Q=  0.006 lam=     0.0     freq=  1632. Q=  0.007 lam=     0.0
 134     freq=  1625. Q= -0.275 lam=    61.5     freq=  1649. Q= -0.002 lam=     0.0
 135     freq=  1711. Q=  0.001 lam=     0.0     freq=  1713. Q=  0.004 lam=     0.0
 136     freq=  1722. Q= -0.001 lam=     0.0     freq=  1722. Q= -0.001 lam=     0.0
 137     freq=  1760. Q= -0.126 lam=    13.9     freq=  1751. Q= -0.126 lam=    14.0
 138     freq=  1768. Q=  0.158 lam=    22.0     freq=  1759. Q=  0.211 lam=    39.2
 139     freq=  3042. Q= -0.000 lam=     0.0     freq=  3035. Q= -0.000 lam=     0.0
 140     freq=  3045. Q=  0.011 lam=     0.2     freq=  3039. Q=  0.012 lam=     0.2
 141     freq=  3072. Q= -0.010 lam=     0.2     freq=  3062. Q= -0.010 lam=     0.2
 142     freq=  3103. Q= -0.000 lam=     0.0     freq=  3092. Q= -0.000 lam=     0.0
 143     freq=  3106. Q= -0.012 lam=     0.2     freq=  3096. Q= -0.011 lam=     0.2
 144     freq=  3119. Q=  0.003 lam=     0.0     freq=  3113. Q=  0.005 lam=     0.0
 145     freq=  3135. Q=  0.000 lam=     0.0     freq=  3121. Q=  0.000 lam=     0.0
 146     freq=  3139. Q= -0.000 lam=     0.0     freq=  3133. Q= -0.000 lam=     0.0
 147     freq=  3147. Q= -0.008 lam=     0.1     freq=  3144. Q= -0.007 lam=     0.1
 148     freq=  3192. Q= -0.002 lam=     0.0     freq=  3183. Q= -0.003 lam=     0.0
 149     freq=  3205. Q= -0.000 lam=     0.0     freq=  3194. Q= -0.000 lam=     0.0
 150     freq=  3205. Q= -0.000 lam=     0.0     freq=  3194. Q= -0.000 lam=     0.0
 151     freq=  3210. Q=  0.001 lam=     0.0     freq=  3201. Q=  0.001 lam=     0.0
 152     freq=  3210. Q=  0.001 lam=     0.0     freq=  3201. Q=  0.001 lam=     0.0
 153     freq=  3217. Q= -0.000 lam=     0.0     freq=  3208. Q= -0.000 lam=     0.0
 154     freq=  3217. Q= -0.000 lam=     0.0     freq=  3208. Q= -0.000 lam=     0.0
 155     freq=  3229. Q= -0.004 lam=     0.0     freq=  3218. Q= -0.005 lam=     0.0
 156     freq=  3229. Q= -0.010 lam=     0.2     freq=  3218. Q= -0.011 lam=     0.2

 total reorg energy (cm**-1, kcal/mol)=      663.      681.      1.90      1.95
 Nber of molecules processed=           2
