 Enter ifcurve (0=recti, 1=orth curvi, 2=apprx curvi, -1 = skip
 And atom ordering flag, 0= never changes, 1= use the first order thenceforth,
  2= deduce it (does read on fail), 3= always read it
 Reading file: 
 ./Non-cov-phenyl-N_1_C0S0.log                                                  
                                          
  Entering Gaussian System, Link 0=g16                                          
  
 Gaussian format, type: g94, g98, g03= F F F
  #P Geom=AllCheck Guess=TCheck SCRF=Check GenChk RB3LYP/6-311G(d,p) Fre    
 energy type= B3LYP   
 Original G94 input coords:
  6  7.636843  0.000000  0.000000
  6  6.929384 -1.199243  0.000000
  6  5.538866 -1.197796  0.000000
  6  4.802642  0.000000  0.000000
  6  3.312820  0.000000  0.000000
  6  2.567080  1.189825  0.000000
  6  1.180328  1.190076  0.000000
  6  0.434469  0.000000  0.000000
  6 -1.052532  0.000000  0.000000
  6 -1.791865  1.197115  0.000000
  6 -3.178181  1.200727  0.000000
  6 -3.898268  0.000000  0.000000
  6 -5.378346  0.000000  0.000000
  7 -6.000708  1.191967  0.000000
  6 -7.331274  1.179603  0.000000
  6 -8.068642  0.000000  0.000000
  6 -7.331274 -1.179603  0.000000
  7 -6.000708 -1.191967  0.000000
  6 -3.178181 -1.200727  0.000000
  6 -1.791865 -1.197115  0.000000
  6  1.180328 -1.190076  0.000000
  6  2.567080 -1.189825  0.000000
  6  5.538866  1.197796  0.000000
  6  6.929384  1.199243  0.000000
  1  8.720677  0.000000  0.000000
  1  7.460943 -2.144358  0.000000
  1  5.029652 -2.152211  0.000000
  1  3.068115  2.148844  0.000000
  1  0.678980  2.148645  0.000000
  1 -1.284935  2.152775  0.000000
  1 -3.723480  2.135354  0.000000
  1 -7.822248  2.149614  0.000000
  1 -9.150977  0.000000  0.000000
  1 -7.822248 -2.149614  0.000000
  1 -3.723480 -2.135354  0.000000
  1 -1.284935 -2.152775  0.000000
  1  0.678980 -2.148645  0.000000
  1  3.068115 -2.148844  0.000000
  1  5.029652  2.152211  0.000000
  1  7.460943  2.144358  0.000000
 nber atoms=          40
 Original standard coords:
  6  0.000000  0.000000  7.907955
  6  0.000000  1.199243  7.200496
  6  0.000000  1.197796  5.809978
  6  0.000000  0.000000  5.073754
  6  0.000000  0.000000  3.583932
  6  0.000000 -1.189825  2.838192
  6  0.000000 -1.190076  1.451440
  6  0.000000  0.000000  0.705581
  6  0.000000  0.000000 -0.781419
  6  0.000000 -1.197115 -1.520753
  6  0.000000 -1.200727 -2.907069
  6  0.000000  0.000000 -3.627156
  6  0.000000  0.000000 -5.107234
  7  0.000000 -1.191967 -5.729596
  6  0.000000 -1.179603 -7.060162
  6  0.000000  0.000000 -7.797530
  6  0.000000  1.179603 -7.060162
  7  0.000000  1.191967 -5.729596
  6  0.000000  1.200727 -2.907069
  6  0.000000  1.197115 -1.520753
  6  0.000000  1.190076  1.451440
  6  0.000000  1.189825  2.838192
  6  0.000000 -1.197796  5.809978
  6  0.000000 -1.199243  7.200496
  1  0.000000  0.000000  8.991789
  1  0.000000  2.144358  7.732055
  1  0.000000  2.152211  5.300765
  1  0.000000 -2.148844  3.339227
  1  0.000000 -2.148645  0.950092
  1  0.000000 -2.152775 -1.013823
  1  0.000000 -2.135354 -3.452368
  1  0.000000 -2.149614 -7.551136
  1  0.000000  0.000000 -8.879864
  1  0.000000  2.149614 -7.551136
  1  0.000000  2.135354 -3.452368
  1  0.000000  2.152775 -1.013823
  1  0.000000  2.148645  0.950092
  1  0.000000  2.148844  3.339227
  1  0.000000 -2.152211  5.300765
  1  0.000000 -2.144358  7.732055
  SCF Done:  E(RB3LYP) =  -957.720291844     A.U. after    1 cycles             
  
          23          40 "  -957.720291844"
After scan for Atom:   Atom  AN      X      Y      Z        X      Y      Z        X      Y      Z   
After scan for Atom:   Atom  AN      X      Y      Z        X      Y      Z        X      Y      Z   
After scan for Atom:   Atom  AN      X      Y      Z        X      Y      Z        X      Y      Z   
After scan for Atom:   Atom  AN      X      Y      Z        X      Y      Z        X      Y      Z   
After scan for Atom:   Atom  AN      X      Y      Z        X      Y      Z        X      Y      Z   
After scan for Atom:   Atom  AN      X      Y      Z        X      Y      Z        X      Y      Z   
After scan for Atom:   Atom  AN      X      Y      Z        X      Y      Z        X      Y      Z   
After scan for Atom:   Atom  AN      X      Y      Z        X      Y      Z        X      Y      Z   
After scan for Atom:   Atom  AN      X      Y      Z        X      Y      Z        X      Y      Z   
After scan for Atom:   Atom  AN      X      Y      Z        X      Y      Z        X      Y      Z   
After scan for Atom:   Atom  AN      X      Y      Z        X      Y      Z        X      Y      Z   
After scan for Atom:   Atom  AN      X      Y      Z        X      Y      Z        X      Y      Z   
After scan for Atom:   Atom  AN      X      Y      Z        X      Y      Z        X      Y      Z   
After scan for Atom:   Atom  AN      X      Y      Z        X      Y      Z        X      Y      Z   
After scan for Atom:   Atom  AN      X      Y      Z        X      Y      Z        X      Y      Z   
After scan for Atom:   Atom  AN      X      Y      Z        X      Y      Z        X      Y      Z   
After scan for Atom:   Atom  AN      X      Y      Z        X      Y      Z        X      Y      Z   
After scan for Atom:   Atom  AN      X      Y      Z        X      Y      Z        X      Y      Z   
After scan for Atom:   Atom  AN      X      Y      Z        X      Y      Z        X      Y      Z   
After scan for Atom:   Atom  AN      X      Y      Z        X      Y      Z        X      Y      Z   
After scan for Atom:   Atom  AN      X      Y      Z        X      Y      Z        X      Y      Z   
After scan for Atom:   Atom  AN      X      Y      Z        X      Y      Z        X      Y      Z   
After scan for Atom:   Atom  AN      X      Y      Z        X      Y      Z        X      Y      Z   
After scan for Atom:   Atom  AN      X      Y      Z        X      Y      Z        X      Y      Z   
After scan for Atom:   Atom  AN      X      Y      Z        X      Y      Z        X      Y      Z   
After scan for Atom:   Atom  AN      X      Y      Z        X      Y      Z        X      Y      Z   
After scan for Atom:   Atom  AN      X      Y      Z        X      Y      Z        X      Y      Z   
After scan for Atom:   Atom  AN      X      Y      Z        X      Y      Z        X      Y      Z   
After scan for Atom:   Atom  AN      X      Y      Z        X      Y      Z        X      Y      Z   
After scan for Atom:   Atom  AN      X      Y      Z        X      Y      Z        X      Y      Z   
After scan for Atom:   Atom  AN      X      Y      Z        X      Y      Z        X      Y      Z   
After scan for Atom:   Atom  AN      X      Y      Z        X      Y      Z        X      Y      Z   
After scan for Atom:   Atom  AN      X      Y      Z        X      Y      Z        X      Y      Z   
After scan for Atom:   Atom  AN      X      Y      Z        X      Y      Z        X      Y      Z   
After scan for Atom:   Atom  AN      X      Y      Z        X      Y      Z        X      Y      Z   
After scan for Atom:   Atom  AN      X      Y      Z        X      Y      Z        X      Y      Z   
After scan for Atom:   Atom  AN      X      Y      Z        X      Y      Z        X      Y      Z   
After scan for Atom:   Atom  AN      X      Y      Z        X      Y      Z        X      Y      Z   
 g94    frequencies=
     0.0    0.0    0.0    0.0    0.0    0.0  -96.3  -53.1   21.6   50.4
    57.9   59.4  119.6  134.3  167.7  172.3  223.4  254.6  335.7  336.4
   370.9  386.7  406.8  410.1  418.0  445.5  453.6  485.0  487.5  510.4
   554.7  573.4  631.4  641.0  642.2  655.1  668.4  694.9  707.6  729.2
   743.9  769.9  780.1  806.7  812.2  817.1  826.1  835.6  849.9  854.2
   879.6  919.2  949.3  956.8  973.3  995.8  996.7  997.8 1001.7 1007.9
  1008.1 1013.0 1018.0 1023.0 1033.5 1054.6 1064.8 1075.0 1111.5 1111.7
  1113.1 1142.7 1168.2 1188.1 1206.5 1218.7 1236.7 1251.0 1274.7 1287.8
  1293.0 1302.9 1310.4 1326.5 1341.5 1353.5 1361.4 1370.0 1433.4 1444.6
  1448.8 1468.1 1483.8 1521.9 1543.0 1570.7 1580.0 1596.0 1614.0 1614.1
  1623.5 1637.7 1647.0 1658.7 3141.9 3143.9 3162.0 3170.0 3181.1 3182.6
  3186.4 3190.8 3192.1 3201.4 3201.6 3202.0 3207.4 3209.1 3211.9 3214.3
 g94    symmetries=
                                                A2     A2     B1     A2
      B2     B1     B1     B2     B1     A1     B2     B1     B1     A1
      B2     A2     A2     A2     A2     B2     B1     A1     B2     B1
      B1     B1     B2     A1     B2     B2     B2     B1     A1     B1
      B1     A1     B1     A2     A1     B1     B1     A2     A2     B1
      B1     B1     A2     B1     A2     B1     A2     B1     A2     B1
      A1     A1     A1     A1     A1     A1     A1     A1     B2     B2
      A1     B2     B2     B2     A1     A1     B2     A1     B2     A1
      B2     A1     B2     B2     B2     A1     B2     B2     B2     B2
      A1     B2     B2     A1     A1     A1     B2     B2     A1     B2
      B2     A1     A1     A1     A1     B2     A1     B2     A1     B2
      A1     B2     A1     B2     A1     A1     B2     A1     B2     A1
 atomic masses:
 12.0000 12.0000 12.0000 12.0000 12.0000 12.0000 12.0000 12.0000 12.0000 12.0000
 12.0000 12.0000 12.0000 14.0031 12.0000 12.0000 12.0000 14.0031 12.0000 12.0000
 12.0000 12.0000 12.0000 12.0000  1.0078  1.0078  1.0078  1.0078  1.0078  1.0078
  1.0078  1.0078  1.0078  1.0078  1.0078  1.0078  1.0078  1.0078  1.0078  1.0078
 looking for force constants in 
 ./Non-cov-phenyl-N_1_C0S0.fchk                                                 
  
 Cartesian Force Constants                  R   N=        7260                  
  
 n3=         120        7260
 g94-fc frequencies=
   -96.3  -53.1   -1.0   -0.0    0.0    0.0    0.8    1.0   21.6   50.4
    57.9   59.4  119.6  134.3  167.7  172.4  223.4  254.6  335.7  336.4
   370.9  386.7  406.8  410.1  418.0  445.5  453.6  485.0  487.5  510.5
   554.7  573.4  631.4  641.0  642.2  655.1  668.4  694.9  707.6  729.3
   743.9  769.9  780.1  806.7  812.2  817.1  826.2  835.6  850.0  854.2
   879.6  919.3  949.3  956.8  973.3  995.8  996.7  997.9 1001.7 1008.0
  1008.1 1013.0 1018.1 1023.0 1033.6 1054.6 1064.9 1075.0 1111.5 1111.8
  1113.2 1142.7 1168.2 1188.1 1206.5 1218.8 1236.7 1251.0 1274.8 1287.8
  1293.0 1302.9 1310.4 1326.6 1341.5 1353.5 1361.5 1370.1 1433.4 1444.7
  1448.8 1468.1 1483.8 1521.9 1543.0 1570.7 1580.0 1596.0 1614.0 1614.1
  1623.5 1637.7 1647.1 1658.7 3141.9 3143.9 3162.0 3170.1 3181.1 3182.7
  3186.4 3190.9 3192.1 3201.5 3201.7 3202.0 3207.5 3209.2 3211.9 3214.4
 at 99999: n3=         120
 symm operator            1 :  T  nop=           1
 symm operator            2 :  F  nop=           1
 symm operator            3 :  F  nop=           1
 symm operator            4 :  F  nop=           1
 symm operator            5 :  F  nop=           1
 symm operator            6 :  T  nop=           2
 symm operator            7 :  T  nop=           3
 The point group of the molecule is C2V
 enforcing symm op           1  jsymt=          -1          -1           1
 enforcing symm op           6  jsymt=           1          -1           1
 enforcing symm op           7  jsymt=          -1           1           1
 cartesian coord symmetries:
 A1 :   40 A2 :   15 B1 :   25 B2 :   40
 Symmetry rotation matrix:
   1.00000   0.00000   0.00000
   0.00000   1.00000   0.00000
   0.00000   0.00000   1.00000

 Projecting out zero-frequency components
 generating redundant internal coords
         300        3600          40
 search for int coords
   1 str   2   1   1.392
   2 str   3   2   1.391
   3 str   4   3   1.406
   4 str   5   4   1.490
   5 str   6   5   1.404
   6 str   7   6   1.387
   7 str   8   7   1.404
   8 str   9   8   1.487
   9 str  10   9   1.407
  10 str  11  10   1.386
  11 str  12  11   1.400
  12 str  13  12   1.480
  13 str  14  13   1.345
  14 str  15  14   1.331
  15 str  16  15   1.391
  16 str  17  16   1.391
  17 str  18  13   1.345
  18 str  18  17   1.331
  19 str  19  12   1.400
  20 str  20   9   1.407
  21 str  20  19   1.386
  22 str  21   8   1.404
  23 str  22   5   1.404
  24 str  22  21   1.387
  25 str  23   4   1.406
  26 str  24   1   1.392
  27 str  24  23   1.391
  28 str  25   1   1.084
  29 str  26   2   1.084
  30 str  27   3   1.082
  31 str  28   6   1.082
  32 str  29   7   1.082
  33 str  30  10   1.082
  34 str  31  11   1.082
  35 str  32  15   1.087
  36 str  33  16   1.082
  37 str  34  17   1.087
  38 str  35  19   1.082
  39 str  36  20   1.082
  40 str  37  21   1.082
  41 str  38  22   1.082
  42 str  39  23   1.082
  43 str  40  24   1.084
 nber stretches=          43
  44 ben   1   2   3
  45 prop tor   1   2   3   4
  46 prop tor   1   2   3  27
  47 ben   1   2  26
  48 ben   1  24  23
  49 ben   1  24  40
  50 ben   2   1  24
  51 prop tor   2   1  24  23
  52 prop tor   2   1  24  40
  53 ben   2   1  25
  54 ben   2   3   4
  55 prop tor   2   3   4   5
  56 prop tor   2   3   4  23
  57 ben   2   3  27
  58 ben   3   2  26
  59 ben   3   4   5
  60 prop tor   3   4   5   6
  61 prop tor   3   4   5  22
  62 ben   3   4  23
  63 prop tor   3   4  23  24
  64 prop tor   3   4  23  39
  65 ben   4   3  27
  66 ben   4   5   6
  67 prop tor   4   5   6   7
  68 prop tor   4   5   6  28
  69 ben   4   5  22
  70 prop tor   4   5  22  21
  71 prop tor   4   5  22  38
  72 ben   4  23  24
  73 prop tor   4  23  24   1
  74 prop tor   4  23  24  40
  75 ben   4  23  39
  76 ben   5   4  23
  77 prop tor   5   4  23  24
  78 prop tor   5   4  23  39
  79 ben   5   6   7
  80 prop tor   5   6   7   8
  81 prop tor   5   6   7  29
  82 ben   5   6  28
  83 ben   5  22  21
  84 ben   5  22  38
  85 ben   6   5  22
  86 prop tor   6   5  22  21
  87 prop tor   6   5  22  38
  88 ben   6   7   8
  89 prop tor   6   7   8   9
  90 prop tor   6   7   8  21
  91 ben   6   7  29
  92 ben   7   6  28
  93 ben   7   8   9
  94 prop tor   7   8   9  10
  95 prop tor   7   8   9  20
  96 ben   7   8  21
  97 prop tor   7   8  21  22
  98 prop tor   7   8  21  37
  99 ben   8   7  29
 100 ben   8   9  10
 101 prop tor   8   9  10  11
 102 prop tor   8   9  10  30
 103 ben   8   9  20
 104 prop tor   8   9  20  19
 105 prop tor   8   9  20  36
 106 ben   8  21  22
 107 prop tor   8  21  22   5
 108 prop tor   8  21  22  38
 109 ben   8  21  37
 110 ben   9   8  21
 111 prop tor   9   8  21  22
 112 prop tor   9   8  21  37
 113 ben   9  10  11
 114 prop tor   9  10  11  12
 115 prop tor   9  10  11  31
 116 ben   9  10  30
 117 ben   9  20  19
 118 ben   9  20  36
 119 ben  10   9  20
 120 prop tor  10   9  20  19
 121 prop tor  10   9  20  36
 122 ben  10  11  12
 123 prop tor  10  11  12  13
 124 prop tor  10  11  12  19
 125 ben  10  11  31
 126 ben  11  10  30
 127 ben  11  12  13
 128 prop tor  11  12  13  14
 129 prop tor  11  12  13  18
 130 ben  11  12  19
 131 prop tor  11  12  19  20
 132 prop tor  11  12  19  35
 133 ben  12  11  31
 134 ben  12  13  14
 135 prop tor  12  13  14  15
 136 ben  12  13  18
 137 prop tor  12  13  18  17
 138 ben  12  19  20
 139 prop tor  12  19  20   9
 140 prop tor  12  19  20  36
 141 ben  12  19  35
 142 ben  13  12  19
 143 prop tor  13  12  19  20
 144 prop tor  13  12  19  35
 145 ben  13  14  15
 146 prop tor  13  14  15  16
 147 prop tor  13  14  15  32
 148 ben  13  18  17
 149 ben  14  13  18
 150 prop tor  14  13  18  17
 151 ben  14  15  16
 152 prop tor  14  15  16  17
 153 prop tor  14  15  16  33
 154 ben  14  15  32
 155 ben  15  16  17
 156 prop tor  15  16  17  18
 157 prop tor  15  16  17  34
 158 ben  15  16  33
 159 ben  16  15  32
 160 ben  16  17  18
 161 prop tor  16  17  18  13
 162 ben  16  17  34
 163 ben  17  16  33
 164 prop tor  18  13  14  15
 165 ben  18  17  34
 166 prop tor  19  12  13  14
 167 prop tor  19  12  13  18
 168 ben  19  20  36
 169 prop tor  20   9  10  11
 170 prop tor  20   9  10  30
 171 ben  20  19  35
 172 prop tor  21   8   9  10
 173 prop tor  21   8   9  20
 174 ben  21  22  38
 175 prop tor  22   5   6   7
 176 prop tor  22   5   6  28
 177 ben  22  21  37
 178 prop tor  23   4   5   6
 179 prop tor  23   4   5  22
 180 ben  23  24  40
 181 prop tor  24   1   2   3
 182 prop tor  24   1   2  26
 183 ben  24   1  25
 184 ben  24  23  39
 185 prop tor  25   1   2   3
 186 prop tor  25   1   2  26
 187 prop tor  25   1  24  23
 188 prop tor  25   1  24  40
 189 prop tor  26   2   3   4
 190 prop tor  26   2   3  27
 191 prop tor  27   3   4   5
 192 prop tor  27   3   4  23
 193 prop tor  28   6   7   8
 194 prop tor  28   6   7  29
 195 prop tor  29   7   8   9
 196 prop tor  29   7   8  21
 197 prop tor  30  10  11  12
 198 prop tor  30  10  11  31
 199 prop tor  31  11  12  13
 200 prop tor  31  11  12  19
 201 prop tor  32  15  16  17
 202 prop tor  32  15  16  33
 203 prop tor  33  16  17  18
 204 prop tor  33  16  17  34
 205 prop tor  34  17  18  13
 206 prop tor  35  19  20   9
 207 prop tor  35  19  20  36
 208 prop tor  37  21  22   5
 209 prop tor  37  21  22  38
 210 prop tor  39  23  24   1
 211 prop tor  39  23  24  40
 nber bend=              68
 nber lin bend=           0
 nber prop tor=         100
 nber impr tor=           0
 nber tot redund int=         211
 Eigenvalues of G in red int coords
    Gval -0.00000000 -0.00000000 -0.00000000 -0.00000000 -0.00000000 -0.00000000 -0.00000000 -0.00000000
    Gval -0.00000000 -0.00000000 -0.00000000 -0.00000000 -0.00000000 -0.00000000 -0.00000000 -0.00000000
    Gval -0.00000000 -0.00000000 -0.00000000 -0.00000000 -0.00000000 -0.00000000 -0.00000000 -0.00000000
    Gval -0.00000000 -0.00000000 -0.00000000 -0.00000000 -0.00000000 -0.00000000 -0.00000000 -0.00000000
    Gval -0.00000000 -0.00000000 -0.00000000 -0.00000000 -0.00000000 -0.00000000 -0.00000000 -0.00000000
    Gval -0.00000000 -0.00000000 -0.00000000 -0.00000000 -0.00000000 -0.00000000 -0.00000000 -0.00000000
    Gval -0.00000000 -0.00000000 -0.00000000  0.00000000  0.00000000  0.00000000  0.00000000  0.00000000
    Gval  0.00000000  0.00000000  0.00000000  0.00000000  0.00000000  0.00000000  0.00000000  0.00000000
    Gval  0.00000000  0.00000000  0.00000000  0.00000000  0.00000000  0.00000000  0.00000000  0.00000000
    Gval  0.00000000  0.00000000  0.00000000  0.00000000  0.00000000  0.00000000  0.00000000  0.00000000
    Gval  0.00000000  0.00000000  0.00000000  0.00000000  0.00000000  0.00000000  0.00000000  0.00000000
    Gval  0.00000000  0.00000000  0.00000000  0.00000000  0.00000000  0.00000000  0.00000000  0.00000000
    Gval  0.00000000  0.00000050  0.00000198  0.00000204  0.00000298  0.00000778  0.00000843  0.00001282
    Gval  0.00001390  0.00001541  0.00002020  0.00002794  0.00003008  0.00004239  0.00004522  0.00004568
    Gval  0.00004888  0.00005059  0.00005209  0.00005601  0.00005649  0.00005862  0.00005902  0.00006699
    Gval  0.00006772  0.00007832  0.00008253  0.00009174  0.00009970  0.00010643  0.00010846  0.00011678
    Gval  0.00011688  0.00011710  0.00012085  0.00012288  0.00012713  0.00013369  0.00017178  0.00021544
    Gval  0.00023426  0.00025112  0.00026170  0.00027317  0.00028307  0.00028900  0.00030577  0.00035242
    Gval  0.00036288  0.00038183  0.00039187  0.00039294  0.00039624  0.00041398  0.00043165  0.00051435
    Gval  0.00053690  0.00058057  0.00059308  0.00059343  0.00059364  0.00059657  0.00059853  0.00059975
    Gval  0.00060014  0.00060208  0.00060406  0.00060426  0.00062320  0.00062458  0.00063364  0.00064170
    Gval  0.00064320  0.00064903  0.00065129  0.00066105  0.00072897  0.00091409  0.00104149  0.00106045
    Gval  0.00106684  0.00107741  0.00108125  0.00110939  0.00111071  0.00111217  0.00112860  0.00113905
    Gval  0.00115102  0.00115403  0.00116840  0.00117022  0.00117194  0.00117312  0.00117465  0.00140288
    Gval  0.00143056  0.00145332  0.00158922  0.00175020  0.00195106  0.00226198  0.00234300  0.00235041
    Gval  0.00236573  0.00239740  0.00266263  0.00314243  0.00357222  0.00365486  0.00367003  0.00370914
    Gval  0.00372447  0.00373680  0.00406717
  4.962251561289187E-007  4.962251561289187E-007
  1.977305003023236E-006  4.962251561289187E-007
  2.044298209071173E-006  4.962251561289187E-007
  2.981898221001459E-006  4.962251561289187E-007
  7.776747142304262E-006  4.962251561289187E-007
  8.430956765116993E-006  4.962251561289187E-007
  1.281534708202904E-005  4.962251561289187E-007
  1.390054128572034E-005  4.962251561289187E-007
  1.540697001123760E-005  4.962251561289187E-007
  2.020138620864490E-005  4.962251561289187E-007
  2.793943349630009E-005  4.962251561289187E-007
  3.008202314907469E-005  4.962251561289187E-007
  4.239382207591233E-005  4.962251561289187E-007
  4.522146469093668E-005  4.962251561289187E-007
  4.568346036820905E-005  4.962251561289187E-007
  4.887960058892643E-005  4.962251561289187E-007
  5.058874079893182E-005  4.962251561289187E-007
  5.209386543131016E-005  4.962251561289187E-007
  5.601290413277766E-005  4.962251561289187E-007
  5.648842455070493E-005  4.962251561289187E-007
  5.861901391781652E-005  4.962251561289187E-007
  5.902211822697931E-005  4.962251561289187E-007
  6.699169467806565E-005  4.962251561289187E-007
  6.772205701414633E-005  4.962251561289187E-007
  7.831866751766289E-005  4.962251561289187E-007
  8.252651572360232E-005  4.962251561289187E-007
  9.173630237892949E-005  4.962251561289187E-007
  9.970241713273885E-005  4.962251561289187E-007
  1.064337359650663E-004  4.962251561289187E-007
  1.084575077321564E-004  4.962251561289187E-007
  1.167826931719236E-004  4.962251561289187E-007
  1.168783163680567E-004  4.962251561289187E-007
  1.171043750822402E-004  4.962251561289187E-007
  1.208492304939676E-004  4.962251561289187E-007
  1.228815309301010E-004  4.962251561289187E-007
  1.271328747861408E-004  4.962251561289187E-007
  1.336859884020275E-004  4.962251561289187E-007
  1.717785392925331E-004  4.962251561289187E-007
  2.154406655988848E-004  4.962251561289187E-007
  2.342573680778260E-004  4.962251561289187E-007
  2.511155105157576E-004  4.962251561289187E-007
  2.616954634506511E-004  4.962251561289187E-007
  2.731652553967986E-004  4.962251561289187E-007
  2.830734959495905E-004  4.962251561289187E-007
  2.889973350452399E-004  4.962251561289187E-007
  3.057723234844824E-004  4.962251561289187E-007
  3.524212706273894E-004  4.962251561289187E-007
  3.628755597392140E-004  4.962251561289187E-007
  3.818254004603093E-004  4.962251561289187E-007
  3.918703082029485E-004  4.962251561289187E-007
  3.929401417246054E-004  4.962251561289187E-007
  3.962434705163824E-004  4.962251561289187E-007
  4.139791818909649E-004  4.962251561289187E-007
  4.316507574380573E-004  4.962251561289187E-007
  5.143523700030765E-004  4.962251561289187E-007
  5.369010799631128E-004  4.962251561289187E-007
  5.805714431931429E-004  4.962251561289187E-007
  5.930755083057243E-004  4.962251561289187E-007
  5.934302830483775E-004  4.962251561289187E-007
  5.936441173128042E-004  4.962251561289187E-007
  5.965745794660225E-004  4.962251561289187E-007
  5.985272118264794E-004  4.962251561289187E-007
  5.997479164899414E-004  4.962251561289187E-007
  6.001399049542405E-004  4.962251561289187E-007
  6.020765402391215E-004  4.962251561289187E-007
  6.040644287131454E-004  4.962251561289187E-007
  6.042619177521804E-004  4.962251561289187E-007
  6.231962596713995E-004  4.962251561289187E-007
  6.245829783166736E-004  4.962251561289187E-007
  6.336429173902112E-004  4.962251561289187E-007
  6.416991457911412E-004  4.962251561289187E-007
  6.432000122674109E-004  4.962251561289187E-007
  6.490275038758069E-004  4.962251561289187E-007
  6.512943874736674E-004  4.962251561289187E-007
  6.610535640677967E-004  4.962251561289187E-007
  7.289741623539123E-004  4.962251561289187E-007
  9.140887607796881E-004  4.962251561289187E-007
  1.041492795281015E-003  4.962251561289187E-007
  1.060451451206743E-003  4.962251561289187E-007
  1.066842197567957E-003  4.962251561289187E-007
  1.077408728773988E-003  4.962251561289187E-007
  1.081250308966851E-003  4.962251561289187E-007
  1.109388735311795E-003  4.962251561289187E-007
  1.110705016069207E-003  4.962251561289187E-007
  1.112171081146671E-003  4.962251561289187E-007
  1.128599249556658E-003  4.962251561289187E-007
  1.139047640072390E-003  4.962251561289187E-007
  1.151020692780268E-003  4.962251561289187E-007
  1.154033948737069E-003  4.962251561289187E-007
  1.168400680681843E-003  4.962251561289187E-007
  1.170218882822908E-003  4.962251561289187E-007
  1.171941771009297E-003  4.962251561289187E-007
  1.173116563312160E-003  4.962251561289187E-007
  1.174645963124029E-003  4.962251561289187E-007
  1.402877822916193E-003  4.962251561289187E-007
  1.430556428482563E-003  4.962251561289187E-007
  1.453322119624298E-003  4.962251561289187E-007
  1.589219595536635E-003  4.962251561289187E-007
  1.750201268390847E-003  4.962251561289187E-007
  1.951063936424268E-003  4.962251561289187E-007
  2.261976355909656E-003  4.962251561289187E-007
  2.342999710205916E-003  4.962251561289187E-007
  2.350414601180322E-003  4.962251561289187E-007
  2.365730942692738E-003  4.962251561289187E-007
  2.397398857407435E-003  4.962251561289187E-007
  2.662626872050022E-003  4.962251561289187E-007
  3.142426664455937E-003  4.962251561289187E-007
  3.572223201472919E-003  4.962251561289187E-007
  3.654858249563738E-003  4.962251561289187E-007
  3.670028871681092E-003  4.962251561289187E-007
  3.709138119010878E-003  4.962251561289187E-007
  3.724465679155559E-003  4.962251561289187E-007
  3.736798546952017E-003  4.962251561289187E-007
  4.067173898783786E-003  4.962251561289187E-007
 cut=1d-8, nber non-redundant internal coords=         114
 Check on Eigenvals of non-red overlap matrix:
  0.00000050  0.00000198  0.00000204  0.00000298  0.00000778  0.00000843  0.00001282  0.00001390
  0.00001541  0.00002020  0.00002794  0.00003008  0.00004239  0.00004522  0.00004568  0.00004888
  0.00005059  0.00005209  0.00005601  0.00005649  0.00005862  0.00005902  0.00006699  0.00006772
  0.00007832  0.00008253  0.00009174  0.00009970  0.00010643  0.00010846  0.00011678  0.00011688
  0.00011710  0.00012085  0.00012288  0.00012713  0.00013369  0.00017178  0.00021544  0.00023426
  0.00025112  0.00026170  0.00027317  0.00028307  0.00028900  0.00030577  0.00035242  0.00036288
  0.00038183  0.00039187  0.00039294  0.00039624  0.00041398  0.00043165  0.00051435  0.00053690
  0.00058057  0.00059308  0.00059343  0.00059364  0.00059657  0.00059853  0.00059975  0.00060014
  0.00060208  0.00060406  0.00060426  0.00062320  0.00062458  0.00063364  0.00064170  0.00064320
  0.00064903  0.00065129  0.00066105  0.00072897  0.00091409  0.00104149  0.00106045  0.00106684
  0.00107741  0.00108125  0.00110939  0.00111071  0.00111217  0.00112860  0.00113905  0.00115102
  0.00115403  0.00116840  0.00117022  0.00117194  0.00117312  0.00117465  0.00140288  0.00143056
  0.00145332  0.00158922  0.00175020  0.00195106  0.00226198  0.00234300  0.00235041  0.00236573
  0.00239740  0.00266263  0.00314243  0.00357222  0.00365486  0.00367003  0.00370914  0.00372447
  0.00373680  0.00406717
 Checking for correct frequencies
 recalc frequencies=
   -96.3  -53.1   -0.0    0.0    0.0    0.0    0.0    0.0   21.6   50.4
    57.9   59.4  119.6  134.3  167.7  172.4  223.4  254.6  335.7  336.4
   370.9  386.7  406.8  410.1  418.0  445.5  453.6  485.0  487.5  510.5
   554.7  573.4  631.4  641.0  642.2  655.1  668.4  694.9  707.6  729.3
   743.9  769.9  780.1  806.7  812.2  817.1  826.2  835.6  850.0  854.2
   879.6  919.3  949.3  956.8  973.3  995.8  996.7  997.9 1001.7 1008.0
  1008.1 1013.0 1018.1 1023.0 1033.6 1054.6 1064.9 1075.0 1111.5 1111.8
  1113.2 1142.7 1168.2 1188.1 1206.5 1218.8 1236.7 1251.0 1274.8 1287.8
  1293.0 1302.9 1310.4 1326.6 1341.5 1353.5 1361.5 1370.1 1433.4 1444.7
  1448.8 1468.1 1483.8 1521.9 1543.0 1570.7 1580.0 1596.0 1614.0 1614.1
  1623.5 1637.7 1647.1 1658.7 3141.9 3143.9 3162.0 3170.1 3181.1 3182.7
  3186.4 3190.9 3192.1 3201.5 3201.7 3202.0 3207.5 3209.2 3211.9 3214.4
 recalc symmetries=
     A2     A2     A2     B1     B1     A1     B2     B2     B1     A2 
     B2     B1     B1     B2     B1     A1     B2     B1     B1     A1 
     B2     A2     A2     A2     A2     B2     B1     A1     B2     B1 
     B1     B1     B2     A1     B2     B2     B2     B1     A1     B1 
     B1     A1     B1     A2     A1     B1     B1     A2     A2     B1 
     B1     B1     A2     B1     A2     B1     A2     B1     A2     B1 
     A1     A1     A1     A1     A1     A1     A1     A1     B2     B2 
     A1     B2     B2     B2     A1     A1     B2     A1     B2     A1 
     B2     A1     B2     B2     B2     A1     B2     B2     B2     B2 
     A1     B2     B2     A1     A1     A1     B2     B2     A1     B2 
     B2     A1     A1     A1     A1     B2     A1     B2     A1     B2 
     A1     B2     A1     B2     A1     A1     B2     A1     B2     A1 
 recalc freqs check OK
 Zero-point lengths:
 25.2597 34.0128 10.0000 10.0000 10.0000 10.0000 10.0000 10.0000 53.3738 34.9089
 32.5881 32.1635 22.6729 21.3901 19.1431 18.8836 16.5870 15.5374 13.5297 13.5156
 12.8723 12.6067 12.2912 12.2413 12.1253 11.7453 11.6400 11.2568 11.2278 10.9728
 10.5259 10.3530  9.8661  9.7921  9.7830  9.6857  9.5893  9.4046  9.3195  9.1802
  9.0893  8.9348  8.8758  8.7285  8.6986  8.6726  8.6251  8.5761  8.5035  8.4825
  8.3589  8.1767  8.0462  8.0146  7.9465  7.8562  7.8527  7.8480  7.8330  7.8086
  7.8081  7.7892  7.7698  7.7510  7.7113  7.6341  7.5971  7.5611  7.4360  7.4351
  7.4305  7.3337  7.2534  7.1924  7.1372  7.1012  7.0496  7.0091  6.9435  6.9083
  6.8943  6.8681  6.8485  6.8066  6.7685  6.7384  6.7188  6.6977  6.5480  6.5225
  6.5131  6.4701  6.4358  6.3548  6.3112  6.2553  6.2369  6.2055  6.1708  6.1707
  6.1527  6.1260  6.1086  6.0870  4.4228  4.4214  4.4087  4.4031  4.3955  4.3944
  4.3918  4.3887  4.3879  4.3815  4.3813  4.3811  4.3774  4.3762  4.3743  4.3727
 highest evec of mol 1
  0.0000  0.0000 -0.0072
  0.0000 -0.0121 -0.0081
  0.0000 -0.0449  0.0241
  0.0000  0.0000  0.0017
  0.0000  0.0000 -0.0037
  0.0000  0.0690 -0.0387
  0.0000  0.0938  0.0505
  0.0000  0.0000  0.0046
  0.0000  0.0000 -0.0047
  0.0000  0.0938 -0.0532
  0.0000  0.0856  0.0515
  0.0000  0.0000  0.0044
  0.0000  0.0000  0.0013
  0.0000 -0.0006 -0.0000
  0.0000 -0.0001  0.0001
  0.0000  0.0000 -0.0008
  0.0000  0.0001  0.0001
  0.0000  0.0006 -0.0000
  0.0000 -0.0856  0.0515
  0.0000 -0.0938 -0.0532
  0.0000 -0.0938  0.0505
  0.0000 -0.0690 -0.0387
  0.0000  0.0449  0.0241
  0.0000  0.0121 -0.0081
  0.0000  0.0000  0.0216
  0.0000  0.0383  0.0221
  0.0000  0.1501 -0.0834
  0.0000 -0.2279  0.1237
  0.0000 -0.3118 -0.1690
  0.0000 -0.3136  0.1732
  0.0000 -0.2807 -0.1614
  0.0000  0.0000 -0.0000
  0.0000  0.0000  0.0022
  0.0000 -0.0000 -0.0000
  0.0000  0.2807 -0.1614
  0.0000  0.3136  0.1732
  0.0000  0.3118 -0.1690
  0.0000  0.2279  0.1237
  0.0000 -0.1501 -0.0834
  0.0000 -0.0383  0.0221
 generating redundant internal coords
         300        3600          40
 Adding extra bonds for z output only
           6           6           6           6           6           6
           6           6           6           6           6           6
           6           7           6           6           6           7
           6           6           6           6           6           6
           1           1           1           1           1           1
           1           1           1           1           1           1
           1           1           1           1
 search for int coords
   1 str   2   1   1.392
   2 str   3   2   1.391
   3 str   4   3   1.406
   4 str   5   4   1.490
   5 str   6   5   1.404
   6 str   7   6   1.387
   7 str   8   7   1.404
   8 str   9   8   1.487
   9 str  10   9   1.407
  10 str  11  10   1.386
  11 str  12  11   1.400
  12 str  13  12   1.480
  13 str  14  13   1.345
  14 str  15  14   1.331
  15 str  16  15   1.391
  16 str  17  16   1.391
  17 str  18  13   1.345
  18 str  18  17   1.331
  19 str  19  12   1.400
  20 str  20   9   1.407
  21 str  20  19   1.386
  22 str  21   8   1.404
  23 str  22   5   1.404
  24 str  22  21   1.387
  25 str  23   4   1.406
  26 str  24   1   1.392
  27 str  24  23   1.391
  28 str  25   1   1.084
  29 str  26   2   1.084
  30 str  27   3   1.082
  31 str  28   6   1.082
  32 str  29   7   1.082
  33 str  30  10   1.082
  34 str  31  11   1.082
  35 str  32  15   1.087
  36 str  33  16   1.082
  37 str  34  17   1.087
  38 str  35  19   1.082
  39 str  36  20   1.082
  40 str  37  21   1.082
  41 str  38  22   1.082
  42 str  39  23   1.082
  43 str  40  24   1.084
 nber stretches=          43
  44 ben   1   2   3
  45 prop tor   1   2   3   4
  46 prop tor   1   2   3  27
  47 ben   1   2  26
  48 ben   1  24  23
  49 ben   1  24  40
  50 ben   2   1  24
  51 prop tor   2   1  24  23
  52 prop tor   2   1  24  40
  53 ben   2   1  25
  54 ben   2   3   4
  55 prop tor   2   3   4   5
  56 prop tor   2   3   4  23
  57 ben   2   3  27
  58 ben   3   2  26
  59 ben   3   4   5
  60 prop tor   3   4   5   6
  61 prop tor   3   4   5  22
  62 ben   3   4  23
  63 prop tor   3   4  23  24
  64 prop tor   3   4  23  39
  65 ben   4   3  27
  66 ben   4   5   6
  67 prop tor   4   5   6   7
  68 prop tor   4   5   6  28
  69 ben   4   5  22
  70 prop tor   4   5  22  21
  71 prop tor   4   5  22  38
  72 ben   4  23  24
  73 prop tor   4  23  24   1
  74 prop tor   4  23  24  40
  75 ben   4  23  39
  76 ben   5   4  23
  77 prop tor   5   4  23  24
  78 prop tor   5   4  23  39
  79 ben   5   6   7
  80 prop tor   5   6   7   8
  81 prop tor   5   6   7  29
  82 ben   5   6  28
  83 ben   5  22  21
  84 ben   5  22  38
  85 ben   6   5  22
  86 prop tor   6   5  22  21
  87 prop tor   6   5  22  38
  88 ben   6   7   8
  89 prop tor   6   7   8   9
  90 prop tor   6   7   8  21
  91 ben   6   7  29
  92 ben   7   6  28
  93 ben   7   8   9
  94 prop tor   7   8   9  10
  95 prop tor   7   8   9  20
  96 ben   7   8  21
  97 prop tor   7   8  21  22
  98 prop tor   7   8  21  37
  99 ben   8   7  29
 100 ben   8   9  10
 101 prop tor   8   9  10  11
 102 prop tor   8   9  10  30
 103 ben   8   9  20
 104 prop tor   8   9  20  19
 105 prop tor   8   9  20  36
 106 ben   8  21  22
 107 prop tor   8  21  22   5
 108 prop tor   8  21  22  38
 109 ben   8  21  37
 110 ben   9   8  21
 111 prop tor   9   8  21  22
 112 prop tor   9   8  21  37
 113 ben   9  10  11
 114 prop tor   9  10  11  12
 115 prop tor   9  10  11  31
 116 ben   9  10  30
 117 ben   9  20  19
 118 ben   9  20  36
 119 ben  10   9  20
 120 prop tor  10   9  20  19
 121 prop tor  10   9  20  36
 122 ben  10  11  12
 123 prop tor  10  11  12  13
 124 prop tor  10  11  12  19
 125 ben  10  11  31
 126 ben  11  10  30
 127 ben  11  12  13
 128 prop tor  11  12  13  14
 129 prop tor  11  12  13  18
 130 ben  11  12  19
 131 prop tor  11  12  19  20
 132 prop tor  11  12  19  35
 133 ben  12  11  31
 134 ben  12  13  14
 135 prop tor  12  13  14  15
 136 ben  12  13  18
 137 prop tor  12  13  18  17
 138 ben  12  19  20
 139 prop tor  12  19  20   9
 140 prop tor  12  19  20  36
 141 ben  12  19  35
 142 ben  13  12  19
 143 prop tor  13  12  19  20
 144 prop tor  13  12  19  35
 145 ben  13  14  15
 146 prop tor  13  14  15  16
 147 prop tor  13  14  15  32
 148 ben  13  18  17
 149 ben  14  13  18
 150 prop tor  14  13  18  17
 151 ben  14  15  16
 152 prop tor  14  15  16  17
 153 prop tor  14  15  16  33
 154 ben  14  15  32
 155 ben  15  16  17
 156 prop tor  15  16  17  18
 157 prop tor  15  16  17  34
 158 ben  15  16  33
 159 ben  16  15  32
 160 ben  16  17  18
 161 prop tor  16  17  18  13
 162 ben  16  17  34
 163 ben  17  16  33
 164 prop tor  18  13  14  15
 165 ben  18  17  34
 166 prop tor  19  12  13  14
 167 prop tor  19  12  13  18
 168 ben  19  20  36
 169 prop tor  20   9  10  11
 170 prop tor  20   9  10  30
 171 ben  20  19  35
 172 prop tor  21   8   9  10
 173 prop tor  21   8   9  20
 174 ben  21  22  38
 175 prop tor  22   5   6   7
 176 prop tor  22   5   6  28
 177 ben  22  21  37
 178 prop tor  23   4   5   6
 179 prop tor  23   4   5  22
 180 ben  23  24  40
 181 prop tor  24   1   2   3
 182 prop tor  24   1   2  26
 183 ben  24   1  25
 184 ben  24  23  39
 185 prop tor  25   1   2   3
 186 prop tor  25   1   2  26
 187 prop tor  25   1  24  23
 188 prop tor  25   1  24  40
 189 prop tor  26   2   3   4
 190 prop tor  26   2   3  27
 191 prop tor  27   3   4   5
 192 prop tor  27   3   4  23
 193 prop tor  28   6   7   8
 194 prop tor  28   6   7  29
 195 prop tor  29   7   8   9
 196 prop tor  29   7   8  21
 197 prop tor  30  10  11  12
 198 prop tor  30  10  11  31
 199 prop tor  31  11  12  13
 200 prop tor  31  11  12  19
 201 prop tor  32  15  16  17
 202 prop tor  32  15  16  33
 203 prop tor  33  16  17  18
 204 prop tor  33  16  17  34
 205 prop tor  34  17  18  13
 206 prop tor  35  19  20   9
 207 prop tor  35  19  20  36
 208 prop tor  37  21  22   5
 209 prop tor  37  21  22  38
 210 prop tor  39  23  24   1
 211 prop tor  39  23  24  40
 nber bend=              68
 nber lin bend=           0
 nber prop tor=         100
 nber impr tor=           0
 nber tot redund int=         211
 Reading file: 
 ./Non-cov-phenyl-N_1_C-1S0.log                                                 
                                          
  Entering Gaussian System, Link 0=g16                                          
  
 Gaussian format, type: g94, g98, g03= F F F
  #P Geom=AllCheck Guess=TCheck SCRF=Check GenChk UB3LYP/6-311G(d,p) Fre    
 energy type= B3LYP   
 Original G94 input coords:
  6  7.661002  0.000000  0.000000
  6  6.942330 -1.197546  0.000000
  6  5.554554 -1.199185  0.000000
  6  4.797822  0.000000  0.000000
  6  3.332112  0.000000  0.000000
  6  2.566576  1.193246  0.000000
  6  1.187951  1.195384  0.000000
  6  0.415356  0.000000  0.000000
  6 -1.035189  0.000000  0.000000
  6 -1.802445  1.202435  0.000000
  6 -3.178088  1.205692  0.000000
  6 -3.927558  0.000000  0.000000
  6 -5.368416  0.000000  0.000000
  7 -6.020840  1.205618  0.000000
  6 -7.340868  1.180484  0.000000
  6 -8.092856  0.000000  0.000000
  6 -7.340868 -1.180484  0.000000
  7 -6.020840 -1.205618  0.000000
  6 -3.178088 -1.205692  0.000000
  6 -1.802445 -1.202435  0.000000
  6  1.187951 -1.195384  0.000000
  6  2.566576 -1.193246  0.000000
  6  5.554554  1.199185  0.000000
  6  6.942330  1.197546  0.000000
  1  8.745275  0.000000  0.000000
  1  7.471521 -2.146161  0.000000
  1  5.046304 -2.154975  0.000000
  1  3.066515  2.154985  0.000000
  1  0.686891  2.155532  0.000000
  1 -1.297187  2.160934  0.000000
  1 -3.720528  2.143120  0.000000
  1 -7.838649  2.151502  0.000000
  1 -9.175622  0.000000  0.000000
  1 -7.838649 -2.151502  0.000000
  1 -3.720528 -2.143120  0.000000
  1 -1.297187 -2.160934  0.000000
  1  0.686891 -2.155532  0.000000
  1  3.066515 -2.154985  0.000000
  1  5.046304  2.154975  0.000000
  1  7.471521  2.146161  0.000000
 nber atoms=          40
 Original standard coords:
  6  0.000000  0.000000  7.932845
  6  0.000000  1.197546  7.214174
  6  0.000000  1.199185  5.826397
  6  0.000000  0.000000  5.069666
  6  0.000000  0.000000  3.603955
  6  0.000000 -1.193246  2.838420
  6  0.000000 -1.195384  1.459795
  6  0.000000  0.000000  0.687199
  6  0.000000  0.000000 -0.763345
  6  0.000000 -1.202435 -1.530602
  6  0.000000 -1.205692 -2.906244
  6  0.000000  0.000000 -3.655715
  6  0.000000  0.000000 -5.096573
  7  0.000000 -1.205618 -5.748997
  6  0.000000 -1.180484 -7.069025
  6  0.000000  0.000000 -7.821013
  6  0.000000  1.180484 -7.069025
  7  0.000000  1.205618 -5.748997
  6  0.000000  1.205692 -2.906244
  6  0.000000  1.202435 -1.530602
  6  0.000000  1.195384  1.459795
  6  0.000000  1.193246  2.838420
  6  0.000000 -1.199185  5.826397
  6  0.000000 -1.197546  7.214174
  1  0.000000  0.000000  9.017118
  1  0.000000  2.146161  7.743365
  1  0.000000  2.154975  5.318147
  1  0.000000 -2.154985  3.338359
  1  0.000000 -2.155532  0.958734
  1  0.000000 -2.160934 -1.025344
  1  0.000000 -2.143120 -3.448685
  1  0.000000 -2.151502 -7.566806
  1  0.000000  0.000000 -8.903779
  1  0.000000  2.151502 -7.566806
  1  0.000000  2.143120 -3.448685
  1  0.000000  2.160934 -1.025344
  1  0.000000  2.155532  0.958734
  1  0.000000  2.154985  3.338359
  1  0.000000 -2.154975  5.318147
  1  0.000000 -2.146161  7.743365
  SCF Done:  E(UB3LYP) =  -957.753081670     A.U. after    1 cycles             
  
          23          40 "  -957.753081670"
After scan for Atom:   Atom  AN      X      Y      Z        X      Y      Z        X      Y      Z   
After scan for Atom:   Atom  AN      X      Y      Z        X      Y      Z        X      Y      Z   
After scan for Atom:   Atom  AN      X      Y      Z        X      Y      Z        X      Y      Z   
After scan for Atom:   Atom  AN      X      Y      Z        X      Y      Z        X      Y      Z   
After scan for Atom:   Atom  AN      X      Y      Z        X      Y      Z        X      Y      Z   
After scan for Atom:   Atom  AN      X      Y      Z        X      Y      Z        X      Y      Z   
After scan for Atom:   Atom  AN      X      Y      Z        X      Y      Z        X      Y      Z   
After scan for Atom:   Atom  AN      X      Y      Z        X      Y      Z        X      Y      Z   
After scan for Atom:   Atom  AN      X      Y      Z        X      Y      Z        X      Y      Z   
After scan for Atom:   Atom  AN      X      Y      Z        X      Y      Z        X      Y      Z   
After scan for Atom:   Atom  AN      X      Y      Z        X      Y      Z        X      Y      Z   
After scan for Atom:   Atom  AN      X      Y      Z        X      Y      Z        X      Y      Z   
After scan for Atom:   Atom  AN      X      Y      Z        X      Y      Z        X      Y      Z   
After scan for Atom:   Atom  AN      X      Y      Z        X      Y      Z        X      Y      Z   
After scan for Atom:   Atom  AN      X      Y      Z        X      Y      Z        X      Y      Z   
After scan for Atom:   Atom  AN      X      Y      Z        X      Y      Z        X      Y      Z   
After scan for Atom:   Atom  AN      X      Y      Z        X      Y      Z        X      Y      Z   
After scan for Atom:   Atom  AN      X      Y      Z        X      Y      Z        X      Y      Z   
After scan for Atom:   Atom  AN      X      Y      Z        X      Y      Z        X      Y      Z   
After scan for Atom:   Atom  AN      X      Y      Z        X      Y      Z        X      Y      Z   
After scan for Atom:   Atom  AN      X      Y      Z        X      Y      Z        X      Y      Z   
After scan for Atom:   Atom  AN      X      Y      Z        X      Y      Z        X      Y      Z   
After scan for Atom:   Atom  AN      X      Y      Z        X      Y      Z        X      Y      Z   
After scan for Atom:   Atom  AN      X      Y      Z        X      Y      Z        X      Y      Z   
After scan for Atom:   Atom  AN      X      Y      Z        X      Y      Z        X      Y      Z   
After scan for Atom:   Atom  AN      X      Y      Z        X      Y      Z        X      Y      Z   
After scan for Atom:   Atom  AN      X      Y      Z        X      Y      Z        X      Y      Z   
After scan for Atom:   Atom  AN      X      Y      Z        X      Y      Z        X      Y      Z   
After scan for Atom:   Atom  AN      X      Y      Z        X      Y      Z        X      Y      Z   
After scan for Atom:   Atom  AN      X      Y      Z        X      Y      Z        X      Y      Z   
After scan for Atom:   Atom  AN      X      Y      Z        X      Y      Z        X      Y      Z   
After scan for Atom:   Atom  AN      X      Y      Z        X      Y      Z        X      Y      Z   
After scan for Atom:   Atom  AN      X      Y      Z        X      Y      Z        X      Y      Z   
After scan for Atom:   Atom  AN      X      Y      Z        X      Y      Z        X      Y      Z   
After scan for Atom:   Atom  AN      X      Y      Z        X      Y      Z        X      Y      Z   
After scan for Atom:   Atom  AN      X      Y      Z        X      Y      Z        X      Y      Z   
After scan for Atom:   Atom  AN      X      Y      Z        X      Y      Z        X      Y      Z   
After scan for Atom:   Atom  AN      X      Y      Z        X      Y      Z        X      Y      Z   
 g94    frequencies=
     0.0    0.0    0.0    0.0    0.0    0.0  -71.0  -30.7   21.0   56.2
    57.1   80.3  111.9  132.6  150.2  172.3  219.4  232.7  302.3  336.4
   373.3  407.6  412.0  420.5  424.9  434.1  443.6  482.8  483.2  486.1
   524.0  534.5  627.6  629.6  639.1  652.2  664.7  686.7  694.0  707.6
   720.1  743.5  752.0  755.1  772.0  790.3  793.9  800.9  815.2  818.7
   833.3  862.7  914.4  923.7  947.6  950.3  958.5  969.6  974.4  978.2
   978.7  993.4 1004.8 1006.5 1009.2 1032.5 1050.6 1054.8 1084.5 1085.3
  1101.3 1135.1 1152.6 1173.1 1198.9 1205.6 1207.8 1237.8 1285.4 1290.4
  1292.6 1309.3 1330.7 1331.0 1334.0 1348.1 1363.4 1384.6 1438.4 1444.5
  1459.8 1467.8 1481.8 1495.3 1502.1 1519.6 1526.4 1542.7 1552.6 1582.3
  1603.4 1627.4 1630.8 1651.5 3084.5 3084.9 3136.2 3142.3 3155.5 3155.7
  3165.0 3165.4 3171.6 3182.8 3184.6 3184.9 3190.3 3192.6 3192.9 3195.9
 g94    symmetries=
                                                A2     A2     B1     B1
      B2     A2     B1     B2     B1     A1     B2     B1     B1     A1
      B2     A2     B1     A2     A2     A2     B2     B1     B2     A1
      B1     B1     A1     B2     B2     B2     B2     B1     A1     B1
      B1     B1     A1     B1     A2     A1     B1     A2     B1     A2
      B1     B1     A2     B1     A2     B1     B1     A2     B1     A2
      A1     A1     A1     A1     A1     A1     A1     A1     A1     B2
      B2     B2     B2     B2     A1     B2     A1     A1     B2     B2
      B2     A1     B2     B2     A1     B2     B2     A1     A1     B2
      B2     B2     B2     B2     A1     A1     B2     B2     A1     B2
      A1     A1     A1     A1     B2     A1     A1     B2     A1     B2
      B2     A1     A1     B2     A1     A1     B2     A1     B2     A1
 atomic masses:
 12.0000 12.0000 12.0000 12.0000 12.0000 12.0000 12.0000 12.0000 12.0000 12.0000
 12.0000 12.0000 12.0000 14.0031 12.0000 12.0000 12.0000 14.0031 12.0000 12.0000
 12.0000 12.0000 12.0000 12.0000  1.0078  1.0078  1.0078  1.0078  1.0078  1.0078
  1.0078  1.0078  1.0078  1.0078  1.0078  1.0078  1.0078  1.0078  1.0078  1.0078
 looking for force constants in 
 ./Non-cov-phenyl-N_1_C-1S0.fchk                                                
  
 Cartesian Force Constants                  R   N=        7260                  
  
 n3=         120        7260
 g94-fc frequencies=
   -71.0  -30.7   -4.2   -1.2   -0.0   -0.0    0.0    0.8   21.0   56.2
    57.1   80.3  111.9  132.6  150.2  172.3  219.4  232.7  302.3  336.4
   373.3  407.6  412.0  420.5  425.0  434.1  443.6  482.8  483.2  486.1
   524.0  534.5  627.7  629.6  639.1  652.2  664.7  686.8  694.0  707.6
   720.1  743.5  752.0  755.1  772.0  790.3  794.0  801.0  815.2  818.8
   833.3  862.8  914.5  923.7  947.6  950.3  958.5  969.6  974.4  978.3
   978.8  993.4 1004.8 1006.5 1009.3 1032.5 1050.7 1054.8 1084.5 1085.3
  1101.3 1135.1 1152.6 1173.1 1198.9 1205.6 1207.8 1237.8 1285.4 1290.5
  1292.7 1309.3 1330.7 1331.0 1334.1 1348.1 1363.4 1384.7 1438.4 1444.5
  1459.8 1467.8 1481.8 1495.4 1502.1 1519.6 1526.4 1542.7 1552.6 1582.4
  1603.4 1627.4 1630.8 1651.6 3084.5 3084.9 3136.2 3142.4 3155.5 3155.7
  3165.0 3165.5 3171.7 3182.9 3184.7 3184.9 3190.3 3192.7 3193.0 3196.0
 at 99999: n3=         120
 symm operator            1 :  T  nop=           1
 symm operator            2 :  F  nop=           1
 symm operator            3 :  F  nop=           1
 symm operator            4 :  F  nop=           1
 symm operator            5 :  F  nop=           1
 symm operator            6 :  T  nop=           2
 symm operator            7 :  T  nop=           3
 The point group of the molecule is C2V
 enforcing symm op           1  jsymt=          -1          -1           1
 enforcing symm op           6  jsymt=           1          -1           1
 enforcing symm op           7  jsymt=          -1           1           1
 cartesian coord symmetries:
 A1 :   40 A2 :   15 B1 :   25 B2 :   40
 Symmetry rotation matrix:
   1.00000   0.00000   0.00000
   0.00000   1.00000   0.00000
   0.00000   0.00000   1.00000

 Projecting out zero-frequency components
 generating redundant internal coords
         300        3600          40
 search for int coords
   1 str   2   1   1.397
   2 str   3   2   1.388
   3 str   4   3   1.418
   4 str   5   4   1.466
   5 str   6   5   1.418
   6 str   7   6   1.379
   7 str   8   7   1.423
   8 str   9   8   1.451
   9 str  10   9   1.426
  10 str  11  10   1.376
  11 str  12  11   1.420
  12 str  13  12   1.441
  13 str  14  13   1.371
  14 str  15  14   1.320
  15 str  16  15   1.400
  16 str  17  16   1.400
  17 str  18  13   1.371
  18 str  18  17   1.320
  19 str  19  12   1.420
  20 str  20   9   1.426
  21 str  20  19   1.376
  22 str  21   8   1.423
  23 str  22   5   1.418
  24 str  22  21   1.379
  25 str  23   4   1.418
  26 str  24   1   1.397
  27 str  24  23   1.388
  28 str  25   1   1.084
  29 str  26   2   1.086
  30 str  27   3   1.083
  31 str  28   6   1.084
  32 str  29   7   1.083
  33 str  30  10   1.084
  34 str  31  11   1.083
  35 str  32  15   1.091
  36 str  33  16   1.083
  37 str  34  17   1.091
  38 str  35  19   1.083
  39 str  36  20   1.084
  40 str  37  21   1.083
  41 str  38  22   1.084
  42 str  39  23   1.083
  43 str  40  24   1.086
 nber stretches=          43
  44 ben   1   2   3
  45 prop tor   1   2   3   4
  46 prop tor   1   2   3  27
  47 ben   1   2  26
  48 ben   1  24  23
  49 ben   1  24  40
  50 ben   2   1  24
  51 prop tor   2   1  24  23
  52 prop tor   2   1  24  40
  53 ben   2   1  25
  54 ben   2   3   4
  55 prop tor   2   3   4   5
  56 prop tor   2   3   4  23
  57 ben   2   3  27
  58 ben   3   2  26
  59 ben   3   4   5
  60 prop tor   3   4   5   6
  61 prop tor   3   4   5  22
  62 ben   3   4  23
  63 prop tor   3   4  23  24
  64 prop tor   3   4  23  39
  65 ben   4   3  27
  66 ben   4   5   6
  67 prop tor   4   5   6   7
  68 prop tor   4   5   6  28
  69 ben   4   5  22
  70 prop tor   4   5  22  21
  71 prop tor   4   5  22  38
  72 ben   4  23  24
  73 prop tor   4  23  24   1
  74 prop tor   4  23  24  40
  75 ben   4  23  39
  76 ben   5   4  23
  77 prop tor   5   4  23  24
  78 prop tor   5   4  23  39
  79 ben   5   6   7
  80 prop tor   5   6   7   8
  81 prop tor   5   6   7  29
  82 ben   5   6  28
  83 ben   5  22  21
  84 ben   5  22  38
  85 ben   6   5  22
  86 prop tor   6   5  22  21
  87 prop tor   6   5  22  38
  88 ben   6   7   8
  89 prop tor   6   7   8   9
  90 prop tor   6   7   8  21
  91 ben   6   7  29
  92 ben   7   6  28
  93 ben   7   8   9
  94 prop tor   7   8   9  10
  95 prop tor   7   8   9  20
  96 ben   7   8  21
  97 prop tor   7   8  21  22
  98 prop tor   7   8  21  37
  99 ben   8   7  29
 100 ben   8   9  10
 101 prop tor   8   9  10  11
 102 prop tor   8   9  10  30
 103 ben   8   9  20
 104 prop tor   8   9  20  19
 105 prop tor   8   9  20  36
 106 ben   8  21  22
 107 prop tor   8  21  22   5
 108 prop tor   8  21  22  38
 109 ben   8  21  37
 110 ben   9   8  21
 111 prop tor   9   8  21  22
 112 prop tor   9   8  21  37
 113 ben   9  10  11
 114 prop tor   9  10  11  12
 115 prop tor   9  10  11  31
 116 ben   9  10  30
 117 ben   9  20  19
 118 ben   9  20  36
 119 ben  10   9  20
 120 prop tor  10   9  20  19
 121 prop tor  10   9  20  36
 122 ben  10  11  12
 123 prop tor  10  11  12  13
 124 prop tor  10  11  12  19
 125 ben  10  11  31
 126 ben  11  10  30
 127 ben  11  12  13
 128 prop tor  11  12  13  14
 129 prop tor  11  12  13  18
 130 ben  11  12  19
 131 prop tor  11  12  19  20
 132 prop tor  11  12  19  35
 133 ben  12  11  31
 134 ben  12  13  14
 135 prop tor  12  13  14  15
 136 ben  12  13  18
 137 prop tor  12  13  18  17
 138 ben  12  19  20
 139 prop tor  12  19  20   9
 140 prop tor  12  19  20  36
 141 ben  12  19  35
 142 ben  13  12  19
 143 prop tor  13  12  19  20
 144 prop tor  13  12  19  35
 145 ben  13  14  15
 146 prop tor  13  14  15  16
 147 prop tor  13  14  15  32
 148 ben  13  18  17
 149 ben  14  13  18
 150 prop tor  14  13  18  17
 151 ben  14  15  16
 152 prop tor  14  15  16  17
 153 prop tor  14  15  16  33
 154 ben  14  15  32
 155 ben  15  16  17
 156 prop tor  15  16  17  18
 157 prop tor  15  16  17  34
 158 ben  15  16  33
 159 ben  16  15  32
 160 ben  16  17  18
 161 prop tor  16  17  18  13
 162 ben  16  17  34
 163 ben  17  16  33
 164 prop tor  18  13  14  15
 165 ben  18  17  34
 166 prop tor  19  12  13  14
 167 prop tor  19  12  13  18
 168 ben  19  20  36
 169 prop tor  20   9  10  11
 170 prop tor  20   9  10  30
 171 ben  20  19  35
 172 prop tor  21   8   9  10
 173 prop tor  21   8   9  20
 174 ben  21  22  38
 175 prop tor  22   5   6   7
 176 prop tor  22   5   6  28
 177 ben  22  21  37
 178 prop tor  23   4   5   6
 179 prop tor  23   4   5  22
 180 ben  23  24  40
 181 prop tor  24   1   2   3
 182 prop tor  24   1   2  26
 183 ben  24   1  25
 184 ben  24  23  39
 185 prop tor  25   1   2   3
 186 prop tor  25   1   2  26
 187 prop tor  25   1  24  23
 188 prop tor  25   1  24  40
 189 prop tor  26   2   3   4
 190 prop tor  26   2   3  27
 191 prop tor  27   3   4   5
 192 prop tor  27   3   4  23
 193 prop tor  28   6   7   8
 194 prop tor  28   6   7  29
 195 prop tor  29   7   8   9
 196 prop tor  29   7   8  21
 197 prop tor  30  10  11  12
 198 prop tor  30  10  11  31
 199 prop tor  31  11  12  13
 200 prop tor  31  11  12  19
 201 prop tor  32  15  16  17
 202 prop tor  32  15  16  33
 203 prop tor  33  16  17  18
 204 prop tor  33  16  17  34
 205 prop tor  34  17  18  13
 206 prop tor  35  19  20   9
 207 prop tor  35  19  20  36
 208 prop tor  37  21  22   5
 209 prop tor  37  21  22  38
 210 prop tor  39  23  24   1
 211 prop tor  39  23  24  40
 nber bend=              68
 nber lin bend=           0
 nber prop tor=         100
 nber impr tor=           0
 nber tot redund int=         211
 Eigenvalues of G in red int coords
    Gval -0.00000000 -0.00000000 -0.00000000 -0.00000000 -0.00000000 -0.00000000 -0.00000000 -0.00000000
    Gval -0.00000000 -0.00000000 -0.00000000 -0.00000000 -0.00000000 -0.00000000 -0.00000000 -0.00000000
    Gval -0.00000000 -0.00000000 -0.00000000 -0.00000000 -0.00000000 -0.00000000 -0.00000000 -0.00000000
    Gval -0.00000000 -0.00000000 -0.00000000 -0.00000000 -0.00000000 -0.00000000 -0.00000000 -0.00000000
    Gval -0.00000000 -0.00000000 -0.00000000 -0.00000000 -0.00000000 -0.00000000 -0.00000000 -0.00000000
    Gval -0.00000000 -0.00000000 -0.00000000 -0.00000000 -0.00000000 -0.00000000 -0.00000000 -0.00000000
    Gval  0.00000000  0.00000000  0.00000000  0.00000000  0.00000000  0.00000000  0.00000000  0.00000000
    Gval  0.00000000  0.00000000  0.00000000  0.00000000  0.00000000  0.00000000  0.00000000  0.00000000
    Gval  0.00000000  0.00000000  0.00000000  0.00000000  0.00000000  0.00000000  0.00000000  0.00000000
    Gval  0.00000000  0.00000000  0.00000000  0.00000000  0.00000000  0.00000000  0.00000000  0.00000000
    Gval  0.00000000  0.00000000  0.00000000  0.00000000  0.00000000  0.00000000  0.00000000  0.00000000
    Gval  0.00000000  0.00000000  0.00000000  0.00000000  0.00000000  0.00000000  0.00000000  0.00000000
    Gval  0.00000000  0.00000049  0.00000201  0.00000203  0.00000297  0.00000773  0.00000838  0.00001281
    Gval  0.00001412  0.00001531  0.00002038  0.00002797  0.00003004  0.00004242  0.00004528  0.00004557
    Gval  0.00004905  0.00005079  0.00005292  0.00005566  0.00005645  0.00005835  0.00005904  0.00006689
    Gval  0.00006763  0.00007826  0.00008205  0.00009193  0.00010006  0.00010692  0.00010981  0.00011676
    Gval  0.00011695  0.00011758  0.00012070  0.00012233  0.00012833  0.00013310  0.00017367  0.00021704
    Gval  0.00023631  0.00025245  0.00025786  0.00026760  0.00028404  0.00028446  0.00030124  0.00034698
    Gval  0.00035941  0.00037730  0.00038823  0.00039814  0.00040040  0.00042109  0.00043868  0.00052908
    Gval  0.00054876  0.00058457  0.00059308  0.00059339  0.00059360  0.00059650  0.00059665  0.00059856
    Gval  0.00059951  0.00059983  0.00060380  0.00060444  0.00062332  0.00063423  0.00064025  0.00064150
    Gval  0.00064442  0.00064785  0.00064998  0.00066030  0.00073760  0.00091204  0.00103903  0.00105585
    Gval  0.00106506  0.00107330  0.00107719  0.00110311  0.00110485  0.00110696  0.00111899  0.00113747
    Gval  0.00114783  0.00115126  0.00116404  0.00116625  0.00116770  0.00117059  0.00117083  0.00139840
    Gval  0.00142496  0.00143044  0.00157703  0.00174274  0.00195492  0.00221861  0.00231396  0.00232678
    Gval  0.00233977  0.00238831  0.00266775  0.00314186  0.00354849  0.00363560  0.00363741  0.00368045
    Gval  0.00368702  0.00373237  0.00406025
  4.935858074372726E-007  4.935858074372726E-007
  2.012869811205836E-006  4.935858074372726E-007
  2.030017460429546E-006  4.935858074372726E-007
  2.969922601627009E-006  4.935858074372726E-007
  7.727209443929199E-006  4.935858074372726E-007
  8.380225702258281E-006  4.935858074372726E-007
  1.281378129598846E-005  4.935858074372726E-007
  1.412101168548149E-005  4.935858074372726E-007
  1.531413351392177E-005  4.935858074372726E-007
  2.038053371171286E-005  4.935858074372726E-007
  2.797412400411000E-005  4.935858074372726E-007
  3.004378212964886E-005  4.935858074372726E-007
  4.242476067289684E-005  4.935858074372726E-007
  4.528487084073288E-005  4.935858074372726E-007
  4.556772548014187E-005  4.935858074372726E-007
  4.904902406065332E-005  4.935858074372726E-007
  5.078799015357109E-005  4.935858074372726E-007
  5.292203770873699E-005  4.935858074372726E-007
  5.565539517942240E-005  4.935858074372726E-007
  5.645498728030057E-005  4.935858074372726E-007
  5.834936742095915E-005  4.935858074372726E-007
  5.903962164693213E-005  4.935858074372726E-007
  6.689436485070672E-005  4.935858074372726E-007
  6.763397056821938E-005  4.935858074372726E-007
  7.825535629041452E-005  4.935858074372726E-007
  8.205360285089549E-005  4.935858074372726E-007
  9.193426508327520E-005  4.935858074372726E-007
  1.000581254093696E-004  4.935858074372726E-007
  1.069245138448038E-004  4.935858074372726E-007
  1.098143266159036E-004  4.935858074372726E-007
  1.167605703283482E-004  4.935858074372726E-007
  1.169510393278124E-004  4.935858074372726E-007
  1.175832081798882E-004  4.935858074372726E-007
  1.206984978358945E-004  4.935858074372726E-007
  1.223273858496420E-004  4.935858074372726E-007
  1.283252868647132E-004  4.935858074372726E-007
  1.330967405741130E-004  4.935858074372726E-007
  1.736730658793537E-004  4.935858074372726E-007
  2.170441758822518E-004  4.935858074372726E-007
  2.363112885697903E-004  4.935858074372726E-007
  2.524538700424102E-004  4.935858074372726E-007
  2.578643095580865E-004  4.935858074372726E-007
  2.676042558364559E-004  4.935858074372726E-007
  2.840378227566504E-004  4.935858074372726E-007
  2.844585225156445E-004  4.935858074372726E-007
  3.012401334539492E-004  4.935858074372726E-007
  3.469835353677939E-004  4.935858074372726E-007
  3.594100440873317E-004  4.935858074372726E-007
  3.773041495114006E-004  4.935858074372726E-007
  3.882320602167494E-004  4.935858074372726E-007
  3.981412766949869E-004  4.935858074372726E-007
  4.003967483563023E-004  4.935858074372726E-007
  4.210855795081427E-004  4.935858074372726E-007
  4.386842905058340E-004  4.935858074372726E-007
  5.290790613701597E-004  4.935858074372726E-007
  5.487637760076885E-004  4.935858074372726E-007
  5.845672365663469E-004  4.935858074372726E-007
  5.930792123126069E-004  4.935858074372726E-007
  5.933914620108455E-004  4.935858074372726E-007
  5.935999151677902E-004  4.935858074372726E-007
  5.964950685543856E-004  4.935858074372726E-007
  5.966490054763075E-004  4.935858074372726E-007
  5.985594711333662E-004  4.935858074372726E-007
  5.995101450835757E-004  4.935858074372726E-007
  5.998319494742474E-004  4.935858074372726E-007
  6.037953832250767E-004  4.935858074372726E-007
  6.044428155811913E-004  4.935858074372726E-007
  6.233207630361922E-004  4.935858074372726E-007
  6.342288550173201E-004  4.935858074372726E-007
  6.402456344012634E-004  4.935858074372726E-007
  6.414995976520182E-004  4.935858074372726E-007
  6.444232518558907E-004  4.935858074372726E-007
  6.478510483112588E-004  4.935858074372726E-007
  6.499838238861027E-004  4.935858074372726E-007
  6.603033027898957E-004  4.935858074372726E-007
  7.376024902424937E-004  4.935858074372726E-007
  9.120367422941080E-004  4.935858074372726E-007
  1.039034248866666E-003  4.935858074372726E-007
  1.055853738126832E-003  4.935858074372726E-007
  1.065064630058323E-003  4.935858074372726E-007
  1.073299752329946E-003  4.935858074372726E-007
  1.077190141341590E-003  4.935858074372726E-007
  1.103111426415664E-003  4.935858074372726E-007
  1.104848528876652E-003  4.935858074372726E-007
  1.106957178186529E-003  4.935858074372726E-007
  1.118990039953416E-003  4.935858074372726E-007
  1.137474855872156E-003  4.935858074372726E-007
  1.147827774597724E-003  4.935858074372726E-007
  1.151263393374002E-003  4.935858074372726E-007
  1.164040734522577E-003  4.935858074372726E-007
  1.166247406449200E-003  4.935858074372726E-007
  1.167700561117088E-003  4.935858074372726E-007
  1.170591577995215E-003  4.935858074372726E-007
  1.170825638719110E-003  4.935858074372726E-007
  1.398401552289885E-003  4.935858074372726E-007
  1.424964890670127E-003  4.935858074372726E-007
  1.430443585152052E-003  4.935858074372726E-007
  1.577033335117918E-003  4.935858074372726E-007
  1.742738404680179E-003  4.935858074372726E-007
  1.954924713675379E-003  4.935858074372726E-007
  2.218605650332076E-003  4.935858074372726E-007
  2.313960424984518E-003  4.935858074372726E-007
  2.326776511048485E-003  4.935858074372726E-007
  2.339771956772227E-003  4.935858074372726E-007
  2.388305516299013E-003  4.935858074372726E-007
  2.667747915541802E-003  4.935858074372726E-007
  3.141858331669782E-003  4.935858074372726E-007
  3.548494574666153E-003  4.935858074372726E-007
  3.635596058462568E-003  4.935858074372726E-007
  3.637414185150210E-003  4.935858074372726E-007
  3.680450751834527E-003  4.935858074372726E-007
  3.687019846548815E-003  4.935858074372726E-007
  3.732372103453521E-003  4.935858074372726E-007
  4.060253635272393E-003  4.935858074372726E-007
 cut=1d-8, nber non-redundant internal coords=         114
 Check on Eigenvals of non-red overlap matrix:
  0.00000049  0.00000201  0.00000203  0.00000297  0.00000773  0.00000838  0.00001281  0.00001412
  0.00001531  0.00002038  0.00002797  0.00003004  0.00004242  0.00004528  0.00004557  0.00004905
  0.00005079  0.00005292  0.00005566  0.00005645  0.00005835  0.00005904  0.00006689  0.00006763
  0.00007826  0.00008205  0.00009193  0.00010006  0.00010692  0.00010981  0.00011676  0.00011695
  0.00011758  0.00012070  0.00012233  0.00012833  0.00013310  0.00017367  0.00021704  0.00023631
  0.00025245  0.00025786  0.00026760  0.00028404  0.00028446  0.00030124  0.00034698  0.00035941
  0.00037730  0.00038823  0.00039814  0.00040040  0.00042109  0.00043868  0.00052908  0.00054876
  0.00058457  0.00059308  0.00059339  0.00059360  0.00059650  0.00059665  0.00059856  0.00059951
  0.00059983  0.00060380  0.00060444  0.00062332  0.00063423  0.00064025  0.00064150  0.00064442
  0.00064785  0.00064998  0.00066030  0.00073760  0.00091204  0.00103903  0.00105585  0.00106506
  0.00107330  0.00107719  0.00110311  0.00110485  0.00110696  0.00111899  0.00113747  0.00114783
  0.00115126  0.00116404  0.00116625  0.00116770  0.00117059  0.00117083  0.00139840  0.00142496
  0.00143044  0.00157703  0.00174274  0.00195492  0.00221861  0.00231396  0.00232678  0.00233977
  0.00238831  0.00266775  0.00314186  0.00354849  0.00363560  0.00363741  0.00368045  0.00368702
  0.00373237  0.00406025
 Checking for correct frequencies
 recalc frequencies=
   -71.0  -30.7   -0.0   -0.0   -0.0    0.0    0.0    0.0   21.0   56.2
    57.1   80.3  111.9  132.6  150.2  172.3  219.4  232.7  302.3  336.4
   373.3  407.6  412.0  420.5  425.0  434.1  443.6  482.8  483.2  486.1
   524.0  534.5  627.7  629.6  639.1  652.2  664.7  686.8  694.0  707.6
   720.1  743.5  752.0  755.1  772.0  790.3  794.0  801.0  815.2  818.8
   833.3  862.8  914.5  923.7  947.6  950.3  958.5  969.6  974.4  978.3
   978.8  993.4 1004.8 1006.5 1009.3 1032.5 1050.7 1054.8 1084.5 1085.3
  1101.3 1135.1 1152.6 1173.1 1198.9 1205.6 1207.8 1237.8 1285.4 1290.5
  1292.7 1309.3 1330.7 1331.0 1334.1 1348.1 1363.4 1384.7 1438.4 1444.5
  1459.8 1467.8 1481.8 1495.4 1502.1 1519.6 1526.4 1542.7 1552.6 1582.4
  1603.4 1627.4 1630.8 1651.6 3084.5 3084.9 3136.2 3142.4 3155.5 3155.7
  3165.0 3165.5 3171.7 3182.9 3184.7 3184.9 3190.3 3192.7 3193.0 3196.0
 recalc symmetries=
     A2     A2     A1     A2     B1     B1     B2     B2     B1     B1 
     B2     A2     B1     B2     B1     A1     B2     B1     B1     A1 
     B2     A2     B1     A2     A2     A2     B2     B1     B2     A1 
     B1     B1     A1     B2     B2     B2     B2     B1     A1     B1 
     B1     B1     A1     B1     A2     A1     B1     A2     B1     A2 
     B1     B1     A2     B1     A2     B1     B1     A2     B1     A2 
     A1     A1     A1     A1     A1     A1     A1     A1     A1     B2 
     B2     B2     B2     B2     A1     B2     A1     A1     B2     B2 
     B2     A1     B2     B2     A1     B2     B2     A1     A1     B2 
     B2     B2     B2     B2     A1     A1     B2     B2     A1     B2 
     A1     A1     A1     A1     B2     A1     A1     B2     A1     B2 
     B2     A1     A1     B2     A1     A1     B2     A1     B2     A1 
 recalc freqs check OK
 Zero-point lengths:
 29.4264 44.7686 10.0000 10.0000 10.0000 10.0000 10.0000 10.0000 54.0690 33.0718
 32.8203 27.6578 23.4374 21.5287 20.2254 18.8887 16.7385 16.2507 14.2582 13.5169
 12.8306 12.2796 12.2131 12.0893 12.0261 11.8983 11.7705 11.2825 11.2780 11.2441
 10.8299 10.7228  9.8954  9.8801  9.8064  9.7074  9.6154  9.4600  9.4105  9.3195
  9.2385  9.0921  9.0404  9.0219  8.9226  8.8184  8.7982  8.7597  8.6829  8.6640
  8.5878  8.4402  8.1981  8.1569  8.0535  8.0418  8.0075  7.9615  7.9418  7.9263
  7.9242  7.8656  7.8208  7.8143  7.8036  7.7153  7.6483  7.6332  7.5279  7.5253
  7.4703  7.3583  7.3022  7.2382  7.1597  7.1398  7.1334  7.0465  6.9147  6.9011
  6.8953  6.8512  6.7960  6.7951  6.7875  6.7520  6.7140  6.6623  6.5366  6.5228
  6.4885  6.4708  6.4402  6.4110  6.3965  6.3596  6.3454  6.3118  6.2917  6.2322
  6.1912  6.1454  6.1390  6.1002  4.4638  4.4635  4.4268  4.4225  4.4133  4.4131
  4.4066  4.4063  4.4020  4.3942  4.3930  4.3928  4.3891  4.3875  4.3873  4.3852
 highest evec of mol 2
  0.0000  0.0000  0.0204
  0.0000  0.0232  0.0152
  0.0000  0.0841 -0.0456
  0.0000  0.0000 -0.0037
  0.0000  0.0000  0.0034
  0.0000 -0.0625  0.0350
  0.0000 -0.0825 -0.0449
  0.0000  0.0000 -0.0044
  0.0000  0.0000  0.0041
  0.0000 -0.0717  0.0421
  0.0000 -0.0887 -0.0529
  0.0000  0.0000 -0.0044
  0.0000  0.0000 -0.0017
  0.0000  0.0008  0.0002
  0.0000  0.0001 -0.0004
  0.0000  0.0000  0.0014
  0.0000 -0.0001 -0.0004
  0.0000 -0.0008  0.0002
  0.0000  0.0887 -0.0529
  0.0000  0.0717  0.0421
  0.0000  0.0825 -0.0449
  0.0000  0.0625  0.0350
  0.0000 -0.0841 -0.0456
  0.0000 -0.0232  0.0152
  0.0000  0.0000 -0.0630
  0.0000 -0.0726 -0.0413
  0.0000 -0.2824  0.1546
  0.0000  0.2086 -0.1132
  0.0000  0.2763  0.1488
  0.0000  0.2415 -0.1327
  0.0000  0.2946  0.1677
  0.0000  0.0006  0.0004
  0.0000  0.0000 -0.0036
  0.0000 -0.0006  0.0004
  0.0000 -0.2946  0.1677
  0.0000 -0.2415 -0.1327
  0.0000 -0.2763  0.1488
  0.0000 -0.2086 -0.1132
  0.0000  0.2824  0.1546
  0.0000  0.0726 -0.0413
 Enter nber and list of atoms to keep of mol #2
 keep list:          40           1           2           3           4
           5           6           7           8           9          10
          11          12          13          14          15          16
          17          18          19          20          21          22
          23          24          25          26          27          28
          29          30          31          32          33          34
          35          36          37          38          39          40
 reordering atoms
           1   8.00658669201230     
           2   7.28791569201230     
           3   5.90013869201230     
           4   5.14340769201230     
           5   3.67769669201230     
           6   2.91216169201230     
           7   1.53353669201230     
           8  0.760940692012298     
           9 -0.689603307987702     
          10  -1.45686030798770     
          11  -2.83250230798770     
          12  -3.58197330798770     
          13  -5.02283130798770     
          14  -5.67525530798770     
          15  -6.99528330798770     
          16  -7.74727130798770     
          17  -6.99528330798770     
          18  -5.67525530798770     
          19  -2.83250230798770     
          20  -1.45686030798770     
          21   1.53353669201230     
          22   2.91216169201230     
          23   5.90013869201230     
          24   7.28791569201230     
          25   9.09085969201230     
          26   7.81710669201230     
          27   5.39188869201230     
          28   3.41210069201230     
          29   1.03247569201230     
          30 -0.951602307987702     
          31  -3.37494330798770     
          32  -7.49306430798770     
          33  -8.83003730798770     
          34  -7.49306430798770     
          35  -3.37494330798770     
          36 -0.951602307987702     
          37   1.03247569201230     
          38   3.41210069201230     
          39   5.39188869201230     
          40   7.81710669201230     
           1           1
           2           2
           3           3
           4           4
           5           5
           6           6
           7           7
           8           8
           9           9
          10          10
          11          11
          12          12
          13          13
          14          14
          15          15
          16          16
          17          17
          18          18
          19          19
          20          20
          21          21
          22          22
          23          23
          24          24
          25          25
          26          26
          27          27
          28          28
          29          29
          30          30
          31          31
          32          32
          33          33
          34          34
          35          35
          36          36
          37          37
          38          38
          39          39
          40          40
 initial cartes coords mol 1
   6   0.00000   0.00000   7.98151
   6   0.00000  -1.19924   7.27405
   6   0.00000  -1.19780   5.88353
   6   0.00000   0.00000   5.14731
   6   0.00000   0.00000   3.65749
   6   0.00000   1.18982   2.91175
   6   0.00000   1.19008   1.52499
   6   0.00000   0.00000   0.77914
   6   0.00000   0.00000  -0.70786
   6   0.00000   1.19711  -1.44720
   6   0.00000   1.20073  -2.83351
   6   0.00000   0.00000  -3.55360
   6   0.00000   0.00000  -5.03368
   7   0.00000   1.19197  -5.65604
   6   0.00000   1.17960  -6.98661
   6   0.00000   0.00000  -7.72398
   6   0.00000  -1.17960  -6.98661
   7   0.00000  -1.19197  -5.65604
   6   0.00000  -1.20073  -2.83351
   6   0.00000  -1.19711  -1.44720
   6   0.00000  -1.19008   1.52499
   6   0.00000  -1.18982   2.91175
   6   0.00000   1.19780   5.88353
   6   0.00000   1.19924   7.27405
   1   0.00000   0.00000   9.06534
   1   0.00000  -2.14436   7.80561
   1   0.00000  -2.15221   5.37432
   1   0.00000   2.14884   3.41278
   1   0.00000   2.14865   1.02365
   1   0.00000   2.15278  -0.94027
   1   0.00000   2.13535  -3.37881
   1   0.00000   2.14961  -7.47758
   1   0.00000   0.00000  -8.80631
   1   0.00000  -2.14961  -7.47758
   1   0.00000  -2.13535  -3.37881
   1   0.00000  -2.15278  -0.94027
   1   0.00000  -2.14865   1.02365
   1   0.00000  -2.14884   3.41278
   1   0.00000   2.15221   5.37432
   1   0.00000   2.14436   7.80561
 initial cartes coords mol 2
   6   0.00000  -0.00000   8.00659
   6   0.00000  -1.19755   7.28792
   6   0.00000  -1.19918   5.90014
   6   0.00000  -0.00000   5.14341
   6   0.00000  -0.00000   3.67770
   6   0.00000   1.19325   2.91216
   6   0.00000   1.19538   1.53354
   6   0.00000  -0.00000   0.76094
   6   0.00000  -0.00000  -0.68960
   6   0.00000   1.20243  -1.45686
   6   0.00000   1.20569  -2.83250
   6   0.00000  -0.00000  -3.58197
   6   0.00000  -0.00000  -5.02283
   7   0.00000   1.20562  -5.67526
   6   0.00000   1.18048  -6.99528
   6   0.00000  -0.00000  -7.74727
   6   0.00000  -1.18048  -6.99528
   7   0.00000  -1.20562  -5.67526
   6   0.00000  -1.20569  -2.83250
   6   0.00000  -1.20243  -1.45686
   6   0.00000  -1.19538   1.53354
   6   0.00000  -1.19325   2.91216
   6   0.00000   1.19918   5.90014
   6   0.00000   1.19755   7.28792
   1   0.00000  -0.00000   9.09086
   1   0.00000  -2.14616   7.81711
   1   0.00000  -2.15497   5.39189
   1   0.00000   2.15498   3.41210
   1   0.00000   2.15553   1.03248
   1   0.00000   2.16093  -0.95160
   1   0.00000   2.14312  -3.37494
   1   0.00000   2.15150  -7.49306
   1   0.00000  -0.00000  -8.83004
   1   0.00000  -2.15150  -7.49306
   1   0.00000  -2.14312  -3.37494
   1   0.00000  -2.16093  -0.95160
   1   0.00000  -2.15553   1.03248
   1   0.00000  -2.15498   3.41210
   1   0.00000   2.15497   5.39189
   1   0.00000   2.14616   7.81711
 loop 1 0
 mod cartes coords mol 2
   6   0.00000  -0.00000   8.00659
   6   0.00000  -1.19755   7.28792
   6   0.00000  -1.19918   5.90014
   6   0.00000  -0.00000   5.14341
   6   0.00000  -0.00000   3.67770
   6   0.00000   1.19325   2.91216
   6   0.00000   1.19538   1.53354
   6   0.00000  -0.00000   0.76094
   6   0.00000  -0.00000  -0.68960
   6   0.00000   1.20243  -1.45686
   6   0.00000   1.20569  -2.83250
   6   0.00000  -0.00000  -3.58197
   6   0.00000  -0.00000  -5.02283
   7   0.00000   1.20562  -5.67526
   6   0.00000   1.18048  -6.99528
   6   0.00000  -0.00000  -7.74727
   6   0.00000  -1.18048  -6.99528
   7   0.00000  -1.20562  -5.67526
   6   0.00000  -1.20569  -2.83250
   6   0.00000  -1.20243  -1.45686
   6   0.00000  -1.19538   1.53354
   6   0.00000  -1.19325   2.91216
   6   0.00000   1.19918   5.90014
   6   0.00000   1.19755   7.28792
   1   0.00000  -0.00000   9.09086
   1   0.00000  -2.14616   7.81711
   1   0.00000  -2.15497   5.39189
   1   0.00000   2.15498   3.41210
   1   0.00000   2.15553   1.03248
   1   0.00000   2.16093  -0.95160
   1   0.00000   2.14312  -3.37494
   1   0.00000   2.15150  -7.49306
   1   0.00000  -0.00000  -8.83004
   1   0.00000  -2.15150  -7.49306
   1   0.00000  -2.14312  -3.37494
   1   0.00000  -2.16093  -0.95160
   1   0.00000  -2.15553   1.03248
   1   0.00000  -2.15498   3.41210
   1   0.00000   2.15497   5.39189
   1   0.00000   2.14616   7.81711
 read in order, maxerr=  0.03 for atom  12
 final axis swaps:           1           1           1
 final xyz swap pattern=           1
 reorder list:
   1   2   3   4   5   6   7   8   9  10  11  12  13  14  15  16  17  18  19  20
  21  22  23  24  25  26  27  28  29  30  31  32  33  34  35  36  37  38  39  40
 axis signs=           1           1           1
  6     0.000000 -0.000000  8.006587     0.000000  0.000000  7.981509
  6     0.000000 -1.197546  7.287916     0.000000 -1.199243  7.274050
  6     0.000000 -1.199185  5.900139     0.000000 -1.197796  5.883532
  6     0.000000 -0.000000  5.143408     0.000000  0.000000  5.147308
  6     0.000000 -0.000000  3.677697     0.000000  0.000000  3.657486
  6     0.000000  1.193246  2.912162     0.000000  1.189825  2.911746
  6     0.000000  1.195384  1.533537     0.000000  1.190076  1.524994
  6     0.000000 -0.000000  0.760941     0.000000  0.000000  0.779135
  6     0.000000 -0.000000 -0.689603     0.000000  0.000000 -0.707865
  6     0.000000  1.202435 -1.456860     0.000000  1.197115 -1.447199
  6     0.000000  1.205692 -2.832502     0.000000  1.200727 -2.833515
  6     0.000000 -0.000000 -3.581973     0.000000  0.000000 -3.553602
  6     0.000000 -0.000000 -5.022831     0.000000  0.000000 -5.033680
  7     0.000000  1.205618 -5.675255     0.000000  1.191967 -5.656042
  6     0.000000  1.180484 -6.995283     0.000000  1.179603 -6.986608
  6     0.000000 -0.000000 -7.747271     0.000000  0.000000 -7.723976
  6     0.000000 -1.180484 -6.995283     0.000000 -1.179603 -6.986608
  7     0.000000 -1.205618 -5.675255     0.000000 -1.191967 -5.656042
  6     0.000000 -1.205692 -2.832502     0.000000 -1.200727 -2.833515
  6     0.000000 -1.202435 -1.456860     0.000000 -1.197115 -1.447199
  6     0.000000 -1.195384  1.533537     0.000000 -1.190076  1.524994
  6     0.000000 -1.193246  2.912162     0.000000 -1.189825  2.911746
  6     0.000000  1.199185  5.900139     0.000000  1.197796  5.883532
  6     0.000000  1.197546  7.287916     0.000000  1.199243  7.274050
  1     0.000000 -0.000000  9.090860     0.000000  0.000000  9.065343
  1     0.000000 -2.146161  7.817107     0.000000 -2.144358  7.805609
  1     0.000000 -2.154975  5.391889     0.000000 -2.152211  5.374319
  1     0.000000  2.154985  3.412101     0.000000  2.148844  3.412781
  1     0.000000  2.155532  1.032476     0.000000  2.148645  1.023646
  1     0.000000  2.160934 -0.951602     0.000000  2.152775 -0.940269
  1     0.000000  2.143120 -3.374943     0.000000  2.135354 -3.378814
  1     0.000000  2.151502 -7.493064     0.000000  2.149614 -7.477582
  1     0.000000 -0.000000 -8.830037     0.000000  0.000000 -8.806310
  1     0.000000 -2.151502 -7.493064     0.000000 -2.149614 -7.477582
  1     0.000000 -2.143120 -3.374943     0.000000 -2.135354 -3.378814
  1     0.000000 -2.160934 -0.951602     0.000000 -2.152775 -0.940269
  1     0.000000 -2.155532  1.032476     0.000000 -2.148645  1.023646
  1     0.000000 -2.154985  3.412101     0.000000 -2.148844  3.412781
  1     0.000000  2.154975  5.391889     0.000000  2.152211  5.374319
  1     0.000000  2.146161  7.817107     0.000000  2.144358  7.805609
 generating redundant internal coords
         300        3600          40
 Adding extra bonds for z output only
           6           6           6           6           6           6
           6           6           6           6           6           6
           6           7           6           6           6           7
           6           6           6           6           6           6
           1           1           1           1           1           1
           1           1           1           1           1           1
           1           1           1           1
 search for int coords
   1 str   2   1   1.397
   2 str   3   2   1.388
   3 str   4   3   1.418
   4 str   5   4   1.466
   5 str   6   5   1.418
   6 str   7   6   1.379
   7 str   8   7   1.423
   8 str   9   8   1.451
   9 str  10   9   1.426
  10 str  11  10   1.376
  11 str  12  11   1.420
  12 str  13  12   1.441
  13 str  14  13   1.371
  14 str  15  14   1.320
  15 str  16  15   1.400
  16 str  17  16   1.400
  17 str  18  13   1.371
  18 str  18  17   1.320
  19 str  19  12   1.420
  20 str  20   9   1.426
  21 str  20  19   1.376
  22 str  21   8   1.423
  23 str  22   5   1.418
  24 str  22  21   1.379
  25 str  23   4   1.418
  26 str  24   1   1.397
  27 str  24  23   1.388
  28 str  25   1   1.084
  29 str  26   2   1.086
  30 str  27   3   1.083
  31 str  28   6   1.084
  32 str  29   7   1.083
[...]
  96 A1   1571. -0.9824    96.5    99.7  99 A1   1553.
  97 B2   1580. -0.3821    14.6    99.5  90 B2   1444.
                 0.7112    50.6          94 B2   1495.
                 0.4379    19.2          97 B2   1526.
  98 B2   1596. -0.3498    12.2    99.7  94 B2   1495.
                 0.7325    53.7          97 B2   1526.
                 0.4407    19.4          98 B2   1543.
  99 A1   1614.  0.7148    51.1   100.0 101 A1   1603.
                 0.5350    28.6         102 A1   1627.
                 0.4229    17.9         103 A1   1631.
 100 B2   1614. -0.4285    18.4    99.8  97 B2   1526.
                 0.8326    69.3          98 B2   1543.
 101 B2   1623. -0.9572    91.6    99.8 100 B2   1582.
 102 A1   1638. -0.6302    39.7   100.0 101 A1   1603.
                 0.7071    50.0         102 A1   1627.
 103 A1   1647.  0.4475    20.0   100.1 102 A1   1627.
                -0.8656    74.9         103 A1   1631.
 104 A1   1659.  0.9836    96.7   100.1 104 A1   1652.
 105 A1   3142.  0.9984    99.7   100.0 106 A1   3085.
 106 B2   3144. -0.9999   100.0   100.0 105 B2   3084.
 107 A1   3162.  0.9877    97.6   100.0 107 A1   3136.
 108 B2   3170.  0.9966    99.3   100.0 108 B2   3142.
 109 A1   3181.  0.9461    89.5   100.0 109 A1   3155.
 110 B2   3183. -0.9899    98.0   100.0 110 B2   3156.
 111 A1   3186.  0.5966    35.6   100.0 112 A1   3165.
                -0.7334    53.8         113 A1   3172.
 112 B2   3191.  0.9596    92.1   100.0 111 B2   3165.
 113 A1   3192. -0.7644    58.4   100.0 112 A1   3165.
                -0.6028    36.3         113 A1   3172.
 114 B2   3201. -0.9293    86.4   100.0 114 B2   3183.
 115 A1   3202. -0.8561    73.3   100.0 115 A1   3185.
                -0.5083    25.8         116 A1   3185.
 116 A1   3202.  0.4632    21.5   100.0 115 A1   3185.
                -0.8270    68.4         116 A1   3185.
 117 B2   3207.  0.9445    89.2   100.0 117 B2   3190.
 118 A1   3209. -0.9442    89.2   100.0 118 A1   3193.
 119 B2   3212.  0.9622    92.6   100.0 119 B2   3193.
 120 A1   3214. -0.9627    92.7   100.0 120 A1   3196.
 nber times 1st assigned=           1           0
 nber times 1st assigned=           2           0
 nber times 1st assigned=           3           0
 nber times 1st assigned=           4           0
 nber times 1st assigned=           5           0
 nber times 1st assigned=           6           0
 nber times 1st assigned=           7           0
 nber times 1st assigned=           8           0
 nber times 1st assigned=           9           0
 nber times 1st assigned=          10           0
 nber times 1st assigned=          11           0
 nber times 1st assigned=          12           0
 nber times 1st assigned=          13           0
 nber times 1st assigned=          14           0
 nber times 1st assigned=          15           0
 nber times 1st assigned=          16           0
 nber times 1st assigned=          17           0
 nber times 1st assigned=          18           0
 nber times 1st assigned=          19           0
 nber times 1st assigned=          20           0
 nber times 1st assigned=          21           0
 nber times 1st assigned=          22           0
 nber times 1st assigned=          23           0
 nber times 1st assigned=          24           0
 nber times 1st assigned=          25           0
 nber times 1st assigned=          26           0
 nber times 1st assigned=          27           0
 nber times 1st assigned=          28           0
 nber times 1st assigned=          29           0
 nber times 1st assigned=          30           0
 nber times 1st assigned=          31           0
 nber times 1st assigned=          32           0
 nber times 1st assigned=          33           0
 nber times 1st assigned=          34           0
 nber times 1st assigned=          35           0
 nber times 1st assigned=          36           0
 nber times 1st assigned=          37           0
 nber times 1st assigned=          38           0
 nber times 1st assigned=          39           0
 nber times 1st assigned=          40           0
 nber times 1st assigned=          41           0
 nber times 1st assigned=          42           0
 nber times 1st assigned=          43           0
 nber times 1st assigned=          44           0
 nber times 1st assigned=          45           0
 nber times 1st assigned=          46           0
 nber times 1st assigned=          47           0
 nber times 1st assigned=          48           0
 nber times 1st assigned=          49           0
 nber times 1st assigned=          50           0
 nber times 1st assigned=          51           0
 nber times 1st assigned=          52           0
 nber times 1st assigned=          53           0
 nber times 1st assigned=          54           0
 nber times 1st assigned=          55           0
 nber times 1st assigned=          56           0
 nber times 1st assigned=          57           0
 nber times 1st assigned=          58           0
 nber times 1st assigned=          59           0
 nber times 1st assigned=          60           0
 nber times 1st assigned=          61           0
 nber times 1st assigned=          62           0
 nber times 1st assigned=          63           0
 nber times 1st assigned=          64           0
 nber times 1st assigned=          65           0
 nber times 1st assigned=          66           0
 nber times 1st assigned=          67           0
 nber times 1st assigned=          68           0
 nber times 1st assigned=          69           0
 nber times 1st assigned=          70           0
 nber times 1st assigned=          71           0
 nber times 1st assigned=          72           0
 nber times 1st assigned=          73           0
 nber times 1st assigned=          74           0
 nber times 1st assigned=          75           0
 nber times 1st assigned=          76           0
 nber times 1st assigned=          77           0
 nber times 1st assigned=          78           0
 nber times 1st assigned=          79           0
 nber times 1st assigned=          80           0
 nber times 1st assigned=          81           0
 nber times 1st assigned=          82           0
 nber times 1st assigned=          83           0
 nber times 1st assigned=          84           0
 nber times 1st assigned=          85           0
 nber times 1st assigned=          86           0
 nber times 1st assigned=          87           0
 nber times 1st assigned=          88           0
 nber times 1st assigned=          89           0
 nber times 1st assigned=          90           0
 nber times 1st assigned=          91           0
 nber times 1st assigned=          92           0
 nber times 1st assigned=          93           0
 nber times 1st assigned=          94           0
 nber times 1st assigned=          95           0
 nber times 1st assigned=          96           0
 nber times 1st assigned=          97           0
 nber times 1st assigned=          98           0
 nber times 1st assigned=          99           0
 nber times 1st assigned=         100           0
 nber times 1st assigned=         101           0
 nber times 1st assigned=         102           0
 nber times 1st assigned=         103           0
 nber times 1st assigned=         104           0
 nber times 1st assigned=         105           0
 nber times 1st assigned=         106           0
 nber times 1st assigned=         107           0
 nber times 1st assigned=         108           0
 nber times 1st assigned=         109           0
 nber times 1st assigned=         110           0
 nber times 1st assigned=         111           0
 nber times 1st assigned=         112           0
 nber times 1st assigned=         113           0
 nber times 1st assigned=         114           0
 nber times 1st assigned=         115           0
 nber times 1st assigned=         116           0
 nber times 1st assigned=         117           0
 nber times 1st assigned=         118           0
 nber times 1st assigned=         119           0
 nber times 1st assigned=         120           0
 modes represented=   113.980100452843     
 p1=
    0.    0.   -0.   -0.   -0.   -0.    0.   -0.   -0.   -0.   -0.   -0.   -0.   -0.   -0.    8.   -0.   -0.   -0.   -1.
    0.    0.    0.    0.    0.    0.    0.   -1.    0.   -0.    0.    0.    0.   -1.   -0.    0.    0.    0.    0.   -0.
   -0.    1.    0.   -0.   -1.   -0.   -0.   -0.    0.   -0.    0.    0.   -0.    0.   -0.   -0.    0.    0.    0.    0.
    3.    1.    0.    1.   -1.    0.    1.    1.   -0.    0.   -1.   -0.   -0.   -0.    1.    1.   -0.   -3.   -0.   -2.
    0.   -1.    0.    0.   -0.    2.   -0.    0.   -0.    0.    3.    0.   -0.   -1.   -0.   -0.   -0.   -0.    3.    0.
    0.    3.    1.   -0.   -0.   -0.   -0.    0.   -0.   -0.    0.   -0.    0.    0.    0.   -0.   -0.   -0.    0.    0.
 p2=
    0.    0.    0.   -0.    0.    0.    0.   -0.    0.   -0.   -0.   -0.   -0.   -0.   -0.   -8.    0.    0.    0.   -1.
   -0.   -0.   -0.    0.   -0.    0.   -0.    0.   -0.    1.    0.   -0.   -1.   -0.    0.   -0.    0.   -0.    0.   -0.
    0.   -0.    1.   -0.   -0.    1.    0.   -0.    0.    0.   -0.   -0.    0.    0.    0.   -0.    0.    0.    0.   -0.
   -2.    1.    0.   -1.   -1.    1.    1.    1.   -1.    0.   -0.    0.    0.    0.    1.   -0.   -1.   -3.    0.    0.
   -0.   -1.   -0.   -0.    2.   -0.    0.   -1.    4.    0.   -0.   -0.    0.    0.   -2.   -0.   -0.    0.   -0.   -0.
   -0.   -5.   -1.    0.    0.    0.    0.   -0.    0.    0.    0.   -0.    0.    0.   -0.    0.   -0.   -0.   -0.    0.

 Displacement: in terms of nc of 1 THEN of nc of 2

   1 A2  freq=   -96. Q=  0.000 lam=    -0.0 A2  freq=   -71. Q=  0.000 lam=    -0.0
   2 A2  freq=   -53. Q=  0.000 lam=    -0.0 A2  freq=   -31. Q=  0.000 lam=    -0.0
   3 A2  freq=    -0. Q= -0.000 lam=    -0.0 A1  freq=    -0. Q= -0.000 lam=    -0.0
   4 B1  freq=     0. Q= -0.000 lam=     0.0 A2  freq=    -0. Q= -0.000 lam=    -0.0
   5 B1  freq=     0. Q= -0.000 lam=     0.0 B1  freq=    -0. Q= -0.000 lam=    -0.0
   6 A1  freq=     0. Q= -0.000 lam=     0.0 B1  freq=     0. Q= -0.000 lam=     0.0
   7 B2  freq=     0. Q=  0.000 lam=     0.0 B2  freq=     0. Q=  0.000 lam=     0.0
   8 B2  freq=     0. Q= -0.000 lam=     0.0 B2  freq=     0. Q= -0.000 lam=     0.0
   9 B1  freq=    22. Q= -0.000 lam=     0.0 B1  freq=    21. Q= -0.000 lam=     0.0
  10 A2  freq=    50. Q= -0.000 lam=     0.0 B1  freq=    56. Q= -0.000 lam=     0.0
  11 B2  freq=    58. Q= -0.000 lam=     0.0 B2  freq=    57. Q= -0.000 lam=     0.0
  12 B1  freq=    59. Q= -0.000 lam=     0.0 A2  freq=    80. Q= -0.000 lam=     0.0
  13 B1  freq=   120. Q= -0.000 lam=     0.0 B1  freq=   112. Q= -0.000 lam=     0.0
  14 B2  freq=   134. Q= -0.000 lam=     0.0 B2  freq=   133. Q= -0.000 lam=     0.0
  15 B1  freq=   168. Q= -0.000 lam=     0.0 B1  freq=   150. Q= -0.000 lam=     0.0
  16 A1  freq=   172. Q=  0.410 lam=    14.5 A1  freq=   172. Q=  0.437 lam=    16.5
  17 B2  freq=   223. Q= -0.000 lam=     0.0 B2  freq=   219. Q= -0.000 lam=     0.0
  18 B1  freq=   255. Q= -0.000 lam=     0.0 B1  freq=   233. Q= -0.000 lam=     0.0
  19 B1  freq=   336. Q= -0.000 lam=     0.0 B1  freq=   302. Q= -0.000 lam=     0.0
  20 A1  freq=   336. Q= -0.048 lam=     0.4 A1  freq=   336. Q= -0.040 lam=     0.3
  21 B2  freq=   371. Q=  0.000 lam=     0.0 B2  freq=   373. Q=  0.000 lam=     0.0
  22 A2  freq=   387. Q=  0.000 lam=     0.0 A2  freq=   408. Q=  0.000 lam=     0.0
  23 A2  freq=   407. Q=  0.000 lam=     0.0 B1  freq=   412. Q=  0.000 lam=     0.0
  24 A2  freq=   410. Q=  0.000 lam=     0.0 A2  freq=   421. Q=  0.000 lam=     0.0
  25 A2  freq=   418. Q=  0.000 lam=     0.0 A2  freq=   425. Q=  0.000 lam=     0.0
  26 B2  freq=   446. Q=  0.000 lam=     0.0 A2  freq=   434. Q=  0.000 lam=     0.0
  27 B1  freq=   454. Q=  0.000 lam=     0.0 B2  freq=   444. Q=  0.000 lam=     0.0
  28 A1  freq=   485. Q= -0.102 lam=     2.5 B1  freq=   483. Q= -0.000 lam=     0.0
  29 B2  freq=   488. Q=  0.000 lam=     0.0 B2  freq=   483. Q=  0.000 lam=     0.0
  30 B1  freq=   510. Q= -0.000 lam=     0.0 A1  freq=   486. Q= -0.108 lam=     2.8
  31 B1  freq=   555. Q=  0.000 lam=     0.0 B1  freq=   524. Q=  0.000 lam=     0.0
  32 B1  freq=   573. Q=  0.000 lam=     0.0 B1  freq=   535. Q=  0.000 lam=     0.0
  33 B2  freq=   631. Q=  0.000 lam=     0.0 A1  freq=   628. Q=  0.090 lam=     2.5
  34 A1  freq=   641. Q= -0.093 lam=     2.8 B2  freq=   630. Q= -0.000 lam=     0.0
  35 B2  freq=   642. Q= -0.000 lam=     0.0 B2  freq=   639. Q= -0.000 lam=     0.0
  36 B2  freq=   655. Q=  0.000 lam=     0.0 B2  freq=   652. Q=  0.000 lam=     0.0
  37 B2  freq=   668. Q=  0.000 lam=     0.0 B2  freq=   665. Q=  0.000 lam=     0.0
  38 B1  freq=   695. Q=  0.000 lam=     0.0 B1  freq=   687. Q=  0.000 lam=     0.0
  39 A1  freq=   708. Q=  0.021 lam=     0.2 A1  freq=   694. Q=  0.018 lam=     0.1
  40 B1  freq=   729. Q= -0.000 lam=     0.0 B1  freq=   708. Q= -0.000 lam=     0.0
  41 B1  freq=   744. Q= -0.000 lam=     0.0 B1  freq=   720. Q= -0.000 lam=     0.0
  42 A1  freq=   770. Q=  0.080 lam=     2.5 B1  freq=   743. Q=  0.000 lam=     0.0
  43 B1  freq=   780. Q=  0.000 lam=     0.0 A1  freq=   752. Q=  0.113 lam=     4.8
  44 A2  freq=   807. Q= -0.000 lam=     0.0 B1  freq=   755. Q= -0.000 lam=     0.0
  45 A1  freq=   812. Q= -0.088 lam=     3.1 A2  freq=   772. Q= -0.000 lam=     0.0
  46 B1  freq=   817. Q= -0.000 lam=     0.0 A1  freq=   790. Q= -0.139 lam=     7.7
  47 B1  freq=   826. Q= -0.000 lam=     0.0 B1  freq=   794. Q= -0.000 lam=     0.0
  48 A2  freq=   836. Q= -0.000 lam=     0.0 A2  freq=   801. Q= -0.000 lam=     0.0
  49 A2  freq=   850. Q=  0.000 lam=     0.0 B1  freq=   815. Q=  0.000 lam=     0.0
  50 B1  freq=   854. Q= -0.000 lam=     0.0 A2  freq=   819. Q= -0.000 lam=     0.0
  51 B1  freq=   880. Q=  0.000 lam=     0.0 B1  freq=   833. Q=  0.000 lam=     0.0
  52 B1  freq=   919. Q=  0.000 lam=     0.0 B1  freq=   863. Q=  0.000 lam=     0.0
  53 A2  freq=   949. Q= -0.000 lam=     0.0 A2  freq=   914. Q= -0.000 lam=     0.0
  54 B1  freq=   957. Q=  0.000 lam=     0.0 B1  freq=   924. Q=  0.000 lam=     0.0
  55 A2  freq=   973. Q= -0.000 lam=     0.0 A2  freq=   948. Q= -0.000 lam=     0.0
  56 B1  freq=   996. Q= -0.000 lam=     0.0 B1  freq=   950. Q= -0.000 lam=     0.0
  57 A2  freq=   997. Q=  0.000 lam=     0.0 B1  freq=   958. Q=  0.000 lam=     0.0
  58 B1  freq=   998. Q=  0.000 lam=     0.0 A2  freq=   970. Q=  0.000 lam=     0.0
  59 A2  freq=  1002. Q=  0.000 lam=     0.0 B1  freq=   974. Q=  0.000 lam=     0.0
  60 B1  freq=  1008. Q=  0.000 lam=     0.0 A2  freq=   978. Q=  0.000 lam=     0.0
  61 A1  freq=  1008. Q=  0.324 lam=    53.0 A1  freq=   979. Q=  0.265 lam=    34.3
  62 A1  freq=  1013. Q=  0.160 lam=    12.9 A1  freq=   993. Q=  0.136 lam=     9.2
  63 A1  freq=  1018. Q=  0.009 lam=     0.0 A1  freq=  1005. Q=  0.003 lam=     0.0
  64 A1  freq=  1023. Q=  0.070 lam=     2.5 A1  freq=  1006. Q=  0.097 lam=     4.7
  65 A1  freq=  1034. Q= -0.106 lam=     5.8 A1  freq=  1009. Q= -0.150 lam=    11.4
  66 A1  freq=  1055. Q=  0.022 lam=     0.2 A1  freq=  1032. Q=  0.071 lam=     2.6
  67 A1  freq=  1065. Q=  0.085 lam=     3.8 A1  freq=  1051. Q=  0.088 lam=     4.0
  68 A1  freq=  1075. Q=  0.110 lam=     6.5 A1  freq=  1055. Q=  0.132 lam=     9.2
  69 B2  freq=  1111. Q= -0.000 lam=     0.0 A1  freq=  1085. Q= -0.131 lam=     9.2
  70 B2  freq=  1112. Q=  0.000 lam=     0.0 B2  freq=  1085. Q=  0.000 lam=     0.0
  71 A1  freq=  1113. Q= -0.131 lam=     9.6 B2  freq=  1101. Q= -0.000 lam=     0.0
  72 B2  freq=  1143. Q= -0.000 lam=     0.0 B2  freq=  1135. Q= -0.000 lam=     0.0
  73 B2  freq=  1168. Q= -0.000 lam=     0.0 B2  freq=  1153. Q= -0.000 lam=     0.0
  74 B2  freq=  1188. Q= -0.000 lam=     0.0 B2  freq=  1173. Q= -0.000 lam=     0.0
  75 A1  freq=  1207. Q=  0.121 lam=     8.9 A1  freq=  1199. Q=  0.104 lam=     6.5
  76 A1  freq=  1219. Q=  0.147 lam=    13.2 B2  freq=  1206. Q=  0.000 lam=     0.0
  77 B2  freq=  1237. Q= -0.000 lam=     0.0 A1  freq=  1208. Q= -0.162 lam=    15.9
  78 A1  freq=  1251. Q= -0.497 lam=   154.7 A1  freq=  1238. Q= -0.433 lam=   115.9
  79 B2  freq=  1275. Q= -0.000 lam=     0.0 B2  freq=  1285. Q= -0.000 lam=     0.0
  80 A1  freq=  1288. Q= -0.361 lam=    83.8 B2  freq=  1290. Q= -0.000 lam=     0.0
  81 B2  freq=  1293. Q=  0.000 lam=     0.0 B2  freq=  1293. Q=  0.000 lam=     0.0
  82 A1  freq=  1303. Q= -0.169 lam=    18.7 A1  freq=  1309. Q= -0.195 lam=    24.8
  83 B2  freq=  1310. Q=  0.000 lam=     0.0 B2  freq=  1331. Q=  0.000 lam=     0.0
  84 B2  freq=  1327. Q=  0.000 lam=     0.0 B2  freq=  1331. Q=  0.000 lam=     0.0
  85 B2  freq=  1342. Q= -0.000 lam=     0.0 A1  freq=  1334. Q= -0.352 lam=    82.6
  86 A1  freq=  1354. Q=  0.268 lam=    48.5 B2  freq=  1348. Q=  0.000 lam=     0.0
  87 B2  freq=  1361. Q= -0.000 lam=     0.0 B2  freq=  1363. Q= -0.000 lam=     0.0
  88 B2  freq=  1370. Q=  0.000 lam=     0.0 A1  freq=  1385. Q=  0.172 lam=    20.4
  89 B2  freq=  1433. Q= -0.000 lam=     0.0 A1  freq=  1438. Q= -0.555 lam=   221.6
  90 B2  freq=  1445. Q=  0.000 lam=     0.0 B2  freq=  1444. Q=  0.000 lam=     0.0
  91 A1  freq=  1449. Q=  0.511 lam=   189.0 B2  freq=  1460. Q=  0.000 lam=     0.0
  92 B2  freq=  1468. Q=  0.000 lam=     0.0 B2  freq=  1468. Q=  0.000 lam=     0.0
  93 B2  freq=  1484. Q= -0.000 lam=     0.0 B2  freq=  1482. Q= -0.000 lam=     0.0
  94 A1  freq=  1522. Q= -0.191 lam=    27.9 B2  freq=  1495. Q= -0.000 lam=     0.0
  95 A1  freq=  1543. Q= -0.045 lam=     1.6 A1  freq=  1502. Q= -0.240 lam=    43.2
  96 A1  freq=  1571. Q= -0.018 lam=     0.3 A1  freq=  1520. Q= -0.056 lam=     2.4
  97 B2  freq=  1580. Q= -0.000 lam=     0.0 B2  freq=  1526. Q= -0.000 lam=     0.0
  98 B2  freq=  1596. Q= -0.000 lam=     0.0 B2  freq=  1543. Q= -0.000 lam=     0.0
  99 A1  freq=  1614. Q=  0.548 lam=   242.1 A1  freq=  1553. Q=  0.027 lam=     0.6
 100 B2  freq=  1614. Q=  0.000 lam=     0.0 B2  freq=  1582. Q=  0.000 lam=     0.0
 101 B2  freq=  1623. Q=  0.000 lam=     0.0 A1  freq=  1603. Q=  0.059 lam=     2.8
 102 A1  freq=  1638. Q=  0.541 lam=   239.6 A1  freq=  1627. Q=  0.765 lam=   476.7
 103 A1  freq=  1647. Q=  0.235 lam=    45.5 A1  freq=  1631. Q=  0.200 lam=    32.5
 104 A1  freq=  1659. Q= -0.035 lam=     1.0 A1  freq=  1652. Q= -0.019 lam=     0.3
 105 A1  freq=  3142. Q= -0.040 lam=     2.5 B2  freq=  3084. Q= -0.000 lam=     0.0
 106 B2  freq=  3144. Q= -0.000 lam=     0.0 A1  freq=  3085. Q= -0.034 lam=     1.8
 107 A1  freq=  3162. Q= -0.018 lam=     0.5 A1  freq=  3136. Q= -0.020 lam=     0.6
 108 B2  freq=  3170. Q=  0.000 lam=     0.0 B2  freq=  3142. Q=  0.000 lam=     0.0
 109 A1  freq=  3181. Q= -0.012 lam=     0.2 A1  freq=  3155. Q= -0.011 lam=     0.2
 110 B2  freq=  3183. Q= -0.000 lam=     0.0 B2  freq=  3156. Q= -0.000 lam=     0.0
 111 A1  freq=  3186. Q=  0.007 lam=     0.1 B2  freq=  3165. Q=  0.000 lam=     0.0
 112 B2  freq=  3191. Q= -0.000 lam=     0.0 A1  freq=  3165. Q= -0.002 lam=     0.0
 113 A1  freq=  3192. Q=  0.005 lam=     0.0 A1  freq=  3172. Q=  0.009 lam=     0.1
 114 B2  freq=  3201. Q=  0.000 lam=     0.0 B2  freq=  3183. Q=  0.000 lam=     0.0
 115 A1  freq=  3202. Q=  0.007 lam=     0.1 A1  freq=  3185. Q=  0.001 lam=     0.0
 116 A1  freq=  3202. Q= -0.002 lam=     0.0 A1  freq=  3185. Q= -0.005 lam=     0.0
 117 B2  freq=  3207. Q= -0.000 lam=     0.0 B2  freq=  3190. Q= -0.000 lam=     0.0
 118 A1  freq=  3209. Q= -0.007 lam=     0.1 A1  freq=  3193. Q= -0.001 lam=     0.0
 119 B2  freq=  3212. Q=  0.000 lam=     0.0 B2  freq=  3193. Q=  0.000 lam=     0.0
 120 A1  freq=  3214. Q=  0.025 lam=     1.0 A1  freq=  3196. Q=  0.026 lam=     1.1

 total reorg energy (cm**-1, kcal/mol)=     1199.     1169.      3.43      3.34
 Nber of molecules processed=           2
