 Enter ifcurve (0=recti, 1=orth curvi, 2=apprx curvi, -1 = skip
 And atom ordering flag, 0= never changes, 1= use the first order thenceforth,
  2= deduce it (does read on fail), 3= always read it
 Reading file: 
 ./TT-PDI_4_C0S2.log                                                            
                                          
  Entering Gaussian System, Link 0=g16                                          
  
 Gaussian format, type: g94, g98, g03= F F F
  #P Geom=AllCheck Guess=TCheck SCRF=Check GenChk RB3LYP TD(FC,Read)/6-3    
 energy type= TD      
 Original G94 input coords:
  6  1.271692  0.391845  0.292543
  6  2.769111  0.287351 -0.014388
  6  3.621248 -0.061840  1.210080
  7  3.036067 -0.642773 -1.158154
  6  2.721767 -1.999685 -1.023119
  8  2.234297 -2.444120  0.005794
  6  3.002985 -2.880749 -2.178087
  6  2.702616 -4.244222 -2.080282
  6  2.952667 -5.093005 -3.139623
  6  3.517779 -4.621838 -4.356350
  6  3.784375 -5.496192 -5.470581
  6  3.500714 -6.888942 -5.427364
  6  3.760422 -7.715020 -6.500922
  6  4.317823 -7.197297 -7.677886
  6  4.577664 -8.119854 -8.799593
  8  4.316090 -9.308087 -8.712713
  7  5.140138 -7.568926 -9.973550
  6  5.432018 -8.356097-11.113185
  6  5.256233 -9.680282-11.307736
  6  5.623950-10.292096-12.558226
  6  5.472892-11.612680-12.815269
  6  5.810223-12.307311-14.028943
  6  5.645644-13.656274-14.265470
  6  6.074769-14.032047-15.560657
 16  6.136718-15.527960-16.456225
  6  6.826089-14.699824-17.833981
  6  6.999911-13.361528-17.626370
  6  6.569562-12.982843-16.326066
 16  6.510202-11.483725-15.436252
  6  5.457089 -6.180157-10.104690
  8  5.940687 -5.747697-11.135979
  6  5.176294 -5.310178 -8.954238
  6  5.476121 -3.944135 -9.051802
  6  5.226807 -3.096106 -7.993096
  6  4.662814 -3.566169 -6.775453
  6  4.397103 -2.691707 -5.661359
  6  4.680903 -1.299292 -5.702337
  6  4.420793 -0.473769 -4.627016
  6  3.863210 -0.992106 -3.452183
  6  3.597612 -0.080361 -2.320532
  8  3.855420  1.111115 -2.393403
  6  3.564873 -2.367940 -3.365931
  6  3.828776 -3.233954 -4.470159
  6  4.352304 -4.954371 -6.661972
  6  4.615664 -5.821298 -7.765504
  1  1.114472  1.185831  1.027676
  1  0.877068 -0.539507  0.696636
  1  0.709964  0.655480 -0.607323
  1  3.104169  1.248874 -0.396926
  1  3.322335 -1.011581  1.651743
  1  3.503511  0.724667  1.960479
  1  4.680050 -0.111232  0.943056
  1  2.272134 -4.609153 -1.156730
  1  2.708058 -6.139893 -3.028858
  1  3.070650 -7.323882 -4.536397
  1  3.541555 -8.773948 -6.459851
  1  5.852157 -7.743200-11.897629
  1  4.838384-10.307564-10.535658
  1  6.043294 -9.642736-13.324293
  1  5.051924-12.245029-12.036657
  1  5.232426-14.329514-13.526634
  1  7.061186-15.266995-18.721330
  1  7.413087-12.690423-18.366328
  1  5.905584 -3.577028 -9.974763
  1  5.470961 -2.049220 -8.104771
  1  5.111655 -0.863367 -6.592626
  1  4.640107  0.585346 -4.666760
 nber atoms=          67
  Total Energy, E(TD-HF/TD-DFT) =  -2630.47160032                               
  
          32          49 "  -2630.47160032"
After scan for Atom:   Atom  AN      X      Y      Z        X      Y      Z        X      Y      Z   
After scan for Atom:   Atom  AN      X      Y      Z        X      Y      Z        X      Y      Z   
After scan for Atom:   Atom  AN      X      Y      Z        X      Y      Z        X      Y      Z   
After scan for Atom:   Atom  AN      X      Y      Z        X      Y      Z        X      Y      Z   
After scan for Atom:   Atom  AN      X      Y      Z        X      Y      Z        X      Y      Z   
After scan for Atom:   Atom  AN      X      Y      Z        X      Y      Z        X      Y      Z   
After scan for Atom:   Atom  AN      X      Y      Z        X      Y      Z        X      Y      Z   
After scan for Atom:   Atom  AN      X      Y      Z        X      Y      Z        X      Y      Z   
After scan for Atom:   Atom  AN      X      Y      Z        X      Y      Z        X      Y      Z   
After scan for Atom:   Atom  AN      X      Y      Z        X      Y      Z        X      Y      Z   
After scan for Atom:   Atom  AN      X      Y      Z        X      Y      Z        X      Y      Z   
After scan for Atom:   Atom  AN      X      Y      Z        X      Y      Z        X      Y      Z   
After scan for Atom:   Atom  AN      X      Y      Z        X      Y      Z        X      Y      Z   
After scan for Atom:   Atom  AN      X      Y      Z        X      Y      Z        X      Y      Z   
After scan for Atom:   Atom  AN      X      Y      Z        X      Y      Z        X      Y      Z   
After scan for Atom:   Atom  AN      X      Y      Z        X      Y      Z        X      Y      Z   
After scan for Atom:   Atom  AN      X      Y      Z        X      Y      Z        X      Y      Z   
After scan for Atom:   Atom  AN      X      Y      Z        X      Y      Z        X      Y      Z   
After scan for Atom:   Atom  AN      X      Y      Z        X      Y      Z        X      Y      Z   
After scan for Atom:   Atom  AN      X      Y      Z        X      Y      Z        X      Y      Z   
After scan for Atom:   Atom  AN      X      Y      Z        X      Y      Z        X      Y      Z   
After scan for Atom:   Atom  AN      X      Y      Z        X      Y      Z        X      Y      Z   
After scan for Atom:   Atom  AN      X      Y      Z        X      Y      Z        X      Y      Z   
After scan for Atom:   Atom  AN      X      Y      Z        X      Y      Z        X      Y      Z   
After scan for Atom:   Atom  AN      X      Y      Z        X      Y      Z        X      Y      Z   
After scan for Atom:   Atom  AN      X      Y      Z        X      Y      Z        X      Y      Z   
After scan for Atom:   Atom  AN      X      Y      Z        X      Y      Z        X      Y      Z   
After scan for Atom:   Atom  AN      X      Y      Z        X      Y      Z        X      Y      Z   
After scan for Atom:   Atom  AN      X      Y      Z        X      Y      Z        X      Y      Z   
After scan for Atom:   Atom  AN      X      Y      Z        X      Y      Z        X      Y      Z   
After scan for Atom:   Atom  AN      X      Y      Z        X      Y      Z        X      Y      Z   
After scan for Atom:   Atom  AN      X      Y      Z        X      Y      Z        X      Y      Z   
After scan for Atom:   Atom  AN      X      Y      Z        X      Y      Z        X      Y      Z   
After scan for Atom:   Atom  AN      X      Y      Z        X      Y      Z        X      Y      Z   
After scan for Atom:   Atom  AN      X      Y      Z        X      Y      Z        X      Y      Z   
After scan for Atom:   Atom  AN      X      Y      Z        X      Y      Z        X      Y      Z   
After scan for Atom:   Atom  AN      X      Y      Z        X      Y      Z        X      Y      Z   
After scan for Atom:   Atom  AN      X      Y      Z        X      Y      Z        X      Y      Z   
After scan for Atom:   Atom  AN      X      Y      Z        X      Y      Z        X      Y      Z   
After scan for Atom:   Atom  AN      X      Y      Z        X      Y      Z        X      Y      Z   
After scan for Atom:   Atom  AN      X      Y      Z        X      Y      Z        X      Y      Z   
After scan for Atom:   Atom  AN      X      Y      Z        X      Y      Z        X      Y      Z   
After scan for Atom:   Atom  AN      X      Y      Z        X      Y      Z        X      Y      Z   
After scan for Atom:   Atom  AN      X      Y      Z        X      Y      Z        X      Y      Z   
After scan for Atom:   Atom  AN      X      Y      Z        X      Y      Z        X      Y      Z   
After scan for Atom:   Atom  AN      X      Y      Z        X      Y      Z        X      Y      Z   
After scan for Atom:   Atom  AN      X      Y      Z        X      Y      Z        X      Y      Z   
After scan for Atom:   Atom  AN      X      Y      Z        X      Y      Z        X      Y      Z   
After scan for Atom:   Atom  AN      X      Y      Z        X      Y      Z        X      Y      Z   
After scan for Atom:   Atom  AN      X      Y      Z        X      Y      Z        X      Y      Z   
After scan for Atom:   Atom  AN      X      Y      Z        X      Y      Z        X      Y      Z   
After scan for Atom:   Atom  AN      X      Y      Z        X      Y      Z        X      Y      Z   
After scan for Atom:   Atom  AN      X      Y      Z        X      Y      Z        X      Y      Z   
After scan for Atom:   Atom  AN      X      Y      Z        X      Y      Z        X      Y      Z   
After scan for Atom:   Atom  AN      X      Y      Z        X      Y      Z        X      Y      Z   
After scan for Atom:   Atom  AN      X      Y      Z        X      Y      Z        X      Y      Z   
After scan for Atom:   Atom  AN      X      Y      Z        X      Y      Z        X      Y      Z   
After scan for Atom:   Atom  AN      X      Y      Z        X      Y      Z        X      Y      Z   
After scan for Atom:   Atom  AN      X      Y      Z        X      Y      Z        X      Y      Z   
After scan for Atom:   Atom  AN      X      Y      Z        X      Y      Z        X      Y      Z   
After scan for Atom:   Atom  AN      X      Y      Z        X      Y      Z        X      Y      Z   
After scan for Atom:   Atom  AN      X      Y      Z        X      Y      Z        X      Y      Z   
After scan for Atom:   Atom  AN      X      Y      Z        X      Y      Z        X      Y      Z   
After scan for Atom:   Atom  AN      X      Y      Z        X      Y      Z        X      Y      Z   
After scan for Atom:   Atom  AN      X      Y      Z        X      Y      Z        X      Y      Z   
 g94    frequencies=
     0.0    0.0    0.0    0.0    0.0    0.0    7.7   15.9   17.6   24.8
    29.9   38.8   54.7   59.0   68.7   74.8   88.2   94.3  106.3  106.5
   129.9  137.3  167.7  172.1  185.3  192.9  201.2  208.2  212.3  220.5
   234.0  235.5  237.8  253.6  256.0  289.9  301.9  304.0  322.0  345.5
   347.6  368.9  390.0  395.7  410.9  417.6  419.3  431.6  438.9  440.6
   447.2  447.9  466.2  467.5  471.8  480.6  484.1  499.0  500.6  505.9
   513.2  543.5  551.6  571.1  574.5  576.6  595.8  604.7  615.8  619.9
   632.2  632.9  652.0  665.0  677.2  677.8  699.1  700.7  708.4  718.5
   727.1  743.5  750.1  757.7  763.6  765.5  801.9  807.7  809.4  811.9
   815.3  824.8  826.5  832.3  840.6  844.7  857.8  875.0  901.2  907.2
   914.1  920.2  935.4  945.1  953.7  956.7  962.0  974.8  976.7  987.9
   988.9 1026.3 1030.2 1062.6 1091.9 1092.8 1104.4 1126.7 1137.6 1155.4
  1158.2 1161.3 1170.2 1181.7 1185.7 1195.6 1197.6 1212.4 1223.7 1226.7
  1232.6 1241.7 1243.9 1253.3 1281.0 1295.4 1312.7 1318.2 1320.4 1327.2
  1340.5 1352.7 1364.2 1366.8 1371.5 1380.2 1382.1 1392.1 1400.1 1401.8
  1404.9 1416.1 1430.0 1438.6 1447.4 1450.7 1460.8 1466.3 1484.8 1493.4
  1497.5 1500.1 1505.2 1510.3 1522.5 1531.2 1546.0 1553.7 1571.3 1582.0
  1599.6 1601.0 1620.5 1647.9 1657.5 1686.2 1690.1 1725.0 1732.1 3034.3
  3038.4 3092.3 3095.5 3112.5 3125.7 3132.5 3136.7 3142.9 3198.1 3198.7
  3205.8 3206.2 3208.0 3212.6 3213.4 3213.8 3216.8 3223.6 3224.3 3238.9
  3244.8
 g94    symmetries=
                                                 A      A      A      A
       A      A      A      A      A      A      A      A      A      A
       A      A      A      A      A      A      A      A      A      A
       A      A      A      A      A      A      A      A      A      A
       A      A      A      A      A      A      A      A      A      A
       A      A      A      A      A      A      A      A      A      A
       A      A      A      A      A      A      A      A      A      A
       A      A      A      A      A      A      A      A      A      A
       A      A      A      A      A      A      A      A      A      A
       A      A      A      A      A      A      A      A      A      A
       A      A      A      A      A      A      A      A      A      A
       A      A      A      A      A      A      A      A      A      A
       A      A      A      A      A      A      A      A      A      A
       A      A      A      A      A      A      A      A      A      A
       A      A      A      A      A      A      A      A      A      A
       A      A      A      A      A      A      A      A      A      A
       A      A      A      A      A      A      A      A      A      A
       A      A      A      A      A      A      A      A      A      A
       A      A      A      A      A      A      A      A      A      A
       A      A      A      A      A      A      A      A      A      A
       A
 atomic masses:
 12.0000 12.0000 12.0000 14.0031 12.0000 15.9949 12.0000 12.0000 12.0000 12.0000
 12.0000 12.0000 12.0000 12.0000 12.0000 15.9949 14.0031 12.0000 12.0000 12.0000
 12.0000 12.0000 12.0000 12.0000 31.9721 12.0000 12.0000 12.0000 31.9721 12.0000
 15.9949 12.0000 12.0000 12.0000 12.0000 12.0000 12.0000 12.0000 12.0000 12.0000
 15.9949 12.0000 12.0000 12.0000 12.0000  1.0078  1.0078  1.0078  1.0078  1.0078
  1.0078  1.0078  1.0078  1.0078  1.0078  1.0078  1.0078  1.0078  1.0078  1.0078
  1.0078  1.0078  1.0078  1.0078  1.0078  1.0078  1.0078
 looking for force constants in 
 ./TT-PDI_4_C0S2.fchk                                                           
  
 Cartesian Force Constants                  R   N=       20301                  
  
 n3=         201       20301
 g94-fc frequencies=
    -0.9   -0.0   -0.0    0.0    0.7    3.2    7.7   15.9   17.6   24.8
    29.9   38.8   54.7   59.0   68.7   74.8   88.2   94.3  106.3  106.5
   129.9  137.3  167.7  172.1  185.3  193.0  201.2  208.2  212.3  220.5
   234.0  235.5  237.8  253.6  256.1  289.9  301.9  304.0  322.0  345.5
   347.6  368.9  390.0  395.7  410.9  417.6  419.3  431.7  438.9  440.6
   447.2  447.9  466.2  467.5  471.8  480.6  484.1  499.1  500.6  505.9
   513.2  543.5  551.6  571.1  574.5  576.6  595.9  604.7  615.8  619.9
   632.2  632.9  652.0  665.0  677.2  677.8  699.2  700.8  708.4  718.5
   727.1  743.6  750.1  757.7  763.7  765.5  801.9  807.7  809.4  811.9
   815.3  824.8  826.5  832.3  840.6  844.7  857.8  875.1  901.3  907.2
   914.1  920.2  935.4  945.1  953.7  956.7  962.0  974.9  976.7  988.0
   988.9 1026.4 1030.2 1062.6 1091.9 1092.9 1104.4 1126.7 1137.7 1155.4
  1158.2 1161.4 1170.3 1181.7 1185.7 1195.6 1197.6 1212.5 1223.7 1226.7
  1232.6 1241.7 1244.0 1253.3 1281.1 1295.4 1312.8 1318.2 1320.4 1327.2
  1340.6 1352.7 1364.3 1366.8 1371.5 1380.3 1382.1 1392.2 1400.1 1401.8
  1404.9 1416.1 1430.0 1438.6 1447.4 1450.7 1460.8 1466.3 1484.8 1493.4
  1497.5 1500.1 1505.2 1510.4 1522.6 1531.3 1546.0 1553.8 1571.3 1582.1
  1599.6 1601.0 1620.5 1648.0 1657.5 1686.2 1690.2 1725.0 1732.2 3034.4
  3038.5 3092.4 3095.6 3112.5 3125.8 3132.5 3136.8 3142.9 3198.2 3198.7
  3205.8 3206.2 3208.1 3212.7 3213.5 3213.9 3216.9 3223.7 3224.3 3239.0
  3244.9
 at 99999: n3=         201
 symm operator            1 :  F  nop=           0
 symm operator            2 :  F  nop=           0
 symm operator            3 :  F  nop=           0
 symm operator            4 :  F  nop=           0
 symm operator            5 :  F  nop=           0
 symm operator            6 :  F  nop=           0
 symm operator            7 :  F  nop=           0
 The point group of the molecule is  C1
 Symmetry rotation matrix:
   1.00000   0.00000   0.00000
   0.00000   1.00000   0.00000
   0.00000   0.00000   1.00000

 Projecting out zero-frequency components
 generating redundant internal coords
         300        3600          67
 search for int coords
   1 str   2   1   1.532
   2 str   3   2   1.532
   3 str   4   2   1.498
   4 str   5   4   1.399
   5 str   6   5   1.222
   6 str   7   5   1.480
   7 str   8   7   1.400
   8 str   9   8   1.380
   9 str  10   9   1.422
  10 str  11  10   1.441
  11 str  12  11   1.422
  12 str  13  12   1.379
  13 str  14  13   1.401
  14 str  15  14   1.475
  15 str  16  15   1.220
  16 str  17  15   1.414
  17 str  18  17   1.415
  18 str  19  18   1.350
  19 str  20  19   1.440
  20 str  21  20   1.354
  21 str  22  21   1.439
  22 str  23  22   1.379
  23 str  24  23   1.415
  24 str  25  24   1.745
  25 str  26  25   1.749
  26 str  27  26   1.365
  27 str  28  24   1.390
  28 str  28  27   1.421
  29 str  29  22   1.774
  30 str  29  28   1.744
  31 str  30  17   1.431
  32 str  31  30   1.218
  33 str  32  30   1.469
  34 str  33  32   1.402
  35 str  34  33   1.379
  36 str  35  34   1.422
  37 str  36  35   1.441
  38 str  37  36   1.422
  39 str  38  37   1.380
  40 str  39  38   1.400
  41 str  40   4   1.408
  42 str  40  39   1.477
  43 str  41  40   1.221
  44 str  42   7   1.411
  45 str  42  39   1.410
  46 str  43  10   1.427
  47 str  43  36   1.427
  48 str  43  42   1.428
  49 str  44  11   1.427
  50 str  44  35   1.427
  51 str  45  14   1.411
  52 str  45  32   1.410
  53 str  45  44   1.428
  54 str  46   1   1.093
  55 str  47   1   1.089
  56 str  48   1   1.093
  57 str  49   2   1.088
  58 str  50   3   1.089
  59 str  51   3   1.093
  60 str  52   3   1.093
  61 str  53   8   1.082
  62 str  54   9   1.081
  63 str  55  12   1.081
  64 str  56  13   1.082
  65 str  57  18   1.081
  66 str  58  19   1.079
  67 str  59  20   1.088
  68 str  60  21   1.088
  69 str  61  23   1.082
  70 str  62  26   1.079
  71 str  63  27   1.081
  72 str  64  33   1.082
  73 str  65  34   1.081
  74 str  66  37   1.081
  75 str  67  38   1.082
 nber stretches=          75
  76 ben   1   2   3
  77 prop tor   1   2   3  50
  78 prop tor   1   2   3  51
  79 prop tor   1   2   3  52
  80 ben   1   2   4
  81 prop tor   1   2   4   5
  82 prop tor   1   2   4  40
  83 ben   1   2  49
  84 ben   2   1  46
  85 ben   2   1  47
  86 ben   2   1  48
  87 ben   2   3  50
  88 ben   2   3  51
  89 ben   2   3  52
  90 ben   2   4   5
  91 prop tor   2   4   5   6
  92 prop tor   2   4   5   7
  93 ben   2   4  40
  94 prop tor   2   4  40  39
  95 prop tor   2   4  40  41
  96 ben   3   2   4
  97 prop tor   3   2   4   5
  98 prop tor   3   2   4  40
  99 ben   3   2  49
 100 prop tor   4   2   3  50
 101 prop tor   4   2   3  51
 102 prop tor   4   2   3  52
 103 ben   4   2  49
 104 ben   4   5   6
 105 ben   4   5   7
 106 prop tor   4   5   7   8
 107 prop tor   4   5   7  42
 108 ben   4  40  39
 109 ben   4  40  41
 110 ben   5   4  40
 111 prop tor   5   4  40  39
 112 prop tor   5   4  40  41
 113 ben   5   7   8
 114 prop tor   5   7   8   9
 115 prop tor   5   7   8  53
 116 ben   5   7  42
 117 prop tor   5   7  42  39
 118 prop tor   5   7  42  43
 119 ben   6   5   7
 120 prop tor   6   5   7   8
 121 prop tor   6   5   7  42
 122 ben   7   8   9
 123 prop tor   7   8   9  10
 124 prop tor   7   8   9  54
 125 ben   7   8  53
 126 ben   7  42  39
 127 ben   7  42  43
 128 prop tor   7  42  43  10
 129 prop tor   7  42  43  36
 130 ben   8   7  42
 131 prop tor   8   7  42  39
 132 prop tor   8   7  42  43
 133 ben   8   9  10
 134 prop tor   8   9  10  11
 135 prop tor   8   9  10  43
 136 ben   8   9  54
 137 ben   9   8  53
 138 ben   9  10  11
 139 prop tor   9  10  11  12
 140 prop tor   9  10  11  44
 141 ben   9  10  43
 142 prop tor   9  10  43  36
 143 prop tor   9  10  43  42
 144 ben  10   9  54
 145 ben  10  11  12
 146 prop tor  10  11  12  13
 147 prop tor  10  11  12  55
 148 ben  10  11  44
 149 prop tor  10  11  44  35
 150 prop tor  10  11  44  45
 151 ben  10  43  36
 152 ben  10  43  42
 153 ben  11  10  43
 154 prop tor  11  10  43  36
 155 prop tor  11  10  43  42
 156 ben  11  12  13
 157 prop tor  11  12  13  14
 158 prop tor  11  12  13  56
 159 ben  11  12  55
 160 ben  11  44  35
 161 ben  11  44  45
 162 prop tor  11  44  45  14
 163 prop tor  11  44  45  32
 164 ben  12  11  44
 165 prop tor  12  11  44  35
 166 prop tor  12  11  44  45
 167 ben  12  13  14
 168 prop tor  12  13  14  15
 169 prop tor  12  13  14  45
 170 ben  12  13  56
 171 ben  13  12  55
 172 ben  13  14  15
 173 prop tor  13  14  15  16
 174 prop tor  13  14  15  17
 175 ben  13  14  45
 176 prop tor  13  14  45  32
 177 prop tor  13  14  45  44
 178 ben  14  13  56
 179 ben  14  15  16
 180 ben  14  15  17
 181 prop tor  14  15  17  18
 182 prop tor  14  15  17  30
 183 ben  14  45  32
 184 ben  14  45  44
 185 ben  15  14  45
 186 prop tor  15  14  45  32
 187 prop tor  15  14  45  44
 188 ben  15  17  18
 189 prop tor  15  17  18  19
 190 prop tor  15  17  18  57
 191 ben  15  17  30
 192 prop tor  15  17  30  31
 193 prop tor  15  17  30  32
 194 ben  16  15  17
 195 prop tor  16  15  17  18
 196 prop tor  16  15  17  30
 197 ben  17  18  19
 198 prop tor  17  18  19  20
 199 prop tor  17  18  19  58
 200 ben  17  18  57
 201 ben  17  30  31
 202 ben  17  30  32
 203 prop tor  17  30  32  33
 204 prop tor  17  30  32  45
 205 ben  18  17  30
 206 prop tor  18  17  30  31
 207 prop tor  18  17  30  32
 208 ben  18  19  20
 209 prop tor  18  19  20  21
 210 prop tor  18  19  20  59
 211 ben  18  19  58
 212 ben  19  18  57
 213 ben  19  20  21
 214 prop tor  19  20  21  22
 215 prop tor  19  20  21  60
 216 ben  19  20  59
 217 ben  20  19  58
 218 ben  20  21  22
 219 prop tor  20  21  22  23
 220 prop tor  20  21  22  29
 221 ben  20  21  60
 222 ben  21  20  59
 223 ben  21  22  23
 224 prop tor  21  22  23  24
 225 prop tor  21  22  23  61
 226 ben  21  22  29
 227 prop tor  21  22  29  28
 228 ben  22  21  60
 229 ben  22  23  24
 230 prop tor  22  23  24  25
 231 prop tor  22  23  24  28
 232 ben  22  23  61
 233 ben  22  29  28
 234 ben  23  22  29
 235 prop tor  23  22  29  28
 236 ben  23  24  25
 237 prop tor  23  24  25  26
 238 ben  23  24  28
 239 prop tor  23  24  28  27
 240 prop tor  23  24  28  29
 241 ben  24  23  61
 242 ben  24  25  26
 243 prop tor  24  25  26  27
 244 prop tor  24  25  26  62
 245 ben  24  28  27
 246 ben  24  28  29
 247 prop tor  24  28  29  22
 248 ben  25  24  28
 249 prop tor  25  24  28  27
 250 prop tor  25  24  28  29
 251 ben  25  26  27
 252 prop tor  25  26  27  28
 253 prop tor  25  26  27  63
 254 ben  25  26  62
 255 ben  26  27  28
 256 prop tor  26  27  28  24
 257 prop tor  26  27  28  29
 258 ben  26  27  63
 259 ben  27  26  62
 260 ben  27  28  29
 261 prop tor  27  28  29  22
 262 prop tor  28  24  25  26
 263 ben  28  27  63
 264 prop tor  29  22  23  24
 265 prop tor  29  22  23  61
 266 prop tor  30  17  18  19
 267 prop tor  30  17  18  57
 268 ben  30  32  33
 269 prop tor  30  32  33  34
 270 prop tor  30  32  33  64
 271 ben  30  32  45
 272 prop tor  30  32  45  14
 273 prop tor  30  32  45  44
 274 ben  31  30  32
 275 prop tor  31  30  32  33
 276 prop tor  31  30  32  45
 277 ben  32  33  34
 278 prop tor  32  33  34  35
 279 prop tor  32  33  34  65
 280 ben  32  33  64
 281 ben  32  45  44
 282 ben  33  32  45
 283 prop tor  33  32  45  14
 284 prop tor  33  32  45  44
 285 ben  33  34  35
 286 prop tor  33  34  35  36
 287 prop tor  33  34  35  44
 288 ben  33  34  65
 289 ben  34  33  64
 290 ben  34  35  36
 291 prop tor  34  35  36  37
 292 prop tor  34  35  36  43
 293 ben  34  35  44
 294 prop tor  34  35  44  11
 295 prop tor  34  35  44  45
 296 ben  35  34  65
 297 ben  35  36  37
 298 prop tor  35  36  37  38
 299 prop tor  35  36  37  66
 300 ben  35  36  43
 301 prop tor  35  36  43  10
 302 prop tor  35  36  43  42
 303 ben  35  44  45
 304 prop tor  35  44  45  14
 305 prop tor  35  44  45  32
 306 ben  36  35  44
 307 prop tor  36  35  44  11
 308 prop tor  36  35  44  45
 309 ben  36  37  38
 310 prop tor  36  37  38  39
 311 prop tor  36  37  38  67
 312 ben  36  37  66
 313 ben  36  43  42
 314 ben  37  36  43
 315 prop tor  37  36  43  10
 316 prop tor  37  36  43  42
 317 ben  37  38  39
 318 prop tor  37  38  39  40
 319 prop tor  37  38  39  42
 320 ben  37  38  67
 321 ben  38  37  66
 322 ben  38  39  40
 323 prop tor  38  39  40   4
 324 prop tor  38  39  40  41
 325 ben  38  39  42
 326 prop tor  38  39  42   7
 327 prop tor  38  39  42  43
 328 ben  39  38  67
 329 ben  39  40  41
 330 ben  39  42  43
 331 prop tor  39  42  43  10
 332 prop tor  39  42  43  36
 333 prop tor  40   4   5   6
 334 prop tor  40   4   5   7
 335 ben  40  39  42
 336 prop tor  40  39  42   7
 337 prop tor  40  39  42  43
 338 prop tor  42   7   8   9
 339 prop tor  42   7   8  53
 340 prop tor  42  39  40   4
 341 prop tor  42  39  40  41
 342 prop tor  43  10  11  12
 343 prop tor  43  10  11  44
 344 prop tor  43  36  37  38
 345 prop tor  43  36  37  66
 346 prop tor  44  11  12  13
 347 prop tor  44  11  12  55
 348 prop tor  44  35  36  37
 349 prop tor  44  35  36  43
 350 prop tor  45  14  15  16
 351 prop tor  45  14  15  17
 352 prop tor  45  32  33  34
 353 prop tor  45  32  33  64
 354 prop tor  46   1   2   3
 355 prop tor  46   1   2   4
 356 prop tor  46   1   2  49
 357 ben  46   1  47
 358 ben  46   1  48
 359 prop tor  47   1   2   3
 360 prop tor  47   1   2   4
 361 prop tor  47   1   2  49
 362 ben  47   1  48
 363 prop tor  48   1   2   3
 364 prop tor  48   1   2   4
 365 prop tor  48   1   2  49
 366 prop tor  49   2   3  50
 367 prop tor  49   2   3  51
 368 prop tor  49   2   3  52
 369 prop tor  49   2   4   5
 370 prop tor  49   2   4  40
 371 ben  50   3  51
 372 ben  50   3  52
 373 ben  51   3  52
 374 prop tor  53   8   9  10
 375 prop tor  53   8   9  54
 376 prop tor  54   9  10  11
 377 prop tor  54   9  10  43
 378 prop tor  55  12  13  14
 379 prop tor  55  12  13  56
 380 prop tor  56  13  14  15
 381 prop tor  56  13  14  45
 382 prop tor  57  18  19  20
 383 prop tor  57  18  19  58
 384 prop tor  58  19  20  21
 385 prop tor  58  19  20  59
 386 prop tor  59  20  21  22
 387 prop tor  59  20  21  60
 388 prop tor  60  21  22  23
 389 prop tor  60  21  22  29
 390 prop tor  61  23  24  25
 391 prop tor  61  23  24  28
 392 prop tor  62  26  27  28
 393 prop tor  62  26  27  63
 394 prop tor  63  27  28  24
 395 prop tor  63  27  28  29
 396 prop tor  64  33  34  35
 397 prop tor  64  33  34  65
 398 prop tor  65  34  35  36
 399 prop tor  65  34  35  44
 400 prop tor  66  37  38  39
 401 prop tor  66  37  38  67
 402 prop tor  67  38  39  40
 403 prop tor  67  38  39  42
 nber bend=             128
 nber lin bend=           0
 nber prop tor=         200
 nber impr tor=           0
 nber tot redund int=         403
 Eigenvalues of G in red int coords
    Gval -0.00000000 -0.00000000 -0.00000000 -0.00000000 -0.00000000 -0.00000000 -0.00000000 -0.00000000
    Gval -0.00000000 -0.00000000 -0.00000000 -0.00000000 -0.00000000 -0.00000000 -0.00000000 -0.00000000
    Gval -0.00000000 -0.00000000 -0.00000000 -0.00000000 -0.00000000 -0.00000000 -0.00000000 -0.00000000
    Gval -0.00000000 -0.00000000 -0.00000000 -0.00000000 -0.00000000 -0.00000000 -0.00000000 -0.00000000
    Gval -0.00000000 -0.00000000 -0.00000000 -0.00000000 -0.00000000 -0.00000000 -0.00000000 -0.00000000
    Gval -0.00000000 -0.00000000 -0.00000000 -0.00000000 -0.00000000 -0.00000000 -0.00000000 -0.00000000
    Gval -0.00000000 -0.00000000 -0.00000000 -0.00000000 -0.00000000 -0.00000000 -0.00000000 -0.00000000
    Gval -0.00000000 -0.00000000 -0.00000000 -0.00000000 -0.00000000 -0.00000000 -0.00000000 -0.00000000
    Gval -0.00000000 -0.00000000 -0.00000000 -0.00000000 -0.00000000 -0.00000000 -0.00000000 -0.00000000
    Gval -0.00000000 -0.00000000 -0.00000000 -0.00000000 -0.00000000 -0.00000000 -0.00000000 -0.00000000
    Gval -0.00000000 -0.00000000 -0.00000000 -0.00000000 -0.00000000 -0.00000000 -0.00000000 -0.00000000
    Gval -0.00000000 -0.00000000 -0.00000000 -0.00000000 -0.00000000 -0.00000000 -0.00000000 -0.00000000
    Gval -0.00000000 -0.00000000 -0.00000000 -0.00000000 -0.00000000 -0.00000000 -0.00000000  0.00000000
    Gval  0.00000000  0.00000000  0.00000000  0.00000000  0.00000000  0.00000000  0.00000000  0.00000000
    Gval  0.00000000  0.00000000  0.00000000  0.00000000  0.00000000  0.00000000  0.00000000  0.00000000
    Gval  0.00000000  0.00000000  0.00000000  0.00000000  0.00000000  0.00000000  0.00000000  0.00000000
    Gval  0.00000000  0.00000000  0.00000000  0.00000000  0.00000000  0.00000000  0.00000000  0.00000000
    Gval  0.00000000  0.00000000  0.00000000  0.00000000  0.00000000  0.00000000  0.00000000  0.00000000
    Gval  0.00000000  0.00000000  0.00000000  0.00000000  0.00000000  0.00000000  0.00000000  0.00000000
    Gval  0.00000000  0.00000000  0.00000000  0.00000000  0.00000000  0.00000000  0.00000000  0.00000000
    Gval  0.00000000  0.00000000  0.00000000  0.00000000  0.00000000  0.00000000  0.00000000  0.00000000
    Gval  0.00000000  0.00000000  0.00000000  0.00000000  0.00000000  0.00000000  0.00000000  0.00000000
    Gval  0.00000000  0.00000000  0.00000000  0.00000000  0.00000000  0.00000000  0.00000000  0.00000000
    Gval  0.00000000  0.00000000  0.00000000  0.00000000  0.00000000  0.00000000  0.00000000  0.00000000
    Gval  0.00000000  0.00000000  0.00000000  0.00000000  0.00000000  0.00000000  0.00000000  0.00000000
    Gval  0.00000000  0.00000000  0.00000000  0.00000000  0.00000000  0.00000000  0.00000000  0.00000000
    Gval  0.00000009  0.00000031  0.00000067  0.00000101  0.00000235  0.00000279  0.00000308  0.00000335
    Gval  0.00000560  0.00000800  0.00000846  0.00001037  0.00001176  0.00001226  0.00001289  0.00001572
    Gval  0.00001645  0.00001703  0.00001769  0.00001798  0.00001840  0.00002101  0.00002219  0.00002400
    Gval  0.00002423  0.00002544  0.00002986  0.00003060  0.00003145  0.00003610  0.00003668  0.00003929
    Gval  0.00003994  0.00004766  0.00004862  0.00004885  0.00005067  0.00005146  0.00005324  0.00005670
    Gval  0.00005703  0.00006031  0.00006267  0.00006835  0.00007025  0.00007086  0.00007374  0.00008055
    Gval  0.00008148  0.00008242  0.00008536  0.00008640  0.00008714  0.00009299  0.00009500  0.00009575
    Gval  0.00010306  0.00010329  0.00010707  0.00011498  0.00011535  0.00011908  0.00012247  0.00013445
    Gval  0.00013632  0.00013723  0.00014037  0.00014966  0.00015487  0.00015751  0.00015899  0.00016689
    Gval  0.00017693  0.00018126  0.00019354  0.00019815  0.00021948  0.00022166  0.00022526  0.00023011
    Gval  0.00023056  0.00025386  0.00026639  0.00028066  0.00028766  0.00029075  0.00029696  0.00030801
    Gval  0.00030981  0.00034081  0.00034234  0.00035919  0.00036743  0.00037153  0.00038269  0.00038944
    Gval  0.00039263  0.00040418  0.00041018  0.00042022  0.00042553  0.00043089  0.00043170  0.00043548
    Gval  0.00044063  0.00044216  0.00046220  0.00046761  0.00046893  0.00049568  0.00051979  0.00053411
    Gval  0.00053716  0.00055044  0.00055410  0.00055602  0.00055616  0.00059068  0.00059644  0.00059660
    Gval  0.00059850  0.00059923  0.00059957  0.00059984  0.00060219  0.00060552  0.00061652  0.00062294
    Gval  0.00063065  0.00063529  0.00064077  0.00064422  0.00064504  0.00064683  0.00066256  0.00067083
    Gval  0.00067707  0.00069407  0.00069775  0.00079971  0.00081580  0.00094014  0.00097525  0.00099996
    Gval  0.00103596  0.00108146  0.00109229  0.00109334  0.00109429  0.00109495  0.00109547  0.00114168
    Gval  0.00114286  0.00115270  0.00116531  0.00116562  0.00116583  0.00116617  0.00117126  0.00117185
    Gval  0.00118649  0.00118793  0.00120920  0.00126168  0.00129197  0.00129544  0.00138259  0.00148116
    Gval  0.00156385  0.00171585  0.00177651  0.00191748  0.00208468  0.00228107  0.00233937  0.00251983
    Gval  0.00252265  0.00255784  0.00264361  0.00279144  0.00291892  0.00292169  0.00294237  0.00302348
    Gval  0.00304208  0.00308122  0.00309621  0.00353262  0.00365540  0.00367381  0.00367627  0.00372076
    Gval  0.00372288  0.00394555  0.00397044
  8.556927355406895E-008  8.556927355406895E-008
  3.136993166144415E-007  8.556927355406895E-008
  6.700655768237958E-007  8.556927355406895E-008
  1.013546412379228E-006  8.556927355406895E-008
  2.345551337417100E-006  8.556927355406895E-008
  2.793605678336075E-006  8.556927355406895E-008
  3.083465158034772E-006  8.556927355406895E-008
  3.347680172544045E-006  8.556927355406895E-008
  5.598841202472251E-006  8.556927355406895E-008
  7.995939260557234E-006  8.556927355406895E-008
  8.463125660687998E-006  8.556927355406895E-008
  1.036825124415421E-005  8.556927355406895E-008
  1.175748470927706E-005  8.556927355406895E-008
  1.225529179590690E-005  8.556927355406895E-008
  1.288580739885359E-005  8.556927355406895E-008
  1.571905180532058E-005  8.556927355406895E-008
  1.644647880571748E-005  8.556927355406895E-008
  1.703091143284842E-005  8.556927355406895E-008
  1.768708624828589E-005  8.556927355406895E-008
  1.797698802812502E-005  8.556927355406895E-008
  1.840158805488906E-005  8.556927355406895E-008
  2.101267102622842E-005  8.556927355406895E-008
  2.219198159749365E-005  8.556927355406895E-008
  2.399881446495693E-005  8.556927355406895E-008
  2.422689615471179E-005  8.556927355406895E-008
  2.543708569654041E-005  8.556927355406895E-008
  2.986039555255279E-005  8.556927355406895E-008
  3.060337408554941E-005  8.556927355406895E-008
  3.144614133260171E-005  8.556927355406895E-008
  3.610472788736910E-005  8.556927355406895E-008
  3.667685708142979E-005  8.556927355406895E-008
  3.928742358740351E-005  8.556927355406895E-008
  3.994058198588993E-005  8.556927355406895E-008
  4.765785944449341E-005  8.556927355406895E-008
  4.862395667855469E-005  8.556927355406895E-008
  4.884597656636373E-005  8.556927355406895E-008
  5.067217405743548E-005  8.556927355406895E-008
  5.146464035048429E-005  8.556927355406895E-008
  5.323957927372894E-005  8.556927355406895E-008
  5.670151431575310E-005  8.556927355406895E-008
  5.703042668199342E-005  8.556927355406895E-008
  6.030765249275588E-005  8.556927355406895E-008
  6.267046568304973E-005  8.556927355406895E-008
  6.835382664691470E-005  8.556927355406895E-008
  7.025201712994825E-005  8.556927355406895E-008
  7.086178692143055E-005  8.556927355406895E-008
  7.373860734530779E-005  8.556927355406895E-008
  8.055394312979572E-005  8.556927355406895E-008
  8.147871148701448E-005  8.556927355406895E-008
  8.242381048310512E-005  8.556927355406895E-008
  8.536183216803935E-005  8.556927355406895E-008
  8.639952312674153E-005  8.556927355406895E-008
  8.713646873708737E-005  8.556927355406895E-008
  9.299413882128513E-005  8.556927355406895E-008
  9.499868192339841E-005  8.556927355406895E-008
  9.574655291700634E-005  8.556927355406895E-008
  1.030563451970959E-004  8.556927355406895E-008
  1.032929452019188E-004  8.556927355406895E-008
  1.070724662166278E-004  8.556927355406895E-008
  1.149835251276280E-004  8.556927355406895E-008
  1.153490152263136E-004  8.556927355406895E-008
  1.190820039255554E-004  8.556927355406895E-008
  1.224710990483896E-004  8.556927355406895E-008
  1.344465091805541E-004  8.556927355406895E-008
  1.363236942842436E-004  8.556927355406895E-008
  1.372281571146823E-004  8.556927355406895E-008
  1.403711582347665E-004  8.556927355406895E-008
  1.496603083306361E-004  8.556927355406895E-008
  1.548706064692651E-004  8.556927355406895E-008
  1.575068674174043E-004  8.556927355406895E-008
  1.589924452003873E-004  8.556927355406895E-008
  1.668944824796818E-004  8.556927355406895E-008
  1.769335324743268E-004  8.556927355406895E-008
  1.812604711772304E-004  8.556927355406895E-008
  1.935376661844191E-004  8.556927355406895E-008
  1.981460370968140E-004  8.556927355406895E-008
  2.194831206715517E-004  8.556927355406895E-008
  2.216605775314053E-004  8.556927355406895E-008
  2.252566063170098E-004  8.556927355406895E-008
  2.301103673186727E-004  8.556927355406895E-008
  2.305584326320242E-004  8.556927355406895E-008
  2.538596886437514E-004  8.556927355406895E-008
  2.663926631680420E-004  8.556927355406895E-008
  2.806591663570230E-004  8.556927355406895E-008
  2.876645186139206E-004  8.556927355406895E-008
  2.907462021849859E-004  8.556927355406895E-008
  2.969559939281874E-004  8.556927355406895E-008
  3.080091337474305E-004  8.556927355406895E-008
  3.098088988954121E-004  8.556927355406895E-008
  3.408073171718604E-004  8.556927355406895E-008
  3.423399373162371E-004  8.556927355406895E-008
  3.591934170441168E-004  8.556927355406895E-008
  3.674294453618632E-004  8.556927355406895E-008
  3.715329296309712E-004  8.556927355406895E-008
  3.826942739003494E-004  8.556927355406895E-008
  3.894393936684480E-004  8.556927355406895E-008
  3.926315419497142E-004  8.556927355406895E-008
  4.041817109967355E-004  8.556927355406895E-008
  4.101845414485654E-004  8.556927355406895E-008
  4.202188546910554E-004  8.556927355406895E-008
  4.255336520670724E-004  8.556927355406895E-008
  4.308860085809371E-004  8.556927355406895E-008
  4.316955299861861E-004  8.556927355406895E-008
  4.354761467779109E-004  8.556927355406895E-008
  4.406251874385610E-004  8.556927355406895E-008
  4.421642482808665E-004  8.556927355406895E-008
  4.621967038681454E-004  8.556927355406895E-008
  4.676137926458695E-004  8.556927355406895E-008
  4.689307599256442E-004  8.556927355406895E-008
  4.956817478959720E-004  8.556927355406895E-008
  5.197929061742549E-004  8.556927355406895E-008
  5.341122304254811E-004  8.556927355406895E-008
  5.371614986614771E-004  8.556927355406895E-008
  5.504447538145910E-004  8.556927355406895E-008
  5.541009408137445E-004  8.556927355406895E-008
  5.560150632837741E-004  8.556927355406895E-008
  5.561632239780538E-004  8.556927355406895E-008
  5.906784637503098E-004  8.556927355406895E-008
  5.964439171033294E-004  8.556927355406895E-008
  5.966045551315373E-004  8.556927355406895E-008
  5.984950703217563E-004  8.556927355406895E-008
  5.992301119473686E-004  8.556927355406895E-008
  5.995665600456454E-004  8.556927355406895E-008
  5.998417562523152E-004  8.556927355406895E-008
  6.021857461385549E-004  8.556927355406895E-008
  6.055232736032442E-004  8.556927355406895E-008
  6.165248781776140E-004  8.556927355406895E-008
  6.229449918573279E-004  8.556927355406895E-008
  6.306511533293561E-004  8.556927355406895E-008
  6.352941838685723E-004  8.556927355406895E-008
  6.407653196032364E-004  8.556927355406895E-008
  6.442221432202958E-004  8.556927355406895E-008
  6.450381842994456E-004  8.556927355406895E-008
  6.468262681746396E-004  8.556927355406895E-008
  6.625613358130854E-004  8.556927355406895E-008
  6.708320370893936E-004  8.556927355406895E-008
  6.770656278091672E-004  8.556927355406895E-008
  6.940747107845814E-004  8.556927355406895E-008
  6.977459225301302E-004  8.556927355406895E-008
  7.997105660296188E-004  8.556927355406895E-008
  8.157989807921160E-004  8.556927355406895E-008
  9.401410408172008E-004  8.556927355406895E-008
  9.752474088837073E-004  8.556927355406895E-008
  9.999569778470071E-004  8.556927355406895E-008
  1.035964472710211E-003  8.556927355406895E-008
  1.081459909532262E-003  8.556927355406895E-008
  1.092290584874714E-003  8.556927355406895E-008
  1.093340895422274E-003  8.556927355406895E-008
  1.094289877981100E-003  8.556927355406895E-008
  1.094945567029810E-003  8.556927355406895E-008
  1.095467413573858E-003  8.556927355406895E-008
  1.141675592203332E-003  8.556927355406895E-008
  1.142861949174013E-003  8.556927355406895E-008
  1.152699863791587E-003  8.556927355406895E-008
  1.165305500579855E-003  8.556927355406895E-008
  1.165616487329197E-003  8.556927355406895E-008
  1.165826813314986E-003  8.556927355406895E-008
  1.166173896877681E-003  8.556927355406895E-008
  1.171259255944289E-003  8.556927355406895E-008
  1.171853178354146E-003  8.556927355406895E-008
  1.186485365701040E-003  8.556927355406895E-008
  1.187934146081698E-003  8.556927355406895E-008
  1.209202901771382E-003  8.556927355406895E-008
  1.261678536475524E-003  8.556927355406895E-008
  1.291970042580381E-003  8.556927355406895E-008
  1.295435955355236E-003  8.556927355406895E-008
  1.382585130254482E-003  8.556927355406895E-008
  1.481158704082935E-003  8.556927355406895E-008
  1.563846891299260E-003  8.556927355406895E-008
  1.715854546959797E-003  8.556927355406895E-008
  1.776508899916858E-003  8.556927355406895E-008
  1.917484195271130E-003  8.556927355406895E-008
  2.084683642310859E-003  8.556927355406895E-008
  2.281070475383294E-003  8.556927355406895E-008
  2.339365836808897E-003  8.556927355406895E-008
  2.519825173973907E-003  8.556927355406895E-008
  2.522647387005408E-003  8.556927355406895E-008
  2.557839409729788E-003  8.556927355406895E-008
  2.643609305270556E-003  8.556927355406895E-008
  2.791438120863953E-003  8.556927355406895E-008
  2.918921513950964E-003  8.556927355406895E-008
  2.921693634086754E-003  8.556927355406895E-008
  2.942368202751441E-003  8.556927355406895E-008
  3.023477922120239E-003  8.556927355406895E-008
  3.042079735728227E-003  8.556927355406895E-008
  3.081216582651583E-003  8.556927355406895E-008
  3.096211391614216E-003  8.556927355406895E-008
  3.532619347081937E-003  8.556927355406895E-008
  3.655398088307108E-003  8.556927355406895E-008
  3.673811727908859E-003  8.556927355406895E-008
  3.676271752636886E-003  8.556927355406895E-008
  3.720759671789598E-003  8.556927355406895E-008
  3.722877465776818E-003  8.556927355406895E-008
  3.945546841864935E-003  8.556927355406895E-008
  3.970441982372946E-003  8.556927355406895E-008
 cut=1d-8, nber non-redundant internal coords=         195
 Check on Eigenvals of non-red overlap matrix:
  0.00000009  0.00000031  0.00000067  0.00000101  0.00000235  0.00000279  0.00000308  0.00000335
  0.00000560  0.00000800  0.00000846  0.00001037  0.00001176  0.00001226  0.00001289  0.00001572
  0.00001645  0.00001703  0.00001769  0.00001798  0.00001840  0.00002101  0.00002219  0.00002400
  0.00002423  0.00002544  0.00002986  0.00003060  0.00003145  0.00003610  0.00003668  0.00003929
  0.00003994  0.00004766  0.00004862  0.00004885  0.00005067  0.00005146  0.00005324  0.00005670
  0.00005703  0.00006031  0.00006267  0.00006835  0.00007025  0.00007086  0.00007374  0.00008055
  0.00008148  0.00008242  0.00008536  0.00008640  0.00008714  0.00009299  0.00009500  0.00009575
  0.00010306  0.00010329  0.00010707  0.00011498  0.00011535  0.00011908  0.00012247  0.00013445
  0.00013632  0.00013723  0.00014037  0.00014966  0.00015487  0.00015751  0.00015899  0.00016689
  0.00017693  0.00018126  0.00019354  0.00019815  0.00021948  0.00022166  0.00022526  0.00023011
  0.00023056  0.00025386  0.00026639  0.00028066  0.00028766  0.00029075  0.00029696  0.00030801
  0.00030981  0.00034081  0.00034234  0.00035919  0.00036743  0.00037153  0.00038269  0.00038944
  0.00039263  0.00040418  0.00041018  0.00042022  0.00042553  0.00043089  0.00043170  0.00043548
  0.00044063  0.00044216  0.00046220  0.00046761  0.00046893  0.00049568  0.00051979  0.00053411
  0.00053716  0.00055044  0.00055410  0.00055602  0.00055616  0.00059068  0.00059644  0.00059660
  0.00059850  0.00059923  0.00059957  0.00059984  0.00060219  0.00060552  0.00061652  0.00062294
  0.00063065  0.00063529  0.00064077  0.00064422  0.00064504  0.00064683  0.00066256  0.00067083
  0.00067707  0.00069407  0.00069775  0.00079971  0.00081580  0.00094014  0.00097525  0.00099996
  0.00103596  0.00108146  0.00109229  0.00109334  0.00109429  0.00109495  0.00109547  0.00114168
  0.00114286  0.00115270  0.00116531  0.00116562  0.00116583  0.00116617  0.00117126  0.00117185
  0.00118649  0.00118793  0.00120920  0.00126168  0.00129197  0.00129544  0.00138259  0.00148116
  0.00156385  0.00171585  0.00177651  0.00191748  0.00208468  0.00228107  0.00233937  0.00251983
  0.00252265  0.00255784  0.00264361  0.00279144  0.00291892  0.00292169  0.00294237  0.00302348
  0.00304208  0.00308122  0.00309621  0.00353262  0.00365540  0.00367381  0.00367627  0.00372076
  0.00372288  0.00394555  0.00397044
 Checking for correct frequencies
 recalc frequencies=
    -0.0   -0.0    0.0    0.0    0.0    0.0    7.7   15.9   17.6   24.8
    29.9   38.8   54.7   59.0   68.7   74.8   88.2   94.3  106.3  106.5
   129.9  137.3  167.7  172.1  185.3  193.0  201.2  208.2  212.3  220.5
   234.0  235.5  237.8  253.6  256.1  289.9  301.9  304.0  322.0  345.5
   347.6  368.9  390.0  395.7  410.9  417.6  419.3  431.7  438.9  440.6
   447.2  447.9  466.2  467.5  471.8  480.6  484.1  499.1  500.6  505.9
   513.2  543.5  551.6  571.1  574.5  576.6  595.9  604.7  615.8  619.9
   632.2  632.9  652.0  665.0  677.2  677.8  699.2  700.8  708.4  718.5
   727.1  743.6  750.1  757.7  763.7  765.5  801.9  807.7  809.4  811.9
   815.3  824.8  826.5  832.3  840.6  844.7  857.8  875.1  901.3  907.2
   914.1  920.2  935.4  945.1  953.7  956.7  962.0  974.9  976.7  988.0
   988.9 1026.4 1030.2 1062.6 1091.9 1092.9 1104.4 1126.7 1137.7 1155.4
  1158.2 1161.4 1170.3 1181.7 1185.7 1195.6 1197.6 1212.5 1223.7 1226.7
  1232.6 1241.7 1244.0 1253.3 1281.1 1295.4 1312.8 1318.2 1320.4 1327.2
  1340.6 1352.7 1364.3 1366.8 1371.5 1380.3 1382.1 1392.2 1400.1 1401.8
  1404.9 1416.1 1430.0 1438.6 1447.4 1450.7 1460.8 1466.3 1484.8 1493.4
  1497.5 1500.1 1505.2 1510.4 1522.6 1531.3 1546.0 1553.8 1571.3 1582.1
  1599.6 1601.0 1620.5 1648.0 1657.5 1686.2 1690.2 1725.0 1732.2 3034.4
  3038.5 3092.4 3095.6 3112.5 3125.8 3132.5 3136.8 3142.9 3198.2 3198.7
  3205.8 3206.2 3208.1 3212.7 3213.5 3213.9 3216.9 3223.7 3224.3 3239.0
  3244.9
 recalc symmetries=
                                                                       
                                                                       
                                                                       
                                                                       
                                                                       
                                                                       
                                                                       
                                                                       
                                                                       
                                                                       
                                                                       
                                                                       
                                                                       
                                                                       
                                                                       
                                                                       
                                                                       
                                                                       
                                                                       
                                                                       
        
 recalc freqs check OK
 Zero-point lengths:
 10.0000 10.0000 10.0000 10.0000 10.0000 10.0000 89.3102 62.1410 59.1261 49.8148
 45.3430 39.8005 33.5139 32.2843 29.9086 28.6591 26.4026 25.5340 24.0432 24.0197
 21.7513 21.1605 19.1453 18.8975 18.2120 17.8472 17.4775 17.1808 17.0147 16.6962
 16.2069 16.1556 16.0770 15.5667 15.4928 14.5605 14.2672 14.2185 13.8154 13.3373
 13.2969 12.9069 12.5532 12.4629 12.2301 12.1318 12.1063 11.9324 11.8339 11.8111
 11.7230 11.7143 11.4816 11.4657 11.4135 11.3081 11.2674 11.0974 11.0802 11.0222
 10.9437 10.6343 10.5554 10.3739 10.3427 10.3243 10.1560 10.0813  9.9898  9.9568
  9.8595  9.8545  9.7087  9.6133  9.5263  9.5222  9.3758  9.3650  9.3143  9.2488
  9.1939  9.0916  9.0517  9.0064  8.9711  8.9600  8.7545  8.7233  8.7139  8.7003
  8.6823  8.6321  8.6234  8.5932  8.5508  8.5299  8.4647  8.3807  8.2579  8.2309
  8.1996  8.1725  8.1059  8.0641  8.0277  8.0152  7.9928  7.9401  7.9324  7.8872
  7.8833  7.7383  7.7238  7.6052  7.5025  7.4992  7.4597  7.3857  7.3501  7.2933
  7.2845  7.2747  7.2469  7.2118  7.1995  7.1697  7.1637  7.1197  7.0869  7.0783
  7.0612  7.0354  7.0289  7.0027  6.9265  6.8879  6.8423  6.8281  6.8224  6.8050
  6.7710  6.7405  6.7119  6.7057  6.6941  6.6729  6.6684  6.6443  6.6254  6.6214
  6.6141  6.5878  6.5558  6.5362  6.5163  6.5088  6.4864  6.4742  6.4336  6.4151
  6.4063  6.4007  6.3900  6.3790  6.3534  6.3353  6.3050  6.2893  6.2541  6.2328
  6.1985  6.1959  6.1585  6.1069  6.0893  6.0372  6.0302  5.9689  5.9566  4.5005
  4.4975  4.4581  4.4558  4.4436  4.4342  4.4294  4.4264  4.4221  4.3837  4.3834
  4.3785  4.3782  4.3770  4.3738  4.3733  4.3730  4.3710  4.3664  4.3659  4.3561
  4.3521
 highest evec of mol 1
  0.0000 -0.0000 -0.0000
 -0.0000 -0.0000 -0.0000
  0.0000 -0.0000 -0.0000
 -0.0000 -0.0000  0.0000
  0.0000 -0.0000 -0.0000
 -0.0000 -0.0000  0.0000
 -0.0000 -0.0000  0.0000
  0.0000  0.0000 -0.0000
  0.0000  0.0000 -0.0000
 -0.0000 -0.0000  0.0000
  0.0000  0.0000 -0.0000
 -0.0000 -0.0001  0.0000
 -0.0000  0.0000  0.0001
  0.0000 -0.0001 -0.0001
 -0.0001  0.0000  0.0002
  0.0000 -0.0000 -0.0000
  0.0000 -0.0001 -0.0002
 -0.0006 -0.0007  0.0013
 -0.0009 -0.0014  0.0016
  0.0000 -0.0000 -0.0000
 -0.0001 -0.0003  0.0002
  0.0001  0.0005  0.0001
 -0.0009 -0.0017  0.0015
  0.0008 -0.0017 -0.0029
  0.0009  0.0015 -0.0016
 -0.0570  0.1609  0.2267
 -0.0344 -0.0686  0.0552
  0.0024 -0.0015 -0.0070
 -0.0001  0.0002  0.0003
  0.0000  0.0002  0.0001
 -0.0000 -0.0001 -0.0000
 -0.0000 -0.0000  0.0000
 -0.0001 -0.0001  0.0001
 -0.0000 -0.0001  0.0001
  0.0000  0.0000 -0.0001
  0.0000  0.0001  0.0000
 -0.0001 -0.0001  0.0001
 -0.0000 -0.0001  0.0000
  0.0000  0.0001  0.0000
  0.0000 -0.0001 -0.0001
 -0.0000  0.0000  0.0000
 -0.0000  0.0000  0.0000
  0.0000  0.0000 -0.0000
 -0.0000  0.0000  0.0000
  0.0001  0.0001 -0.0001
 -0.0000  0.0001  0.0001
  0.0000 -0.0000 -0.0000
  0.0000 -0.0000 -0.0000
  0.0000  0.0001 -0.0000
  0.0000 -0.0000 -0.0000
 -0.0000  0.0001  0.0001
 -0.0000 -0.0000 -0.0000
 -0.0000 -0.0000  0.0001
 -0.0000 -0.0001  0.0000
  0.0001  0.0001 -0.0002
  0.0000  0.0000  0.0000
  0.0022  0.0031 -0.0040
  0.0030  0.0046 -0.0054
  0.0001  0.0002 -0.0003
  0.0003  0.0005 -0.0005
  0.0025  0.0042 -0.0045
  0.1983 -0.4846 -0.7515
  0.1018  0.1677 -0.1812
  0.0002  0.0002 -0.0003
  0.0000  0.0002 -0.0000
  0.0001  0.0001 -0.0003
  0.0001  0.0004 -0.0000
 generating redundant internal coords
         300        3600          67
 Adding extra bonds for z output only
           6           6           6           7           6           8
           6           6           6           6           6           6
           6           6           6           8           7           6
           6           6           6           6           6           6
          16           6           6           6          16           6
           8           6           6           6           6           6
           6           6           6           6           8           6
           6           6           6           1           1           1
           1           1           1           1           1           1
           1           1           1           1           1           1
           1           1           1           1           1           1
           1
 search for int coords
   1 str   2   1   1.532
   2 str   3   2   1.532
   3 str   4   2   1.498
   4 str   5   4   1.399
   5 str   6   5   1.222
   6 str   7   5   1.480
   7 str   8   7   1.400
   8 str   9   8   1.380
   9 str  10   9   1.422
  10 str  11  10   1.441
  11 str  12  11   1.422
  12 str  13  12   1.379
  13 str  14  13   1.401
  14 str  15  14   1.475
  15 str  16  15   1.220
  16 str  17  15   1.414
  17 str  18  17   1.415
  18 str  19  18   1.350
  19 str  20  19   1.440
  20 str  21  20   1.354
  21 str  22  21   1.439
  22 str  23  22   1.379
  23 str  24  23   1.415
  24 str  25  24   1.745
  25 str  26  25   1.749
  26 str  27  26   1.365
  27 str  28  24   1.390
  28 str  28  27   1.421
  29 str  29  22   1.774
  30 str  29  28   1.744
  31 str  30  17   1.431
  32 str  31  30   1.218
  33 str  32  30   1.469
  34 str  33  32   1.402
  35 str  34  33   1.379
  36 str  35  34   1.422
  37 str  36  35   1.441
  38 str  37  36   1.422
  39 str  38  37   1.380
  40 str  39  38   1.400
  41 str  40   4   1.408
  42 str  40  39   1.477
  43 str  41  40   1.221
  44 str  42   7   1.411
  45 str  42  39   1.410
  46 str  43  10   1.427
  47 str  43  36   1.427
  48 str  43  42   1.428
  49 str  44  11   1.427
  50 str  44  35   1.427
  51 str  45  14   1.411
  52 str  45  32   1.410
  53 str  45  44   1.428
  54 str  46   1   1.093
  55 str  47   1   1.089
  56 str  48   1   1.093
  57 str  49   2   1.088
  58 str  50   3   1.089
  59 str  51   3   1.093
  60 str  52   3   1.093
  61 str  53   8   1.082
  62 str  54   9   1.081
  63 str  55  12   1.081
  64 str  56  13   1.082
  65 str  57  18   1.081
  66 str  58  19   1.079
  67 str  59  20   1.088
  68 str  60  21   1.088
  69 str  61  23   1.082
  70 str  62  26   1.079
  71 str  63  27   1.081
  72 str  64  33   1.082
  73 str  65  34   1.081
  74 str  66  37   1.081
  75 str  67  38   1.082
 nber stretches=          75
  76 ben   1   2   3
  77 prop tor   1   2   3  50
  78 prop tor   1   2   3  51
  79 prop tor   1   2   3  52
  80 ben   1   2   4
  81 prop tor   1   2   4   5
  82 prop tor   1   2   4  40
  83 ben   1   2  49
  84 ben   2   1  46
  85 ben   2   1  47
  86 ben   2   1  48
  87 ben   2   3  50
  88 ben   2   3  51
  89 ben   2   3  52
  90 ben   2   4   5
  91 prop tor   2   4   5   6
  92 prop tor   2   4   5   7
  93 ben   2   4  40
  94 prop tor   2   4  40  39
  95 prop tor   2   4  40  41
  96 ben   3   2   4
  97 prop tor   3   2   4   5
  98 prop tor   3   2   4  40
  99 ben   3   2  49
 100 prop tor   4   2   3  50
 101 prop tor   4   2   3  51
 102 prop tor   4   2   3  52
 103 ben   4   2  49
 104 ben   4   5   6
 105 ben   4   5   7
 106 prop tor   4   5   7   8
 107 prop tor   4   5   7  42
 108 ben   4  40  39
 109 ben   4  40  41
 110 ben   5   4  40
 111 prop tor   5   4  40  39
 112 prop tor   5   4  40  41
 113 ben   5   7   8
 114 prop tor   5   7   8   9
 115 prop tor   5   7   8  53
 116 ben   5   7  42
 117 prop tor   5   7  42  39
 118 prop tor   5   7  42  43
 119 ben   6   5   7
 120 prop tor   6   5   7   8
 121 prop tor   6   5   7  42
 122 ben   7   8   9
 123 prop tor   7   8   9  10
 124 prop tor   7   8   9  54
 125 ben   7   8  53
 126 ben   7  42  39
 127 ben   7  42  43
 128 prop tor   7  42  43  10
 129 prop tor   7  42  43  36
 130 ben   8   7  42
 131 prop tor   8   7  42  39
 132 prop tor   8   7  42  43
 133 ben   8   9  10
 134 prop tor   8   9  10  11
 135 prop tor   8   9  10  43
 136 ben   8   9  54
 137 ben   9   8  53
 138 ben   9  10  11
 139 prop tor   9  10  11  12
 140 prop tor   9  10  11  44
 141 ben   9  10  43
 142 prop tor   9  10  43  36
 143 prop tor   9  10  43  42
 144 ben  10   9  54
 145 ben  10  11  12
 146 prop tor  10  11  12  13
 147 prop tor  10  11  12  55
 148 ben  10  11  44
 149 prop tor  10  11  44  35
 150 prop tor  10  11  44  45
 151 ben  10  43  36
 152 ben  10  43  42
 153 ben  11  10  43
 154 prop tor  11  10  43  36
 155 prop tor  11  10  43  42
 156 ben  11  12  13
 157 prop tor  11  12  13  14
 158 prop tor  11  12  13  56
 159 ben  11  12  55
 160 ben  11  44  35
 161 ben  11  44  45
 162 prop tor  11  44  45  14
 163 prop tor  11  44  45  32
 164 ben  12  11  44
 165 prop tor  12  11  44  35
 166 prop tor  12  11  44  45
 167 ben  12  13  14
 168 prop tor  12  13  14  15
 169 prop tor  12  13  14  45
 170 ben  12  13  56
 171 ben  13  12  55
 172 ben  13  14  15
 173 prop tor  13  14  15  16
 174 prop tor  13  14  15  17
 175 ben  13  14  45
 176 prop tor  13  14  45  32
 177 prop tor  13  14  45  44
 178 ben  14  13  56
 179 ben  14  15  16
 180 ben  14  15  17
 181 prop tor  14  15  17  18
 182 prop tor  14  15  17  30
 183 ben  14  45  32
 184 ben  14  45  44
 185 ben  15  14  45
 186 prop tor  15  14  45  32
 187 prop tor  15  14  45  44
 188 ben  15  17  18
 189 prop tor  15  17  18  19
 190 prop tor  15  17  18  57
 191 ben  15  17  30
 192 prop tor  15  17  30  31
 193 prop tor  15  17  30  32
 194 ben  16  15  17
 195 prop tor  16  15  17  18
 196 prop tor  16  15  17  30
 197 ben  17  18  19
 198 prop tor  17  18  19  20
 199 prop tor  17  18  19  58
 200 ben  17  18  57
 201 ben  17  30  31
 202 ben  17  30  32
 203 prop tor  17  30  32  33
 204 prop tor  17  30  32  45
 205 ben  18  17  30
 206 prop tor  18  17  30  31
 207 prop tor  18  17  30  32
 208 ben  18  19  20
 209 prop tor  18  19  20  21
 210 prop tor  18  19  20  59
 211 ben  18  19  58
 212 ben  19  18  57
 213 ben  19  20  21
 214 prop tor  19  20  21  22
 215 prop tor  19  20  21  60
 216 ben  19  20  59
 217 ben  20  19  58
 218 ben  20  21  22
 219 prop tor  20  21  22  23
 220 prop tor  20  21  22  29
 221 ben  20  21  60
 222 ben  21  20  59
 223 ben  21  22  23
 224 prop tor  21  22  23  24
 225 prop tor  21  22  23  61
 226 ben  21  22  29
 227 prop tor  21  22  29  28
 228 ben  22  21  60
 229 ben  22  23  24
 230 prop tor  22  23  24  25
 231 prop tor  22  23  24  28
 232 ben  22  23  61
 233 ben  22  29  28
 234 ben  23  22  29
 235 prop tor  23  22  29  28
 236 ben  23  24  25
 237 prop tor  23  24  25  26
 238 ben  23  24  28
 239 prop tor  23  24  28  27
 240 prop tor  23  24  28  29
 241 ben  24  23  61
 242 ben  24  25  26
 243 prop tor  24  25  26  27
 244 prop tor  24  25  26  62
 245 ben  24  28  27
 246 ben  24  28  29
 247 prop tor  24  28  29  22
 248 ben  25  24  28
 249 prop tor  25  24  28  27
 250 prop tor  25  24  28  29
 251 ben  25  26  27
 252 prop tor  25  26  27  28
 253 prop tor  25  26  27  63
 254 ben  25  26  62
 255 ben  26  27  28
 256 prop tor  26  27  28  24
 257 prop tor  26  27  28  29
 258 ben  26  27  63
 259 ben  27  26  62
 260 ben  27  28  29
 261 prop tor  27  28  29  22
 262 prop tor  28  24  25  26
 263 ben  28  27  63
 264 prop tor  29  22  23  24
 265 prop tor  29  22  23  61
 266 prop tor  30  17  18  19
 267 prop tor  30  17  18  57
 268 ben  30  32  33
 269 prop tor  30  32  33  34
 270 prop tor  30  32  33  64
 271 ben  30  32  45
 272 prop tor  30  32  45  14
 273 prop tor  30  32  45  44
 274 ben  31  30  32
 275 prop tor  31  30  32  33
 276 prop tor  31  30  32  45
 277 ben  32  33  34
 278 prop tor  32  33  34  35
 279 prop tor  32  33  34  65
 280 ben  32  33  64
 281 ben  32  45  44
 282 ben  33  32  45
 283 prop tor  33  32  45  14
 284 prop tor  33  32  45  44
 285 ben  33  34  35
 286 prop tor  33  34  35  36
 287 prop tor  33  34  35  44
 288 ben  33  34  65
 289 ben  34  33  64
 290 ben  34  35  36
 291 prop tor  34  35  36  37
 292 prop tor  34  35  36  43
 293 ben  34  35  44
 294 prop tor  34  35  44  11
 295 prop tor  34  35  44  45
 296 ben  35  34  65
 297 ben  35  36  37
 298 prop tor  35  36  37  38
 299 prop tor  35  36  37  66
 300 ben  35  36  43
 301 prop tor  35  36  43  10
 302 prop tor  35  36  43  42
 303 ben  35  44  45
 304 prop tor  35  44  45  14
 305 prop tor  35  44  45  32
 306 ben  36  35  44
 307 prop tor  36  35  44  11
 308 prop tor  36  35  44  45
 309 ben  36  37  38
 310 prop tor  36  37  38  39
 311 prop tor  36  37  38  67
 312 ben  36  37  66
 313 ben  36  43  42
 314 ben  37  36  43
 315 prop tor  37  36  43  10
 316 prop tor  37  36  43  42
 317 ben  37  38  39
 318 prop tor  37  38  39  40
 319 prop tor  37  38  39  42
 320 ben  37  38  67
 321 ben  38  37  66
 322 ben  38  39  40
 323 prop tor  38  39  40   4
 324 prop tor  38  39  40  41
 325 ben  38  39  42
 326 prop tor  38  39  42   7
 327 prop tor  38  39  42  43
 328 ben  39  38  67
 329 ben  39  40  41
 330 ben  39  42  43
 331 prop tor  39  42  43  10
 332 prop tor  39  42  43  36
 333 prop tor  40   4   5   6
 334 prop tor  40   4   5   7
 335 ben  40  39  42
 336 prop tor  40  39  42   7
 337 prop tor  40  39  42  43
 338 prop tor  42   7   8   9
 339 prop tor  42   7   8  53
 340 prop tor  42  39  40   4
 341 prop tor  42  39  40  41
 342 prop tor  43  10  11  12
 343 prop tor  43  10  11  44
 344 prop tor  43  36  37  38
 345 prop tor  43  36  37  66
 346 prop tor  44  11  12  13
 347 prop tor  44  11  12  55
 348 prop tor  44  35  36  37
 349 prop tor  44  35  36  43
 350 prop tor  45  14  15  16
 351 prop tor  45  14  15  17
 352 prop tor  45  32  33  34
 353 prop tor  45  32  33  64
 354 prop tor  46   1   2   3
 355 prop tor  46   1   2   4
 356 prop tor  46   1   2  49
 357 ben  46   1  47
 358 ben  46   1  48
 359 prop tor  47   1   2   3
 360 prop tor  47   1   2   4
 361 prop tor  47   1   2  49
 362 ben  47   1  48
 363 prop tor  48   1   2   3
 364 prop tor  48   1   2   4
 365 prop tor  48   1   2  49
 366 prop tor  49   2   3  50
 367 prop tor  49   2   3  51
 368 prop tor  49   2   3  52
 369 prop tor  49   2   4   5
 370 prop tor  49   2   4  40
 371 ben  50   3  51
 372 ben  50   3  52
 373 ben  51   3  52
 374 prop tor  53   8   9  10
 375 prop tor  53   8   9  54
 376 prop tor  54   9  10  11
 377 prop tor  54   9  10  43
 378 prop tor  55  12  13  14
 379 prop tor  55  12  13  56
 380 prop tor  56  13  14  15
 381 prop tor  56  13  14  45
 382 prop tor  57  18  19  20
 383 prop tor  57  18  19  58
 384 prop tor  58  19  20  21
 385 prop tor  58  19  20  59
 386 prop tor  59  20  21  22
 387 prop tor  59  20  21  60
 388 prop tor  60  21  22  23
 389 prop tor  60  21  22  29
 390 prop tor  61  23  24  25
 391 prop tor  61  23  24  28
 392 prop tor  62  26  27  28
 393 prop tor  62  26  27  63
 394 prop tor  63  27  28  24
 395 prop tor  63  27  28  29
 396 prop tor  64  33  34  35
 397 prop tor  64  33  34  65
 398 prop tor  65  34  35  36
 399 prop tor  65  34  35  44
 400 prop tor  66  37  38  39
 401 prop tor  66  37  38  67
 402 prop tor  67  38  39  40
 403 prop tor  67  38  39  42
 nber bend=             128
 nber lin bend=           0
 nber prop tor=         200
 nber impr tor=           0
 nber tot redund int=         403
 Reading file: 
 ./TT-PDI_4_C0S3.log                                                            
                                          
  Entering Gaussian System, Link 0=g16                                          
  
 Gaussian format, type: g94, g98, g03= F F F
  #P Geom=AllCheck Guess=TCheck SCRF=Check GenChk RB3LYP TD(FC,Read)/6-3    
 energy type= TD      
 Original G94 input coords:
  6  1.205739 -0.261310  1.010793
  6  2.220560 -0.028117 -0.114283
  6  1.667459 -0.357901 -1.505463
  7  2.807706  1.341557 -0.059142
  6  4.194896  1.428789  0.193198
  8  4.869362  0.418686  0.356954
  6  4.777294  2.775300  0.247879
  6  6.144086  2.919161  0.494153
  6  6.723660  4.171929  0.551874
  6  5.968355  5.352005  0.366326
  6  6.563937  6.670217  0.424663
  6  7.945242  6.860037  0.672798
  6  8.502601  8.115484  0.726503
  6  7.716880  9.262599  0.535921
  6  8.358529 10.563439  0.603748
  8  9.549481 10.731077  0.817596
  7  7.504538 11.702213  0.401169
  6  7.997342 12.999557  0.442896
  6  9.248664 13.458793  0.657460
  6  9.462090 14.883209  0.643427
  6 10.646357 15.501282  0.839699
  6 10.862948 16.930854  0.826297
  6 12.032871 17.628103  1.009638
  6 11.840441 19.053354  0.923889
 16 12.855453 20.424101  1.054522
  6 11.530527 21.533215  0.778012
  6 10.351625 20.870465  0.592283
  6 10.538053 19.448646  0.677525
 16  9.518997 18.070696  0.546512
  6  6.072025 11.609186  0.139066
  8  5.433723 12.638652 -0.019637
  6  5.520812 10.275714  0.089353
  6  4.146279 10.121547 -0.159276
  6  3.574278  8.874235 -0.215718
  6  4.338358  7.694962 -0.027248
  6  3.743173  6.378209 -0.084667
  6  2.365072  6.180209 -0.330582
  6  1.808195  4.917134 -0.383194
  6  2.596328  3.780387 -0.193353
  6  1.970982  2.452906 -0.256183
  8  0.772204  2.305066 -0.470470
  6  3.978696  3.923795  0.055595
  6  4.568988  5.229666  0.112984
  6  5.739879  7.821562  0.226888
  6  6.332574  9.132697  0.284808
  1  0.911912 -1.315255  1.017411
  1  0.314980  0.351289  0.878133
  1  1.651661 -0.032395  1.982397
  1  3.078685 -0.671560  0.067919
  1  0.795859  0.250561 -1.742938
  1  1.380939 -1.413384 -1.537639
  1  2.431886 -0.195462 -2.270009
  1  6.734522  2.023248  0.638084
  1  7.785233  4.235161  0.745074
  1  8.587341  6.004667  0.825400
  1  9.560127  8.246220  0.917125
  1  7.193367 13.705809  0.266863
  1 10.077029 12.792661  0.836274
  1  8.573564 15.487612  0.455945
  1 11.537174 14.910494  1.026282
  1 12.979545 17.142983  1.195600
  1 11.721543 22.593578  0.773407
  1  9.408500 21.363653  0.406305
  1  3.550082 11.013243 -0.305172
  1  2.513856  8.802484 -0.409546
  1  1.716396  7.031154 -0.483476
  1  0.751109  4.779514 -0.572263
 nber atoms=          67
  Total Energy, E(TD-HF/TD-DFT) =  -2630.47640943                               
  
          32          49 "  -2630.47640943"
After scan for Atom:   Atom  AN      X      Y      Z        X      Y      Z        X      Y      Z   
After scan for Atom:   Atom  AN      X      Y      Z        X      Y      Z        X      Y      Z   
After scan for Atom:   Atom  AN      X      Y      Z        X      Y      Z        X      Y      Z   
After scan for Atom:   Atom  AN      X      Y      Z        X      Y      Z        X      Y      Z   
After scan for Atom:   Atom  AN      X      Y      Z        X      Y      Z        X      Y      Z   
After scan for Atom:   Atom  AN      X      Y      Z        X      Y      Z        X      Y      Z   
After scan for Atom:   Atom  AN      X      Y      Z        X      Y      Z        X      Y      Z   
After scan for Atom:   Atom  AN      X      Y      Z        X      Y      Z        X      Y      Z   
After scan for Atom:   Atom  AN      X      Y      Z        X      Y      Z        X      Y      Z   
After scan for Atom:   Atom  AN      X      Y      Z        X      Y      Z        X      Y      Z   
After scan for Atom:   Atom  AN      X      Y      Z        X      Y      Z        X      Y      Z   
After scan for Atom:   Atom  AN      X      Y      Z        X      Y      Z        X      Y      Z   
After scan for Atom:   Atom  AN      X      Y      Z        X      Y      Z        X      Y      Z   
After scan for Atom:   Atom  AN      X      Y      Z        X      Y      Z        X      Y      Z   
After scan for Atom:   Atom  AN      X      Y      Z        X      Y      Z        X      Y      Z   
After scan for Atom:   Atom  AN      X      Y      Z        X      Y      Z        X      Y      Z   
After scan for Atom:   Atom  AN      X      Y      Z        X      Y      Z        X      Y      Z   
After scan for Atom:   Atom  AN      X      Y      Z        X      Y      Z        X      Y      Z   
After scan for Atom:   Atom  AN      X      Y      Z        X      Y      Z        X      Y      Z   
After scan for Atom:   Atom  AN      X      Y      Z        X      Y      Z        X      Y      Z   
After scan for Atom:   Atom  AN      X      Y      Z        X      Y      Z        X      Y      Z   
After scan for Atom:   Atom  AN      X      Y      Z        X      Y      Z        X      Y      Z   
After scan for Atom:   Atom  AN      X      Y      Z        X      Y      Z        X      Y      Z   
After scan for Atom:   Atom  AN      X      Y      Z        X      Y      Z        X      Y      Z   
After scan for Atom:   Atom  AN      X      Y      Z        X      Y      Z        X      Y      Z   
After scan for Atom:   Atom  AN      X      Y      Z        X      Y      Z        X      Y      Z   
After scan for Atom:   Atom  AN      X      Y      Z        X      Y      Z        X      Y      Z   
After scan for Atom:   Atom  AN      X      Y      Z        X      Y      Z        X      Y      Z   
After scan for Atom:   Atom  AN      X      Y      Z        X      Y      Z        X      Y      Z   
After scan for Atom:   Atom  AN      X      Y      Z        X      Y      Z        X      Y      Z   
After scan for Atom:   Atom  AN      X      Y      Z        X      Y      Z        X      Y      Z   
After scan for Atom:   Atom  AN      X      Y      Z        X      Y      Z        X      Y      Z   
After scan for Atom:   Atom  AN      X      Y      Z        X      Y      Z        X      Y      Z   
After scan for Atom:   Atom  AN      X      Y      Z        X      Y      Z        X      Y      Z   
After scan for Atom:   Atom  AN      X      Y      Z        X      Y      Z        X      Y      Z   
After scan for Atom:   Atom  AN      X      Y      Z        X      Y      Z        X      Y      Z   
After scan for Atom:   Atom  AN      X      Y      Z        X      Y      Z        X      Y      Z   
After scan for Atom:   Atom  AN      X      Y      Z        X      Y      Z        X      Y      Z   
After scan for Atom:   Atom  AN      X      Y      Z        X      Y      Z        X      Y      Z   
After scan for Atom:   Atom  AN      X      Y      Z        X      Y      Z        X      Y      Z   
After scan for Atom:   Atom  AN      X      Y      Z        X      Y      Z        X      Y      Z   
After scan for Atom:   Atom  AN      X      Y      Z        X      Y      Z        X      Y      Z   
After scan for Atom:   Atom  AN      X      Y      Z        X      Y      Z        X      Y      Z   
After scan for Atom:   Atom  AN      X      Y      Z        X      Y      Z        X      Y      Z   
After scan for Atom:   Atom  AN      X      Y      Z        X      Y      Z        X      Y      Z   
After scan for Atom:   Atom  AN      X      Y      Z        X      Y      Z        X      Y      Z   
After scan for Atom:   Atom  AN      X      Y      Z        X      Y      Z        X      Y      Z   
After scan for Atom:   Atom  AN      X      Y      Z        X      Y      Z        X      Y      Z   
After scan for Atom:   Atom  AN      X      Y      Z        X      Y      Z        X      Y      Z   
After scan for Atom:   Atom  AN      X      Y      Z        X      Y      Z        X      Y      Z   
After scan for Atom:   Atom  AN      X      Y      Z        X      Y      Z        X      Y      Z   
After scan for Atom:   Atom  AN      X      Y      Z        X      Y      Z        X      Y      Z   
After scan for Atom:   Atom  AN      X      Y      Z        X      Y      Z        X      Y      Z   
After scan for Atom:   Atom  AN      X      Y      Z        X      Y      Z        X      Y      Z   
After scan for Atom:   Atom  AN      X      Y      Z        X      Y      Z        X      Y      Z   
After scan for Atom:   Atom  AN      X      Y      Z        X      Y      Z        X      Y      Z   
After scan for Atom:   Atom  AN      X      Y      Z        X      Y      Z        X      Y      Z   
After scan for Atom:   Atom  AN      X      Y      Z        X      Y      Z        X      Y      Z   
After scan for Atom:   Atom  AN      X      Y      Z        X      Y      Z        X      Y      Z   
After scan for Atom:   Atom  AN      X      Y      Z        X      Y      Z        X      Y      Z   
After scan for Atom:   Atom  AN      X      Y      Z        X      Y      Z        X      Y      Z   
After scan for Atom:   Atom  AN      X      Y      Z        X      Y      Z        X      Y      Z   
After scan for Atom:   Atom  AN      X      Y      Z        X      Y      Z        X      Y      Z   
After scan for Atom:   Atom  AN      X      Y      Z        X      Y      Z        X      Y      Z   
After scan for Atom:   Atom  AN      X      Y      Z        X      Y      Z        X      Y      Z   
 g94    frequencies=
     0.0    0.0    0.0    0.0    0.0    0.0    7.3   10.2   17.6   22.3
    27.1   38.8   55.9   61.1   69.1   78.1   89.4   91.0  105.7  109.8
   126.8  134.3  168.1  170.6  173.1  194.3  195.8  205.2  212.7  213.6
   234.9  235.4  246.2  259.3  262.0  289.3  298.5  305.8  309.1  342.3
   350.7  373.9  393.9  398.6  417.6  417.8  419.1  435.3  443.5  448.5
   452.6  453.2  454.0  458.6  466.8  477.9  498.6  503.4  508.1  513.0
   517.3  541.0  542.0  579.6  580.3  586.1  587.4  591.0  615.2  624.3
   628.0  632.3  658.7  667.6  674.5  690.0  712.9  721.2  730.8  737.2
   748.0  756.8  759.8  770.3  784.9  794.2  803.7  812.9  814.6  816.3
   824.5  826.1  831.3  837.5  843.8  844.0  848.1  896.0  902.4  920.6
   925.5  936.8  943.2  955.4  960.0  971.4  974.7  975.7  979.9  983.7
   986.9 1011.3 1058.6 1059.9 1070.7 1090.6 1091.5 1121.5 1146.2 1147.8
  1155.1 1155.3 1162.7 1174.4 1181.7 1188.6 1199.3 1203.2 1204.1 1226.3
  1235.5 1246.1 1249.2 1263.9 1272.3 1289.7 1297.5 1303.7 1317.1 1329.2
  1331.4 1337.4 1355.1 1359.1 1364.6 1371.5 1384.4 1392.3 1394.5 1396.1
  1397.5 1410.5 1425.6 1438.9 1441.8 1464.2 1471.9 1477.2 1483.8 1484.3
  1485.7 1495.7 1507.1 1523.8 1526.4 1536.1 1560.7 1573.6 1581.7 1594.7
  1613.6 1620.2 1631.9 1667.0 1668.7 1679.4 1715.7 1722.3 1762.2 3028.1
  3032.8 3085.3 3088.4 3099.9 3108.2 3131.2 3140.8 3165.3 3174.8 3190.4
  3190.7 3197.2 3197.6 3206.8 3207.1 3220.5 3220.7 3233.9 3235.9 3248.1
  3269.5
 g94    symmetries=
                                                 A      A      A      A
       A      A      A      A      A      A      A      A      A      A
       A      A      A      A      A      A      A      A      A      A
       A      A      A      A      A      A      A      A      A      A
       A      A      A      A      A      A      A      A      A      A
       A      A      A      A      A      A      A      A      A      A
       A      A      A      A      A      A      A      A      A      A
       A      A      A      A      A      A      A      A      A      A
       A      A      A      A      A      A      A      A      A      A
       A      A      A      A      A      A      A      A      A      A
       A      A      A      A      A      A      A      A      A      A
       A      A      A      A      A      A      A      A      A      A
       A      A      A      A      A      A      A      A      A      A
       A      A      A      A      A      A      A      A      A      A
       A      A      A      A      A      A      A      A      A      A
       A      A      A      A      A      A      A      A      A      A
       A      A      A      A      A      A      A      A      A      A
       A      A      A      A      A      A      A      A      A      A
       A      A      A      A      A      A      A      A      A      A
       A      A      A      A      A      A      A      A      A      A
       A
 atomic masses:
 12.0000 12.0000 12.0000 14.0031 12.0000 15.9949 12.0000 12.0000 12.0000 12.0000
 12.0000 12.0000 12.0000 12.0000 12.0000 15.9949 14.0031 12.0000 12.0000 12.0000
 12.0000 12.0000 12.0000 12.0000 31.9721 12.0000 12.0000 12.0000 31.9721 12.0000
 15.9949 12.0000 12.0000 12.0000 12.0000 12.0000 12.0000 12.0000 12.0000 12.0000
 15.9949 12.0000 12.0000 12.0000 12.0000  1.0078  1.0078  1.0078  1.0078  1.0078
  1.0078  1.0078  1.0078  1.0078  1.0078  1.0078  1.0078  1.0078  1.0078  1.0078
  1.0078  1.0078  1.0078  1.0078  1.0078  1.0078  1.0078
 looking for force constants in 
 ./TT-PDI_4_C0S3.fchk                                                           
  
 Cartesian Force Constants                  R   N=       20301                  
  
 n3=         201       20301
 g94-fc frequencies=
    -3.3   -1.2   -0.0   -0.0    0.0    0.7    7.3   10.2   17.6   22.3
    27.1   38.8   55.9   61.1   69.1   78.1   89.4   91.0  105.7  109.8
   126.8  134.3  168.1  170.7  173.1  194.3  195.8  205.2  212.7  213.6
   234.9  235.4  246.2  259.3  262.0  289.3  298.5  305.8  309.1  342.3
   350.7  373.9  393.9  398.6  417.6  417.8  419.1  435.3  443.5  448.5
   452.6  453.3  454.0  458.6  466.8  477.9  498.6  503.4  508.2  513.1
   517.3  541.0  542.0  579.6  580.3  586.1  587.4  591.0  615.2  624.3
   628.0  632.3  658.7  667.6  674.5  690.0  713.0  721.3  730.8  737.2
   748.0  756.8  759.8  770.3  785.0  794.2  803.7  812.9  814.6  816.3
   824.5  826.1  831.3  837.5  843.8  844.0  848.1  896.0  902.4  920.6
   925.6  936.9  943.3  955.4  960.1  971.4  974.7  975.8  980.0  983.7
   987.0 1011.3 1058.7 1059.9 1070.7 1090.6 1091.5 1121.6 1146.2 1147.8
  1155.1 1155.4 1162.7 1174.4 1181.7 1188.6 1199.3 1203.3 1204.1 1226.3
  1235.5 1246.2 1249.2 1263.9 1272.3 1289.7 1297.6 1303.7 1317.1 1329.3
  1331.4 1337.4 1355.1 1359.1 1364.7 1371.5 1384.4 1392.3 1394.5 1396.1
  1397.5 1410.5 1425.6 1438.9 1441.8 1464.3 1471.9 1477.2 1483.9 1484.4
  1485.7 1495.7 1507.1 1523.8 1526.4 1536.2 1560.7 1573.6 1581.8 1594.7
  1613.6 1620.3 1631.9 1667.1 1668.7 1679.4 1715.8 1722.4 1762.2 3028.1
  3032.9 3085.3 3088.5 3099.9 3108.3 3131.3 3140.9 3165.4 3174.8 3190.5
  3190.8 3197.3 3197.7 3206.9 3207.2 3220.5 3220.7 3234.0 3235.9 3248.1
  3269.5
 at 99999: n3=         201
 symm operator            1 :  F  nop=           0
 symm operator            2 :  F  nop=           0
 symm operator            3 :  F  nop=           0
 symm operator            4 :  F  nop=           0
 symm operator            5 :  F  nop=           0
 symm operator            6 :  F  nop=           0
 symm operator            7 :  F  nop=           0
 The point group of the molecule is  C1
 Symmetry rotation matrix:
   1.00000   0.00000   0.00000
   0.00000   1.00000   0.00000
   0.00000   0.00000   1.00000

 Projecting out zero-frequency components
 generating redundant internal coords
         300        3600          67
 search for int coords
   1 str   2   1   1.533
   2 str   3   2   1.533
   3 str   4   2   1.491
   4 str   5   4   1.413
   5 str   6   5   1.226
   6 str   7   5   1.468
   7 str   8   7   1.396
   8 str   9   8   1.382
   9 str  10   9   1.413
  10 str  11  10   1.448
  11 str  12  11   1.416
  12 str  13  12   1.375
  13 str  14  13   1.403
  14 str  15  14   1.452
  15 str  16  15   1.222
  16 str  17  15   1.438
  17 str  18  17   1.388
  18 str  19  18   1.350
  19 str  20  19   1.440
  20 str  21  20   1.350
  21 str  22  21   1.446
  22 str  23  22   1.374
  23 str  24  23   1.441
  24 str  25  24   1.711
  25 str  26  25   1.750
  26 str  27  26   1.365
  27 str  28  24   1.383
  28 str  28  25   2.542
  29 str  28  27   1.437
  30 str  29  22   1.784
  31 str  29  24   2.549
  32 str  29  28   1.719
  33 str  30  17   1.459
  34 str  31  30   1.222
  35 str  32  30   1.444
  36 str  33  32   1.405
  37 str  34  33   1.373
  38 str  35  34   1.418
  39 str  36  35   1.446
  40 str  37  36   1.414
  41 str  38  37   1.381
  42 str  39  38   1.396
  43 str  40   4   1.405
  44 str  40  39   1.469
  45 str  41  40   1.227
  46 str  42   7   1.412
  47 str  42  39   1.412
  48 str  43  10   1.427
  49 str  43  36   1.428
  50 str  43  42   1.434
  51 str  44  11   1.430
  52 str  44  35   1.430
  53 str  45  14   1.413
  54 str  45  32   1.416
  55 str  45  44   1.440
  56 str  46   1   1.094
  57 str  47   1   1.089
  58 str  48   1   1.093
  59 str  49   2   1.088
  60 str  50   3   1.089
  61 str  51   3   1.094
  62 str  52   3   1.093
  63 str  53   8   1.083
  64 str  54   9   1.081
  65 str  55  12   1.080
  66 str  56  13   1.082
  67 str  57  18   1.085
  68 str  58  19   1.078
  69 str  59  20   1.091
  70 str  60  21   1.085
  71 str  61  23   1.080
  72 str  62  26   1.077
  73 str  63  27   1.080
  74 str  64  33   1.083
  75 str  65  34   1.080
  76 str  66  37   1.081
  77 str  67  38   1.083
 nber stretches=          77
  78 ben   1   2   3
  79 prop tor   1   2   3  50
  80 prop tor   1   2   3  51
  81 prop tor   1   2   3  52
  82 ben   1   2   4
  83 prop tor   1   2   4   5
  84 prop tor   1   2   4  40
  85 ben   1   2  49
  86 ben   2   1  46
  87 ben   2   1  47
  88 ben   2   1  48
  89 ben   2   3  50
  90 ben   2   3  51
  91 ben   2   3  52
  92 ben   2   4   5
  93 prop tor   2   4   5   6
  94 prop tor   2   4   5   7
  95 ben   2   4  40
  96 prop tor   2   4  40  39
  97 prop tor   2   4  40  41
  98 ben   3   2   4
  99 prop tor   3   2   4   5
 100 prop tor   3   2   4  40
 101 ben   3   2  49
 102 prop tor   4   2   3  50
 103 prop tor   4   2   3  51
 104 prop tor   4   2   3  52
 105 ben   4   2  49
 106 ben   4   5   6
 107 ben   4   5   7
 108 prop tor   4   5   7   8
 109 prop tor   4   5   7  42
 110 ben   4  40  39
 111 ben   4  40  41
 112 ben   5   4  40
 113 prop tor   5   4  40  39
 114 prop tor   5   4  40  41
 115 ben   5   7   8
 116 prop tor   5   7   8   9
 117 prop tor   5   7   8  53
[...]
 380 prop tor  43  10  11  44
 381 prop tor  43  36  37  38
 382 prop tor  43  36  37  66
 383 prop tor  44  11  12  13
 384 prop tor  44  11  12  55
 385 prop tor  44  35  36  37
 386 prop tor  44  35  36  43
 387 prop tor  45  14  15  16
 388 prop tor  45  14  15  17
 389 prop tor  45  32  33  34
 390 prop tor  45  32  33  64
 391 prop tor  46   1   2   3
 392 prop tor  46   1   2   4
 393 prop tor  46   1   2  49
 394 ben  46   1  47
 395 ben  46   1  48
 396 prop tor  47   1   2   3
 397 prop tor  47   1   2   4
 398 prop tor  47   1   2  49
 399 ben  47   1  48
 400 prop tor  48   1   2   3
 401 prop tor  48   1   2   4
 402 prop tor  48   1   2  49
 403 prop tor  49   2   3  50
 404 prop tor  49   2   3  51
 405 prop tor  49   2   3  52
 406 prop tor  49   2   4   5
 407 prop tor  49   2   4  40
 408 ben  50   3  51
 409 ben  50   3  52
 410 ben  51   3  52
 411 prop tor  53   8   9  10
 412 prop tor  53   8   9  54
 413 prop tor  54   9  10  11
 414 prop tor  54   9  10  43
 415 prop tor  55  12  13  14
 416 prop tor  55  12  13  56
 417 prop tor  56  13  14  15
 418 prop tor  56  13  14  45
 419 prop tor  57  18  19  20
 420 prop tor  57  18  19  58
 421 prop tor  58  19  20  21
 422 prop tor  58  19  20  59
 423 prop tor  59  20  21  22
 424 prop tor  59  20  21  60
 425 prop tor  60  21  22  23
 426 prop tor  60  21  22  29
 427 prop tor  61  23  24  25
 428 prop tor  61  23  24  28
 429 prop tor  61  23  24  29
 430 prop tor  62  26  27  28
 431 prop tor  62  26  27  63
 432 prop tor  63  27  28  24
 433 prop tor  63  27  28  25
 434 prop tor  63  27  28  29
 435 prop tor  64  33  34  35
 436 prop tor  64  33  34  65
 437 prop tor  65  34  35  36
 438 prop tor  65  34  35  44
 439 prop tor  66  37  38  39
 440 prop tor  66  37  38  67
 441 prop tor  67  38  39  40
 442 prop tor  67  38  39  42
 nber bend=             138
 nber lin bend=           0
 nber prop tor=         227
 nber impr tor=           0
 nber tot redund int=         442
 Eigenvalues of G in red int coords
    Gval -0.00000000 -0.00000000 -0.00000000 -0.00000000 -0.00000000 -0.00000000 -0.00000000 -0.00000000
    Gval -0.00000000 -0.00000000 -0.00000000 -0.00000000 -0.00000000 -0.00000000 -0.00000000 -0.00000000
    Gval -0.00000000 -0.00000000 -0.00000000 -0.00000000 -0.00000000 -0.00000000 -0.00000000 -0.00000000
    Gval -0.00000000 -0.00000000 -0.00000000 -0.00000000 -0.00000000 -0.00000000 -0.00000000 -0.00000000
    Gval -0.00000000 -0.00000000 -0.00000000 -0.00000000 -0.00000000 -0.00000000 -0.00000000 -0.00000000
    Gval -0.00000000 -0.00000000 -0.00000000 -0.00000000 -0.00000000 -0.00000000 -0.00000000 -0.00000000
    Gval -0.00000000 -0.00000000 -0.00000000 -0.00000000 -0.00000000 -0.00000000 -0.00000000 -0.00000000
    Gval -0.00000000 -0.00000000 -0.00000000 -0.00000000 -0.00000000 -0.00000000 -0.00000000 -0.00000000
    Gval -0.00000000 -0.00000000 -0.00000000 -0.00000000 -0.00000000 -0.00000000 -0.00000000 -0.00000000
    Gval -0.00000000 -0.00000000 -0.00000000 -0.00000000 -0.00000000 -0.00000000 -0.00000000 -0.00000000
    Gval -0.00000000 -0.00000000 -0.00000000 -0.00000000 -0.00000000 -0.00000000 -0.00000000 -0.00000000
    Gval -0.00000000 -0.00000000 -0.00000000 -0.00000000 -0.00000000 -0.00000000 -0.00000000 -0.00000000
    Gval -0.00000000 -0.00000000 -0.00000000 -0.00000000 -0.00000000 -0.00000000 -0.00000000 -0.00000000
    Gval -0.00000000 -0.00000000 -0.00000000 -0.00000000 -0.00000000 -0.00000000 -0.00000000 -0.00000000
    Gval -0.00000000 -0.00000000 -0.00000000 -0.00000000 -0.00000000 -0.00000000 -0.00000000 -0.00000000
    Gval -0.00000000 -0.00000000  0.00000000  0.00000000  0.00000000  0.00000000  0.00000000  0.00000000
    Gval  0.00000000  0.00000000  0.00000000  0.00000000  0.00000000  0.00000000  0.00000000  0.00000000
    Gval  0.00000000  0.00000000  0.00000000  0.00000000  0.00000000  0.00000000  0.00000000  0.00000000
    Gval  0.00000000  0.00000000  0.00000000  0.00000000  0.00000000  0.00000000  0.00000000  0.00000000
    Gval  0.00000000  0.00000000  0.00000000  0.00000000  0.00000000  0.00000000  0.00000000  0.00000000
    Gval  0.00000000  0.00000000  0.00000000  0.00000000  0.00000000  0.00000000  0.00000000  0.00000000
    Gval  0.00000000  0.00000000  0.00000000  0.00000000  0.00000000  0.00000000  0.00000000  0.00000000
    Gval  0.00000000  0.00000000  0.00000000  0.00000000  0.00000000  0.00000000  0.00000000  0.00000000
    Gval  0.00000000  0.00000000  0.00000000  0.00000000  0.00000000  0.00000000  0.00000000  0.00000000
    Gval  0.00000000  0.00000000  0.00000000  0.00000000  0.00000000  0.00000000  0.00000000  0.00000000
    Gval  0.00000000  0.00000000  0.00000000  0.00000000  0.00000000  0.00000000  0.00000000  0.00000000
    Gval  0.00000000  0.00000000  0.00000000  0.00000000  0.00000000  0.00000000  0.00000000  0.00000000
    Gval  0.00000000  0.00000000  0.00000000  0.00000000  0.00000000  0.00000000  0.00000000  0.00000000
    Gval  0.00000000  0.00000000  0.00000000  0.00000000  0.00000000  0.00000000  0.00000000  0.00000000
    Gval  0.00000000  0.00000000  0.00000000  0.00000000  0.00000000  0.00000000  0.00000000  0.00000000
    Gval  0.00000000  0.00000000  0.00000000  0.00000000  0.00000000  0.00000000  0.00000000  0.00000009
    Gval  0.00000031  0.00000064  0.00000107  0.00000247  0.00000282  0.00000326  0.00000335  0.00000569
    Gval  0.00000853  0.00000870  0.00001047  0.00001196  0.00001230  0.00001344  0.00001611  0.00001646
    Gval  0.00001765  0.00001785  0.00001822  0.00001847  0.00002155  0.00002387  0.00002428  0.00002537
    Gval  0.00002911  0.00003103  0.00003163  0.00003601  0.00003827  0.00003995  0.00004146  0.00004892
    Gval  0.00004990  0.00005122  0.00005134  0.00005287  0.00005320  0.00005654  0.00005941  0.00006200
    Gval  0.00006810  0.00006921  0.00007132  0.00007326  0.00007772  0.00007861  0.00008149  0.00008228
    Gval  0.00008348  0.00008607  0.00008675  0.00009281  0.00009476  0.00009510  0.00010231  0.00010922
    Gval  0.00011350  0.00011523  0.00011954  0.00012248  0.00013413  0.00013616  0.00013723  0.00014082
    Gval  0.00015428  0.00015507  0.00015925  0.00016433  0.00017412  0.00018039  0.00018181  0.00018692
    Gval  0.00018835  0.00020438  0.00022129  0.00022404  0.00022690  0.00023119  0.00023337  0.00024773
    Gval  0.00026745  0.00028550  0.00028705  0.00029480  0.00030899  0.00031070  0.00034251  0.00035247
    Gval  0.00035981  0.00037291  0.00038453  0.00038741  0.00038812  0.00039204  0.00040309  0.00041091
    Gval  0.00042109  0.00042123  0.00043035  0.00043575  0.00044061  0.00044224  0.00046205  0.00046321
    Gval  0.00046688  0.00046878  0.00049354  0.00049369  0.00052223  0.00053034  0.00053395  0.00053732
    Gval  0.00055356  0.00055511  0.00055591  0.00055788  0.00059069  0.00059652  0.00059834  0.00059853
    Gval  0.00059926  0.00059959  0.00059987  0.00060222  0.00060381  0.00061856  0.00062785  0.00063909
    Gval  0.00064147  0.00064491  0.00064574  0.00064750  0.00066709  0.00067204  0.00068186  0.00069680
    Gval  0.00070353  0.00079355  0.00082846  0.00093922  0.00100056  0.00103441  0.00108820  0.00109015
    Gval  0.00109345  0.00109438  0.00109507  0.00109558  0.00114676  0.00114681  0.00115517  0.00116441
    Gval  0.00116492  0.00116580  0.00116632  0.00116795  0.00116848  0.00118819  0.00119170  0.00120123
    Gval  0.00121700  0.00127018  0.00129152  0.00137303  0.00149507  0.00155371  0.00170690  0.00172320
    Gval  0.00177069  0.00191380  0.00227657  0.00234048  0.00252004  0.00252306  0.00255680  0.00262643
    Gval  0.00270434  0.00278004  0.00292001  0.00292520  0.00299994  0.00302185  0.00304260  0.00308327
    Gval  0.00309081  0.00324595  0.00366396  0.00366539  0.00367988  0.00371184  0.00371352  0.00393076
    Gval  0.00452670  0.00493472
  8.639348008618964E-008  8.639348008618964E-008
  3.062043829563541E-007  8.639348008618964E-008
  6.384510046969201E-007  8.639348008618964E-008
  1.066138539877989E-006  8.639348008618964E-008
  2.465166782276949E-006  8.639348008618964E-008
  2.820686141327595E-006  8.639348008618964E-008
  3.260287942249067E-006  8.639348008618964E-008
  3.348266684404335E-006  8.639348008618964E-008
  5.685815338276733E-006  8.639348008618964E-008
  8.528801458263715E-006  8.639348008618964E-008
  8.697642745678602E-006  8.639348008618964E-008
  1.047212228173308E-005  8.639348008618964E-008
  1.196229320424188E-005  8.639348008618964E-008
  1.230238830446466E-005  8.639348008618964E-008
  1.343898647057201E-005  8.639348008618964E-008
  1.611368969705207E-005  8.639348008618964E-008
  1.646210074442665E-005  8.639348008618964E-008
  1.764970573756574E-005  8.639348008618964E-008
  1.785439526726958E-005  8.639348008618964E-008
  1.821501897546474E-005  8.639348008618964E-008
  1.846825675026637E-005  8.639348008618964E-008
  2.154969411174278E-005  8.639348008618964E-008
  2.387407553535410E-005  8.639348008618964E-008
  2.428338831781413E-005  8.639348008618964E-008
  2.537430356621070E-005  8.639348008618964E-008
  2.910669348979579E-005  8.639348008618964E-008
  3.103090904057971E-005  8.639348008618964E-008
  3.162534212967732E-005  8.639348008618964E-008
  3.601085996818126E-005  8.639348008618964E-008
  3.826647507238630E-005  8.639348008618964E-008
  3.995275252491472E-005  8.639348008618964E-008
  4.146151583400552E-005  8.639348008618964E-008
  4.891821667785356E-005  8.639348008618964E-008
  4.989639879703520E-005  8.639348008618964E-008
  5.122281097767556E-005  8.639348008618964E-008
  5.133581939882980E-005  8.639348008618964E-008
  5.287031957981519E-005  8.639348008618964E-008
  5.320176025586210E-005  8.639348008618964E-008
  5.654478408111281E-005  8.639348008618964E-008
  5.941308972101315E-005  8.639348008618964E-008
  6.200093395258659E-005  8.639348008618964E-008
  6.810278834714916E-005  8.639348008618964E-008
  6.921499095534785E-005  8.639348008618964E-008
  7.132141009892298E-005  8.639348008618964E-008
  7.325526465683733E-005  8.639348008618964E-008
  7.772142301869746E-005  8.639348008618964E-008
  7.861325223426305E-005  8.639348008618964E-008
  8.149495668954035E-005  8.639348008618964E-008
  8.228491489644991E-005  8.639348008618964E-008
  8.347842179853280E-005  8.639348008618964E-008
  8.607490389168790E-005  8.639348008618964E-008
  8.674907066198744E-005  8.639348008618964E-008
  9.280661170530896E-005  8.639348008618964E-008
  9.475737883430155E-005  8.639348008618964E-008
  9.510120475089297E-005  8.639348008618964E-008
  1.023129990620130E-004  8.639348008618964E-008
  1.092220960488764E-004  8.639348008618964E-008
  1.134952385355310E-004  8.639348008618964E-008
  1.152295905315058E-004  8.639348008618964E-008
  1.195378364883757E-004  8.639348008618964E-008
  1.224793160842074E-004  8.639348008618964E-008
  1.341313703707546E-004  8.639348008618964E-008
  1.361552611774174E-004  8.639348008618964E-008
  1.372283008151746E-004  8.639348008618964E-008
  1.408244932271337E-004  8.639348008618964E-008
  1.542806340537476E-004  8.639348008618964E-008
  1.550721219335786E-004  8.639348008618964E-008
  1.592511387219514E-004  8.639348008618964E-008
  1.643329283863074E-004  8.639348008618964E-008
  1.741177585761451E-004  8.639348008618964E-008
  1.803852474732731E-004  8.639348008618964E-008
  1.818110042181921E-004  8.639348008618964E-008
  1.869219990276835E-004  8.639348008618964E-008
  1.883468276841071E-004  8.639348008618964E-008
  2.043832528453160E-004  8.639348008618964E-008
  2.212854102663151E-004  8.639348008618964E-008
  2.240382190069642E-004  8.639348008618964E-008
  2.268954118905731E-004  8.639348008618964E-008
  2.311895584914240E-004  8.639348008618964E-008
  2.333738138243960E-004  8.639348008618964E-008
  2.477289684032720E-004  8.639348008618964E-008
  2.674511348711420E-004  8.639348008618964E-008
  2.855007942073412E-004  8.639348008618964E-008
  2.870485632025209E-004  8.639348008618964E-008
  2.947959585719611E-004  8.639348008618964E-008
  3.089877738076781E-004  8.639348008618964E-008
  3.106975547595685E-004  8.639348008618964E-008
  3.425108522389967E-004  8.639348008618964E-008
  3.524739852452449E-004  8.639348008618964E-008
  3.598147221128131E-004  8.639348008618964E-008
  3.729100794763246E-004  8.639348008618964E-008
  3.845251301342527E-004  8.639348008618964E-008
  3.874073496207431E-004  8.639348008618964E-008
  3.881238308113435E-004  8.639348008618964E-008
  3.920378760606393E-004  8.639348008618964E-008
  4.030884066717748E-004  8.639348008618964E-008
  4.109134473248593E-004  8.639348008618964E-008
  4.210899042927958E-004  8.639348008618964E-008
  4.212264442706963E-004  8.639348008618964E-008
  4.303524548697709E-004  8.639348008618964E-008
  4.357472963065213E-004  8.639348008618964E-008
  4.406089424682638E-004  8.639348008618964E-008
  4.422426177907351E-004  8.639348008618964E-008
  4.620489625947573E-004  8.639348008618964E-008
  4.632139284972324E-004  8.639348008618964E-008
  4.668844262724337E-004  8.639348008618964E-008
  4.687822993060654E-004  8.639348008618964E-008
  4.935430859112873E-004  8.639348008618964E-008
  4.936893708582385E-004  8.639348008618964E-008
  5.222251325777809E-004  8.639348008618964E-008
  5.303430721875045E-004  8.639348008618964E-008
  5.339543172314987E-004  8.639348008618964E-008
  5.373202370369571E-004  8.639348008618964E-008
  5.535555327546228E-004  8.639348008618964E-008
  5.551059218536102E-004  8.639348008618964E-008
  5.559135837758946E-004  8.639348008618964E-008
  5.578847594664249E-004  8.639348008618964E-008
  5.906875803122447E-004  8.639348008618964E-008
  5.965243665062600E-004  8.639348008618964E-008
  5.983387079359890E-004  8.639348008618964E-008
  5.985324447649801E-004  8.639348008618964E-008
  5.992575384205860E-004  8.639348008618964E-008
  5.995877161069718E-004  8.639348008618964E-008
  5.998672810569387E-004  8.639348008618964E-008
  6.022166955994396E-004  8.639348008618964E-008
  6.038138794863919E-004  8.639348008618964E-008
  6.185589825177046E-004  8.639348008618964E-008
  6.278450089766140E-004  8.639348008618964E-008
  6.390949840999879E-004  8.639348008618964E-008
  6.414668697918225E-004  8.639348008618964E-008
  6.449075074432672E-004  8.639348008618964E-008
  6.457358730833678E-004  8.639348008618964E-008
  6.474986914277698E-004  8.639348008618964E-008
  6.670870891012516E-004  8.639348008618964E-008
  6.720366636890873E-004  8.639348008618964E-008
  6.818596865313565E-004  8.639348008618964E-008
  6.968006464172523E-004  8.639348008618964E-008
  7.035263633605117E-004  8.639348008618964E-008
  7.935468723631910E-004  8.639348008618964E-008
  8.284635631073962E-004  8.639348008618964E-008
  9.392154913938933E-004  8.639348008618964E-008
  1.000563045188137E-003  8.639348008618964E-008
  1.034412218595215E-003  8.639348008618964E-008
  1.088200457941081E-003  8.639348008618964E-008
  1.090149013036735E-003  8.639348008618964E-008
  1.093452524476399E-003  8.639348008618964E-008
  1.094383488912530E-003  8.639348008618964E-008
  1.095071035306022E-003  8.639348008618964E-008
  1.095583832323803E-003  8.639348008618964E-008
  1.146756000596278E-003  8.639348008618964E-008
  1.146811915568067E-003  8.639348008618964E-008
  1.155171729050850E-003  8.639348008618964E-008
  1.164409994769554E-003  8.639348008618964E-008
  1.164916710013466E-003  8.639348008618964E-008
  1.165801273019201E-003  8.639348008618964E-008
  1.166316626241895E-003  8.639348008618964E-008
  1.167951030047539E-003  8.639348008618964E-008
  1.168476475823092E-003  8.639348008618964E-008
  1.188187581283283E-003  8.639348008618964E-008
  1.191701788991453E-003  8.639348008618964E-008
  1.201228601320870E-003  8.639348008618964E-008
  1.217003263093626E-003  8.639348008618964E-008
  1.270181656121937E-003  8.639348008618964E-008
  1.291515872222378E-003  8.639348008618964E-008
  1.373031856460882E-003  8.639348008618964E-008
  1.495071016534554E-003  8.639348008618964E-008
  1.553705246479865E-003  8.639348008618964E-008
  1.706901332132154E-003  8.639348008618964E-008
  1.723203577341542E-003  8.639348008618964E-008
  1.770692280761463E-003  8.639348008618964E-008
  1.913804091057663E-003  8.639348008618964E-008
  2.276570013648302E-003  8.639348008618964E-008
  2.340475879675932E-003  8.639348008618964E-008
  2.520036369209774E-003  8.639348008618964E-008
  2.523056920026902E-003  8.639348008618964E-008
  2.556795485539822E-003  8.639348008618964E-008
  2.626429627694437E-003  8.639348008618964E-008
  2.704336972415175E-003  8.639348008618964E-008
  2.780038195407560E-003  8.639348008618964E-008
  2.920014591443975E-003  8.639348008618964E-008
  2.925196639863826E-003  8.639348008618964E-008
  2.999937636648335E-003  8.639348008618964E-008
  3.021847693743404E-003  8.639348008618964E-008
  3.042604923805944E-003  8.639348008618964E-008
  3.083271198745396E-003  8.639348008618964E-008
  3.090806114045779E-003  8.639348008618964E-008
  3.245947125136575E-003  8.639348008618964E-008
  3.663960865203633E-003  8.639348008618964E-008
  3.665392767868517E-003  8.639348008618964E-008
  3.679877711184682E-003  8.639348008618964E-008
  3.711841876495146E-003  8.639348008618964E-008
  3.713520844425883E-003  8.639348008618964E-008
  3.930764844217299E-003  8.639348008618964E-008
  4.526698819794771E-003  8.639348008618964E-008
  4.934719853883741E-003  8.639348008618964E-008
 cut=1d-8, nber non-redundant internal coords=         195
 Check on Eigenvals of non-red overlap matrix:
  0.00000009  0.00000031  0.00000064  0.00000107  0.00000247  0.00000282  0.00000326  0.00000335
  0.00000569  0.00000853  0.00000870  0.00001047  0.00001196  0.00001230  0.00001344  0.00001611
  0.00001646  0.00001765  0.00001785  0.00001822  0.00001847  0.00002155  0.00002387  0.00002428
  0.00002537  0.00002911  0.00003103  0.00003163  0.00003601  0.00003827  0.00003995  0.00004146
  0.00004892  0.00004990  0.00005122  0.00005134  0.00005287  0.00005320  0.00005654  0.00005941
  0.00006200  0.00006810  0.00006921  0.00007132  0.00007326  0.00007772  0.00007861  0.00008149
  0.00008228  0.00008348  0.00008607  0.00008675  0.00009281  0.00009476  0.00009510  0.00010231
  0.00010922  0.00011350  0.00011523  0.00011954  0.00012248  0.00013413  0.00013616  0.00013723
  0.00014082  0.00015428  0.00015507  0.00015925  0.00016433  0.00017412  0.00018039  0.00018181
  0.00018692  0.00018835  0.00020438  0.00022129  0.00022404  0.00022690  0.00023119  0.00023337
  0.00024773  0.00026745  0.00028550  0.00028705  0.00029480  0.00030899  0.00031070  0.00034251
  0.00035247  0.00035981  0.00037291  0.00038453  0.00038741  0.00038812  0.00039204  0.00040309
  0.00041091  0.00042109  0.00042123  0.00043035  0.00043575  0.00044061  0.00044224  0.00046205
  0.00046321  0.00046688  0.00046878  0.00049354  0.00049369  0.00052223  0.00053034  0.00053395
  0.00053732  0.00055356  0.00055511  0.00055591  0.00055788  0.00059069  0.00059652  0.00059834
  0.00059853  0.00059926  0.00059959  0.00059987  0.00060222  0.00060381  0.00061856  0.00062785
  0.00063909  0.00064147  0.00064491  0.00064574  0.00064750  0.00066709  0.00067204  0.00068186
  0.00069680  0.00070353  0.00079355  0.00082846  0.00093922  0.00100056  0.00103441  0.00108820
  0.00109015  0.00109345  0.00109438  0.00109507  0.00109558  0.00114676  0.00114681  0.00115517
  0.00116441  0.00116492  0.00116580  0.00116632  0.00116795  0.00116848  0.00118819  0.00119170
  0.00120123  0.00121700  0.00127018  0.00129152  0.00137303  0.00149507  0.00155371  0.00170690
  0.00172320  0.00177069  0.00191380  0.00227657  0.00234048  0.00252004  0.00252306  0.00255680
  0.00262643  0.00270434  0.00278004  0.00292001  0.00292520  0.00299994  0.00302185  0.00304260
  0.00308327  0.00309081  0.00324595  0.00366396  0.00366539  0.00367988  0.00371184  0.00371352
  0.00393076  0.00452670  0.00493472
 int defn changed for coord          28
          28          27           0           0
          28          25           0           0
