 Enter ifcurve (0=recti, 1=orth curvi, 2=apprx curvi, -1 = skip
 And atom ordering flag, 0= never changes, 1= use the first order thenceforth,
  2= deduce it (does read on fail), 3= always read it
 Reading file: 
 ./TT-PDI_1_C0S1.log                                                            
                                          
  Entering Gaussian System, Link 0=g16                                          
  
 Gaussian format, type: g94, g98, g03= F F F
  #P Geom=AllCheck Guess=TCheck SCRF=Check GenChk RB3LYP TD(FC,Read)/6-3    
 energy type= TD      
 Original G94 input coords:
  6  1.299528  0.556197  0.075212
  6  2.795632  0.225346  0.035589
  6  3.462335  0.266779  1.415159
  7  3.061955 -1.062022 -0.672138
  6  2.565420 -2.256352 -0.128112
  8  1.920450 -2.254581  0.913347
  6  2.854297 -3.499892 -0.862173
  6  2.382007 -4.712414 -0.361116
  6  2.636233 -5.897725 -1.026461
  6  3.376642 -5.932432 -2.228716
  6  3.649899 -7.167071 -2.934779
  6  3.187441 -8.418318 -2.456374
  6  3.449312 -9.584753 -3.129185
  6  4.190256 -9.578282 -4.324099
  6  4.430825-10.843124 -4.982970
  8  4.042451-11.926016 -4.587705
  7  5.204808-10.775672 -6.216501
  6  5.510497-11.886217 -6.943513
  6  5.197961-13.207021 -6.718049
  6  5.609286-14.233896 -7.595815
  6  5.318951-15.602009 -7.415020
  6  5.847325-16.387948 -8.429834
 16  5.850448-18.098333 -8.792333
  6  6.782830-17.796246-10.229715
  6  7.085581-16.469539-10.439645
  6  6.554652-15.665939 -9.417294
 16  6.562979-13.960638 -9.073923
  6  5.730086 -9.509429 -6.794930
  8  6.362308 -9.578636 -7.830425
  6  5.427922 -8.319080 -6.052652
  6  5.898113 -7.086753 -6.548016
  6  5.641816 -5.916715 -5.883156
  6  4.896859 -5.894687 -4.675013
  6  4.624755 -4.662478 -3.970364
  6  5.080277 -3.407757 -4.435238
  6  4.813506 -2.236152 -3.752100
  6  4.077038 -2.253506 -2.567091
  6  3.811888 -0.988200 -1.866309
  8  4.218297  0.085557 -2.290686
  6  3.599276 -3.481503 -2.060614
  6  3.869246 -4.703735 -2.759536
  6  4.405785 -7.129956 -4.147293
  6  4.677906 -8.360565 -4.850480
  1  1.166730  1.567883  0.469579
  1  0.751796 -0.141336  0.707461
  1  0.873881  0.531694 -0.931451
  1  3.286624  0.960741 -0.598089
  1  3.003947 -0.442636  2.102869
  1  3.363782  1.273934  1.830608
  1  4.529130  0.042359  1.333134
  1  1.813065 -4.698847  0.559814
  1  2.250551 -6.813331 -0.601135
  1  2.614687 -8.467932 -1.542160
  1  3.090483-10.534173 -2.753111
  1  6.090513-11.611478 -7.820213
  1  4.622404-13.489754 -5.850831
  1  4.747514-15.956242 -6.569199
  1  7.062499-18.631171-10.854356
  1  7.656904-16.115469-11.285209
  1  6.467835 -7.088390 -7.468442
  1  6.021155 -4.994656 -6.298235
  1  5.654657 -3.344976 -5.348517
  1  5.168893 -1.282100 -4.120073
 nber atoms=          63
  Total Energy, E(TD-HF/TD-DFT) =  -2553.08861851                               
  
          32          49 "  -2553.08861851"
After scan for Atom:   Atom  AN      X      Y      Z        X      Y      Z        X      Y      Z   
After scan for Atom:   Atom  AN      X      Y      Z        X      Y      Z        X      Y      Z   
After scan for Atom:   Atom  AN      X      Y      Z        X      Y      Z        X      Y      Z   
After scan for Atom:   Atom  AN      X      Y      Z        X      Y      Z        X      Y      Z   
After scan for Atom:   Atom  AN      X      Y      Z        X      Y      Z        X      Y      Z   
After scan for Atom:   Atom  AN      X      Y      Z        X      Y      Z        X      Y      Z   
After scan for Atom:   Atom  AN      X      Y      Z        X      Y      Z        X      Y      Z   
After scan for Atom:   Atom  AN      X      Y      Z        X      Y      Z        X      Y      Z   
After scan for Atom:   Atom  AN      X      Y      Z        X      Y      Z        X      Y      Z   
After scan for Atom:   Atom  AN      X      Y      Z        X      Y      Z        X      Y      Z   
After scan for Atom:   Atom  AN      X      Y      Z        X      Y      Z        X      Y      Z   
After scan for Atom:   Atom  AN      X      Y      Z        X      Y      Z        X      Y      Z   
After scan for Atom:   Atom  AN      X      Y      Z        X      Y      Z        X      Y      Z   
After scan for Atom:   Atom  AN      X      Y      Z        X      Y      Z        X      Y      Z   
After scan for Atom:   Atom  AN      X      Y      Z        X      Y      Z        X      Y      Z   
After scan for Atom:   Atom  AN      X      Y      Z        X      Y      Z        X      Y      Z   
After scan for Atom:   Atom  AN      X      Y      Z        X      Y      Z        X      Y      Z   
After scan for Atom:   Atom  AN      X      Y      Z        X      Y      Z        X      Y      Z   
After scan for Atom:   Atom  AN      X      Y      Z        X      Y      Z        X      Y      Z   
After scan for Atom:   Atom  AN      X      Y      Z        X      Y      Z        X      Y      Z   
After scan for Atom:   Atom  AN      X      Y      Z        X      Y      Z        X      Y      Z   
After scan for Atom:   Atom  AN      X      Y      Z        X      Y      Z        X      Y      Z   
After scan for Atom:   Atom  AN      X      Y      Z        X      Y      Z        X      Y      Z   
After scan for Atom:   Atom  AN      X      Y      Z        X      Y      Z        X      Y      Z   
After scan for Atom:   Atom  AN      X      Y      Z        X      Y      Z        X      Y      Z   
After scan for Atom:   Atom  AN      X      Y      Z        X      Y      Z        X      Y      Z   
After scan for Atom:   Atom  AN      X      Y      Z        X      Y      Z        X      Y      Z   
After scan for Atom:   Atom  AN      X      Y      Z        X      Y      Z        X      Y      Z   
After scan for Atom:   Atom  AN      X      Y      Z        X      Y      Z        X      Y      Z   
After scan for Atom:   Atom  AN      X      Y      Z        X      Y      Z        X      Y      Z   
After scan for Atom:   Atom  AN      X      Y      Z        X      Y      Z        X      Y      Z   
After scan for Atom:   Atom  AN      X      Y      Z        X      Y      Z        X      Y      Z   
After scan for Atom:   Atom  AN      X      Y      Z        X      Y      Z        X      Y      Z   
After scan for Atom:   Atom  AN      X      Y      Z        X      Y      Z        X      Y      Z   
After scan for Atom:   Atom  AN      X      Y      Z        X      Y      Z        X      Y      Z   
After scan for Atom:   Atom  AN      X      Y      Z        X      Y      Z        X      Y      Z   
After scan for Atom:   Atom  AN      X      Y      Z        X      Y      Z        X      Y      Z   
After scan for Atom:   Atom  AN      X      Y      Z        X      Y      Z        X      Y      Z   
After scan for Atom:   Atom  AN      X      Y      Z        X      Y      Z        X      Y      Z   
After scan for Atom:   Atom  AN      X      Y      Z        X      Y      Z        X      Y      Z   
After scan for Atom:   Atom  AN      X      Y      Z        X      Y      Z        X      Y      Z   
After scan for Atom:   Atom  AN      X      Y      Z        X      Y      Z        X      Y      Z   
After scan for Atom:   Atom  AN      X      Y      Z        X      Y      Z        X      Y      Z   
After scan for Atom:   Atom  AN      X      Y      Z        X      Y      Z        X      Y      Z   
After scan for Atom:   Atom  AN      X      Y      Z        X      Y      Z        X      Y      Z   
After scan for Atom:   Atom  AN      X      Y      Z        X      Y      Z        X      Y      Z   
After scan for Atom:   Atom  AN      X      Y      Z        X      Y      Z        X      Y      Z   
After scan for Atom:   Atom  AN      X      Y      Z        X      Y      Z        X      Y      Z   
After scan for Atom:   Atom  AN      X      Y      Z        X      Y      Z        X      Y      Z   
After scan for Atom:   Atom  AN      X      Y      Z        X      Y      Z        X      Y      Z   
After scan for Atom:   Atom  AN      X      Y      Z        X      Y      Z        X      Y      Z   
After scan for Atom:   Atom  AN      X      Y      Z        X      Y      Z        X      Y      Z   
After scan for Atom:   Atom  AN      X      Y      Z        X      Y      Z        X      Y      Z   
After scan for Atom:   Atom  AN      X      Y      Z        X      Y      Z        X      Y      Z   
After scan for Atom:   Atom  AN      X      Y      Z        X      Y      Z        X      Y      Z   
After scan for Atom:   Atom  AN      X      Y      Z        X      Y      Z        X      Y      Z   
After scan for Atom:   Atom  AN      X      Y      Z        X      Y      Z        X      Y      Z   
After scan for Atom:   Atom  AN      X      Y      Z        X      Y      Z        X      Y      Z   
After scan for Atom:   Atom  AN      X      Y      Z        X      Y      Z        X      Y      Z   
After scan for Atom:   Atom  AN      X      Y      Z        X      Y      Z        X      Y      Z   
After scan for Atom:   Atom  AN      X      Y      Z        X      Y      Z        X      Y      Z   
 g94    frequencies=
     0.0    0.0    0.0    0.0    0.0    0.0    8.5   18.3   27.3   28.6
    28.8   48.7   56.9   63.2   77.4   88.7   93.6  100.5  124.9  145.3
   161.0  168.7  178.2  194.6  201.7  212.9  214.3  229.3  234.5  236.0
   236.3  258.2  286.4  295.8  299.3  313.9  333.4  356.6  357.0  378.9
   395.0  405.2  417.5  431.7  437.1  442.2  450.7  453.4  456.0  459.3
   464.3  473.2  484.9  496.8  501.4  513.0  516.4  533.8  557.6  563.7
   579.0  583.6  590.8  620.5  623.5  625.4  629.4  646.9  661.3  668.5
   685.2  712.5  720.0  730.1  736.0  747.6  757.5  761.7  764.7  771.7
   786.3  804.0  806.9  816.3  823.4  824.8  829.3  833.4  835.2  835.6
   845.6  847.2  895.4  902.2  914.9  918.7  920.4  944.1  953.0  955.9
   973.7  974.7  977.1  977.6  986.4  989.7 1018.7 1052.4 1069.0 1094.4
  1102.3 1124.8 1150.0 1155.3 1155.5 1165.5 1174.8 1190.0 1201.3 1213.5
  1214.9 1220.2 1227.1 1236.7 1250.5 1260.2 1277.8 1293.1 1299.0 1301.5
  1325.2 1339.5 1348.5 1362.5 1363.2 1371.6 1383.0 1384.1 1393.3 1397.6
  1398.0 1412.4 1425.0 1426.8 1440.7 1445.4 1454.6 1462.3 1474.6 1484.0
  1484.3 1485.3 1496.6 1506.5 1510.3 1523.6 1548.4 1558.2 1574.9 1588.5
  1603.6 1613.7 1616.5 1622.9 1637.5 1685.0 1721.6 1787.1 1826.7 3030.1
  3034.6 3087.4 3090.5 3109.6 3131.7 3141.5 3153.5 3193.5 3193.7 3199.3
  3199.7 3209.2 3209.3 3224.9 3225.0 3227.6 3228.5 3242.5 3248.0
 g94    symmetries=
                                                 A      A      A      A
       A      A      A      A      A      A      A      A      A      A
       A      A      A      A      A      A      A      A      A      A
       A      A      A      A      A      A      A      A      A      A
       A      A      A      A      A      A      A      A      A      A
       A      A      A      A      A      A      A      A      A      A
       A      A      A      A      A      A      A      A      A      A
       A      A      A      A      A      A      A      A      A      A
       A      A      A      A      A      A      A      A      A      A
       A      A      A      A      A      A      A      A      A      A
       A      A      A      A      A      A      A      A      A      A
       A      A      A      A      A      A      A      A      A      A
       A      A      A      A      A      A      A      A      A      A
       A      A      A      A      A      A      A      A      A      A
       A      A      A      A      A      A      A      A      A      A
       A      A      A      A      A      A      A      A      A      A
       A      A      A      A      A      A      A      A      A      A
       A      A      A      A      A      A      A      A      A      A
       A      A      A      A      A      A      A      A      A
 atomic masses:
 12.0000 12.0000 12.0000 14.0031 12.0000 15.9949 12.0000 12.0000 12.0000 12.0000
 12.0000 12.0000 12.0000 12.0000 12.0000 15.9949 14.0031 12.0000 12.0000 12.0000
 12.0000 12.0000 31.9721 12.0000 12.0000 12.0000 31.9721 12.0000 15.9949 12.0000
 12.0000 12.0000 12.0000 12.0000 12.0000 12.0000 12.0000 12.0000 15.9949 12.0000
 12.0000 12.0000 12.0000  1.0078  1.0078  1.0078  1.0078  1.0078  1.0078  1.0078
  1.0078  1.0078  1.0078  1.0078  1.0078  1.0078  1.0078  1.0078  1.0078  1.0078
  1.0078  1.0078  1.0078
 looking for force constants in 
 ./TT-PDI_1_C0S1.fchk                                                           
  
 Cartesian Force Constants                  R   N=       17955                  
  
 n3=         189       17955
 g94-fc frequencies=
    -4.7   -0.8   -0.0    0.0    0.0    1.4    8.5   18.3   27.3   28.6
    28.8   48.7   56.9   63.2   77.4   88.7   93.7  100.5  124.9  145.3
   161.0  168.7  178.2  194.6  201.7  212.9  214.3  229.3  234.5  236.0
   236.3  258.2  286.4  295.8  299.3  313.9  333.4  356.6  357.1  378.9
   395.0  405.3  417.5  431.7  437.1  442.2  450.7  453.4  456.0  459.4
   464.4  473.2  485.0  496.8  501.4  513.0  516.4  533.8  557.6  563.7
   579.1  583.6  590.8  620.5  623.5  625.5  629.5  646.9  661.3  668.5
   685.2  712.5  720.1  730.1  736.0  747.6  757.6  761.8  764.7  771.7
   786.3  804.0  806.9  816.3  823.4  824.8  829.3  833.4  835.2  835.6
   845.6  847.2  895.4  902.3  914.9  918.8  920.4  944.1  953.1  955.9
   973.7  974.8  977.1  977.7  986.4  989.7 1018.7 1052.4 1069.0 1094.5
  1102.3 1124.8 1150.0 1155.3 1155.5 1165.5 1174.8 1190.1 1201.4 1213.6
  1215.0 1220.3 1227.2 1236.7 1250.5 1260.2 1277.8 1293.1 1299.0 1301.5
  1325.3 1339.6 1348.6 1362.5 1363.2 1371.6 1383.0 1384.1 1393.4 1397.6
  1398.0 1412.5 1425.1 1426.8 1440.7 1445.4 1454.7 1462.4 1474.7 1484.0
  1484.3 1485.4 1496.6 1506.6 1510.4 1523.6 1548.4 1558.2 1574.9 1588.6
  1603.6 1613.7 1616.5 1622.9 1637.5 1685.0 1721.6 1787.2 1826.8 3030.2
  3034.7 3087.4 3090.6 3109.7 3131.8 3141.6 3153.5 3193.5 3193.8 3199.4
  3199.7 3209.2 3209.3 3224.9 3225.1 3227.7 3228.6 3242.5 3248.1
 at 99999: n3=         189
 symm operator            1 :  F  nop=           0
 symm operator            2 :  F  nop=           0
 symm operator            3 :  F  nop=           0
 symm operator            4 :  F  nop=           0
 symm operator            5 :  F  nop=           0
 symm operator            6 :  F  nop=           0
 symm operator            7 :  F  nop=           0
 The point group of the molecule is  C1
 Symmetry rotation matrix:
   1.00000   0.00000   0.00000
   0.00000   1.00000   0.00000
   0.00000   0.00000   1.00000

 Projecting out zero-frequency components
 generating redundant internal coords
         300        3600          63
 search for int coords
   1 str   2   1   1.533
   2 str   3   2   1.533
   3 str   4   2   1.493
   4 str   5   4   1.403
   5 str   6   5   1.225
   6 str   7   5   1.473
   7 str   8   7   1.394
   8 str   9   8   1.383
   9 str  10   9   1.412
  10 str  11  10   1.448
  11 str  12  11   1.417
  12 str  13  12   1.372
  13 str  14  13   1.406
  14 str  15  14   1.446
  15 str  16  15   1.216
  16 str  17  15   1.458
  17 str  18  17   1.362
  18 str  19  18   1.376
  19 str  20  19   1.412
  20 str  21  20   1.410
  21 str  22  21   1.388
  22 str  23  22   1.748
  23 str  24  23   1.740
  24 str  25  24   1.377
  25 str  26  22   1.413
  26 str  26  25   1.405
  27 str  27  20   1.780
  28 str  27  26   1.740
  29 str  28  17   1.488
  30 str  29  28   1.215
  31 str  30  28   1.435
  32 str  31  30   1.409
  33 str  32  31   1.370
  34 str  33  32   1.420
  35 str  34  33   1.445
  36 str  35  34   1.413
  37 str  36  35   1.382
  38 str  37  36   1.395
  39 str  38   4   1.412
  40 str  38  37   1.471
  41 str  39  38   1.224
  42 str  40   7   1.411
  43 str  40  37   1.412
  44 str  41  10   1.426
  45 str  41  34   1.428
  46 str  41  40   1.434
  47 str  42  11   1.429
  48 str  42  33   1.430
  49 str  43  14   1.413
  50 str  43  30   1.418
  51 str  43  42   1.443
  52 str  44   1   1.094
  53 str  45   1   1.089
  54 str  46   1   1.093
  55 str  47   2   1.088
  56 str  48   3   1.089
  57 str  49   3   1.094
  58 str  50   3   1.093
  59 str  51   8   1.083
  60 str  52   9   1.081
  61 str  53  12   1.080
  62 str  54  13   1.082
  63 str  55  18   1.087
  64 str  56  19   1.079
  65 str  57  21   1.080
  66 str  58  24   1.080
  67 str  59  25   1.080
  68 str  60  31   1.082
  69 str  61  32   1.080
  70 str  62  35   1.081
  71 str  63  36   1.083
 nber stretches=          71
  72 ben   1   2   3
  73 prop tor   1   2   3  48
  74 prop tor   1   2   3  49
  75 prop tor   1   2   3  50
  76 ben   1   2   4
  77 prop tor   1   2   4   5
  78 prop tor   1   2   4  38
  79 ben   1   2  47
  80 ben   2   1  44
  81 ben   2   1  45
  82 ben   2   1  46
  83 ben   2   3  48
  84 ben   2   3  49
  85 ben   2   3  50
  86 ben   2   4   5
  87 prop tor   2   4   5   6
  88 prop tor   2   4   5   7
  89 ben   2   4  38
  90 prop tor   2   4  38  37
  91 prop tor   2   4  38  39
  92 ben   3   2   4
  93 prop tor   3   2   4   5
  94 prop tor   3   2   4  38
  95 ben   3   2  47
  96 prop tor   4   2   3  48
  97 prop tor   4   2   3  49
  98 prop tor   4   2   3  50
  99 ben   4   2  47
 100 ben   4   5   6
 101 ben   4   5   7
 102 prop tor   4   5   7   8
 103 prop tor   4   5   7  40
 104 ben   4  38  37
 105 ben   4  38  39
 106 ben   5   4  38
 107 prop tor   5   4  38  37
 108 prop tor   5   4  38  39
 109 ben   5   7   8
 110 prop tor   5   7   8   9
 111 prop tor   5   7   8  51
 112 ben   5   7  40
 113 prop tor   5   7  40  37
 114 prop tor   5   7  40  41
 115 ben   6   5   7
 116 prop tor   6   5   7   8
 117 prop tor   6   5   7  40
 118 ben   7   8   9
 119 prop tor   7   8   9  10
 120 prop tor   7   8   9  52
 121 ben   7   8  51
 122 ben   7  40  37
 123 ben   7  40  41
 124 prop tor   7  40  41  10
 125 prop tor   7  40  41  34
 126 ben   8   7  40
 127 prop tor   8   7  40  37
 128 prop tor   8   7  40  41
 129 ben   8   9  10
 130 prop tor   8   9  10  11
 131 prop tor   8   9  10  41
 132 ben   8   9  52
 133 ben   9   8  51
 134 ben   9  10  11
 135 prop tor   9  10  11  12
 136 prop tor   9  10  11  42
 137 ben   9  10  41
 138 prop tor   9  10  41  34
 139 prop tor   9  10  41  40
 140 ben  10   9  52
 141 ben  10  11  12
 142 prop tor  10  11  12  13
 143 prop tor  10  11  12  53
 144 ben  10  11  42
 145 prop tor  10  11  42  33
 146 prop tor  10  11  42  43
 147 ben  10  41  34
 148 ben  10  41  40
 149 ben  11  10  41
 150 prop tor  11  10  41  34
 151 prop tor  11  10  41  40
 152 ben  11  12  13
 153 prop tor  11  12  13  14
 154 prop tor  11  12  13  54
 155 ben  11  12  53
 156 ben  11  42  33
 157 ben  11  42  43
 158 prop tor  11  42  43  14
 159 prop tor  11  42  43  30
 160 ben  12  11  42
 161 prop tor  12  11  42  33
 162 prop tor  12  11  42  43
 163 ben  12  13  14
 164 prop tor  12  13  14  15
 165 prop tor  12  13  14  43
 166 ben  12  13  54
 167 ben  13  12  53
 168 ben  13  14  15
 169 prop tor  13  14  15  16
 170 prop tor  13  14  15  17
 171 ben  13  14  43
 172 prop tor  13  14  43  30
 173 prop tor  13  14  43  42
 174 ben  14  13  54
 175 ben  14  15  16
 176 ben  14  15  17
 177 prop tor  14  15  17  18
 178 prop tor  14  15  17  28
 179 ben  14  43  30
 180 ben  14  43  42
 181 ben  15  14  43
 182 prop tor  15  14  43  30
 183 prop tor  15  14  43  42
 184 ben  15  17  18
 185 prop tor  15  17  18  19
 186 prop tor  15  17  18  55
 187 ben  15  17  28
 188 prop tor  15  17  28  29
 189 prop tor  15  17  28  30
 190 ben  16  15  17
 191 prop tor  16  15  17  18
 192 prop tor  16  15  17  28
 193 ben  17  18  19
 194 prop tor  17  18  19  20
 195 prop tor  17  18  19  56
 196 ben  17  18  55
 197 ben  17  28  29
 198 ben  17  28  30
 199 prop tor  17  28  30  31
 200 prop tor  17  28  30  43
 201 ben  18  17  28
 202 prop tor  18  17  28  29
 203 prop tor  18  17  28  30
 204 ben  18  19  20
 205 prop tor  18  19  20  21
 206 prop tor  18  19  20  27
 207 ben  18  19  56
 208 ben  19  18  55
 209 ben  19  20  21
 210 prop tor  19  20  21  22
 211 prop tor  19  20  21  57
 212 ben  19  20  27
 213 prop tor  19  20  27  26
 214 ben  20  19  56
 215 ben  20  21  22
 216 prop tor  20  21  22  23
 217 prop tor  20  21  22  26
 218 ben  20  21  57
 219 ben  20  27  26
 220 ben  21  20  27
 221 prop tor  21  20  27  26
 222 ben  21  22  23
 223 prop tor  21  22  23  24
 224 ben  21  22  26
 225 prop tor  21  22  26  25
 226 prop tor  21  22  26  27
 227 ben  22  21  57
 228 ben  22  23  24
 229 prop tor  22  23  24  25
 230 prop tor  22  23  24  58
 231 ben  22  26  25
 232 ben  22  26  27
 233 prop tor  22  26  27  20
 234 ben  23  22  26
 235 prop tor  23  22  26  25
 236 prop tor  23  22  26  27
 237 ben  23  24  25
 238 prop tor  23  24  25  26
 239 prop tor  23  24  25  59
 240 ben  23  24  58
 241 ben  24  25  26
 242 prop tor  24  25  26  22
 243 prop tor  24  25  26  27
 244 ben  24  25  59
 245 ben  25  24  58
 246 ben  25  26  27
 247 prop tor  25  26  27  20
 248 prop tor  26  22  23  24
 249 ben  26  25  59
 250 prop tor  27  20  21  22
 251 prop tor  27  20  21  57
 252 prop tor  28  17  18  19
 253 prop tor  28  17  18  55
 254 ben  28  30  31
 255 prop tor  28  30  31  32
 256 prop tor  28  30  31  60
 257 ben  28  30  43
 258 prop tor  28  30  43  14
 259 prop tor  28  30  43  42
 260 ben  29  28  30
 261 prop tor  29  28  30  31
 262 prop tor  29  28  30  43
 263 ben  30  31  32
 264 prop tor  30  31  32  33
 265 prop tor  30  31  32  61
 266 ben  30  31  60
 267 ben  30  43  42
 268 ben  31  30  43
 269 prop tor  31  30  43  14
 270 prop tor  31  30  43  42
 271 ben  31  32  33
 272 prop tor  31  32  33  34
 273 prop tor  31  32  33  42
 274 ben  31  32  61
 275 ben  32  31  60
 276 ben  32  33  34
 277 prop tor  32  33  34  35
 278 prop tor  32  33  34  41
 279 ben  32  33  42
 280 prop tor  32  33  42  11
 281 prop tor  32  33  42  43
 282 ben  33  32  61
 283 ben  33  34  35
 284 prop tor  33  34  35  36
 285 prop tor  33  34  35  62
 286 ben  33  34  41
 287 prop tor  33  34  41  10
 288 prop tor  33  34  41  40
 289 ben  33  42  43
 290 prop tor  33  42  43  14
 291 prop tor  33  42  43  30
 292 ben  34  33  42
 293 prop tor  34  33  42  11
 294 prop tor  34  33  42  43
 295 ben  34  35  36
 296 prop tor  34  35  36  37
 297 prop tor  34  35  36  63
 298 ben  34  35  62
 299 ben  34  41  40
 300 ben  35  34  41
 301 prop tor  35  34  41  10
 302 prop tor  35  34  41  40
 303 ben  35  36  37
 304 prop tor  35  36  37  38
 305 prop tor  35  36  37  40
 306 ben  35  36  63
 307 ben  36  35  62
 308 ben  36  37  38
 309 prop tor  36  37  38   4
 310 prop tor  36  37  38  39
 311 ben  36  37  40
 312 prop tor  36  37  40   7
 313 prop tor  36  37  40  41
 314 ben  37  36  63
 315 ben  37  38  39
 316 ben  37  40  41
 317 prop tor  37  40  41  10
 318 prop tor  37  40  41  34
 319 prop tor  38   4   5   6
 320 prop tor  38   4   5   7
 321 ben  38  37  40
 322 prop tor  38  37  40   7
 323 prop tor  38  37  40  41
 324 prop tor  40   7   8   9
 325 prop tor  40   7   8  51
 326 prop tor  40  37  38   4
 327 prop tor  40  37  38  39
 328 prop tor  41  10  11  12
 329 prop tor  41  10  11  42
 330 prop tor  41  34  35  36
 331 prop tor  41  34  35  62
 332 prop tor  42  11  12  13
 333 prop tor  42  11  12  53
 334 prop tor  42  33  34  35
 335 prop tor  42  33  34  41
 336 prop tor  43  14  15  16
 337 prop tor  43  14  15  17
 338 prop tor  43  30  31  32
 339 prop tor  43  30  31  60
 340 prop tor  44   1   2   3
 341 prop tor  44   1   2   4
 342 prop tor  44   1   2  47
 343 ben  44   1  45
 344 ben  44   1  46
 345 prop tor  45   1   2   3
 346 prop tor  45   1   2   4
 347 prop tor  45   1   2  47
 348 ben  45   1  46
 349 prop tor  46   1   2   3
 350 prop tor  46   1   2   4
 351 prop tor  46   1   2  47
 352 prop tor  47   2   3  48
 353 prop tor  47   2   3  49
 354 prop tor  47   2   3  50
 355 prop tor  47   2   4   5
 356 prop tor  47   2   4  38
 357 ben  48   3  49
 358 ben  48   3  50
 359 ben  49   3  50
 360 prop tor  51   8   9  10
 361 prop tor  51   8   9  52
 362 prop tor  52   9  10  11
 363 prop tor  52   9  10  41
 364 prop tor  53  12  13  14
 365 prop tor  53  12  13  54
 366 prop tor  54  13  14  15
 367 prop tor  54  13  14  43
 368 prop tor  55  18  19  20
 369 prop tor  55  18  19  56
 370 prop tor  56  19  20  21
 371 prop tor  56  19  20  27
 372 prop tor  57  21  22  23
 373 prop tor  57  21  22  26
 374 prop tor  58  24  25  26
 375 prop tor  58  24  25  59
 376 prop tor  59  25  26  22
 377 prop tor  59  25  26  27
 378 prop tor  60  31  32  33
 379 prop tor  60  31  32  61
 380 prop tor  61  32  33  34
 381 prop tor  61  32  33  42
 382 prop tor  62  35  36  37
 383 prop tor  62  35  36  63
 384 prop tor  63  36  37  38
 385 prop tor  63  36  37  40
 nber bend=             122
 nber lin bend=           0
 nber prop tor=         192
 nber impr tor=           0
 nber tot redund int=         385
 Eigenvalues of G in red int coords
    Gval -0.00000000 -0.00000000 -0.00000000 -0.00000000 -0.00000000 -0.00000000 -0.00000000 -0.00000000
    Gval -0.00000000 -0.00000000 -0.00000000 -0.00000000 -0.00000000 -0.00000000 -0.00000000 -0.00000000
    Gval -0.00000000 -0.00000000 -0.00000000 -0.00000000 -0.00000000 -0.00000000 -0.00000000 -0.00000000
    Gval -0.00000000 -0.00000000 -0.00000000 -0.00000000 -0.00000000 -0.00000000 -0.00000000 -0.00000000
    Gval -0.00000000 -0.00000000 -0.00000000 -0.00000000 -0.00000000 -0.00000000 -0.00000000 -0.00000000
    Gval -0.00000000 -0.00000000 -0.00000000 -0.00000000 -0.00000000 -0.00000000 -0.00000000 -0.00000000
    Gval -0.00000000 -0.00000000 -0.00000000 -0.00000000 -0.00000000 -0.00000000 -0.00000000 -0.00000000
    Gval -0.00000000 -0.00000000 -0.00000000 -0.00000000 -0.00000000 -0.00000000 -0.00000000 -0.00000000
    Gval -0.00000000 -0.00000000 -0.00000000 -0.00000000 -0.00000000 -0.00000000 -0.00000000 -0.00000000
    Gval -0.00000000 -0.00000000 -0.00000000 -0.00000000 -0.00000000 -0.00000000 -0.00000000 -0.00000000
    Gval -0.00000000 -0.00000000 -0.00000000 -0.00000000 -0.00000000 -0.00000000 -0.00000000 -0.00000000
    Gval -0.00000000 -0.00000000 -0.00000000 -0.00000000 -0.00000000 -0.00000000 -0.00000000 -0.00000000
    Gval -0.00000000 -0.00000000 -0.00000000 -0.00000000 -0.00000000 -0.00000000 -0.00000000 -0.00000000
    Gval -0.00000000 -0.00000000  0.00000000  0.00000000  0.00000000  0.00000000  0.00000000  0.00000000
    Gval  0.00000000  0.00000000  0.00000000  0.00000000  0.00000000  0.00000000  0.00000000  0.00000000
    Gval  0.00000000  0.00000000  0.00000000  0.00000000  0.00000000  0.00000000  0.00000000  0.00000000
    Gval  0.00000000  0.00000000  0.00000000  0.00000000  0.00000000  0.00000000  0.00000000  0.00000000
    Gval  0.00000000  0.00000000  0.00000000  0.00000000  0.00000000  0.00000000  0.00000000  0.00000000
    Gval  0.00000000  0.00000000  0.00000000  0.00000000  0.00000000  0.00000000  0.00000000  0.00000000
    Gval  0.00000000  0.00000000  0.00000000  0.00000000  0.00000000  0.00000000  0.00000000  0.00000000
    Gval  0.00000000  0.00000000  0.00000000  0.00000000  0.00000000  0.00000000  0.00000000  0.00000000
    Gval  0.00000000  0.00000000  0.00000000  0.00000000  0.00000000  0.00000000  0.00000000  0.00000000
    Gval  0.00000000  0.00000000  0.00000000  0.00000000  0.00000000  0.00000000  0.00000000  0.00000000
    Gval  0.00000000  0.00000000  0.00000000  0.00000000  0.00000000  0.00000000  0.00000000  0.00000000
    Gval  0.00000000  0.00000000  0.00000000  0.00000000  0.00000000  0.00000000  0.00000000  0.00000000
    Gval  0.00000000  0.00000000  0.00000016  0.00000051  0.00000096  0.00000129  0.00000341  0.00000365
    Gval  0.00000398  0.00000447  0.00000637  0.00000893  0.00001082  0.00001115  0.00001316  0.00001416
    Gval  0.00001592  0.00001687  0.00001746  0.00001824  0.00001863  0.00002145  0.00002162  0.00002333
    Gval  0.00002372  0.00002533  0.00002658  0.00002870  0.00003105  0.00003353  0.00003535  0.00003649
    Gval  0.00003995  0.00004553  0.00004843  0.00004890  0.00005100  0.00005283  0.00005498  0.00005572
    Gval  0.00005786  0.00006130  0.00006215  0.00006807  0.00007042  0.00007323  0.00007970  0.00008150
    Gval  0.00008222  0.00008367  0.00008634  0.00008671  0.00009300  0.00009344  0.00009477  0.00009581
    Gval  0.00010633  0.00011020  0.00011639  0.00011891  0.00012246  0.00013216  0.00013634  0.00013712
    Gval  0.00014043  0.00014932  0.00015243  0.00015837  0.00015911  0.00016175  0.00018011  0.00018200
    Gval  0.00018393  0.00019417  0.00020399  0.00022196  0.00022741  0.00023140  0.00024790  0.00026885
    Gval  0.00028580  0.00028654  0.00029619  0.00030266  0.00030458  0.00032276  0.00034239  0.00035862
    Gval  0.00035953  0.00036516  0.00038397  0.00038653  0.00039121  0.00039642  0.00040015  0.00041532
    Gval  0.00041694  0.00042593  0.00043070  0.00043555  0.00044107  0.00044230  0.00046372  0.00046678
    Gval  0.00046951  0.00049343  0.00051202  0.00053358  0.00053727  0.00054829  0.00055372  0.00055595
    Gval  0.00055600  0.00059464  0.00059658  0.00059662  0.00059853  0.00059924  0.00059958  0.00059985
    Gval  0.00060221  0.00062064  0.00062484  0.00063719  0.00064136  0.00064490  0.00064562  0.00064747
    Gval  0.00065621  0.00066078  0.00067606  0.00069359  0.00069710  0.00079451  0.00082136  0.00090731
    Gval  0.00095867  0.00099808  0.00107069  0.00108234  0.00109377  0.00109470  0.00109543  0.00109594
    Gval  0.00114373  0.00114591  0.00116449  0.00116500  0.00116671  0.00116723  0.00116773  0.00116897
    Gval  0.00116954  0.00118495  0.00121562  0.00126048  0.00128539  0.00129247  0.00137790  0.00149481
    Gval  0.00155071  0.00172396  0.00176996  0.00191595  0.00206993  0.00227781  0.00234174  0.00252066
    Gval  0.00252566  0.00255857  0.00277932  0.00281169  0.00292482  0.00302239  0.00304249  0.00308281
    Gval  0.00309243  0.00321803  0.00359206  0.00366496  0.00366746  0.00371272  0.00371500  0.00393407
    Gval  0.00395253
  1.553750605059531E-007  1.553750605059531E-007
  5.101077263466017E-007  1.553750605059531E-007
  9.600719931372283E-007  1.553750605059531E-007
  1.292055643784361E-006  1.553750605059531E-007
  3.406772047825779E-006  1.553750605059531E-007
  3.650970640610998E-006  1.553750605059531E-007
  3.982159909034831E-006  1.553750605059531E-007
  4.465275072150339E-006  1.553750605059531E-007
  6.368395301153064E-006  1.553750605059531E-007
  8.928462258405073E-006  1.553750605059531E-007
  1.082078387826690E-005  1.553750605059531E-007
  1.114902778188665E-005  1.553750605059531E-007
  1.316263506260326E-005  1.553750605059531E-007
  1.415915158341094E-005  1.553750605059531E-007
  1.592493794056947E-005  1.553750605059531E-007
  1.687440528055230E-005  1.553750605059531E-007
  1.745695746586009E-005  1.553750605059531E-007
  1.824123915971369E-005  1.553750605059531E-007
  1.862933437576938E-005  1.553750605059531E-007
  2.145410708487801E-005  1.553750605059531E-007
  2.162499557949196E-005  1.553750605059531E-007
  2.333292023722804E-005  1.553750605059531E-007
  2.371777329887565E-005  1.553750605059531E-007
  2.533295845744472E-005  1.553750605059531E-007
  2.657758132352936E-005  1.553750605059531E-007
  2.870279551264816E-005  1.553750605059531E-007
  3.104752036749871E-005  1.553750605059531E-007
  3.352549324839918E-005  1.553750605059531E-007
  3.535417141210359E-005  1.553750605059531E-007
  3.649124134362283E-005  1.553750605059531E-007
  3.994948475341577E-005  1.553750605059531E-007
  4.552656090803925E-005  1.553750605059531E-007
  4.842537003339968E-005  1.553750605059531E-007
  4.889748565821672E-005  1.553750605059531E-007
  5.099860666694602E-005  1.553750605059531E-007
  5.282768169378106E-005  1.553750605059531E-007
  5.497794580612082E-005  1.553750605059531E-007
  5.571584263067557E-005  1.553750605059531E-007
  5.786255681570929E-005  1.553750605059531E-007
  6.130249492959029E-005  1.553750605059531E-007
  6.215186461353015E-005  1.553750605059531E-007
  6.806985310789454E-005  1.553750605059531E-007
  7.042012683289323E-005  1.553750605059531E-007
  7.322931221641906E-005  1.553750605059531E-007
  7.969538536179722E-005  1.553750605059531E-007
  8.150385469378735E-005  1.553750605059531E-007
  8.221707809399931E-005  1.553750605059531E-007
  8.367495955620810E-005  1.553750605059531E-007
  8.633599942499267E-005  1.553750605059531E-007
  8.671223613582116E-005  1.553750605059531E-007
  9.299524295660270E-005  1.553750605059531E-007
  9.343795863933075E-005  1.553750605059531E-007
  9.476507600758157E-005  1.553750605059531E-007
  9.580508071884108E-005  1.553750605059531E-007
  1.063263357615970E-004  1.553750605059531E-007
  1.101955942869636E-004  1.553750605059531E-007
  1.163853083362353E-004  1.553750605059531E-007
  1.189076079052646E-004  1.553750605059531E-007
  1.224565949887906E-004  1.553750605059531E-007
  1.321572576995202E-004  1.553750605059531E-007
  1.363408588719005E-004  1.553750605059531E-007
  1.371180139754828E-004  1.553750605059531E-007
  1.404330156348882E-004  1.553750605059531E-007
  1.493204490812038E-004  1.553750605059531E-007
  1.524266069393695E-004  1.553750605059531E-007
  1.583720229838444E-004  1.553750605059531E-007
  1.591052120334056E-004  1.553750605059531E-007
  1.617507089817682E-004  1.553750605059531E-007
  1.801089074713062E-004  1.553750605059531E-007
  1.819970763509038E-004  1.553750605059531E-007
  1.839308000448445E-004  1.553750605059531E-007
  1.941738003118586E-004  1.553750605059531E-007
  2.039949780639515E-004  1.553750605059531E-007
  2.219559291343308E-004  1.553750605059531E-007
  2.274146349881088E-004  1.553750605059531E-007
  2.314017912270490E-004  1.553750605059531E-007
  2.478984612778616E-004  1.553750605059531E-007
  2.688464743153928E-004  1.553750605059531E-007
  2.857957372277456E-004  1.553750605059531E-007
  2.865405130829932E-004  1.553750605059531E-007
  2.961928087915880E-004  1.553750605059531E-007
  3.026601048084231E-004  1.553750605059531E-007
  3.045839687385219E-004  1.553750605059531E-007
  3.227637093847883E-004  1.553750605059531E-007
  3.423856544586436E-004  1.553750605059531E-007
  3.586227900989297E-004  1.553750605059531E-007
  3.595274828985738E-004  1.553750605059531E-007
  3.651603244851183E-004  1.553750605059531E-007
  3.839730233249662E-004  1.553750605059531E-007
  3.865321079613615E-004  1.553750605059531E-007
  3.912073344340852E-004  1.553750605059531E-007
  3.964242224657433E-004  1.553750605059531E-007
  4.001508696298629E-004  1.553750605059531E-007
  4.153160108948034E-004  1.553750605059531E-007
  4.169405135417959E-004  1.553750605059531E-007
  4.259260388028076E-004  1.553750605059531E-007
  4.307004907627050E-004  1.553750605059531E-007
  4.355499843155640E-004  1.553750605059531E-007
  4.410693895424770E-004  1.553750605059531E-007
  4.422980638745360E-004  1.553750605059531E-007
  4.637155815253535E-004  1.553750605059531E-007
  4.667787271042615E-004  1.553750605059531E-007
  4.695068733494472E-004  1.553750605059531E-007
  4.934302405763656E-004  1.553750605059531E-007
  5.120232345792314E-004  1.553750605059531E-007
  5.335805766748896E-004  1.553750605059531E-007
  5.372738763037235E-004  1.553750605059531E-007
  5.482890912192789E-004  1.553750605059531E-007
  5.537185217198185E-004  1.553750605059531E-007
  5.559457097956592E-004  1.553750605059531E-007
  5.559974054928037E-004  1.553750605059531E-007
  5.946371998688415E-004  1.553750605059531E-007
  5.965786228799114E-004  1.553750605059531E-007
  5.966201979339010E-004  1.553750605059531E-007
  5.985279411419673E-004  1.553750605059531E-007
  5.992432535434327E-004  1.553750605059531E-007
  5.995764618789575E-004  1.553750605059531E-007
  5.998528427444767E-004  1.553750605059531E-007
  6.022124760072825E-004  1.553750605059531E-007
  6.206396583983512E-004  1.553750605059531E-007
  6.248445747861471E-004  1.553750605059531E-007
  6.371940815067377E-004  1.553750605059531E-007
  6.413589123879741E-004  1.553750605059531E-007
  6.449028883530983E-004  1.553750605059531E-007
  6.456173079230745E-004  1.553750605059531E-007
  6.474664666246689E-004  1.553750605059531E-007
  6.562090153382184E-004  1.553750605059531E-007
  6.607813650517021E-004  1.553750605059531E-007
  6.760572252515482E-004  1.553750605059531E-007
  6.935879359841763E-004  1.553750605059531E-007
  6.970956397747174E-004  1.553750605059531E-007
  7.945108437684749E-004  1.553750605059531E-007
  8.213645370824789E-004  1.553750605059531E-007
  9.073144749946794E-004  1.553750605059531E-007
  9.586737616737646E-004  1.553750605059531E-007
  9.980758048107291E-004  1.553750605059531E-007
  1.070691872512338E-003  1.553750605059531E-007
  1.082341069540584E-003  1.553750605059531E-007
  1.093766835817376E-003  1.553750605059531E-007
  1.094698424140284E-003  1.553750605059531E-007
  1.095425016109584E-003  1.553750605059531E-007
  1.095940783758004E-003  1.553750605059531E-007
  1.143734130736694E-003  1.553750605059531E-007
  1.145906694386871E-003  1.553750605059531E-007
  1.164486310222409E-003  1.553750605059531E-007
  1.164998198256781E-003  1.553750605059531E-007
  1.166708845245012E-003  1.553750605059531E-007
  1.167226193804612E-003  1.553750605059531E-007
  1.167733979555083E-003  1.553750605059531E-007
  1.168971425216301E-003  1.553750605059531E-007
  1.169535229432233E-003  1.553750605059531E-007
  1.184947987483753E-003  1.553750605059531E-007
  1.215616253509247E-003  1.553750605059531E-007
  1.260482077439352E-003  1.553750605059531E-007
  1.285394339065936E-003  1.553750605059531E-007
  1.292467145126536E-003  1.553750605059531E-007
  1.377897697315392E-003  1.553750605059531E-007
  1.494811762922835E-003  1.553750605059531E-007
  1.550706058636734E-003  1.553750605059531E-007
  1.723959368421754E-003  1.553750605059531E-007
  1.769956675641321E-003  1.553750605059531E-007
  1.915948931241330E-003  1.553750605059531E-007
  2.069932277186216E-003  1.553750605059531E-007
  2.277810822871518E-003  1.553750605059531E-007
  2.341740646687650E-003  1.553750605059531E-007
  2.520657001987656E-003  1.553750605059531E-007
  2.525660768080782E-003  1.553750605059531E-007
  2.558570188502803E-003  1.553750605059531E-007
  2.779324841349944E-003  1.553750605059531E-007
  2.811690883945917E-003  1.553750605059531E-007
  2.924821057489431E-003  1.553750605059531E-007
  3.022385580620371E-003  1.553750605059531E-007
  3.042487008102376E-003  1.553750605059531E-007
  3.082805530810015E-003  1.553750605059531E-007
  3.092431246134449E-003  1.553750605059531E-007
  3.218029890980446E-003  1.553750605059531E-007
  3.592059397589371E-003  1.553750605059531E-007
  3.664959125509350E-003  1.553750605059531E-007
  3.667462193892670E-003  1.553750605059531E-007
  3.712719804922775E-003  1.553750605059531E-007
  3.715004923493279E-003  1.553750605059531E-007
  3.934068886215503E-003  1.553750605059531E-007
  3.952528342724100E-003  1.553750605059531E-007
 cut=1d-8, nber non-redundant internal coords=         183
 Check on Eigenvals of non-red overlap matrix:
  0.00000016  0.00000051  0.00000096  0.00000129  0.00000341  0.00000365  0.00000398  0.00000447
  0.00000637  0.00000893  0.00001082  0.00001115  0.00001316  0.00001416  0.00001592  0.00001687
  0.00001746  0.00001824  0.00001863  0.00002145  0.00002162  0.00002333  0.00002372  0.00002533
  0.00002658  0.00002870  0.00003105  0.00003353  0.00003535  0.00003649  0.00003995  0.00004553
  0.00004843  0.00004890  0.00005100  0.00005283  0.00005498  0.00005572  0.00005786  0.00006130
  0.00006215  0.00006807  0.00007042  0.00007323  0.00007970  0.00008150  0.00008222  0.00008367
  0.00008634  0.00008671  0.00009300  0.00009344  0.00009477  0.00009581  0.00010633  0.00011020
  0.00011639  0.00011891  0.00012246  0.00013216  0.00013634  0.00013712  0.00014043  0.00014932
  0.00015243  0.00015837  0.00015911  0.00016175  0.00018011  0.00018200  0.00018393  0.00019417
  0.00020399  0.00022196  0.00022741  0.00023140  0.00024790  0.00026885  0.00028580  0.00028654
  0.00029619  0.00030266  0.00030458  0.00032276  0.00034239  0.00035862  0.00035953  0.00036516
  0.00038397  0.00038653  0.00039121  0.00039642  0.00040015  0.00041532  0.00041694  0.00042593
  0.00043070  0.00043555  0.00044107  0.00044230  0.00046372  0.00046678  0.00046951  0.00049343
  0.00051202  0.00053358  0.00053727  0.00054829  0.00055372  0.00055595  0.00055600  0.00059464
  0.00059658  0.00059662  0.00059853  0.00059924  0.00059958  0.00059985  0.00060221  0.00062064
  0.00062484  0.00063719  0.00064136  0.00064490  0.00064562  0.00064747  0.00065621  0.00066078
  0.00067606  0.00069359  0.00069710  0.00079451  0.00082136  0.00090731  0.00095867  0.00099808
  0.00107069  0.00108234  0.00109377  0.00109470  0.00109543  0.00109594  0.00114373  0.00114591
  0.00116449  0.00116500  0.00116671  0.00116723  0.00116773  0.00116897  0.00116954  0.00118495
  0.00121562  0.00126048  0.00128539  0.00129247  0.00137790  0.00149481  0.00155071  0.00172396
  0.00176996  0.00191595  0.00206993  0.00227781  0.00234174  0.00252066  0.00252566  0.00255857
  0.00277932  0.00281169  0.00292482  0.00302239  0.00304249  0.00308281  0.00309243  0.00321803
  0.00359206  0.00366496  0.00366746  0.00371272  0.00371500  0.00393407  0.00395253
 Checking for correct frequencies
 recalc frequencies=
    -0.0   -0.0   -0.0    0.0    0.0    0.0    8.5   18.3   27.3   28.6
    28.8   48.7   56.9   63.2   77.4   88.7   93.7  100.5  124.9  145.3
   161.0  168.7  178.2  194.6  201.7  212.9  214.3  229.3  234.5  236.0
   236.3  258.2  286.4  295.8  299.3  313.9  333.4  356.6  357.1  378.9
   395.0  405.3  417.5  431.7  437.1  442.2  450.7  453.4  456.0  459.4
   464.4  473.2  485.0  496.8  501.4  513.0  516.4  533.8  557.6  563.7
   579.1  583.6  590.8  620.5  623.5  625.5  629.5  646.9  661.3  668.5
   685.2  712.5  720.1  730.1  736.0  747.6  757.6  761.8  764.7  771.7
   786.3  804.0  806.9  816.3  823.4  824.8  829.3  833.4  835.2  835.6
   845.6  847.2  895.4  902.3  914.9  918.8  920.4  944.1  953.1  955.9
   973.7  974.8  977.1  977.7  986.4  989.7 1018.7 1052.4 1069.0 1094.5
  1102.3 1124.8 1150.0 1155.3 1155.5 1165.5 1174.8 1190.1 1201.4 1213.6
  1215.0 1220.3 1227.2 1236.7 1250.5 1260.2 1277.8 1293.1 1299.0 1301.5
  1325.3 1339.6 1348.6 1362.5 1363.2 1371.6 1383.0 1384.1 1393.4 1397.6
  1398.0 1412.5 1425.1 1426.8 1440.7 1445.4 1454.7 1462.4 1474.7 1484.0
  1484.3 1485.4 1496.6 1506.6 1510.4 1523.6 1548.4 1558.2 1574.9 1588.6
  1603.6 1613.7 1616.5 1622.9 1637.5 1685.0 1721.6 1787.2 1826.8 3030.2
  3034.7 3087.4 3090.6 3109.7 3131.8 3141.6 3153.5 3193.5 3193.8 3199.4
  3199.7 3209.2 3209.3 3224.9 3225.1 3227.7 3228.6 3242.5 3248.1
 recalc symmetries=
                                                                       
                                                                       
                                                                       
                                                                       
                                                                       
                                                                       
                                                                       
                                                                       
                                                                       
                                                                       
                                                                       
                                                                       
                                                                       
                                                                       
                                                                       
                                                                       
                                                                       
                                                                       
                                                                
 recalc freqs check OK
 Zero-point lengths:
 10.0000 10.0000 10.0000 10.0000 10.0000 10.0000 84.8483 58.0187 47.4820 46.3881
 46.2211 35.5263 32.8591 31.1847 28.1872 26.3233 25.6177 24.7246 22.1826 20.5660
 19.5395 19.0883 18.5731 17.7726 17.4540 16.9901 16.9358 16.3710 16.1894 16.1363
 16.1258 15.4291 14.6499 14.4150 14.3308 13.9932 13.5765 13.1286 13.1199 12.7353
 12.4738 12.3149 12.1327 11.9316 11.8576 11.7895 11.6780 11.6425 11.6092 11.5670
 11.5046 11.3961 11.2575 11.1224 11.0714 10.9458 10.9095 10.7298 10.4985 10.4418
 10.3023 10.2621 10.1994  9.9522  9.9284  9.9128  9.8812  9.7473  9.6403  9.5883
  9.4709  9.2877  9.2387  9.1750  9.1380  9.0671  9.0071  8.9823  8.9648  8.9242
  8.8411  8.7430  8.7273  8.6770  8.6394  8.6320  8.6089  8.5874  8.5784  8.5762
  8.5255  8.5172  8.2849  8.2533  8.1960  8.1789  8.1715  8.0685  8.0304  8.0186
  7.9447  7.9405  7.9308  7.9286  7.8934  7.8804  7.7672  7.6419  7.5824  7.4937
  7.4669  7.3919  7.3105  7.2936  7.2931  7.2617  7.2328  7.1864  7.1525  7.1165
  7.1123  7.0969  7.0769  7.0495  7.0105  6.9835  6.9353  6.8941  6.8785  6.8719
  6.8099  6.7735  6.7509  6.7162  6.7146  6.6939  6.6663  6.6636  6.6415  6.6314
  6.6303  6.5964  6.5672  6.5632  6.5313  6.5208  6.5000  6.4829  6.4558  6.4354
  6.4347  6.4325  6.4083  6.3870  6.3790  6.3513  6.3002  6.2803  6.2469  6.2201
  6.1908  6.1714  6.1660  6.1538  6.1263  6.0394  5.9749  5.8643  5.8003  4.5036
  4.5003  4.4617  4.4594  4.4457  4.4300  4.4230  4.4147  4.3869  4.3867  4.3829
  4.3827  4.3762  4.3761  4.3655  4.3654  4.3636  4.3631  4.3537  4.3499
 highest evec of mol 1
  0.0000 -0.0000 -0.0000
 -0.0000 -0.0000  0.0000
  0.0000 -0.0000 -0.0000
 -0.0000  0.0000  0.0000
  0.0000 -0.0000 -0.0000
 -0.0000  0.0000  0.0000
 -0.0000  0.0000  0.0000
  0.0000 -0.0000 -0.0000
  0.0000  0.0000 -0.0000
 -0.0000  0.0000  0.0000
 -0.0000 -0.0000 -0.0000
  0.0001  0.0000 -0.0001
  0.0000  0.0000 -0.0000
 -0.0000  0.0000  0.0000
  0.0000 -0.0000 -0.0001
  0.0000 -0.0000 -0.0001
 -0.0000  0.0001  0.0000
  0.0003  0.0001 -0.0005
  0.0030  0.0016 -0.0045
 -0.0003 -0.0005  0.0003
  0.0031  0.0021 -0.0046
 -0.0015  0.0021  0.0028
 -0.0014 -0.0007  0.0021
  0.0641 -0.2180 -0.1488
  0.0660  0.0523 -0.0952
 -0.0036  0.0052  0.0069
  0.0001 -0.0004 -0.0003
 -0.0000 -0.0001  0.0001
  0.0000  0.0000 -0.0000
  0.0000  0.0000 -0.0000
 -0.0000 -0.0000  0.0000
 -0.0000 -0.0001  0.0000
  0.0000 -0.0000 -0.0000
  0.0000 -0.0000 -0.0000
 -0.0000  0.0000  0.0000
 -0.0000 -0.0000  0.0000
 -0.0000  0.0000  0.0000
  0.0000 -0.0000 -0.0000
  0.0000  0.0000  0.0000
 -0.0000  0.0000 -0.0000
 -0.0000 -0.0000  0.0000
 -0.0000  0.0000  0.0000
 -0.0000  0.0000  0.0000
 -0.0000  0.0000  0.0000
  0.0000 -0.0000 -0.0000
  0.0000 -0.0000  0.0000
  0.0000  0.0000 -0.0000
  0.0000 -0.0000 -0.0000
 -0.0000  0.0000  0.0000
 -0.0000 -0.0000 -0.0000
 -0.0001  0.0000  0.0001
 -0.0000 -0.0001  0.0000
 -0.0002 -0.0000  0.0003
 -0.0000 -0.0001  0.0000
 -0.0012 -0.0005  0.0018
 -0.0098 -0.0051  0.0147
 -0.0092 -0.0058  0.0137
 -0.2250  0.6788  0.5041
 -0.2003 -0.1263  0.2960
  0.0000 -0.0000 -0.0001
  0.0001  0.0003 -0.0001
  0.0001  0.0000 -0.0001
  0.0000  0.0001 -0.0000
 generating redundant internal coords
         300        3600          63
 Adding extra bonds for z output only
           6           6           6           7           6           8
           6           6           6           6           6           6
           6           6           6           8           7           6
           6           6           6           6          16           6
           6           6          16           6           8           6
           6           6           6           6           6           6
           6           6           8           6           6           6
           6           1           1           1           1           1
           1           1           1           1           1           1
           1           1           1           1           1           1
           1           1           1
 search for int coords
   1 str   2   1   1.533
   2 str   3   2   1.533
   3 str   4   2   1.493
   4 str   5   4   1.403
   5 str   6   5   1.225
   6 str   7   5   1.473
   7 str   8   7   1.394
   8 str   9   8   1.383
   9 str  10   9   1.412
  10 str  11  10   1.448
  11 str  12  11   1.417
  12 str  13  12   1.372
  13 str  14  13   1.406
  14 str  15  14   1.446
  15 str  16  15   1.216
  16 str  17  15   1.458
  17 str  18  17   1.362
  18 str  19  18   1.376
  19 str  20  19   1.412
  20 str  21  20   1.410
  21 str  22  21   1.388
  22 str  23  22   1.748
  23 str  24  23   1.740
  24 str  25  24   1.377
  25 str  26  22   1.413
  26 str  26  25   1.405
  27 str  27  20   1.780
  28 str  27  26   1.740
  29 str  28  17   1.488
  30 str  29  28   1.215
  31 str  30  28   1.435
  32 str  31  30   1.409
  33 str  32  31   1.370
  34 str  33  32   1.420
  35 str  34  33   1.445
  36 str  35  34   1.413
  37 str  36  35   1.382
  38 str  37  36   1.395
  39 str  38   4   1.412
  40 str  38  37   1.471
  41 str  39  38   1.224
  42 str  40   7   1.411
  43 str  40  37   1.412
  44 str  41  10   1.426
  45 str  41  34   1.428
  46 str  41  40   1.434
  47 str  42  11   1.429
  48 str  42  33   1.430
  49 str  43  14   1.413
  50 str  43  30   1.418
  51 str  43  42   1.443
  52 str  44   1   1.094
  53 str  45   1   1.089
  54 str  46   1   1.093
  55 str  47   2   1.088
  56 str  48   3   1.089
  57 str  49   3   1.094
  58 str  50   3   1.093
  59 str  51   8   1.083
  60 str  52   9   1.081
  61 str  53  12   1.080
  62 str  54  13   1.082
  63 str  55  18   1.087
  64 str  56  19   1.079
  65 str  57  21   1.080
  66 str  58  24   1.080
  67 str  59  25   1.080
  68 str  60  31   1.082
  69 str  61  32   1.080
  70 str  62  35   1.081
  71 str  63  36   1.083
 nber stretches=          71
  72 ben   1   2   3
  73 prop tor   1   2   3  48
  74 prop tor   1   2   3  49
  75 prop tor   1   2   3  50
  76 ben   1   2   4
  77 prop tor   1   2   4   5
  78 prop tor   1   2   4  38
  79 ben   1   2  47
  80 ben   2   1  44
  81 ben   2   1  45
  82 ben   2   1  46
  83 ben   2   3  48
  84 ben   2   3  49
  85 ben   2   3  50
  86 ben   2   4   5
  87 prop tor   2   4   5   6
  88 prop tor   2   4   5   7
  89 ben   2   4  38
  90 prop tor   2   4  38  37
  91 prop tor   2   4  38  39
  92 ben   3   2   4
  93 prop tor   3   2   4   5
  94 prop tor   3   2   4  38
  95 ben   3   2  47
  96 prop tor   4   2   3  48
  97 prop tor   4   2   3  49
  98 prop tor   4   2   3  50
  99 ben   4   2  47
 100 ben   4   5   6
 101 ben   4   5   7
 102 prop tor   4   5   7   8
 103 prop tor   4   5   7  40
 104 ben   4  38  37
 105 ben   4  38  39
 106 ben   5   4  38
 107 prop tor   5   4  38  37
 108 prop tor   5   4  38  39
 109 ben   5   7   8
 110 prop tor   5   7   8   9
 111 prop tor   5   7   8  51
 112 ben   5   7  40
 113 prop tor   5   7  40  37
 114 prop tor   5   7  40  41
 115 ben   6   5   7
 116 prop tor   6   5   7   8
 117 prop tor   6   5   7  40
 118 ben   7   8   9
 119 prop tor   7   8   9  10
 120 prop tor   7   8   9  52
 121 ben   7   8  51
 122 ben   7  40  37
 123 ben   7  40  41
 124 prop tor   7  40  41  10
 125 prop tor   7  40  41  34
 126 ben   8   7  40
 127 prop tor   8   7  40  37
 128 prop tor   8   7  40  41
 129 ben   8   9  10
 130 prop tor   8   9  10  11
 131 prop tor   8   9  10  41
 132 ben   8   9  52
 133 ben   9   8  51
 134 ben   9  10  11
 135 prop tor   9  10  11  12
 136 prop tor   9  10  11  42
 137 ben   9  10  41
 138 prop tor   9  10  41  34
 139 prop tor   9  10  41  40
 140 ben  10   9  52
 141 ben  10  11  12
 142 prop tor  10  11  12  13
 143 prop tor  10  11  12  53
 144 ben  10  11  42
 145 prop tor  10  11  42  33
 146 prop tor  10  11  42  43
 147 ben  10  41  34
 148 ben  10  41  40
 149 ben  11  10  41
 150 prop tor  11  10  41  34
 151 prop tor  11  10  41  40
 152 ben  11  12  13
 153 prop tor  11  12  13  14
 154 prop tor  11  12  13  54
 155 ben  11  12  53
 156 ben  11  42  33
 157 ben  11  42  43
 158 prop tor  11  42  43  14
 159 prop tor  11  42  43  30
 160 ben  12  11  42
 161 prop tor  12  11  42  33
 162 prop tor  12  11  42  43
 163 ben  12  13  14
 164 prop tor  12  13  14  15
 165 prop tor  12  13  14  43
 166 ben  12  13  54
 167 ben  13  12  53
 168 ben  13  14  15
 169 prop tor  13  14  15  16
 170 prop tor  13  14  15  17
 171 ben  13  14  43
 172 prop tor  13  14  43  30
 173 prop tor  13  14  43  42
 174 ben  14  13  54
 175 ben  14  15  16
 176 ben  14  15  17
 177 prop tor  14  15  17  18
 178 prop tor  14  15  17  28
 179 ben  14  43  30
 180 ben  14  43  42
 181 ben  15  14  43
 182 prop tor  15  14  43  30
 183 prop tor  15  14  43  42
 184 ben  15  17  18
 185 prop tor  15  17  18  19
 186 prop tor  15  17  18  55
 187 ben  15  17  28
 188 prop tor  15  17  28  29
 189 prop tor  15  17  28  30
 190 ben  16  15  17
 191 prop tor  16  15  17  18
 192 prop tor  16  15  17  28
 193 ben  17  18  19
 194 prop tor  17  18  19  20
 195 prop tor  17  18  19  56
 196 ben  17  18  55
 197 ben  17  28  29
 198 ben  17  28  30
 199 prop tor  17  28  30  31
 200 prop tor  17  28  30  43
 201 ben  18  17  28
 202 prop tor  18  17  28  29
 203 prop tor  18  17  28  30
 204 ben  18  19  20
 205 prop tor  18  19  20  21
 206 prop tor  18  19  20  27
 207 ben  18  19  56
 208 ben  19  18  55
 209 ben  19  20  21
 210 prop tor  19  20  21  22
 211 prop tor  19  20  21  57
 212 ben  19  20  27
 213 prop tor  19  20  27  26
 214 ben  20  19  56
 215 ben  20  21  22
 216 prop tor  20  21  22  23
 217 prop tor  20  21  22  26
 218 ben  20  21  57
 219 ben  20  27  26
 220 ben  21  20  27
 221 prop tor  21  20  27  26
 222 ben  21  22  23
 223 prop tor  21  22  23  24
 224 ben  21  22  26
 225 prop tor  21  22  26  25
 226 prop tor  21  22  26  27
 227 ben  22  21  57
 228 ben  22  23  24
 229 prop tor  22  23  24  25
 230 prop tor  22  23  24  58
 231 ben  22  26  25
 232 ben  22  26  27
 233 prop tor  22  26  27  20
 234 ben  23  22  26
 235 prop tor  23  22  26  25
 236 prop tor  23  22  26  27
 237 ben  23  24  25
 238 prop tor  23  24  25  26
 239 prop tor  23  24  25  59
 240 ben  23  24  58
 241 ben  24  25  26
 242 prop tor  24  25  26  22
 243 prop tor  24  25  26  27
 244 ben  24  25  59
 245 ben  25  24  58
 246 ben  25  26  27
 247 prop tor  25  26  27  20
 248 prop tor  26  22  23  24
 249 ben  26  25  59
 250 prop tor  27  20  21  22
 251 prop tor  27  20  21  57
 252 prop tor  28  17  18  19
 253 prop tor  28  17  18  55
 254 ben  28  30  31
 255 prop tor  28  30  31  32
 256 prop tor  28  30  31  60
 257 ben  28  30  43
 258 prop tor  28  30  43  14
 259 prop tor  28  30  43  42
 260 ben  29  28  30
 261 prop tor  29  28  30  31
 262 prop tor  29  28  30  43
 263 ben  30  31  32
 264 prop tor  30  31  32  33
 265 prop tor  30  31  32  61
 266 ben  30  31  60
 267 ben  30  43  42
 268 ben  31  30  43
 269 prop tor  31  30  43  14
 270 prop tor  31  30  43  42
 271 ben  31  32  33
 272 prop tor  31  32  33  34
 273 prop tor  31  32  33  42
 274 ben  31  32  61
 275 ben  32  31  60
 276 ben  32  33  34
 277 prop tor  32  33  34  35
 278 prop tor  32  33  34  41
 279 ben  32  33  42
 280 prop tor  32  33  42  11
 281 prop tor  32  33  42  43
 282 ben  33  32  61
 283 ben  33  34  35
 284 prop tor  33  34  35  36
 285 prop tor  33  34  35  62
 286 ben  33  34  41
 287 prop tor  33  34  41  10
 288 prop tor  33  34  41  40
 289 ben  33  42  43
 290 prop tor  33  42  43  14
 291 prop tor  33  42  43  30
 292 ben  34  33  42
 293 prop tor  34  33  42  11
 294 prop tor  34  33  42  43
 295 ben  34  35  36
 296 prop tor  34  35  36  37
 297 prop tor  34  35  36  63
 298 ben  34  35  62
 299 ben  34  41  40
 300 ben  35  34  41
 301 prop tor  35  34  41  10
 302 prop tor  35  34  41  40
 303 ben  35  36  37
 304 prop tor  35  36  37  38
 305 prop tor  35  36  37  40
 306 ben  35  36  63
 307 ben  36  35  62
 308 ben  36  37  38
 309 prop tor  36  37  38   4
 310 prop tor  36  37  38  39
 311 ben  36  37  40
 312 prop tor  36  37  40   7
 313 prop tor  36  37  40  41
 314 ben  37  36  63
 315 ben  37  38  39
 316 ben  37  40  41
 317 prop tor  37  40  41  10
 318 prop tor  37  40  41  34
 319 prop tor  38   4   5   6
 320 prop tor  38   4   5   7
 321 ben  38  37  40
 322 prop tor  38  37  40   7
 323 prop tor  38  37  40  41
 324 prop tor  40   7   8   9
 325 prop tor  40   7   8  51
 326 prop tor  40  37  38   4
 327 prop tor  40  37  38  39
 328 prop tor  41  10  11  12
 329 prop tor  41  10  11  42
 330 prop tor  41  34  35  36
 331 prop tor  41  34  35  62
 332 prop tor  42  11  12  13
 333 prop tor  42  11  12  53
 334 prop tor  42  33  34  35
 335 prop tor  42  33  34  41
 336 prop tor  43  14  15  16
 337 prop tor  43  14  15  17
 338 prop tor  43  30  31  32
 339 prop tor  43  30  31  60
 340 prop tor  44   1   2   3
 341 prop tor  44   1   2   4
 342 prop tor  44   1   2  47
 343 ben  44   1  45
 344 ben  44   1  46
 345 prop tor  45   1   2   3
 346 prop tor  45   1   2   4
 347 prop tor  45   1   2  47
 348 ben  45   1  46
 349 prop tor  46   1   2   3
 350 prop tor  46   1   2   4
 351 prop tor  46   1   2  47
 352 prop tor  47   2   3  48
 353 prop tor  47   2   3  49
 354 prop tor  47   2   3  50
 355 prop tor  47   2   4   5
 356 prop tor  47   2   4  38
 357 ben  48   3  49
 358 ben  48   3  50
 359 ben  49   3  50
 360 prop tor  51   8   9  10
 361 prop tor  51   8   9  52
 362 prop tor  52   9  10  11
 363 prop tor  52   9  10  41
 364 prop tor  53  12  13  14
 365 prop tor  53  12  13  54
 366 prop tor  54  13  14  15
 367 prop tor  54  13  14  43
 368 prop tor  55  18  19  20
 369 prop tor  55  18  19  56
 370 prop tor  56  19  20  21
 371 prop tor  56  19  20  27
 372 prop tor  57  21  22  23
 373 prop tor  57  21  22  26
 374 prop tor  58  24  25  26
 375 prop tor  58  24  25  59
 376 prop tor  59  25  26  22
 377 prop tor  59  25  26  27
 378 prop tor  60  31  32  33
 379 prop tor  60  31  32  61
 380 prop tor  61  32  33  34
 381 prop tor  61  32  33  42
 382 prop tor  62  35  36  37
 383 prop tor  62  35  36  63
 384 prop tor  63  36  37  38
 385 prop tor  63  36  37  40
 nber bend=             122
 nber lin bend=           0
 nber prop tor=         192
 nber impr tor=           0
 nber tot redund int=         385
 Reading file: 
 ./TT-PDI_1_C0S3.log                                                            
                                          
  Entering Gaussian System, Link 0=g16                                          
  
 Gaussian format, type: g94, g98, g03= F F F
  #P Geom=AllCheck Guess=TCheck SCRF=Check GenChk RB3LYP TD(FC,Read)/6-3    
 energy type= TD      
 Original G94 input coords:
  6  1.980061 -0.365699  1.383543
  6  2.416944 -0.136264 -0.067779
  6  1.351166 -0.542387 -1.092010
  7  2.899288  1.257739 -0.290176
  6  4.256549  1.411234 -0.648858
  8  4.990749  0.437710 -0.767239
  6  4.735745  2.782235 -0.870003
  6  6.068809  2.990372 -1.227101
  6  6.551403  4.267285 -1.442703
  6  5.726924  5.407406 -1.312771
  6  6.220398  6.750012 -1.536158
  6  7.565313  7.004163 -1.900769
  6  8.026165  8.281404 -2.110949
  6  7.173469  9.388201 -1.970592
  6  7.712358 10.713950 -2.204106
  8  8.871769 10.943530 -2.518786
  7  6.792293 11.805400 -2.046154
  6  7.185666 13.124029 -2.239392
  6  8.382139 13.627038 -2.583851
  6  8.608064 15.053267 -2.744269
  6  9.716422 15.682597 -3.249111
  6  9.582755 17.119258 -3.244015
 16 10.564344 18.429539 -3.734561
  6  9.362084 19.611288 -3.260971
  6  8.248588 19.015958 -2.744465
  6  8.382655 17.585405 -2.737509
 16  7.400056 16.267214 -2.240670
  6  5.390431 11.647507 -1.673751
  8  4.696514 12.648909 -1.566570
  6  4.942380 10.294547 -1.461207
  6  3.601056 10.074718 -1.100133
  6  3.126967  8.804328 -0.887099
  6  3.961287  7.665323 -1.020443
  6  3.468127  6.324327 -0.798006
  6  2.127579  6.060957 -0.435204
  6  1.668187  4.774731 -0.225663
  6  2.522135  3.679805 -0.366539
  6  1.999576  2.325554 -0.136577
  8  0.831473  2.122161  0.176056
  6  3.870915  3.889096 -0.727319
  6  4.360031  5.218828 -0.948046
  6  5.330162  7.858605 -1.386453
  6  5.821388  9.194030 -1.608515
  1  1.773716 -1.429753  1.532633
  1  1.083519  0.203452  1.625544
  1  2.778209 -0.080088  2.073925
  1  3.305636 -0.736520 -0.250735
  1  0.428851  0.020065 -0.953067
  1  1.134233 -1.609013 -0.981239
  1  1.715773 -0.379365 -2.109713
  1  6.711688  2.125450 -1.330072
  1  7.590557  4.380416 -1.717617
  1  8.255534  6.181634 -2.019700
  1  9.056694  8.461267 -2.389149
  1  6.333570 13.775256 -2.068290
  1  9.228035 12.984675 -2.771600
  1 10.579120 15.142404 -3.609733
  1  9.570006 20.659591 -3.398197
  1  7.385416 19.560636 -2.390149
  1  2.952008 10.934624 -0.994744
  1  2.089699  8.681493 -0.611273
  1  1.430208  6.877877 -0.314691
  1  0.638617  4.587012  0.051572
 nber atoms=          63
  Total Energy, E(TD-HF/TD-DFT) =  -2553.05232442                               
  
          32          49 "  -2553.05232442"
After scan for Atom:   Atom  AN      X      Y      Z        X      Y      Z        X      Y      Z   
After scan for Atom:   Atom  AN      X      Y      Z        X      Y      Z        X      Y      Z   
After scan for Atom:   Atom  AN      X      Y      Z        X      Y      Z        X      Y      Z   
After scan for Atom:   Atom  AN      X      Y      Z        X      Y      Z        X      Y      Z   
After scan for Atom:   Atom  AN      X      Y      Z        X      Y      Z        X      Y      Z   
After scan for Atom:   Atom  AN      X      Y      Z        X      Y      Z        X      Y      Z   
After scan for Atom:   Atom  AN      X      Y      Z        X      Y      Z        X      Y      Z   
After scan for Atom:   Atom  AN      X      Y      Z        X      Y      Z        X      Y      Z   
After scan for Atom:   Atom  AN      X      Y      Z        X      Y      Z        X      Y      Z   
After scan for Atom:   Atom  AN      X      Y      Z        X      Y      Z        X      Y      Z   
After scan for Atom:   Atom  AN      X      Y      Z        X      Y      Z        X      Y      Z   
After scan for Atom:   Atom  AN      X      Y      Z        X      Y      Z        X      Y      Z   
After scan for Atom:   Atom  AN      X      Y      Z        X      Y      Z        X      Y      Z   
After scan for Atom:   Atom  AN      X      Y      Z        X      Y      Z        X      Y      Z   
After scan for Atom:   Atom  AN      X      Y      Z        X      Y      Z        X      Y      Z   
After scan for Atom:   Atom  AN      X      Y      Z        X      Y      Z        X      Y      Z   
After scan for Atom:   Atom  AN      X      Y      Z        X      Y      Z        X      Y      Z   
After scan for Atom:   Atom  AN      X      Y      Z        X      Y      Z        X      Y      Z   
After scan for Atom:   Atom  AN      X      Y      Z        X      Y      Z        X      Y      Z   
After scan for Atom:   Atom  AN      X      Y      Z        X      Y      Z        X      Y      Z   
After scan for Atom:   Atom  AN      X      Y      Z        X      Y      Z        X      Y      Z   
After scan for Atom:   Atom  AN      X      Y      Z        X      Y      Z        X      Y      Z   
After scan for Atom:   Atom  AN      X      Y      Z        X      Y      Z        X      Y      Z   
After scan for Atom:   Atom  AN      X      Y      Z        X      Y      Z        X      Y      Z   
After scan for Atom:   Atom  AN      X      Y      Z        X      Y      Z        X      Y      Z   
After scan for Atom:   Atom  AN      X      Y      Z        X      Y      Z        X      Y      Z   
After scan for Atom:   Atom  AN      X      Y      Z        X      Y      Z        X      Y      Z   
After scan for Atom:   Atom  AN      X      Y      Z        X      Y      Z        X      Y      Z   
After scan for Atom:   Atom  AN      X      Y      Z        X      Y      Z        X      Y      Z   
After scan for Atom:   Atom  AN      X      Y      Z        X      Y      Z        X      Y      Z   
After scan for Atom:   Atom  AN      X      Y      Z        X      Y      Z        X      Y      Z   
After scan for Atom:   Atom  AN      X      Y      Z        X      Y      Z        X      Y      Z   
After scan for Atom:   Atom  AN      X      Y      Z        X      Y      Z        X      Y      Z   
After scan for Atom:   Atom  AN      X      Y      Z        X      Y      Z        X      Y      Z   
After scan for Atom:   Atom  AN      X      Y      Z        X      Y      Z        X      Y      Z   
After scan for Atom:   Atom  AN      X      Y      Z        X      Y      Z        X      Y      Z   
After scan for Atom:   Atom  AN      X      Y      Z        X      Y      Z        X      Y      Z   
After scan for Atom:   Atom  AN      X      Y      Z        X      Y      Z        X      Y      Z   
After scan for Atom:   Atom  AN      X      Y      Z        X      Y      Z        X      Y      Z   
After scan for Atom:   Atom  AN      X      Y      Z        X      Y      Z        X      Y      Z   
After scan for Atom:   Atom  AN      X      Y      Z        X      Y      Z        X      Y      Z   
After scan for Atom:   Atom  AN      X      Y      Z        X      Y      Z        X      Y      Z   
After scan for Atom:   Atom  AN      X      Y      Z        X      Y      Z        X      Y      Z   
After scan for Atom:   Atom  AN      X      Y      Z        X      Y      Z        X      Y      Z   
After scan for Atom:   Atom  AN      X      Y      Z        X      Y      Z        X      Y      Z   
After scan for Atom:   Atom  AN      X      Y      Z        X      Y      Z        X      Y      Z   
After scan for Atom:   Atom  AN      X      Y      Z        X      Y      Z        X      Y      Z   
After scan for Atom:   Atom  AN      X      Y      Z        X      Y      Z        X      Y      Z   
After scan for Atom:   Atom  AN      X      Y      Z        X      Y      Z        X      Y      Z   
After scan for Atom:   Atom  AN      X      Y      Z        X      Y      Z        X      Y      Z   
After scan for Atom:   Atom  AN      X      Y      Z        X      Y      Z        X      Y      Z   
After scan for Atom:   Atom  AN      X      Y      Z        X      Y      Z        X      Y      Z   
After scan for Atom:   Atom  AN      X      Y      Z        X      Y      Z        X      Y      Z   
After scan for Atom:   Atom  AN      X      Y      Z        X      Y      Z        X      Y      Z   
After scan for Atom:   Atom  AN      X      Y      Z        X      Y      Z        X      Y      Z   
After scan for Atom:   Atom  AN      X      Y      Z        X      Y      Z        X      Y      Z   
After scan for Atom:   Atom  AN      X      Y      Z        X      Y      Z        X      Y      Z   
After scan for Atom:   Atom  AN      X      Y      Z        X      Y      Z        X      Y      Z   
After scan for Atom:   Atom  AN      X      Y      Z        X      Y      Z        X      Y      Z   
After scan for Atom:   Atom  AN      X      Y      Z        X      Y      Z        X      Y      Z   
After scan for Atom:   Atom  AN      X      Y      Z        X      Y      Z        X      Y      Z   
 g94    frequencies=
     0.0    0.0    0.0    0.0    0.0    0.0    7.4    9.6   23.8   28.5
    29.0   50.1   56.4   67.7   79.9   90.7   93.4  102.6  122.0  133.9
   156.6  164.3  169.2  186.0  195.6  199.7  210.8  214.2  228.8  234.4
   234.8  261.9  271.3  289.9  296.7  298.6  336.6  353.7  363.8  377.6
   395.1  404.3  418.3  433.9  436.3  444.3  449.9  453.7  454.2  463.4
   471.1  477.6  486.4  501.2  502.7  511.1  517.2  534.3  545.9  555.1
   579.6  583.1  588.6  591.6  598.6  624.2  625.2  658.8  665.9  667.8
   683.0  692.7  713.8  723.4  732.0  747.8  756.6  759.9  767.9  770.4
   785.0  803.5  812.2  812.6  815.7  818.8  824.3  826.8  832.0  838.9
   844.2  848.9  888.8  896.6  902.5  926.1  940.1  943.4  955.4  960.9
   971.8  975.0  980.4  984.3  987.5 1011.2 1037.2 1060.4 1071.1 1092.2
  1106.0 1127.2 1145.5 1150.4 1155.1 1163.1 1174.5 1182.6 1188.8 1199.6
  1203.4 1226.3 1227.4 1235.7 1244.2 1250.1 1263.6 1281.9 1297.1 1306.4
  1315.7 1316.9 1333.4 1350.3 1359.2 1364.0 1371.5 1384.2 1391.6 1394.3
  1395.4 1397.5 1410.9 1426.1 1440.1 1453.4 1464.6 1471.6 1477.6 1483.8
  1484.2 1495.7 1506.8 1516.5 1523.7 1535.5 1560.3 1574.3 1581.9 1594.2
  1614.1 1619.6 1629.3 1633.1 1681.2 1684.3 1715.4 1717.7 1764.8 3028.7
  3033.4 3085.9 3089.0 3108.7 3131.5 3141.2 3151.1 3191.1 3191.4 3197.7
  3198.1 3207.3 3207.6 3221.3 3221.5 3233.7 3235.8 3238.8 3268.7
 g94    symmetries=
                                                 A      A      A      A
       A      A      A      A      A      A      A      A      A      A
       A      A      A      A      A      A      A      A      A      A
       A      A      A      A      A      A      A      A      A      A
       A      A      A      A      A      A      A      A      A      A
       A      A      A      A      A      A      A      A      A      A
       A      A      A      A      A      A      A      A      A      A
       A      A      A      A      A      A      A      A      A      A
       A      A      A      A      A      A      A      A      A      A
       A      A      A      A      A      A      A      A      A      A
       A      A      A      A      A      A      A      A      A      A
       A      A      A      A      A      A      A      A      A      A
       A      A      A      A      A      A      A      A      A      A
       A      A      A      A      A      A      A      A      A      A
       A      A      A      A      A      A      A      A      A      A
       A      A      A      A      A      A      A      A      A      A
       A      A      A      A      A      A      A      A      A      A
       A      A      A      A      A      A      A      A      A      A
       A      A      A      A      A      A      A      A      A
 atomic masses:
 12.0000 12.0000 12.0000 14.0031 12.0000 15.9949 12.0000 12.0000 12.0000 12.0000
 12.0000 12.0000 12.0000 12.0000 12.0000 15.9949 14.0031 12.0000 12.0000 12.0000
 12.0000 12.0000 31.9721 12.0000 12.0000 12.0000 31.9721 12.0000 15.9949 12.0000
 12.0000 12.0000 12.0000 12.0000 12.0000 12.0000 12.0000 12.0000 15.9949 12.0000
 12.0000 12.0000 12.0000  1.0078  1.0078  1.0078  1.0078  1.0078  1.0078  1.0078
  1.0078  1.0078  1.0078  1.0078  1.0078  1.0078  1.0078  1.0078  1.0078  1.0078
  1.0078  1.0078  1.0078
 looking for force constants in 
 ./TT-PDI_1_C0S3.fchk                                                           
  
 Cartesian Force Constants                  R   N=       17955                  
  
 n3=         189       17955
 g94-fc frequencies=
    -2.1   -0.9   -0.0   -0.0    0.0    1.1    7.4    9.6   23.8   28.5
    29.0   50.1   56.4   67.7   79.9   90.7   93.4  102.6  122.0  133.9
   156.6  164.3  169.2  186.0  195.6  199.7  210.8  214.2  228.8  234.4
   234.8  261.9  271.3  290.0  296.7  298.7  336.7  353.7  363.8  377.6
   395.1  404.3  418.3  433.9  436.3  444.3  449.9  453.7  454.2  463.4
   471.1  477.6  486.4  501.2  502.7  511.1  517.2  534.3  545.9  555.1
   579.6  583.1  588.7  591.6  598.7  624.3  625.2  658.8  665.9  667.8
   683.0  692.7  713.9  723.4  732.0  747.9  756.6  760.0  767.9  770.4
   785.0  803.5  812.3  812.6  815.7  818.8  824.3  826.8  832.1  838.9
   844.2  849.0  888.8  896.6  902.6  926.1  940.1  943.5  955.4  961.0
   971.8  975.0  980.4  984.4  987.6 1011.2 1037.2 1060.4 1071.1 1092.2
  1106.0 1127.3 1145.5 1150.5 1155.1 1163.1 1174.5 1182.7 1188.8 1199.6
  1203.4 1226.4 1227.4 1235.8 1244.2 1250.1 1263.7 1281.9 1297.1 1306.4
  1315.8 1317.0 1333.5 1350.3 1359.2 1364.1 1371.6 1384.2 1391.6 1394.3
  1395.4 1397.6 1410.9 1426.1 1440.2 1453.5 1464.6 1471.6 1477.6 1483.8
  1484.2 1495.7 1506.8 1516.5 1523.7 1535.5 1560.3 1574.4 1581.9 1594.2
  1614.1 1619.6 1629.3 1633.1 1681.2 1684.3 1715.5 1717.7 1764.8 3028.7
  3033.4 3085.9 3089.1 3108.7 3131.6 3141.2 3151.2 3191.1 3191.4 3197.7
  3198.1 3207.4 3207.7 3221.3 3221.5 3233.7 3235.9 3238.8 3268.8
 at 99999: n3=         189
 symm operator            1 :  F  nop=           0
 symm operator            2 :  F  nop=           0
 symm operator            3 :  F  nop=           0
 symm operator            4 :  F  nop=           0
 symm operator            5 :  F  nop=           0
 symm operator            6 :  F  nop=           0
 symm operator            7 :  F  nop=           0
 The point group of the molecule is  C1
 Symmetry rotation matrix:
   1.00000   0.00000   0.00000
   0.00000   1.00000   0.00000
   0.00000   0.00000   1.00000

 Projecting out zero-frequency components
 generating redundant internal coords
         300        3600          63
 search for int coords
   1 str   2   1   1.533
   2 str   3   2   1.533
   3 str   4   2   1.492
   4 str   5   4   1.412
   5 str   6   5   1.225
   6 str   7   5   1.469
   7 str   8   7   1.396
   8 str   9   8   1.382
   9 str  10   9   1.413
  10 str  11  10   1.448
  11 str  12  11   1.416
  12 str  13  12   1.374
  13 str  14  13   1.404
  14 str  15  14   1.450
  15 str  16  15   1.223
  16 str  17  15   1.436
  17 str  18  17   1.390
  18 str  19  18   1.343
  19 str  20  19   1.453
  20 str  21  20   1.371
  21 str  22  21   1.443
  22 str  23  22   1.709
  23 str  24  23   1.751
  24 str  25  24   1.364
  25 str  26  22   1.384
  26 str  26  23   2.543
  27 str  26  25   1.437
  28 str  27  20   1.785
  29 str  27  22   2.549
  30 str  27  26   1.718
  31 str  28  17   1.459
  32 str  29  28   1.223
  33 str  30  28   1.441
  34 str  31  30   1.406
  35 str  32  31   1.373
  36 str  33  32   1.418
  37 str  34  33   1.446
  38 str  35  34   1.414
  39 str  36  35   1.382
  40 str  37  36   1.396
  41 str  38   4   1.405
  42 str  38  37   1.470
  43 str  39  38   1.226
  44 str  40   7   1.412
  45 str  40  37   1.412
  46 str  41  10   1.427
  47 str  41  34   1.428
  48 str  41  40   1.434
  49 str  42  11   1.430
  50 str  42  33   1.430
  51 str  43  14   1.413
  52 str  43  30   1.416
  53 str  43  42   1.440
  54 str  44   1   1.094
  55 str  45   1   1.089
  56 str  46   1   1.093
  57 str  47   2   1.088
  58 str  48   3   1.089
  59 str  49   3   1.094
  60 str  50   3   1.093
  61 str  51   8   1.083
  62 str  52   9   1.081
  63 str  53  12   1.080
  64 str  54  13   1.082
  65 str  55  18   1.086
  66 str  56  19   1.079
  67 str  57  21   1.080
  68 str  58  24   1.077
  69 str  59  25   1.080
  70 str  60  31   1.083
  71 str  61  32   1.080
  72 str  62  35   1.081
  73 str  63  36   1.083
 nber stretches=          73
  74 ben   1   2   3
  75 prop tor   1   2   3  48
  76 prop tor   1   2   3  49
  77 prop tor   1   2   3  50
  78 ben   1   2   4
  79 prop tor   1   2   4   5
  80 prop tor   1   2   4  38
  81 ben   1   2  47
  82 ben   2   1  44
  83 ben   2   1  45
  84 ben   2   1  46
  85 ben   2   3  48
  86 ben   2   3  49
  87 ben   2   3  50
  88 ben   2   4   5
  89 prop tor   2   4   5   6
  90 prop tor   2   4   5   7
  91 ben   2   4  38
  92 prop tor   2   4  38  37
  93 prop tor   2   4  38  39
  94 ben   3   2   4
  95 prop tor   3   2   4   5
  96 prop tor   3   2   4  38
  97 ben   3   2  47
  98 prop tor   4   2   3  48
  99 prop tor   4   2   3  49
 100 prop tor   4   2   3  50
 101 ben   4   2  47
 102 ben   4   5   6
 103 ben   4   5   7
 104 prop tor   4   5   7   8
 105 prop tor   4   5   7  40
 106 ben   4  38  37
 107 ben   4  38  39
 108 ben   5   4  38
 109 prop tor   5   4  38  37
 110 prop tor   5   4  38  39
 111 ben   5   7   8
 112 prop tor   5   7   8   9
 113 prop tor   5   7   8  51
 114 ben   5   7  40
 115 prop tor   5   7  40  37
 116 prop tor   5   7  40  41
 117 ben   6   5   7
 118 prop tor   6   5   7   8
 119 prop tor   6   5   7  40
 120 ben   7   8   9
 121 prop tor   7   8   9  10
 122 prop tor   7   8   9  52
 123 ben   7   8  51
 124 ben   7  40  37
 125 ben   7  40  41
 126 prop tor   7  40  41  10
 127 prop tor   7  40  41  34
 128 ben   8   7  40
 129 prop tor   8   7  40  37
 130 prop tor   8   7  40  41
 131 ben   8   9  10
 132 prop tor   8   9  10  11
 133 prop tor   8   9  10  41
 134 ben   8   9  52
 135 ben   9   8  51
 136 ben   9  10  11
 137 prop tor   9  10  11  12
 138 prop tor   9  10  11  42
 139 ben   9  10  41
 140 prop tor   9  10  41  34
 141 prop tor   9  10  41  40
 142 ben  10   9  52
 143 ben  10  11  12
 144 prop tor  10  11  12  13
 145 prop tor  10  11  12  53
 146 ben  10  11  42
 147 prop tor  10  11  42  33
 148 prop tor  10  11  42  43
 149 ben  10  41  34
 150 ben  10  41  40
 151 ben  11  10  41
 152 prop tor  11  10  41  34
 153 prop tor  11  10  41  40
 154 ben  11  12  13
 155 prop tor  11  12  13  14
 156 prop tor  11  12  13  54
 157 ben  11  12  53
 158 ben  11  42  33
 159 ben  11  42  43
 160 prop tor  11  42  43  14
 161 prop tor  11  42  43  30
 162 ben  12  11  42
 163 prop tor  12  11  42  33
 164 prop tor  12  11  42  43
 165 ben  12  13  14
 166 prop tor  12  13  14  15
 167 prop tor  12  13  14  43
 168 ben  12  13  54
 169 ben  13  12  53
 170 ben  13  14  15
 171 prop tor  13  14  15  16
 172 prop tor  13  14  15  17
 173 ben  13  14  43
 174 prop tor  13  14  43  30
 175 prop tor  13  14  43  42
 176 ben  14  13  54
 177 ben  14  15  16
 178 ben  14  15  17
 179 prop tor  14  15  17  18
 180 prop tor  14  15  17  28
 181 ben  14  43  30
 182 ben  14  43  42
 183 ben  15  14  43
 184 prop tor  15  14  43  30
 185 prop tor  15  14  43  42
 186 ben  15  17  18
 187 prop tor  15  17  18  19
 188 prop tor  15  17  18  55
 189 ben  15  17  28
 190 prop tor  15  17  28  29
 191 prop tor  15  17  28  30
 192 ben  16  15  17
 193 prop tor  16  15  17  18
 194 prop tor  16  15  17  28
 195 ben  17  18  19
 196 prop tor  17  18  19  20
 197 prop tor  17  18  19  56
 198 ben  17  18  55
 199 ben  17  28  29
 200 ben  17  28  30
 201 prop tor  17  28  30  31
 202 prop tor  17  28  30  43
 203 ben  18  17  28
 204 prop tor  18  17  28  29
 205 prop tor  18  17  28  30
 206 ben  18  19  20
 207 prop tor  18  19  20  21
 208 prop tor  18  19  20  27
 209 ben  18  19  56
 210 ben  19  18  55
 211 ben  19  20  21
 212 prop tor  19  20  21  22
 213 prop tor  19  20  21  57
 214 ben  19  20  27
 215 prop tor  19  20  27  22
 216 prop tor  19  20  27  26
 217 ben  20  19  56
 218 ben  20  21  22
 219 prop tor  20  21  22  23
 220 prop tor  20  21  22  26
 221 prop tor  20  21  22  27
 222 ben  20  21  57
 223 ben  20  27  22
 224 ben  20  27  26
 225 ben  21  20  27
 226 prop tor  21  20  27  22
 227 prop tor  21  20  27  26
 228 ben  21  22  23
 229 prop tor  21  22  23  24
 230 prop tor  21  22  23  26
 231 ben  21  22  26
 232 prop tor  21  22  26  23
 233 prop tor  21  22  26  25
 234 prop tor  21  22  26  27
 235 ben  21  22  27
 236 prop tor  21  22  27  20
 237 prop tor  21  22  27  26
 238 ben  22  21  57
 239 ben  22  23  24
 240 prop tor  22  23  24  25
 241 prop tor  22  23  24  58
 242 ben  22  23  26
 243 prop tor  22  23  26  25
 244 prop tor  22  23  26  27
 245 ben  22  26  23
 246 ben  22  26  25
 247 ben  22  26  27
 248 prop tor  22  26  27  20
 249 ben  22  27  26
 250 ben  23  22  26
 251 prop tor  23  22  26  25
 252 prop tor  23  22  26  27
 253 ben  23  22  27
 254 prop tor  23  22  27  20
 255 prop tor  23  22  27  26
 256 ben  23  24  25
 257 prop tor  23  24  25  26
 258 prop tor  23  24  25  59
 259 ben  23  24  58
 260 ben  23  26  25
 261 ben  23  26  27
 262 prop tor  23  26  27  20
 263 prop tor  23  26  27  22
 264 ben  24  23  26
 265 prop tor  24  23  26  22
 266 prop tor  24  23  26  25
 267 prop tor  24  23  26  27
 268 ben  24  25  26
 269 prop tor  24  25  26  22
 270 prop tor  24  25  26  23
 271 prop tor  24  25  26  27
[...]
 325 prop tor  33  34  41  40
 326 ben  33  42  43
 327 prop tor  33  42  43  14
 328 prop tor  33  42  43  30
 329 ben  34  33  42
 330 prop tor  34  33  42  11
 331 prop tor  34  33  42  43
 332 ben  34  35  36
 333 prop tor  34  35  36  37
 334 prop tor  34  35  36  63
 335 ben  34  35  62
 336 ben  34  41  40
 337 ben  35  34  41
 338 prop tor  35  34  41  10
 339 prop tor  35  34  41  40
 340 ben  35  36  37
 341 prop tor  35  36  37  38
 342 prop tor  35  36  37  40
 343 ben  35  36  63
 344 ben  36  35  62
 345 ben  36  37  38
 346 prop tor  36  37  38   4
 347 prop tor  36  37  38  39
 348 ben  36  37  40
 349 prop tor  36  37  40   7
 350 prop tor  36  37  40  41
 351 ben  37  36  63
 352 ben  37  38  39
 353 ben  37  40  41
 354 prop tor  37  40  41  10
 355 prop tor  37  40  41  34
 356 prop tor  38   4   5   6
 357 prop tor  38   4   5   7
 358 ben  38  37  40
 359 prop tor  38  37  40   7
 360 prop tor  38  37  40  41
 361 prop tor  40   7   8   9
 362 prop tor  40   7   8  51
 363 prop tor  40  37  38   4
 364 prop tor  40  37  38  39
 365 prop tor  41  10  11  12
 366 prop tor  41  10  11  42
 367 prop tor  41  34  35  36
 368 prop tor  41  34  35  62
 369 prop tor  42  11  12  13
 370 prop tor  42  11  12  53
 371 prop tor  42  33  34  35
 372 prop tor  42  33  34  41
 373 prop tor  43  14  15  16
 374 prop tor  43  14  15  17
 375 prop tor  43  30  31  32
 376 prop tor  43  30  31  60
 377 prop tor  44   1   2   3
 378 prop tor  44   1   2   4
 379 prop tor  44   1   2  47
 380 ben  44   1  45
 381 ben  44   1  46
 382 prop tor  45   1   2   3
 383 prop tor  45   1   2   4
 384 prop tor  45   1   2  47
 385 ben  45   1  46
 386 prop tor  46   1   2   3
 387 prop tor  46   1   2   4
 388 prop tor  46   1   2  47
 389 prop tor  47   2   3  48
 390 prop tor  47   2   3  49
 391 prop tor  47   2   3  50
 392 prop tor  47   2   4   5
 393 prop tor  47   2   4  38
 394 ben  48   3  49
 395 ben  48   3  50
 396 ben  49   3  50
 397 prop tor  51   8   9  10
 398 prop tor  51   8   9  52
 399 prop tor  52   9  10  11
 400 prop tor  52   9  10  41
 401 prop tor  53  12  13  14
 402 prop tor  53  12  13  54
 403 prop tor  54  13  14  15
 404 prop tor  54  13  14  43
 405 prop tor  55  18  19  20
 406 prop tor  55  18  19  56
 407 prop tor  56  19  20  21
 408 prop tor  56  19  20  27
 409 prop tor  57  21  22  23
 410 prop tor  57  21  22  26
 411 prop tor  57  21  22  27
 412 prop tor  58  24  25  26
 413 prop tor  58  24  25  59
 414 prop tor  59  25  26  22
 415 prop tor  59  25  26  23
 416 prop tor  59  25  26  27
 417 prop tor  60  31  32  33
 418 prop tor  60  31  32  61
 419 prop tor  61  32  33  34
 420 prop tor  61  32  33  42
 421 prop tor  62  35  36  37
 422 prop tor  62  35  36  63
 423 prop tor  63  36  37  38
 424 prop tor  63  36  37  40
 nber bend=             132
 nber lin bend=           0
 nber prop tor=         219
 nber impr tor=           0
 nber tot redund int=         424
 Eigenvalues of G in red int coords
    Gval -0.00000000 -0.00000000 -0.00000000 -0.00000000 -0.00000000 -0.00000000 -0.00000000 -0.00000000
    Gval -0.00000000 -0.00000000 -0.00000000 -0.00000000 -0.00000000 -0.00000000 -0.00000000 -0.00000000
    Gval -0.00000000 -0.00000000 -0.00000000 -0.00000000 -0.00000000 -0.00000000 -0.00000000 -0.00000000
    Gval -0.00000000 -0.00000000 -0.00000000 -0.00000000 -0.00000000 -0.00000000 -0.00000000 -0.00000000
    Gval -0.00000000 -0.00000000 -0.00000000 -0.00000000 -0.00000000 -0.00000000 -0.00000000 -0.00000000
    Gval -0.00000000 -0.00000000 -0.00000000 -0.00000000 -0.00000000 -0.00000000 -0.00000000 -0.00000000
    Gval -0.00000000 -0.00000000 -0.00000000 -0.00000000 -0.00000000 -0.00000000 -0.00000000 -0.00000000
    Gval -0.00000000 -0.00000000 -0.00000000 -0.00000000 -0.00000000 -0.00000000 -0.00000000 -0.00000000
    Gval -0.00000000 -0.00000000 -0.00000000 -0.00000000 -0.00000000 -0.00000000 -0.00000000 -0.00000000
    Gval -0.00000000 -0.00000000 -0.00000000 -0.00000000 -0.00000000 -0.00000000 -0.00000000 -0.00000000
    Gval -0.00000000 -0.00000000 -0.00000000 -0.00000000 -0.00000000 -0.00000000 -0.00000000 -0.00000000
    Gval -0.00000000 -0.00000000 -0.00000000 -0.00000000 -0.00000000 -0.00000000 -0.00000000 -0.00000000
    Gval -0.00000000 -0.00000000 -0.00000000 -0.00000000 -0.00000000 -0.00000000 -0.00000000 -0.00000000
    Gval -0.00000000 -0.00000000 -0.00000000 -0.00000000 -0.00000000 -0.00000000 -0.00000000 -0.00000000
    Gval -0.00000000 -0.00000000  0.00000000  0.00000000  0.00000000  0.00000000  0.00000000  0.00000000
    Gval  0.00000000  0.00000000  0.00000000  0.00000000  0.00000000  0.00000000  0.00000000  0.00000000
    Gval  0.00000000  0.00000000  0.00000000  0.00000000  0.00000000  0.00000000  0.00000000  0.00000000
    Gval  0.00000000  0.00000000  0.00000000  0.00000000  0.00000000  0.00000000  0.00000000  0.00000000
    Gval  0.00000000  0.00000000  0.00000000  0.00000000  0.00000000  0.00000000  0.00000000  0.00000000
    Gval  0.00000000  0.00000000  0.00000000  0.00000000  0.00000000  0.00000000  0.00000000  0.00000000
    Gval  0.00000000  0.00000000  0.00000000  0.00000000  0.00000000  0.00000000  0.00000000  0.00000000
    Gval  0.00000000  0.00000000  0.00000000  0.00000000  0.00000000  0.00000000  0.00000000  0.00000000
    Gval  0.00000000  0.00000000  0.00000000  0.00000000  0.00000000  0.00000000  0.00000000  0.00000000
    Gval  0.00000000  0.00000000  0.00000000  0.00000000  0.00000000  0.00000000  0.00000000  0.00000000
    Gval  0.00000000  0.00000000  0.00000000  0.00000000  0.00000000  0.00000000  0.00000000  0.00000000
    Gval  0.00000000  0.00000000  0.00000000  0.00000000  0.00000000  0.00000000  0.00000000  0.00000000
    Gval  0.00000000  0.00000000  0.00000000  0.00000000  0.00000000  0.00000000  0.00000000  0.00000000
    Gval  0.00000000  0.00000000  0.00000000  0.00000000  0.00000000  0.00000000  0.00000000  0.00000000
    Gval  0.00000000  0.00000000  0.00000000  0.00000000  0.00000000  0.00000000  0.00000000  0.00000000
    Gval  0.00000000  0.00000000  0.00000000  0.00000000  0.00000000  0.00000000  0.00000000  0.00000000
    Gval  0.00000000  0.00000016  0.00000051  0.00000098  0.00000129  0.00000363  0.00000374  0.00000409
    Gval  0.00000453  0.00000655  0.00000901  0.00001081  0.00001223  0.00001288  0.00001446  0.00001603
    Gval  0.00001723  0.00001746  0.00001832  0.00002091  0.00002238  0.00002300  0.00002392  0.00002474
    Gval  0.00002539  0.00002996  0.00003040  0.00003552  0.00003634  0.00003649  0.00003995  0.00004796
    Gval  0.00004891  0.00004955  0.00005149  0.00005285  0.00005511  0.00005701  0.00006129  0.00006386
    Gval  0.00006775  0.00006857  0.00007088  0.00007266  0.00007618  0.00008147  0.00008231  0.00008416
    Gval  0.00008587  0.00008685  0.00009276  0.00009476  0.00009495  0.00010389  0.00011285  0.00011522
    Gval  0.00011968  0.00012247  0.00012719  0.00013622  0.00013724  0.00014084  0.00014237  0.00015746
    Gval  0.00015913  0.00015986  0.00017232  0.00017454  0.00018182  0.00018529  0.00019102  0.00020264
    Gval  0.00022175  0.00022563  0.00022724  0.00023122  0.00025602  0.00026974  0.00027263  0.00028710
    Gval  0.00028853  0.00029781  0.00034013  0.00034259  0.00035988  0.00037157  0.00038121  0.00038430
    Gval  0.00038817  0.00039172  0.00039935  0.00041464  0.00041647  0.00042143  0.00043041  0.00043580
    Gval  0.00044065  0.00044097  0.00044229  0.00046325  0.00046697  0.00046881  0.00049319  0.00049375
    Gval  0.00052004  0.00052211  0.00053366  0.00053731  0.00055258  0.00055360  0.00055592  0.00055629
    Gval  0.00058603  0.00059642  0.00059834  0.00059854  0.00059925  0.00059959  0.00059987  0.00060222
    Gval  0.00062457  0.00063401  0.00064140  0.00064491  0.00064568  0.00064750  0.00065335  0.00065780
    Gval  0.00067210  0.00069688  0.00069725  0.00079417  0.00082637  0.00093202  0.00100144  0.00106465
    Gval  0.00108807  0.00109351  0.00109445  0.00109513  0.00109566  0.00114588  0.00114651  0.00114881
    Gval  0.00116438  0.00116489  0.00116597  0.00116649  0.00116824  0.00116878  0.00117634  0.00119181
    Gval  0.00121656  0.00127650  0.00129180  0.00139001  0.00149567  0.00156137  0.00170828  0.00172355
    Gval  0.00177455  0.00191476  0.00227698  0.00234118  0.00252115  0.00252648  0.00255843  0.00266051
    Gval  0.00277996  0.00287297  0.00292501  0.00302201  0.00304263  0.00308314  0.00309124  0.00324152
    Gval  0.00329974  0.00366423  0.00366601  0.00371205  0.00371365  0.00393179  0.00452490  0.00493511
  1.554323498838009E-007  1.554323498838009E-007
  5.060049099004043E-007  1.554323498838009E-007
  9.790445303630307E-007  1.554323498838009E-007
  1.294197585789878E-006  1.554323498838009E-007
  3.625552106723007E-006  1.554323498838009E-007
  3.740855442704584E-006  1.554323498838009E-007
  4.086493714555708E-006  1.554323498838009E-007
  4.533931712521137E-006  1.554323498838009E-007
  6.548020890945407E-006  1.554323498838009E-007
  9.007434133534281E-006  1.554323498838009E-007
  1.080539179459828E-005  1.554323498838009E-007
  1.223161964219721E-005  1.554323498838009E-007
  1.287734165953186E-005  1.554323498838009E-007
  1.445655377052637E-005  1.554323498838009E-007
  1.602675427830679E-005  1.554323498838009E-007
  1.722945439433269E-005  1.554323498838009E-007
  1.746497425839112E-005  1.554323498838009E-007
  1.831798074045515E-005  1.554323498838009E-007
  2.091311267830840E-005  1.554323498838009E-007
  2.238280188166036E-005  1.554323498838009E-007
  2.299926749210535E-005  1.554323498838009E-007
  2.392398757911561E-005  1.554323498838009E-007
  2.473865266067335E-005  1.554323498838009E-007
  2.538814985991225E-005  1.554323498838009E-007
  2.995879756722117E-005  1.554323498838009E-007
  3.039991795042613E-005  1.554323498838009E-007
  3.551549306708559E-005  1.554323498838009E-007
  3.633764273357180E-005  1.554323498838009E-007
  3.649342478450960E-005  1.554323498838009E-007
  3.995170115404408E-005  1.554323498838009E-007
  4.796349459149835E-005  1.554323498838009E-007
  4.891221499685694E-005  1.554323498838009E-007
  4.954727356768290E-005  1.554323498838009E-007
  5.149301044099626E-005  1.554323498838009E-007
  5.285133844832467E-005  1.554323498838009E-007
  5.511386898636349E-005  1.554323498838009E-007
  5.700700721322139E-005  1.554323498838009E-007
  6.129124061935373E-005  1.554323498838009E-007
  6.385690556716407E-005  1.554323498838009E-007
  6.775381106820220E-005  1.554323498838009E-007
  6.857273942892885E-005  1.554323498838009E-007
  7.088380743649323E-005  1.554323498838009E-007
  7.265821163626005E-005  1.554323498838009E-007
  7.617875722854240E-005  1.554323498838009E-007
  8.147057629897705E-005  1.554323498838009E-007
  8.231054327412751E-005  1.554323498838009E-007
  8.416413704392547E-005  1.554323498838009E-007
  8.586712139667355E-005  1.554323498838009E-007
  8.685317803855543E-005  1.554323498838009E-007
  9.276145230317190E-005  1.554323498838009E-007
  9.476438353816744E-005  1.554323498838009E-007
  9.495124617374498E-005  1.554323498838009E-007
  1.038918084454747E-004  1.554323498838009E-007
  1.128465708370645E-004  1.554323498838009E-007
  1.152204280036206E-004  1.554323498838009E-007
  1.196786998043697E-004  1.554323498838009E-007
  1.224737386153804E-004  1.554323498838009E-007
  1.271874632335528E-004  1.554323498838009E-007
  1.362220762019898E-004  1.554323498838009E-007
  1.372401061771710E-004  1.554323498838009E-007
  1.408442037059676E-004  1.554323498838009E-007
  1.423715598686306E-004  1.554323498838009E-007
  1.574604683923498E-004  1.554323498838009E-007
  1.591341216854138E-004  1.554323498838009E-007
  1.598634261629851E-004  1.554323498838009E-007
  1.723248939318304E-004  1.554323498838009E-007
  1.745433276768239E-004  1.554323498838009E-007
  1.818218149451247E-004  1.554323498838009E-007
  1.852909189763675E-004  1.554323498838009E-007
  1.910192416757266E-004  1.554323498838009E-007
  2.026371155908288E-004  1.554323498838009E-007
  2.217480140326540E-004  1.554323498838009E-007
  2.256348820701632E-004  1.554323498838009E-007
  2.272383203756591E-004  1.554323498838009E-007
  2.312241813124160E-004  1.554323498838009E-007
  2.560208422588101E-004  1.554323498838009E-007
  2.697447058686653E-004  1.554323498838009E-007
  2.726283612889316E-004  1.554323498838009E-007
  2.870984722686067E-004  1.554323498838009E-007
  2.885267426305271E-004  1.554323498838009E-007
  2.978131938215813E-004  1.554323498838009E-007
  3.401273912123526E-004  1.554323498838009E-007
  3.425933862167861E-004  1.554323498838009E-007
  3.598808441249272E-004  1.554323498838009E-007
  3.715693471864046E-004  1.554323498838009E-007
  3.812124916758882E-004  1.554323498838009E-007
  3.842957811685083E-004  1.554323498838009E-007
  3.881665778518517E-004  1.554323498838009E-007
  3.917181060136730E-004  1.554323498838009E-007
  3.993480573523739E-004  1.554323498838009E-007
  4.146373733461942E-004  1.554323498838009E-007
  4.164667600594004E-004  1.554323498838009E-007
  4.214294823489186E-004  1.554323498838009E-007
  4.304059160339709E-004  1.554323498838009E-007
  4.358039659713721E-004  1.554323498838009E-007
  4.406469225295726E-004  1.554323498838009E-007
  4.409656523923205E-004  1.554323498838009E-007
  4.422910368663502E-004  1.554323498838009E-007
  4.632510184671474E-004  1.554323498838009E-007
  4.669741434822725E-004  1.554323498838009E-007
  4.688075064101993E-004  1.554323498838009E-007
  4.931928182922407E-004  1.554323498838009E-007
  4.937478182124059E-004  1.554323498838009E-007
  5.200409941898356E-004  1.554323498838009E-007
  5.221129266759372E-004  1.554323498838009E-007
  5.336553312903915E-004  1.554323498838009E-007
  5.373099621996514E-004  1.554323498838009E-007
  5.525846245544545E-004  1.554323498838009E-007
  5.535994105632302E-004  1.554323498838009E-007
  5.559223047314837E-004  1.554323498838009E-007
  5.562947895975189E-004  1.554323498838009E-007
  5.860253853675461E-004  1.554323498838009E-007
  5.964158638507341E-004  1.554323498838009E-007
  5.983380215231749E-004  1.554323498838009E-007
  5.985351823788178E-004  1.554323498838009E-007
  5.992547980086467E-004  1.554323498838009E-007
  5.995887012737194E-004  1.554323498838009E-007
  5.998650984762496E-004  1.554323498838009E-007
  6.022161680623141E-004  1.554323498838009E-007
  6.245666408763103E-004  1.554323498838009E-007
  6.340097476856434E-004  1.554323498838009E-007
  6.413950178041517E-004  1.554323498838009E-007
  6.449109748811140E-004  1.554323498838009E-007
  6.456773945503754E-004  1.554323498838009E-007
  6.474995673713466E-004  1.554323498838009E-007
  6.533532766743136E-004  1.554323498838009E-007
  6.578008885199137E-004  1.554323498838009E-007
  6.721012068431969E-004  1.554323498838009E-007
  6.968792905285469E-004  1.554323498838009E-007
  6.972498658376461E-004  1.554323498838009E-007
  7.941659812983317E-004  1.554323498838009E-007
  8.263656848671660E-004  1.554323498838009E-007
  9.320243405475001E-004  1.554323498838009E-007
  1.001441859910694E-003  1.554323498838009E-007
  1.064646522379038E-003  1.554323498838009E-007
  1.088074621309984E-003  1.554323498838009E-007
  1.093508141849343E-003  1.554323498838009E-007
  1.094447186208079E-003  1.554323498838009E-007
  1.095133366058235E-003  1.554323498838009E-007
  1.095659765411923E-003  1.554323498838009E-007
  1.145879190986223E-003  1.554323498838009E-007
  1.146514492454042E-003  1.554323498838009E-007
  1.148806877103612E-003  1.554323498838009E-007
  1.164384998923258E-003  1.554323498838009E-007
  1.164893215671348E-003  1.554323498838009E-007
  1.165972379432299E-003  1.554323498838009E-007
  1.166485588943950E-003  1.554323498838009E-007
  1.168235666501891E-003  1.554323498838009E-007
  1.168783998047763E-003  1.554323498838009E-007
  1.176342804944837E-003  1.554323498838009E-007
  1.191814792427581E-003  1.554323498838009E-007
  1.216559278143803E-003  1.554323498838009E-007
  1.276497650620315E-003  1.554323498838009E-007
  1.291795471209678E-003  1.554323498838009E-007
  1.390010336171709E-003  1.554323498838009E-007
  1.495669921791544E-003  1.554323498838009E-007
  1.561370138651375E-003  1.554323498838009E-007
  1.708279947866599E-003  1.554323498838009E-007
  1.723548194670786E-003  1.554323498838009E-007
  1.774546563181159E-003  1.554323498838009E-007
  1.914760908426764E-003  1.554323498838009E-007
  2.276977053055400E-003  1.554323498838009E-007
  2.341181940060979E-003  1.554323498838009E-007
  2.521153450458268E-003  1.554323498838009E-007
  2.526478102165261E-003  1.554323498838009E-007
  2.558432111664973E-003  1.554323498838009E-007
  2.660512525438937E-003  1.554323498838009E-007
  2.779955683546841E-003  1.554323498838009E-007
  2.872968827841181E-003  1.554323498838009E-007
  2.925009158182815E-003  1.554323498838009E-007
  3.022006946295442E-003  1.554323498838009E-007
  3.042627467153101E-003  1.554323498838009E-007
  3.083143144637306E-003  1.554323498838009E-007
  3.091238438774596E-003  1.554323498838009E-007
  3.241522357314699E-003  1.554323498838009E-007
  3.299740484306402E-003  1.554323498838009E-007
  3.664226569646233E-003  1.554323498838009E-007
  3.666007844337901E-003  1.554323498838009E-007
  3.712049121811669E-003  1.554323498838009E-007
  3.713654969872453E-003  1.554323498838009E-007
  3.931792070250247E-003  1.554323498838009E-007
  4.524897859516472E-003  1.554323498838009E-007
  4.935109050561061E-003  1.554323498838009E-007
 cut=1d-8, nber non-redundant internal coords=         183
 Check on Eigenvals of non-red overlap matrix:
  0.00000016  0.00000051  0.00000098  0.00000129  0.00000363  0.00000374  0.00000409  0.00000453
  0.00000655  0.00000901  0.00001081  0.00001223  0.00001288  0.00001446  0.00001603  0.00001723
  0.00001746  0.00001832  0.00002091  0.00002238  0.00002300  0.00002392  0.00002474  0.00002539
  0.00002996  0.00003040  0.00003552  0.00003634  0.00003649  0.00003995  0.00004796  0.00004891
  0.00004955  0.00005149  0.00005285  0.00005511  0.00005701  0.00006129  0.00006386  0.00006775
  0.00006857  0.00007088  0.00007266  0.00007618  0.00008147  0.00008231  0.00008416  0.00008587
  0.00008685  0.00009276  0.00009476  0.00009495  0.00010389  0.00011285  0.00011522  0.00011968
  0.00012247  0.00012719  0.00013622  0.00013724  0.00014084  0.00014237  0.00015746  0.00015913
  0.00015986  0.00017232  0.00017454  0.00018182  0.00018529  0.00019102  0.00020264  0.00022175
  0.00022563  0.00022724  0.00023122  0.00025602  0.00026974  0.00027263  0.00028710  0.00028853
  0.00029781  0.00034013  0.00034259  0.00035988  0.00037157  0.00038121  0.00038430  0.00038817
  0.00039172  0.00039935  0.00041464  0.00041647  0.00042143  0.00043041  0.00043580  0.00044065
  0.00044097  0.00044229  0.00046325  0.00046697  0.00046881  0.00049319  0.00049375  0.00052004
  0.00052211  0.00053366  0.00053731  0.00055258  0.00055360  0.00055592  0.00055629  0.00058603
  0.00059642  0.00059834  0.00059854  0.00059925  0.00059959  0.00059987  0.00060222  0.00062457
  0.00063401  0.00064140  0.00064491  0.00064568  0.00064750  0.00065335  0.00065780  0.00067210
  0.00069688  0.00069725  0.00079417  0.00082637  0.00093202  0.00100144  0.00106465  0.00108807
  0.00109351  0.00109445  0.00109513  0.00109566  0.00114588  0.00114651  0.00114881  0.00116438
  0.00116489  0.00116597  0.00116649  0.00116824  0.00116878  0.00117634  0.00119181  0.00121656
  0.00127650  0.00129180  0.00139001  0.00149567  0.00156137  0.00170828  0.00172355  0.00177455
  0.00191476  0.00227698  0.00234118  0.00252115  0.00252648  0.00255843  0.00266051  0.00277996
  0.00287297  0.00292501  0.00302201  0.00304263  0.00308314  0.00309124  0.00324152  0.00329974
  0.00366423  0.00366601  0.00371205  0.00371365  0.00393179  0.00452490  0.00493511
 int defn changed for coord          26
          26          25           0           0
          26          23           0           0
