 Enter ifcurve (0=recti, 1=orth curvi, 2=apprx curvi, -1 = skip
 And atom ordering flag, 0= never changes, 1= use the first order thenceforth,
  2= deduce it (does read on fail), 3= always read it
 Reading file: 
 ./PDI_5_C0S1.log                                                               
                                          
  Entering Gaussian System, Link 0=g16                                          
  
 Gaussian format, type: g94, g98, g03= F F F
  #P Geom=AllCheck Guess=TCheck SCRF=Check GenChk RB3LYP TD(FC,Read)/6-3    
 energy type= TD      
 Original G94 input coords:
  6  0.670356  0.596198  0.295343
  6  2.112125  0.643662 -0.041762
  6  3.125284  0.859647  0.861088
  6  4.486844  0.897210  0.498132
  6  5.437162  1.122430  1.488403
  7  6.784903  1.204964  1.412360
  6  7.456645  1.461139  2.728515
  8  6.748819  1.568163  3.706732
  6  8.885907  1.551683  2.678620
  6  9.577382  1.790727  3.883629
  6 10.942860  1.887724  3.904299
  6 11.716282  1.752876  2.721255
  6 13.157890  1.854514  2.740156
  6 13.884682  2.092401  3.928636
  6 15.264027  2.187112  3.933558
  6 15.991624  2.049640  2.751642
  6 17.459683  2.155835  2.793160
  8 18.064186  2.361081  3.838221
  7 18.147067  2.011620  1.577515
  6 19.637210  2.111879  1.568231
  6 20.117612  3.507964  1.979828
  6 20.289580  0.983386  2.374497
  6 17.518071  1.772452  0.337698
  8 18.170536  1.655020 -0.690708
  6 16.049100  1.672548  0.341681
  6 15.379204  1.436862 -0.858309
  6 14.000052  1.337545 -0.888430
  6 13.218624  1.468960  0.280563
  6 11.773940  1.366696  0.262008
  6 11.059868  1.127050 -0.938563
  6  9.692201  1.030780 -0.951058
  6  8.947490  1.167561  0.234302
  6  7.509610  1.054072  0.145747
  8  6.876804  0.849307 -0.869298
  6  9.603158  1.407972  1.463512
  6 11.043720  1.510122  1.482494
  6 13.882923  1.710603  1.518799
  6 15.312688  1.811328  1.537561
  1  0.240830 -0.368584 -0.001737
  1  0.119657  1.352552 -0.277549
  1  0.483019  0.753301  1.357947
  1  2.384440  0.495824 -1.083577
  1  2.864578  1.008878  1.906482
  1  4.786549  0.754002 -0.527661
  1  5.094817  1.261356  2.509553
  1  9.000467  1.895696  4.793545
  1 11.432093  2.071417  4.849292
  1 13.363766  2.205767  4.868684
  1 15.808435  2.369435  4.851370
  1 19.887260  1.965060  0.519751
  1 19.906310  3.711370  3.028753
  1 19.638853  4.275591  1.366096
  1 21.197342  3.576843  1.818585
  1 20.085012  1.082135  3.439718
  1 21.372065  1.012352  2.219834
  1 19.929558  0.009288  2.032946
  1 15.966631  1.334175 -1.761762
  1 13.524034  1.154164 -1.841148
  1 11.593205  1.015832 -1.870871
  1  9.158349  0.847351 -1.874593
 nber atoms=          60
  Total Energy, E(TD-HF/TD-DFT) =  -1643.51872049                               
  
          32          49 "  -1643.51872049"
After scan for Atom:   Atom  AN      X      Y      Z        X      Y      Z        X      Y      Z   
After scan for Atom:   Atom  AN      X      Y      Z        X      Y      Z        X      Y      Z   
After scan for Atom:   Atom  AN      X      Y      Z        X      Y      Z        X      Y      Z   
After scan for Atom:   Atom  AN      X      Y      Z        X      Y      Z        X      Y      Z   
After scan for Atom:   Atom  AN      X      Y      Z        X      Y      Z        X      Y      Z   
After scan for Atom:   Atom  AN      X      Y      Z        X      Y      Z        X      Y      Z   
After scan for Atom:   Atom  AN      X      Y      Z        X      Y      Z        X      Y      Z   
After scan for Atom:   Atom  AN      X      Y      Z        X      Y      Z        X      Y      Z   
After scan for Atom:   Atom  AN      X      Y      Z        X      Y      Z        X      Y      Z   
After scan for Atom:   Atom  AN      X      Y      Z        X      Y      Z        X      Y      Z   
After scan for Atom:   Atom  AN      X      Y      Z        X      Y      Z        X      Y      Z   
After scan for Atom:   Atom  AN      X      Y      Z        X      Y      Z        X      Y      Z   
After scan for Atom:   Atom  AN      X      Y      Z        X      Y      Z        X      Y      Z   
After scan for Atom:   Atom  AN      X      Y      Z        X      Y      Z        X      Y      Z   
After scan for Atom:   Atom  AN      X      Y      Z        X      Y      Z        X      Y      Z   
After scan for Atom:   Atom  AN      X      Y      Z        X      Y      Z        X      Y      Z   
After scan for Atom:   Atom  AN      X      Y      Z        X      Y      Z        X      Y      Z   
After scan for Atom:   Atom  AN      X      Y      Z        X      Y      Z        X      Y      Z   
After scan for Atom:   Atom  AN      X      Y      Z        X      Y      Z        X      Y      Z   
After scan for Atom:   Atom  AN      X      Y      Z        X      Y      Z        X      Y      Z   
After scan for Atom:   Atom  AN      X      Y      Z        X      Y      Z        X      Y      Z   
After scan for Atom:   Atom  AN      X      Y      Z        X      Y      Z        X      Y      Z   
After scan for Atom:   Atom  AN      X      Y      Z        X      Y      Z        X      Y      Z   
After scan for Atom:   Atom  AN      X      Y      Z        X      Y      Z        X      Y      Z   
After scan for Atom:   Atom  AN      X      Y      Z        X      Y      Z        X      Y      Z   
After scan for Atom:   Atom  AN      X      Y      Z        X      Y      Z        X      Y      Z   
After scan for Atom:   Atom  AN      X      Y      Z        X      Y      Z        X      Y      Z   
After scan for Atom:   Atom  AN      X      Y      Z        X      Y      Z        X      Y      Z   
After scan for Atom:   Atom  AN      X      Y      Z        X      Y      Z        X      Y      Z   
After scan for Atom:   Atom  AN      X      Y      Z        X      Y      Z        X      Y      Z   
After scan for Atom:   Atom  AN      X      Y      Z        X      Y      Z        X      Y      Z   
After scan for Atom:   Atom  AN      X      Y      Z        X      Y      Z        X      Y      Z   
After scan for Atom:   Atom  AN      X      Y      Z        X      Y      Z        X      Y      Z   
After scan for Atom:   Atom  AN      X      Y      Z        X      Y      Z        X      Y      Z   
After scan for Atom:   Atom  AN      X      Y      Z        X      Y      Z        X      Y      Z   
After scan for Atom:   Atom  AN      X      Y      Z        X      Y      Z        X      Y      Z   
After scan for Atom:   Atom  AN      X      Y      Z        X      Y      Z        X      Y      Z   
After scan for Atom:   Atom  AN      X      Y      Z        X      Y      Z        X      Y      Z   
After scan for Atom:   Atom  AN      X      Y      Z        X      Y      Z        X      Y      Z   
After scan for Atom:   Atom  AN      X      Y      Z        X      Y      Z        X      Y      Z   
After scan for Atom:   Atom  AN      X      Y      Z        X      Y      Z        X      Y      Z   
After scan for Atom:   Atom  AN      X      Y      Z        X      Y      Z        X      Y      Z   
After scan for Atom:   Atom  AN      X      Y      Z        X      Y      Z        X      Y      Z   
After scan for Atom:   Atom  AN      X      Y      Z        X      Y      Z        X      Y      Z   
After scan for Atom:   Atom  AN      X      Y      Z        X      Y      Z        X      Y      Z   
After scan for Atom:   Atom  AN      X      Y      Z        X      Y      Z        X      Y      Z   
After scan for Atom:   Atom  AN      X      Y      Z        X      Y      Z        X      Y      Z   
After scan for Atom:   Atom  AN      X      Y      Z        X      Y      Z        X      Y      Z   
After scan for Atom:   Atom  AN      X      Y      Z        X      Y      Z        X      Y      Z   
After scan for Atom:   Atom  AN      X      Y      Z        X      Y      Z        X      Y      Z   
After scan for Atom:   Atom  AN      X      Y      Z        X      Y      Z        X      Y      Z   
After scan for Atom:   Atom  AN      X      Y      Z        X      Y      Z        X      Y      Z   
After scan for Atom:   Atom  AN      X      Y      Z        X      Y      Z        X      Y      Z   
After scan for Atom:   Atom  AN      X      Y      Z        X      Y      Z        X      Y      Z   
After scan for Atom:   Atom  AN      X      Y      Z        X      Y      Z        X      Y      Z   
After scan for Atom:   Atom  AN      X      Y      Z        X      Y      Z        X      Y      Z   
After scan for Atom:   Atom  AN      X      Y      Z        X      Y      Z        X      Y      Z   
After scan for Atom:   Atom  AN      X      Y      Z        X      Y      Z        X      Y      Z   
 g94    frequencies=
     0.0    0.0    0.0    0.0    0.0    0.0   11.1   22.9   29.0   49.7
    54.3   58.2   73.5   76.6   88.0   96.4  102.7  110.9  161.0  164.5
   168.9  178.4  189.2  194.6  212.2  228.2  235.0  238.6  241.0  256.9
   263.0  283.0  295.2  297.7  310.9  339.9  362.9  390.2  394.5  402.5
   414.7  417.7  435.2  442.5  451.3  453.2  453.9  471.8  493.3  499.4
   500.9  514.3  516.3  538.0  553.3  578.9  581.9  590.5  623.4  625.5
   641.9  662.5  668.8  711.5  715.9  729.0  747.6  757.5  766.7  772.7
   786.7  801.3  807.6  816.6  818.4  822.8  826.8  830.9  834.5  846.4
   853.0  897.0  914.8  916.6  929.1  940.0  944.1  955.9  962.9  974.5
   977.8  980.1  987.2  989.0  990.3 1035.3 1041.8 1049.7 1070.2 1094.5
  1120.1 1134.4 1149.7 1155.3 1166.3 1174.8 1190.6 1201.6 1216.7 1227.9
  1231.6 1236.5 1249.9 1259.2 1279.1 1290.3 1297.6 1303.5 1311.8 1327.7
  1337.2 1360.2 1363.0 1371.4 1372.0 1384.0 1392.4 1393.7 1398.1 1398.2
  1401.2 1412.5 1427.3 1440.4 1461.6 1462.7 1474.8 1481.8 1483.6 1484.3
  1485.7 1496.6 1506.5 1523.6 1546.9 1556.1 1568.5 1576.0 1589.0 1610.2
  1616.4 1620.7 1634.5 1670.7 1686.2 1723.2 1801.3 1824.1 3007.8 3030.5
  3035.0 3044.8 3087.8 3090.9 3110.0 3118.4 3131.9 3141.7 3142.1 3159.3
  3166.8 3194.1 3194.6 3199.5 3200.4 3209.6 3210.1 3226.1 3226.4 3251.3
 g94    symmetries=
                                                 A      A      A      A
       A      A      A      A      A      A      A      A      A      A
       A      A      A      A      A      A      A      A      A      A
       A      A      A      A      A      A      A      A      A      A
       A      A      A      A      A      A      A      A      A      A
       A      A      A      A      A      A      A      A      A      A
       A      A      A      A      A      A      A      A      A      A
       A      A      A      A      A      A      A      A      A      A
       A      A      A      A      A      A      A      A      A      A
       A      A      A      A      A      A      A      A      A      A
       A      A      A      A      A      A      A      A      A      A
       A      A      A      A      A      A      A      A      A      A
       A      A      A      A      A      A      A      A      A      A
       A      A      A      A      A      A      A      A      A      A
       A      A      A      A      A      A      A      A      A      A
       A      A      A      A      A      A      A      A      A      A
       A      A      A      A      A      A      A      A      A      A
       A      A      A      A      A      A      A      A      A      A
 atomic masses:
 12.0000 12.0000 12.0000 12.0000 12.0000 14.0031 12.0000 15.9949 12.0000 12.0000
 12.0000 12.0000 12.0000 12.0000 12.0000 12.0000 12.0000 15.9949 14.0031 12.0000
 12.0000 12.0000 12.0000 15.9949 12.0000 12.0000 12.0000 12.0000 12.0000 12.0000
 12.0000 12.0000 12.0000 15.9949 12.0000 12.0000 12.0000 12.0000  1.0078  1.0078
  1.0078  1.0078  1.0078  1.0078  1.0078  1.0078  1.0078  1.0078  1.0078  1.0078
  1.0078  1.0078  1.0078  1.0078  1.0078  1.0078  1.0078  1.0078  1.0078  1.0078
 looking for force constants in 
 ./PDI_5_C0S1.fchk                                                              
  
 Cartesian Force Constants                  R   N=       16290                  
  
 n3=         180       16290
 g94-fc frequencies=
    -0.9   -0.0    0.0    0.0    1.6    4.2   11.2   22.9   29.0   49.7
    54.3   58.2   73.5   76.6   88.0   96.4  102.7  110.9  161.1  164.5
   168.9  178.4  189.2  194.6  212.2  228.2  235.0  238.6  241.0  256.9
   263.0  283.0  295.2  297.7  310.9  339.9  362.9  390.2  394.5  402.5
   414.7  417.7  435.2  442.5  451.4  453.2  453.9  471.8  493.3  499.4
   500.9  514.3  516.3  538.0  553.4  579.0  581.9  590.5  623.4  625.5
   641.9  662.5  668.9  711.6  715.9  729.0  747.6  757.5  766.7  772.7
   786.7  801.3  807.6  816.6  818.4  822.8  826.9  831.0  834.5  846.5
   853.1  897.0  914.8  916.6  929.2  940.0  944.1  955.9  962.9  974.5
   977.8  980.1  987.2  989.0  990.3 1035.3 1041.8 1049.7 1070.2 1094.5
  1120.2 1134.4 1149.7 1155.3 1166.3 1174.9 1190.6 1201.6 1216.7 1227.9
  1231.6 1236.5 1249.9 1259.3 1279.1 1290.3 1297.7 1303.5 1311.9 1327.7
  1337.2 1360.2 1363.0 1371.4 1372.1 1384.0 1392.5 1393.7 1398.1 1398.3
  1401.2 1412.5 1427.4 1440.4 1461.7 1462.7 1474.8 1481.8 1483.7 1484.3
  1485.8 1496.6 1506.5 1523.6 1547.0 1556.2 1568.5 1576.0 1589.1 1610.2
  1616.5 1620.8 1634.6 1670.8 1686.3 1723.2 1801.4 1824.1 3007.9 3030.5
  3035.0 3044.8 3087.8 3091.0 3110.0 3118.5 3132.0 3141.8 3142.1 3159.3
  3166.9 3194.1 3194.7 3199.5 3200.4 3209.7 3210.1 3226.2 3226.5 3251.4
 at 99999: n3=         180
 symm operator            1 :  F  nop=           0
 symm operator            2 :  F  nop=           0
 symm operator            3 :  F  nop=           0
 symm operator            4 :  F  nop=           0
 symm operator            5 :  F  nop=           0
 symm operator            6 :  F  nop=           0
 symm operator            7 :  F  nop=           0
 The point group of the molecule is  C1
 Symmetry rotation matrix:
   1.00000   0.00000   0.00000
   0.00000   1.00000   0.00000
   0.00000   0.00000   1.00000

 Projecting out zero-frequency components
 generating redundant internal coords
         300        3600          60
 search for int coords
   1 str   2   1   1.481
   2 str   3   2   1.374
   3 str   4   3   1.410
   4 str   5   4   1.391
   5 str   6   5   1.352
   6 str   7   6   1.500
   7 str   8   7   1.212
   8 str   9   7   1.433
   9 str  10   9   1.410
  10 str  11  10   1.369
  11 str  12  11   1.420
  12 str  13  12   1.445
  13 str  14  13   1.413
  14 str  15  14   1.383
  15 str  16  15   1.395
  16 str  17  16   1.472
  17 str  18  17   1.225
  18 str  19  17   1.404
  19 str  20  19   1.494
  20 str  21  20   1.533
  21 str  22  20   1.533
  22 str  23  19   1.411
  23 str  24  23   1.224
  24 str  25  23   1.472
  25 str  26  25   1.394
  26 str  27  26   1.383
  27 str  28  27   1.412
  28 str  29  28   1.448
  29 str  30  29   1.417
  30 str  31  30   1.371
  31 str  32  31   1.407
  32 str  33   6   1.467
  33 str  33  32   1.445
  34 str  34  33   1.214
  35 str  35   9   1.418
  36 str  35  32   1.414
  37 str  36  12   1.430
  38 str  36  29   1.429
  39 str  36  35   1.444
  40 str  37  13   1.428
  41 str  37  28   1.426
  42 str  38  16   1.411
  43 str  38  25   1.411
  44 str  38  37   1.433
  45 str  39   1   1.097
  46 str  40   1   1.097
  47 str  41   1   1.090
  48 str  42   2   1.087
  49 str  43   3   1.088
  50 str  44   4   1.078
  51 str  45   5   1.086
  52 str  46  10   1.082
  53 str  47  11   1.080
  54 str  48  14   1.081
  55 str  49  15   1.083
  56 str  50  20   1.088
  57 str  51  21   1.089
  58 str  52  21   1.093
  59 str  53  21   1.094
  60 str  54  22   1.089
  61 str  55  22   1.094
  62 str  56  22   1.093
  63 str  57  26   1.083
  64 str  58  27   1.081
  65 str  59  30   1.080
  66 str  60  31   1.082
 nber stretches=          66
  67 ben   1   2   3
  68 prop tor   1   2   3   4
  69 prop tor   1   2   3  43
  70 ben   1   2  42
  71 ben   2   1  39
  72 ben   2   1  40
  73 ben   2   1  41
  74 ben   2   3   4
  75 prop tor   2   3   4   5
  76 prop tor   2   3   4  44
  77 ben   2   3  43
  78 ben   3   2  42
  79 ben   3   4   5
  80 prop tor   3   4   5   6
  81 prop tor   3   4   5  45
  82 ben   3   4  44
  83 ben   4   3  43
  84 ben   4   5   6
  85 prop tor   4   5   6   7
  86 prop tor   4   5   6  33
  87 ben   4   5  45
  88 ben   5   4  44
  89 ben   5   6   7
  90 prop tor   5   6   7   8
  91 prop tor   5   6   7   9
  92 ben   5   6  33
  93 prop tor   5   6  33  32
  94 prop tor   5   6  33  34
  95 ben   6   5  45
  96 ben   6   7   8
  97 ben   6   7   9
  98 prop tor   6   7   9  10
  99 prop tor   6   7   9  35
 100 ben   6  33  32
 101 ben   6  33  34
 102 ben   7   6  33
 103 prop tor   7   6  33  32
 104 prop tor   7   6  33  34
 105 ben   7   9  10
 106 prop tor   7   9  10  11
 107 prop tor   7   9  10  46
 108 ben   7   9  35
 109 prop tor   7   9  35  32
 110 prop tor   7   9  35  36
 111 ben   8   7   9
 112 prop tor   8   7   9  10
 113 prop tor   8   7   9  35
 114 ben   9  10  11
 115 prop tor   9  10  11  12
 116 prop tor   9  10  11  47
 117 ben   9  10  46
 118 ben   9  35  32
 119 ben   9  35  36
 120 prop tor   9  35  36  12
 121 prop tor   9  35  36  29
 122 ben  10   9  35
 123 prop tor  10   9  35  32
 124 prop tor  10   9  35  36
 125 ben  10  11  12
 126 prop tor  10  11  12  13
 127 prop tor  10  11  12  36
 128 ben  10  11  47
 129 ben  11  10  46
 130 ben  11  12  13
 131 prop tor  11  12  13  14
 132 prop tor  11  12  13  37
 133 ben  11  12  36
 134 prop tor  11  12  36  29
 135 prop tor  11  12  36  35
 136 ben  12  11  47
 137 ben  12  13  14
 138 prop tor  12  13  14  15
 139 prop tor  12  13  14  48
 140 ben  12  13  37
 141 prop tor  12  13  37  28
 142 prop tor  12  13  37  38
 143 ben  12  36  29
 144 ben  12  36  35
 145 ben  13  12  36
 146 prop tor  13  12  36  29
 147 prop tor  13  12  36  35
 148 ben  13  14  15
 149 prop tor  13  14  15  16
 150 prop tor  13  14  15  49
 151 ben  13  14  48
 152 ben  13  37  28
 153 ben  13  37  38
 154 prop tor  13  37  38  16
 155 prop tor  13  37  38  25
 156 ben  14  13  37
 157 prop tor  14  13  37  28
 158 prop tor  14  13  37  38
 159 ben  14  15  16
 160 prop tor  14  15  16  17
 161 prop tor  14  15  16  38
 162 ben  14  15  49
 163 ben  15  14  48
 164 ben  15  16  17
 165 prop tor  15  16  17  18
 166 prop tor  15  16  17  19
 167 ben  15  16  38
 168 prop tor  15  16  38  25
 169 prop tor  15  16  38  37
 170 ben  16  15  49
 171 ben  16  17  18
 172 ben  16  17  19
 173 prop tor  16  17  19  20
 174 prop tor  16  17  19  23
 175 ben  16  38  25
 176 ben  16  38  37
 177 ben  17  16  38
 178 prop tor  17  16  38  25
 179 prop tor  17  16  38  37
 180 ben  17  19  20
 181 prop tor  17  19  20  21
 182 prop tor  17  19  20  22
 183 prop tor  17  19  20  50
 184 ben  17  19  23
 185 prop tor  17  19  23  24
 186 prop tor  17  19  23  25
 187 ben  18  17  19
 188 prop tor  18  17  19  20
 189 prop tor  18  17  19  23
 190 ben  19  20  21
 191 prop tor  19  20  21  51
 192 prop tor  19  20  21  52
 193 prop tor  19  20  21  53
 194 ben  19  20  22
 195 prop tor  19  20  22  54
 196 prop tor  19  20  22  55
 197 prop tor  19  20  22  56
 198 ben  19  20  50
 199 ben  19  23  24
 200 ben  19  23  25
 201 prop tor  19  23  25  26
 202 prop tor  19  23  25  38
 203 ben  20  19  23
 204 prop tor  20  19  23  24
 205 prop tor  20  19  23  25
 206 ben  20  21  51
 207 ben  20  21  52
 208 ben  20  21  53
 209 ben  20  22  54
 210 ben  20  22  55
 211 ben  20  22  56
 212 ben  21  20  22
 213 prop tor  21  20  22  54
 214 prop tor  21  20  22  55
 215 prop tor  21  20  22  56
 216 ben  21  20  50
 217 prop tor  22  20  21  51
 218 prop tor  22  20  21  52
 219 prop tor  22  20  21  53
 220 ben  22  20  50
 221 prop tor  23  19  20  21
 222 prop tor  23  19  20  22
 223 prop tor  23  19  20  50
 224 ben  23  25  26
 225 prop tor  23  25  26  27
 226 prop tor  23  25  26  57
 227 ben  23  25  38
 228 prop tor  23  25  38  16
 229 prop tor  23  25  38  37
 230 ben  24  23  25
 231 prop tor  24  23  25  26
 232 prop tor  24  23  25  38
 233 ben  25  26  27
 234 prop tor  25  26  27  28
 235 prop tor  25  26  27  58
 236 ben  25  26  57
 237 ben  25  38  37
 238 ben  26  25  38
 239 prop tor  26  25  38  16
 240 prop tor  26  25  38  37
 241 ben  26  27  28
 242 prop tor  26  27  28  29
 243 prop tor  26  27  28  37
 244 ben  26  27  58
 245 ben  27  26  57
 246 ben  27  28  29
 247 prop tor  27  28  29  30
 248 prop tor  27  28  29  36
 249 ben  27  28  37
 250 prop tor  27  28  37  13
 251 prop tor  27  28  37  38
 252 ben  28  27  58
 253 ben  28  29  30
 254 prop tor  28  29  30  31
 255 prop tor  28  29  30  59
 256 ben  28  29  36
 257 prop tor  28  29  36  12
 258 prop tor  28  29  36  35
 259 ben  28  37  38
 260 prop tor  28  37  38  16
 261 prop tor  28  37  38  25
 262 ben  29  28  37
 263 prop tor  29  28  37  13
 264 prop tor  29  28  37  38
 265 ben  29  30  31
 266 prop tor  29  30  31  32
 267 prop tor  29  30  31  60
 268 ben  29  30  59
 269 ben  29  36  35
 270 ben  30  29  36
 271 prop tor  30  29  36  12
 272 prop tor  30  29  36  35
 273 ben  30  31  32
 274 prop tor  30  31  32  33
 275 prop tor  30  31  32  35
 276 ben  30  31  60
 277 ben  31  30  59
 278 ben  31  32  33
 279 prop tor  31  32  33   6
 280 prop tor  31  32  33  34
 281 ben  31  32  35
 282 prop tor  31  32  35   9
 283 prop tor  31  32  35  36
 284 ben  32  31  60
 285 ben  32  33  34
 286 ben  32  35  36
 287 prop tor  32  35  36  12
 288 prop tor  32  35  36  29
 289 prop tor  33   6   7   8
 290 prop tor  33   6   7   9
 291 ben  33  32  35
 292 prop tor  33  32  35   9
 293 prop tor  33  32  35  36
 294 prop tor  35   9  10  11
 295 prop tor  35   9  10  46
 296 prop tor  35  32  33   6
 297 prop tor  35  32  33  34
 298 prop tor  36  12  13  14
 299 prop tor  36  12  13  37
 300 prop tor  36  29  30  31
 301 prop tor  36  29  30  59
 302 prop tor  37  13  14  15
 303 prop tor  37  13  14  48
 304 prop tor  37  28  29  30
 305 prop tor  37  28  29  36
 306 prop tor  38  16  17  18
 307 prop tor  38  16  17  19
 308 prop tor  38  25  26  27
 309 prop tor  38  25  26  57
 310 prop tor  39   1   2   3
 311 prop tor  39   1   2  42
 312 ben  39   1  40
 313 ben  39   1  41
 314 prop tor  40   1   2   3
 315 prop tor  40   1   2  42
 316 ben  40   1  41
 317 prop tor  41   1   2   3
 318 prop tor  41   1   2  42
 319 prop tor  42   2   3   4
 320 prop tor  42   2   3  43
 321 prop tor  43   3   4   5
 322 prop tor  43   3   4  44
 323 prop tor  44   4   5   6
 324 prop tor  44   4   5  45
 325 prop tor  45   5   6   7
 326 prop tor  45   5   6  33
 327 prop tor  46  10  11  12
 328 prop tor  46  10  11  47
 329 prop tor  47  11  12  13
 330 prop tor  47  11  12  36
 331 prop tor  48  14  15  16
 332 prop tor  48  14  15  49
 333 prop tor  49  15  16  17
 334 prop tor  49  15  16  38
 335 prop tor  50  20  21  51
 336 prop tor  50  20  21  52
 337 prop tor  50  20  21  53
 338 prop tor  50  20  22  54
 339 prop tor  50  20  22  55
 340 prop tor  50  20  22  56
 341 ben  51  21  52
 342 ben  51  21  53
 343 ben  52  21  53
 344 ben  54  22  55
 345 ben  54  22  56
 346 ben  55  22  56
 347 prop tor  57  26  27  28
 348 prop tor  57  26  27  58
 349 prop tor  58  27  28  29
 350 prop tor  58  27  28  37
 351 prop tor  59  30  31  32
 352 prop tor  59  30  31  60
 353 prop tor  60  31  32  33
 354 prop tor  60  31  32  35
 nber bend=             114
 nber lin bend=           0
 nber prop tor=         174
 nber impr tor=           0
 nber tot redund int=         354
 Eigenvalues of G in red int coords
    Gval -0.00000000 -0.00000000 -0.00000000 -0.00000000 -0.00000000 -0.00000000 -0.00000000 -0.00000000
    Gval -0.00000000 -0.00000000 -0.00000000 -0.00000000 -0.00000000 -0.00000000 -0.00000000 -0.00000000
    Gval -0.00000000 -0.00000000 -0.00000000 -0.00000000 -0.00000000 -0.00000000 -0.00000000 -0.00000000
    Gval -0.00000000 -0.00000000 -0.00000000 -0.00000000 -0.00000000 -0.00000000 -0.00000000 -0.00000000
    Gval -0.00000000 -0.00000000 -0.00000000 -0.00000000 -0.00000000 -0.00000000 -0.00000000 -0.00000000
    Gval -0.00000000 -0.00000000 -0.00000000 -0.00000000 -0.00000000 -0.00000000 -0.00000000 -0.00000000
    Gval -0.00000000 -0.00000000 -0.00000000 -0.00000000 -0.00000000 -0.00000000 -0.00000000 -0.00000000
    Gval -0.00000000 -0.00000000 -0.00000000 -0.00000000 -0.00000000 -0.00000000 -0.00000000 -0.00000000
    Gval -0.00000000 -0.00000000 -0.00000000 -0.00000000 -0.00000000 -0.00000000 -0.00000000 -0.00000000
    Gval -0.00000000 -0.00000000 -0.00000000 -0.00000000 -0.00000000 -0.00000000 -0.00000000 -0.00000000
    Gval -0.00000000 -0.00000000 -0.00000000 -0.00000000 -0.00000000 -0.00000000 -0.00000000 -0.00000000
    Gval -0.00000000 -0.00000000 -0.00000000 -0.00000000 -0.00000000  0.00000000  0.00000000  0.00000000
    Gval  0.00000000  0.00000000  0.00000000  0.00000000  0.00000000  0.00000000  0.00000000  0.00000000
    Gval  0.00000000  0.00000000  0.00000000  0.00000000  0.00000000  0.00000000  0.00000000  0.00000000
    Gval  0.00000000  0.00000000  0.00000000  0.00000000  0.00000000  0.00000000  0.00000000  0.00000000
    Gval  0.00000000  0.00000000  0.00000000  0.00000000  0.00000000  0.00000000  0.00000000  0.00000000
    Gval  0.00000000  0.00000000  0.00000000  0.00000000  0.00000000  0.00000000  0.00000000  0.00000000
    Gval  0.00000000  0.00000000  0.00000000  0.00000000  0.00000000  0.00000000  0.00000000  0.00000000
    Gval  0.00000000  0.00000000  0.00000000  0.00000000  0.00000000  0.00000000  0.00000000  0.00000000
    Gval  0.00000000  0.00000000  0.00000000  0.00000000  0.00000000  0.00000000  0.00000000  0.00000000
    Gval  0.00000000  0.00000000  0.00000000  0.00000000  0.00000000  0.00000000  0.00000000  0.00000000
    Gval  0.00000000  0.00000000  0.00000000  0.00000000  0.00000000  0.00000000  0.00000000  0.00000000
    Gval  0.00000000  0.00000000  0.00000000  0.00000000  0.00000040  0.00000110  0.00000161  0.00000207
    Gval  0.00000461  0.00000526  0.00000550  0.00000900  0.00001022  0.00001069  0.00001216  0.00001481
    Gval  0.00001509  0.00001633  0.00001755  0.00001800  0.00001843  0.00002125  0.00002353  0.00002436
    Gval  0.00002534  0.00002709  0.00002909  0.00003078  0.00003483  0.00003995  0.00004368  0.00004588
    Gval  0.00004889  0.00005108  0.00005142  0.00005187  0.00005351  0.00006113  0.00006298  0.00006338
    Gval  0.00006856  0.00007205  0.00007403  0.00007966  0.00008144  0.00008241  0.00008514  0.00008776
    Gval  0.00008797  0.00009213  0.00009403  0.00009477  0.00010341  0.00011442  0.00011533  0.00012104
    Gval  0.00012247  0.00013523  0.00013639  0.00013724  0.00014091  0.00015651  0.00015883  0.00016118
    Gval  0.00016815  0.00018206  0.00019473  0.00020126  0.00022218  0.00022765  0.00023146  0.00024589
    Gval  0.00026152  0.00027518  0.00028598  0.00028938  0.00029949  0.00034226  0.00034346  0.00035657
    Gval  0.00035794  0.00038419  0.00038560  0.00039133  0.00039614  0.00040994  0.00041507  0.00042113
    Gval  0.00043075  0.00043551  0.00044117  0.00044231  0.00046387  0.00046664  0.00046976  0.00049332
    Gval  0.00051468  0.00053026  0.00053376  0.00053726  0.00053898  0.00055152  0.00055375  0.00055595
    Gval  0.00055620  0.00055676  0.00059080  0.00059366  0.00059434  0.00059851  0.00059924  0.00059956
    Gval  0.00059985  0.00060221  0.00060874  0.00064135  0.00064490  0.00064558  0.00064746  0.00065133
    Gval  0.00065223  0.00067107  0.00068540  0.00069674  0.00069715  0.00073036  0.00079174  0.00082575
    Gval  0.00093418  0.00100016  0.00103748  0.00109175  0.00109387  0.00109479  0.00109553  0.00109605
    Gval  0.00114520  0.00114565  0.00116021  0.00116449  0.00116502  0.00116694  0.00116746  0.00116916
    Gval  0.00116972  0.00118651  0.00119463  0.00120778  0.00127931  0.00129279  0.00138189  0.00149750
    Gval  0.00155122  0.00172339  0.00177010  0.00191644  0.00227816  0.00234182  0.00238800  0.00239741
    Gval  0.00252048  0.00252463  0.00255836  0.00271474  0.00277957  0.00292449  0.00294238  0.00302244
    Gval  0.00304256  0.00308267  0.00309278  0.00341973  0.00366526  0.00366749  0.00371297  0.00371506
    Gval  0.00393513  0.00402394
  3.998445225065403E-007  3.998445225065403E-007
  1.096245433167034E-006  3.998445225065403E-007
  1.606635648760548E-006  3.998445225065403E-007
  2.074901176817318E-006  3.998445225065403E-007
  4.605008390375356E-006  3.998445225065403E-007
  5.261878895615848E-006  3.998445225065403E-007
  5.498853512257670E-006  3.998445225065403E-007
  8.997732406103649E-006  3.998445225065403E-007
  1.021602605916321E-005  3.998445225065403E-007
  1.069342312989248E-005  3.998445225065403E-007
  1.216450025893826E-005  3.998445225065403E-007
  1.480818755754391E-005  3.998445225065403E-007
  1.508606463877942E-005  3.998445225065403E-007
  1.633271411367854E-005  3.998445225065403E-007
  1.755125604998326E-005  3.998445225065403E-007
  1.800440432290652E-005  3.998445225065403E-007
  1.843482887131179E-005  3.998445225065403E-007
  2.125187168881047E-005  3.998445225065403E-007
  2.352844020467939E-005  3.998445225065403E-007
  2.436376437973524E-005  3.998445225065403E-007
  2.533688022631864E-005  3.998445225065403E-007
  2.709336636973522E-005  3.998445225065403E-007
  2.908870836615480E-005  3.998445225065403E-007
  3.078164783120580E-005  3.998445225065403E-007
  3.482973172373010E-005  3.998445225065403E-007
  3.994738954423269E-005  3.998445225065403E-007
  4.367912744871323E-005  3.998445225065403E-007
  4.588140047439519E-005  3.998445225065403E-007
  4.889327555098128E-005  3.998445225065403E-007
  5.108294694903951E-005  3.998445225065403E-007
  5.142181810875029E-005  3.998445225065403E-007
  5.187018453683869E-005  3.998445225065403E-007
  5.350894324790076E-005  3.998445225065403E-007
  6.112665074048366E-005  3.998445225065403E-007
  6.297727975745702E-005  3.998445225065403E-007
  6.337796629651935E-005  3.998445225065403E-007
  6.855595321126624E-005  3.998445225065403E-007
  7.205291270602058E-005  3.998445225065403E-007
  7.402678024190822E-005  3.998445225065403E-007
  7.966142849505202E-005  3.998445225065403E-007
  8.144360610183571E-005  3.998445225065403E-007
  8.241056551035060E-005  3.998445225065403E-007
  8.514205568751446E-005  3.998445225065403E-007
  8.776463607531386E-005  3.998445225065403E-007
  8.796979777984366E-005  3.998445225065403E-007
  9.212581982750698E-005  3.998445225065403E-007
  9.402770293827603E-005  3.998445225065403E-007
  9.476969389888392E-005  3.998445225065403E-007
  1.034142775601218E-004  3.998445225065403E-007
  1.144162250877236E-004  3.998445225065403E-007
  1.153257339980383E-004  3.998445225065403E-007
  1.210360039402004E-004  3.998445225065403E-007
  1.224705239874417E-004  3.998445225065403E-007
  1.352281985594090E-004  3.998445225065403E-007
  1.363879511344136E-004  3.998445225065403E-007
  1.372414306114471E-004  3.998445225065403E-007
  1.409082710197046E-004  3.998445225065403E-007
  1.565120171587989E-004  3.998445225065403E-007
  1.588313513249384E-004  3.998445225065403E-007
  1.611828461759480E-004  3.998445225065403E-007
  1.681452208798594E-004  3.998445225065403E-007
  1.820568445594362E-004  3.998445225065403E-007
  1.947271783844367E-004  3.998445225065403E-007
  2.012567100480797E-004  3.998445225065403E-007
  2.221779485235199E-004  3.998445225065403E-007
  2.276521950112509E-004  3.998445225065403E-007
  2.314624026610621E-004  3.998445225065403E-007
  2.458880082499966E-004  3.998445225065403E-007
  2.615221447041567E-004  3.998445225065403E-007
  2.751828304363325E-004  3.998445225065403E-007
  2.859791437653057E-004  3.998445225065403E-007
  2.893790557826381E-004  3.998445225065403E-007
  2.994901398997787E-004  3.998445225065403E-007
  3.422639651894238E-004  3.998445225065403E-007
  3.434576288728035E-004  3.998445225065403E-007
  3.565708157069351E-004  3.998445225065403E-007
  3.579447922947229E-004  3.998445225065403E-007
  3.841916897097688E-004  3.998445225065403E-007
  3.855968742327935E-004  3.998445225065403E-007
  3.913290474742668E-004  3.998445225065403E-007
  3.961368884624364E-004  3.998445225065403E-007
  4.099355267929888E-004  3.998445225065403E-007
  4.150748159046800E-004  3.998445225065403E-007
  4.211302701526618E-004  3.998445225065403E-007
  4.307538212074094E-004  3.998445225065403E-007
  4.355067131351406E-004  3.998445225065403E-007
  4.411716293690484E-004  3.998445225065403E-007
  4.423148041092745E-004  3.998445225065403E-007
  4.638743223562459E-004  3.998445225065403E-007
  4.666401254187121E-004  3.998445225065403E-007
  4.697557615275207E-004  3.998445225065403E-007
  4.933195171307947E-004  3.998445225065403E-007
  5.146802290147374E-004  3.998445225065403E-007
  5.302565745706842E-004  3.998445225065403E-007
  5.337591167905841E-004  3.998445225065403E-007
  5.372645983037257E-004  3.998445225065403E-007
  5.389829800180751E-004  3.998445225065403E-007
  5.515154060401151E-004  3.998445225065403E-007
  5.537539986509253E-004  3.998445225065403E-007
  5.559505155425157E-004  3.998445225065403E-007
  5.562043644443335E-004  3.998445225065403E-007
  5.567578504469733E-004  3.998445225065403E-007
  5.907975979055820E-004  3.998445225065403E-007
  5.936601522569069E-004  3.998445225065403E-007
  5.943437767801339E-004  3.998445225065403E-007
  5.985118064448160E-004  3.998445225065403E-007
  5.992381125189603E-004  3.998445225065403E-007
  5.995629668758634E-004  3.998445225065403E-007
  5.998478300276165E-004  3.998445225065403E-007
  6.022108617373411E-004  3.998445225065403E-007
  6.087394408487859E-004  3.998445225065403E-007
  6.413482762973918E-004  3.998445225065403E-007
  6.449018132061038E-004  3.998445225065403E-007
  6.455796972795418E-004  3.998445225065403E-007
  6.474560555664715E-004  3.998445225065403E-007
  6.513289812331816E-004  3.998445225065403E-007
  6.522269966781634E-004  3.998445225065403E-007
  6.710707378841169E-004  3.998445225065403E-007
  6.853989835111440E-004  3.998445225065403E-007
  6.967384209158261E-004  3.998445225065403E-007
  6.971520149014922E-004  3.998445225065403E-007
  7.303572175073950E-004  3.998445225065403E-007
  7.917429104406531E-004  3.998445225065403E-007
  8.257540321998940E-004  3.998445225065403E-007
  9.341798109525269E-004  3.998445225065403E-007
  1.000158821846327E-003  3.998445225065403E-007
  1.037478387465219E-003  3.998445225065403E-007
  1.091754290904319E-003  3.998445225065403E-007
  1.093868610203173E-003  3.998445225065403E-007
  1.094790980184122E-003  3.998445225065403E-007
  1.095530138766248E-003  3.998445225065403E-007
  1.096048049216986E-003  3.998445225065403E-007
  1.145197003714160E-003  3.998445225065403E-007
  1.145647711459933E-003  3.998445225065403E-007
  1.160206117216933E-003  3.998445225065403E-007
  1.164494883803947E-003  3.998445225065403E-007
  1.165017458202097E-003  3.998445225065403E-007
  1.166942714396251E-003  3.998445225065403E-007
  1.167463107865301E-003  3.998445225065403E-007
  1.169159468096638E-003  3.998445225065403E-007
  1.169721794624279E-003  3.998445225065403E-007
  1.186507601502696E-003  3.998445225065403E-007
  1.194628432299517E-003  3.998445225065403E-007
  1.207776498055688E-003  3.998445225065403E-007
  1.279311990069501E-003  3.998445225065403E-007
  1.292788320617559E-003  3.998445225065403E-007
  1.381887261222528E-003  3.998445225065403E-007
  1.497503297458511E-003  3.998445225065403E-007
  1.551219000420585E-003  3.998445225065403E-007
  1.723385057101362E-003  3.998445225065403E-007
  1.770100742714313E-003  3.998445225065403E-007
  1.916437268210656E-003  3.998445225065403E-007
  2.278156175516577E-003  3.998445225065403E-007
  2.341823946451480E-003  3.998445225065403E-007
  2.388003562448811E-003  3.998445225065403E-007
  2.397407215413502E-003  3.998445225065403E-007
  2.520481479614411E-003  3.998445225065403E-007
  2.524626973430889E-003  3.998445225065403E-007
  2.558361893464742E-003  3.998445225065403E-007
  2.714742248850187E-003  3.998445225065403E-007
  2.779574579869148E-003  3.998445225065403E-007
  2.924491691345950E-003  3.998445225065403E-007
  2.942379210040819E-003  3.998445225065403E-007
  3.022441213429667E-003  3.998445225065403E-007
  3.042558709474163E-003  3.998445225065403E-007
  3.082671981392429E-003  3.998445225065403E-007
  3.092783753365348E-003  3.998445225065403E-007
  3.419731805338625E-003  3.998445225065403E-007
  3.665262356641855E-003  3.998445225065403E-007
  3.667490390985779E-003  3.998445225065403E-007
  3.712968059996461E-003  3.998445225065403E-007
  3.715061403536371E-003  3.998445225065403E-007
  3.935131667076991E-003  3.998445225065403E-007
  4.023935463478109E-003  3.998445225065403E-007
 cut=1d-8, nber non-redundant internal coords=         174
 Check on Eigenvals of non-red overlap matrix:
  0.00000040  0.00000110  0.00000161  0.00000207  0.00000461  0.00000526  0.00000550  0.00000900
  0.00001022  0.00001069  0.00001216  0.00001481  0.00001509  0.00001633  0.00001755  0.00001800
  0.00001843  0.00002125  0.00002353  0.00002436  0.00002534  0.00002709  0.00002909  0.00003078
  0.00003483  0.00003995  0.00004368  0.00004588  0.00004889  0.00005108  0.00005142  0.00005187
  0.00005351  0.00006113  0.00006298  0.00006338  0.00006856  0.00007205  0.00007403  0.00007966
  0.00008144  0.00008241  0.00008514  0.00008776  0.00008797  0.00009213  0.00009403  0.00009477
  0.00010341  0.00011442  0.00011533  0.00012104  0.00012247  0.00013523  0.00013639  0.00013724
  0.00014091  0.00015651  0.00015883  0.00016118  0.00016815  0.00018206  0.00019473  0.00020126
  0.00022218  0.00022765  0.00023146  0.00024589  0.00026152  0.00027518  0.00028598  0.00028938
  0.00029949  0.00034226  0.00034346  0.00035657  0.00035794  0.00038419  0.00038560  0.00039133
  0.00039614  0.00040994  0.00041507  0.00042113  0.00043075  0.00043551  0.00044117  0.00044231
  0.00046387  0.00046664  0.00046976  0.00049332  0.00051468  0.00053026  0.00053376  0.00053726
  0.00053898  0.00055152  0.00055375  0.00055595  0.00055620  0.00055676  0.00059080  0.00059366
  0.00059434  0.00059851  0.00059924  0.00059956  0.00059985  0.00060221  0.00060874  0.00064135
  0.00064490  0.00064558  0.00064746  0.00065133  0.00065223  0.00067107  0.00068540  0.00069674
  0.00069715  0.00073036  0.00079174  0.00082575  0.00093418  0.00100016  0.00103748  0.00109175
  0.00109387  0.00109479  0.00109553  0.00109605  0.00114520  0.00114565  0.00116021  0.00116449
  0.00116502  0.00116694  0.00116746  0.00116916  0.00116972  0.00118651  0.00119463  0.00120778
  0.00127931  0.00129279  0.00138189  0.00149750  0.00155122  0.00172339  0.00177010  0.00191644
  0.00227816  0.00234182  0.00238800  0.00239741  0.00252048  0.00252463  0.00255836  0.00271474
  0.00277957  0.00292449  0.00294238  0.00302244  0.00304256  0.00308267  0.00309278  0.00341973
  0.00366526  0.00366749  0.00371297  0.00371506  0.00393513  0.00402394
 Checking for correct frequencies
 recalc frequencies=
    -0.0   -0.0   -0.0    0.0    0.0    0.0   11.1   22.9   29.0   49.7
    54.3   58.2   73.5   76.6   88.0   96.4  102.7  110.9  161.1  164.5
   168.9  178.4  189.2  194.6  212.2  228.2  235.0  238.6  241.0  256.9
   263.0  283.0  295.2  297.7  310.9  339.9  362.9  390.2  394.5  402.5
   414.7  417.7  435.2  442.5  451.4  453.2  453.9  471.8  493.3  499.4
   500.9  514.3  516.3  538.0  553.4  579.0  581.9  590.5  623.4  625.5
   641.9  662.5  668.9  711.6  715.9  729.0  747.6  757.5  766.7  772.7
   786.7  801.3  807.6  816.6  818.4  822.8  826.9  831.0  834.5  846.5
   853.1  897.0  914.8  916.6  929.2  940.0  944.1  955.9  962.9  974.5
   977.8  980.1  987.2  989.0  990.3 1035.3 1041.8 1049.7 1070.2 1094.5
  1120.2 1134.4 1149.7 1155.3 1166.3 1174.9 1190.6 1201.6 1216.7 1227.9
  1231.6 1236.5 1249.9 1259.3 1279.1 1290.3 1297.7 1303.5 1311.9 1327.7
  1337.2 1360.2 1363.0 1371.4 1372.1 1384.0 1392.5 1393.7 1398.1 1398.3
  1401.2 1412.5 1427.4 1440.4 1461.7 1462.7 1474.8 1481.8 1483.7 1484.3
  1485.8 1496.6 1506.5 1523.6 1547.0 1556.2 1568.5 1576.0 1589.1 1610.2
  1616.5 1620.8 1634.6 1670.8 1686.3 1723.2 1801.4 1824.1 3007.9 3030.5
  3035.0 3044.8 3087.8 3091.0 3110.0 3118.5 3132.0 3141.8 3142.1 3159.3
  3166.9 3194.1 3194.7 3199.5 3200.4 3209.7 3210.1 3226.2 3226.5 3251.4
 recalc symmetries=
                                                                       
                                                                       
                                                                       
                                                                       
                                                                       
                                                                       
                                                                       
                                                                       
                                                                       
                                                                       
                                                                       
                                                                       
                                                                       
                                                                       
                                                                       
                                                                       
                                                                       
                                                                       
 recalc freqs check OK
 Zero-point lengths:
 10.0000 10.0000 10.0000 10.0000 10.0000 10.0000 74.3361 51.8508 46.0577 35.1706
 33.6422 32.4956 28.9217 28.3343 26.4219 25.2555 24.4590 23.5360 19.5349 19.3313
 19.0738 18.5602 18.0227 17.7694 17.0169 16.4127 16.1706 16.0499 15.9681 15.4682
 15.2870 14.7372 14.4285 14.3673 14.0598 13.4474 13.0142 12.5501 12.4821 12.3570
 12.1739 12.1302 11.8837 11.7854 11.6691 11.6453 11.6360 11.4135 11.1615 11.0931
 11.0765 10.9317 10.9107 10.6882 10.5388 10.3032 10.2769 10.2019  9.9291  9.9124
  9.7852  9.6315  9.5858  9.2937  9.2652  9.1819  9.0670  9.0073  8.9535  8.9184
  8.8388  8.7577  8.7234  8.6756  8.6657  8.6425  8.6214  8.6002  8.5819  8.5211
  8.4880  8.2774  8.1966  8.1883  8.1330  8.0859  8.0683  8.0184  7.9891  7.9415
  7.9281  7.9189  7.8904  7.8831  7.8780  7.7047  7.6806  7.6517  7.5780  7.4934
  7.4072  7.3605  7.3113  7.2937  7.2591  7.2328  7.1847  7.1517  7.1073  7.0747
  7.0641  7.0502  7.0122  6.9861  6.9318  6.9015  6.8820  6.8665  6.8447  6.8037
  6.7795  6.7218  6.7150  6.6943  6.6928  6.6638  6.6436  6.6407  6.6302  6.6298
  6.6228  6.5962  6.5619  6.5321  6.4844  6.4821  6.4555  6.4402  6.4361  6.4348
  6.4316  6.4083  6.3871  6.3513  6.3031  6.2845  6.2597  6.2448  6.2190  6.1781
  6.1661  6.1579  6.1319  6.0651  6.0371  5.9721  5.8411  5.8045  4.5203  4.5034
  4.5000  4.4928  4.4614  4.4591  4.4454  4.4394  4.4298  4.4229  4.4227  4.4106
  4.4054  4.3865  4.3861  4.3828  4.3822  4.3759  4.3756  4.3647  4.3645  4.3477
 highest evec of mol 1
  0.0004  0.0003  0.0014
  0.0012 -0.0007 -0.0047
 -0.0045 -0.0017 -0.0085
  0.0717 -0.0390 -0.2749
  0.0113 -0.0004 -0.0072
  0.0017 -0.0002 -0.0020
 -0.0007 -0.0001 -0.0006
 -0.0002 -0.0000 -0.0002
  0.0004  0.0000 -0.0002
 -0.0000 -0.0000 -0.0001
  0.0001 -0.0000 -0.0001
 -0.0001 -0.0000  0.0000
  0.0001  0.0000 -0.0000
 -0.0000 -0.0000 -0.0000
  0.0000  0.0000 -0.0000
 -0.0000 -0.0000  0.0000
  0.0000 -0.0000 -0.0000
 -0.0000 -0.0000 -0.0000
  0.0000  0.0000  0.0000
 -0.0000  0.0000  0.0000
 -0.0000 -0.0000 -0.0000
 -0.0000  0.0000 -0.0000
 -0.0001 -0.0000 -0.0000
  0.0000 -0.0000 -0.0000
  0.0001  0.0000  0.0000
 -0.0001 -0.0000  0.0000
  0.0001  0.0000  0.0000
 -0.0002 -0.0000 -0.0000
  0.0002  0.0000  0.0000
 -0.0002 -0.0000  0.0000
  0.0002 -0.0000 -0.0001
 -0.0006 -0.0001 -0.0003
  0.0003  0.0005  0.0032
  0.0033 -0.0003 -0.0034
  0.0001  0.0001  0.0004
 -0.0001 -0.0000  0.0000
  0.0000  0.0000  0.0001
 -0.0000 -0.0000  0.0000
 -0.0001 -0.0009 -0.0004
 -0.0002  0.0007 -0.0007
 -0.0003 -0.0004 -0.0020
 -0.0015  0.0025  0.0164
 -0.0171  0.0064  0.0471
 -0.2563  0.1278  0.9105
 -0.0177  0.0078  0.0566
 -0.0002  0.0000  0.0003
  0.0001  0.0000  0.0001
 -0.0000  0.0000  0.0001
 -0.0000 -0.0000 -0.0000
  0.0000 -0.0000 -0.0000
 -0.0000  0.0000  0.0000
 -0.0000 -0.0000  0.0000
  0.0000  0.0000 -0.0000
 -0.0000 -0.0000  0.0000
  0.0000 -0.0000 -0.0000
 -0.0000  0.0000 -0.0000
  0.0001 -0.0000 -0.0001
 -0.0001 -0.0000 -0.0001
  0.0003 -0.0000 -0.0004
  0.0001  0.0000  0.0002
 generating redundant internal coords
         300        3600          60
 Adding extra bonds for z output only
           6           6           6           6           6           7
           6           8           6           6           6           6
           6           6           6           6           6           8
           7           6           6           6           6           8
           6           6           6           6           6           6
           6           6           6           8           6           6
           6           6           1           1           1           1
           1           1           1           1           1           1
           1           1           1           1           1           1
           1           1           1           1           1           1
 search for int coords
   1 str   2   1   1.481
   2 str   3   2   1.374
   3 str   4   3   1.410
   4 str   5   4   1.391
   5 str   6   5   1.352
   6 str   7   6   1.500
   7 str   8   7   1.212
   8 str   9   7   1.433
   9 str  10   9   1.410
  10 str  11  10   1.369
  11 str  12  11   1.420
  12 str  13  12   1.445
  13 str  14  13   1.413
  14 str  15  14   1.383
  15 str  16  15   1.395
  16 str  17  16   1.472
  17 str  18  17   1.225
  18 str  19  17   1.404
  19 str  20  19   1.494
  20 str  21  20   1.533
  21 str  22  20   1.533
  22 str  23  19   1.411
  23 str  24  23   1.224
  24 str  25  23   1.472
  25 str  26  25   1.394
  26 str  27  26   1.383
  27 str  28  27   1.412
  28 str  29  28   1.448
  29 str  30  29   1.417
  30 str  31  30   1.371
  31 str  32  31   1.407
  32 str  33   6   1.467
  33 str  33  32   1.445
  34 str  34  33   1.214
  35 str  35   9   1.418
  36 str  35  32   1.414
  37 str  36  12   1.430
  38 str  36  29   1.429
  39 str  36  35   1.444
  40 str  37  13   1.428
  41 str  37  28   1.426
  42 str  38  16   1.411
  43 str  38  25   1.411
  44 str  38  37   1.433
  45 str  39   1   1.097
  46 str  40   1   1.097
  47 str  41   1   1.090
  48 str  42   2   1.087
  49 str  43   3   1.088
  50 str  44   4   1.078
  51 str  45   5   1.086
  52 str  46  10   1.082
  53 str  47  11   1.080
  54 str  48  14   1.081
  55 str  49  15   1.083
  56 str  50  20   1.088
  57 str  51  21   1.089
  58 str  52  21   1.093
  59 str  53  21   1.094
  60 str  54  22   1.089
  61 str  55  22   1.094
  62 str  56  22   1.093
  63 str  57  26   1.083
  64 str  58  27   1.081
  65 str  59  30   1.080
  66 str  60  31   1.082
 nber stretches=          66
  67 ben   1   2   3
  68 prop tor   1   2   3   4
  69 prop tor   1   2   3  43
  70 ben   1   2  42
  71 ben   2   1  39
  72 ben   2   1  40
  73 ben   2   1  41
  74 ben   2   3   4
  75 prop tor   2   3   4   5
  76 prop tor   2   3   4  44
  77 ben   2   3  43
  78 ben   3   2  42
  79 ben   3   4   5
  80 prop tor   3   4   5   6
  81 prop tor   3   4   5  45
  82 ben   3   4  44
  83 ben   4   3  43
  84 ben   4   5   6
  85 prop tor   4   5   6   7
  86 prop tor   4   5   6  33
  87 ben   4   5  45
  88 ben   5   4  44
  89 ben   5   6   7
  90 prop tor   5   6   7   8
  91 prop tor   5   6   7   9
  92 ben   5   6  33
  93 prop tor   5   6  33  32
  94 prop tor   5   6  33  34
  95 ben   6   5  45
  96 ben   6   7   8
  97 ben   6   7   9
  98 prop tor   6   7   9  10
  99 prop tor   6   7   9  35
 100 ben   6  33  32
 101 ben   6  33  34
 102 ben   7   6  33
 103 prop tor   7   6  33  32
 104 prop tor   7   6  33  34
 105 ben   7   9  10
 106 prop tor   7   9  10  11
 107 prop tor   7   9  10  46
 108 ben   7   9  35
 109 prop tor   7   9  35  32
 110 prop tor   7   9  35  36
 111 ben   8   7   9
 112 prop tor   8   7   9  10
 113 prop tor   8   7   9  35
 114 ben   9  10  11
 115 prop tor   9  10  11  12
 116 prop tor   9  10  11  47
 117 ben   9  10  46
 118 ben   9  35  32
 119 ben   9  35  36
 120 prop tor   9  35  36  12
 121 prop tor   9  35  36  29
 122 ben  10   9  35
 123 prop tor  10   9  35  32
 124 prop tor  10   9  35  36
 125 ben  10  11  12
 126 prop tor  10  11  12  13
 127 prop tor  10  11  12  36
 128 ben  10  11  47
 129 ben  11  10  46
 130 ben  11  12  13
 131 prop tor  11  12  13  14
 132 prop tor  11  12  13  37
 133 ben  11  12  36
 134 prop tor  11  12  36  29
 135 prop tor  11  12  36  35
 136 ben  12  11  47
 137 ben  12  13  14
 138 prop tor  12  13  14  15
 139 prop tor  12  13  14  48
 140 ben  12  13  37
 141 prop tor  12  13  37  28
 142 prop tor  12  13  37  38
 143 ben  12  36  29
 144 ben  12  36  35
 145 ben  13  12  36
 146 prop tor  13  12  36  29
 147 prop tor  13  12  36  35
 148 ben  13  14  15
 149 prop tor  13  14  15  16
 150 prop tor  13  14  15  49
 151 ben  13  14  48
 152 ben  13  37  28
 153 ben  13  37  38
 154 prop tor  13  37  38  16
 155 prop tor  13  37  38  25
 156 ben  14  13  37
 157 prop tor  14  13  37  28
 158 prop tor  14  13  37  38
 159 ben  14  15  16
 160 prop tor  14  15  16  17
 161 prop tor  14  15  16  38
 162 ben  14  15  49
 163 ben  15  14  48
 164 ben  15  16  17
 165 prop tor  15  16  17  18
 166 prop tor  15  16  17  19
 167 ben  15  16  38
 168 prop tor  15  16  38  25
 169 prop tor  15  16  38  37
 170 ben  16  15  49
 171 ben  16  17  18
 172 ben  16  17  19
 173 prop tor  16  17  19  20
 174 prop tor  16  17  19  23
 175 ben  16  38  25
 176 ben  16  38  37
 177 ben  17  16  38
 178 prop tor  17  16  38  25
 179 prop tor  17  16  38  37
 180 ben  17  19  20
 181 prop tor  17  19  20  21
 182 prop tor  17  19  20  22
 183 prop tor  17  19  20  50
 184 ben  17  19  23
 185 prop tor  17  19  23  24
 186 prop tor  17  19  23  25
 187 ben  18  17  19
 188 prop tor  18  17  19  20
 189 prop tor  18  17  19  23
 190 ben  19  20  21
 191 prop tor  19  20  21  51
 192 prop tor  19  20  21  52
 193 prop tor  19  20  21  53
 194 ben  19  20  22
 195 prop tor  19  20  22  54
 196 prop tor  19  20  22  55
 197 prop tor  19  20  22  56
 198 ben  19  20  50
 199 ben  19  23  24
 200 ben  19  23  25
 201 prop tor  19  23  25  26
 202 prop tor  19  23  25  38
 203 ben  20  19  23
 204 prop tor  20  19  23  24
 205 prop tor  20  19  23  25
 206 ben  20  21  51
 207 ben  20  21  52
 208 ben  20  21  53
 209 ben  20  22  54
 210 ben  20  22  55
 211 ben  20  22  56
 212 ben  21  20  22
 213 prop tor  21  20  22  54
 214 prop tor  21  20  22  55
 215 prop tor  21  20  22  56
 216 ben  21  20  50
 217 prop tor  22  20  21  51
 218 prop tor  22  20  21  52
 219 prop tor  22  20  21  53
 220 ben  22  20  50
 221 prop tor  23  19  20  21
 222 prop tor  23  19  20  22
 223 prop tor  23  19  20  50
 224 ben  23  25  26
 225 prop tor  23  25  26  27
 226 prop tor  23  25  26  57
 227 ben  23  25  38
 228 prop tor  23  25  38  16
 229 prop tor  23  25  38  37
 230 ben  24  23  25
 231 prop tor  24  23  25  26
 232 prop tor  24  23  25  38
 233 ben  25  26  27
 234 prop tor  25  26  27  28
 235 prop tor  25  26  27  58
 236 ben  25  26  57
 237 ben  25  38  37
 238 ben  26  25  38
 239 prop tor  26  25  38  16
 240 prop tor  26  25  38  37
 241 ben  26  27  28
 242 prop tor  26  27  28  29
 243 prop tor  26  27  28  37
 244 ben  26  27  58
 245 ben  27  26  57
 246 ben  27  28  29
 247 prop tor  27  28  29  30
 248 prop tor  27  28  29  36
 249 ben  27  28  37
 250 prop tor  27  28  37  13
 251 prop tor  27  28  37  38
 252 ben  28  27  58
 253 ben  28  29  30
 254 prop tor  28  29  30  31
 255 prop tor  28  29  30  59
 256 ben  28  29  36
 257 prop tor  28  29  36  12
 258 prop tor  28  29  36  35
 259 ben  28  37  38
 260 prop tor  28  37  38  16
 261 prop tor  28  37  38  25
 262 ben  29  28  37
 263 prop tor  29  28  37  13
 264 prop tor  29  28  37  38
 265 ben  29  30  31
 266 prop tor  29  30  31  32
 267 prop tor  29  30  31  60
 268 ben  29  30  59
 269 ben  29  36  35
 270 ben  30  29  36
 271 prop tor  30  29  36  12
 272 prop tor  30  29  36  35
 273 ben  30  31  32
 274 prop tor  30  31  32  33
 275 prop tor  30  31  32  35
 276 ben  30  31  60
 277 ben  31  30  59
 278 ben  31  32  33
 279 prop tor  31  32  33   6
 280 prop tor  31  32  33  34
 281 ben  31  32  35
 282 prop tor  31  32  35   9
 283 prop tor  31  32  35  36
 284 ben  32  31  60
 285 ben  32  33  34
 286 ben  32  35  36
 287 prop tor  32  35  36  12
 288 prop tor  32  35  36  29
 289 prop tor  33   6   7   8
 290 prop tor  33   6   7   9
 291 ben  33  32  35
 292 prop tor  33  32  35   9
 293 prop tor  33  32  35  36
 294 prop tor  35   9  10  11
 295 prop tor  35   9  10  46
 296 prop tor  35  32  33   6
 297 prop tor  35  32  33  34
 298 prop tor  36  12  13  14
 299 prop tor  36  12  13  37
 300 prop tor  36  29  30  31
 301 prop tor  36  29  30  59
 302 prop tor  37  13  14  15
 303 prop tor  37  13  14  48
 304 prop tor  37  28  29  30
 305 prop tor  37  28  29  36
 306 prop tor  38  16  17  18
 307 prop tor  38  16  17  19
 308 prop tor  38  25  26  27
 309 prop tor  38  25  26  57
 310 prop tor  39   1   2   3
 311 prop tor  39   1   2  42
 312 ben  39   1  40
 313 ben  39   1  41
 314 prop tor  40   1   2   3
 315 prop tor  40   1   2  42
 316 ben  40   1  41
 317 prop tor  41   1   2   3
 318 prop tor  41   1   2  42
 319 prop tor  42   2   3   4
 320 prop tor  42   2   3  43
 321 prop tor  43   3   4   5
 322 prop tor  43   3   4  44
 323 prop tor  44   4   5   6
 324 prop tor  44   4   5  45
 325 prop tor  45   5   6   7
 326 prop tor  45   5   6  33
 327 prop tor  46  10  11  12
 328 prop tor  46  10  11  47
 329 prop tor  47  11  12  13
 330 prop tor  47  11  12  36
 331 prop tor  48  14  15  16
 332 prop tor  48  14  15  49
 333 prop tor  49  15  16  17
 334 prop tor  49  15  16  38
 335 prop tor  50  20  21  51
 336 prop tor  50  20  21  52
 337 prop tor  50  20  21  53
 338 prop tor  50  20  22  54
 339 prop tor  50  20  22  55
 340 prop tor  50  20  22  56
 341 ben  51  21  52
 342 ben  51  21  53
 343 ben  52  21  53
 344 ben  54  22  55
 345 ben  54  22  56
 346 ben  55  22  56
 347 prop tor  57  26  27  28
 348 prop tor  57  26  27  58
 349 prop tor  58  27  28  29
 350 prop tor  58  27  28  37
 351 prop tor  59  30  31  32
 352 prop tor  59  30  31  60
 353 prop tor  60  31  32  33
 354 prop tor  60  31  32  35
 nber bend=             114
 nber lin bend=           0
 nber prop tor=         174
 nber impr tor=           0
 nber tot redund int=         354
 Reading file: 
 ./PDI_5_C-1S0.log                                                              
                                          
  Entering Gaussian System, Link 0=g16                                          
  
 Gaussian format, type: g94, g98, g03= F F F
  #P Geom=AllCheck Guess=TCheck SCRF=Check GenChk UB3LYP/6-311G(d,p) Fre    
 energy type= B3LYP   
 Original G94 input coords:
  6  0.629468 -0.664820 -0.394743
  6  2.078735 -0.975291 -0.165222
  6  3.085292 -0.584206 -0.961626
  6  4.487051 -0.885555 -0.737725
  6  5.422428 -0.444231 -1.600487
  7  6.822608 -0.610187 -1.588859
  6  7.510398  0.011601 -2.690341
  8  6.872276  0.622534 -3.539813
  6  8.957320 -0.128153 -2.725913
  6  9.672713  0.460148 -3.778067
  6 11.044293  0.351804 -3.849151
  6 11.790628 -0.351972 -2.873140
  6 13.231013 -0.471690 -2.938124
  6 13.993779  0.106600 -3.980338
  6 15.367197 -0.014445 -4.031755
  6 16.063450 -0.720953 -3.045367
  6 17.520132 -0.829322 -3.131943
  8 18.170159 -0.320140 -4.044086
  7 18.168253 -1.552369 -2.113718
  6 19.648945 -1.693572 -2.156258
  6 20.115262 -2.488458 -3.382052
  6 20.359278 -0.342353 -2.009760
  6 17.502766 -2.168690 -1.027185
  8 18.137864 -2.783760 -0.173525
  6 16.047347 -2.032820 -0.982593
  6 15.334625 -2.621195  0.067786
  6 13.961105 -2.512720  0.140162
  6 13.214753 -1.808738 -0.834085
  6 11.773703 -1.688023 -0.769019
  6 11.011666 -2.265463  0.274067
  6  9.639469 -2.144254  0.326037
  6  8.940950 -1.438084 -0.661449
  6  7.487243 -1.337455 -0.562310
  8  6.850328 -1.846938  0.352494
  6  9.654795 -0.842479 -1.724827
  6 11.084822 -0.961798 -1.789566
  6 13.919656 -1.198556 -1.917407
  6 15.349129 -1.317959 -1.982105
  1  0.199415 -0.102492  0.443834
  1  0.031404 -1.579656 -0.493500
  1  0.487543 -0.072468 -1.302788
  1  2.315035 -1.563976  0.719908
  1  2.848143  0.005412 -1.848116
  1  4.758959 -1.466866  0.129580
  1  5.125633  0.136981 -2.463208
  1  9.116031  1.001851 -4.532592
  1 11.553724  0.821965 -4.678946
  1 13.498071  0.661813 -4.764733
  1 15.938270  0.433695 -4.835554
  1 19.865502 -2.285454 -1.269120
  1 19.926138 -1.941386 -4.304774
  1 19.600327 -3.451807 -3.430151
  1 21.189036 -2.685469 -3.298963
  1 20.180189  0.295353 -2.874486
  1 21.436596 -0.508520 -1.907321
  1 20.012890  0.174932 -1.110909
  1 15.892494 -3.163549  0.821153
  1 13.452397 -2.983732  0.969990
  1 11.507723 -2.819927  1.058730
  1  9.069768 -2.591776  1.130870
 nber atoms=          60
  SCF Done:  E(UB3LYP) =  -1643.66277561     A.U. after    1 cycles             
  
          23          40 "  -1643.66277561"
After scan for Atom:   Atom  AN      X      Y      Z        X      Y      Z        X      Y      Z   
After scan for Atom:   Atom  AN      X      Y      Z        X      Y      Z        X      Y      Z   
After scan for Atom:   Atom  AN      X      Y      Z        X      Y      Z        X      Y      Z   
After scan for Atom:   Atom  AN      X      Y      Z        X      Y      Z        X      Y      Z   
After scan for Atom:   Atom  AN      X      Y      Z        X      Y      Z        X      Y      Z   
After scan for Atom:   Atom  AN      X      Y      Z        X      Y      Z        X      Y      Z   
After scan for Atom:   Atom  AN      X      Y      Z        X      Y      Z        X      Y      Z   
After scan for Atom:   Atom  AN      X      Y      Z        X      Y      Z        X      Y      Z   
After scan for Atom:   Atom  AN      X      Y      Z        X      Y      Z        X      Y      Z   
After scan for Atom:   Atom  AN      X      Y      Z        X      Y      Z        X      Y      Z   
After scan for Atom:   Atom  AN      X      Y      Z        X      Y      Z        X      Y      Z   
After scan for Atom:   Atom  AN      X      Y      Z        X      Y      Z        X      Y      Z   
After scan for Atom:   Atom  AN      X      Y      Z        X      Y      Z        X      Y      Z   
After scan for Atom:   Atom  AN      X      Y      Z        X      Y      Z        X      Y      Z   
After scan for Atom:   Atom  AN      X      Y      Z        X      Y      Z        X      Y      Z   
After scan for Atom:   Atom  AN      X      Y      Z        X      Y      Z        X      Y      Z   
After scan for Atom:   Atom  AN      X      Y      Z        X      Y      Z        X      Y      Z   
After scan for Atom:   Atom  AN      X      Y      Z        X      Y      Z        X      Y      Z   
After scan for Atom:   Atom  AN      X      Y      Z        X      Y      Z        X      Y      Z   
After scan for Atom:   Atom  AN      X      Y      Z        X      Y      Z        X      Y      Z   
After scan for Atom:   Atom  AN      X      Y      Z        X      Y      Z        X      Y      Z   
After scan for Atom:   Atom  AN      X      Y      Z        X      Y      Z        X      Y      Z   
After scan for Atom:   Atom  AN      X      Y      Z        X      Y      Z        X      Y      Z   
After scan for Atom:   Atom  AN      X      Y      Z        X      Y      Z        X      Y      Z   
After scan for Atom:   Atom  AN      X      Y      Z        X      Y      Z        X      Y      Z   
After scan for Atom:   Atom  AN      X      Y      Z        X      Y      Z        X      Y      Z   
After scan for Atom:   Atom  AN      X      Y      Z        X      Y      Z        X      Y      Z   
After scan for Atom:   Atom  AN      X      Y      Z        X      Y      Z        X      Y      Z   
After scan for Atom:   Atom  AN      X      Y      Z        X      Y      Z        X      Y      Z   
After scan for Atom:   Atom  AN      X      Y      Z        X      Y      Z        X      Y      Z   
After scan for Atom:   Atom  AN      X      Y      Z        X      Y      Z        X      Y      Z   
After scan for Atom:   Atom  AN      X      Y      Z        X      Y      Z        X      Y      Z   
After scan for Atom:   Atom  AN      X      Y      Z        X      Y      Z        X      Y      Z   
After scan for Atom:   Atom  AN      X      Y      Z        X      Y      Z        X      Y      Z   
After scan for Atom:   Atom  AN      X      Y      Z        X      Y      Z        X      Y      Z   
After scan for Atom:   Atom  AN      X      Y      Z        X      Y      Z        X      Y      Z   
After scan for Atom:   Atom  AN      X      Y      Z        X      Y      Z        X      Y      Z   
After scan for Atom:   Atom  AN      X      Y      Z        X      Y      Z        X      Y      Z   
After scan for Atom:   Atom  AN      X      Y      Z        X      Y      Z        X      Y      Z   
After scan for Atom:   Atom  AN      X      Y      Z        X      Y      Z        X      Y      Z   
After scan for Atom:   Atom  AN      X      Y      Z        X      Y      Z        X      Y      Z   
After scan for Atom:   Atom  AN      X      Y      Z        X      Y      Z        X      Y      Z   
After scan for Atom:   Atom  AN      X      Y      Z        X      Y      Z        X      Y      Z   
After scan for Atom:   Atom  AN      X      Y      Z        X      Y      Z        X      Y      Z   
After scan for Atom:   Atom  AN      X      Y      Z        X      Y      Z        X      Y      Z   
After scan for Atom:   Atom  AN      X      Y      Z        X      Y      Z        X      Y      Z   
After scan for Atom:   Atom  AN      X      Y      Z        X      Y      Z        X      Y      Z   
After scan for Atom:   Atom  AN      X      Y      Z        X      Y      Z        X      Y      Z   
After scan for Atom:   Atom  AN      X      Y      Z        X      Y      Z        X      Y      Z   
After scan for Atom:   Atom  AN      X      Y      Z        X      Y      Z        X      Y      Z   
After scan for Atom:   Atom  AN      X      Y      Z        X      Y      Z        X      Y      Z   
After scan for Atom:   Atom  AN      X      Y      Z        X      Y      Z        X      Y      Z   
After scan for Atom:   Atom  AN      X      Y      Z        X      Y      Z        X      Y      Z   
After scan for Atom:   Atom  AN      X      Y      Z        X      Y      Z        X      Y      Z   
After scan for Atom:   Atom  AN      X      Y      Z        X      Y      Z        X      Y      Z   
After scan for Atom:   Atom  AN      X      Y      Z        X      Y      Z        X      Y      Z   
After scan for Atom:   Atom  AN      X      Y      Z        X      Y      Z        X      Y      Z   
After scan for Atom:   Atom  AN      X      Y      Z        X      Y      Z        X      Y      Z   
 g94    frequencies=
     0.0    0.0    0.0    0.0    0.0    0.0   13.7   25.3   31.3   49.3
    56.3   60.1   69.8   85.5   90.1   94.9  107.5  110.9  164.0  166.0
   171.4  189.0  189.8  197.0  212.0  226.7  234.9  237.6  242.6  263.2
   264.2  272.9  298.1  300.5  310.6  342.3  362.4  393.2  401.5  410.0
   417.7  424.8  436.4  445.1  445.9  454.2  466.3  477.0  495.3  504.4
   507.9  513.1  516.6  538.5  555.6  579.8  582.5  588.9  622.8  624.7
   645.8  652.4  663.8  712.5  720.6  730.4  744.4  747.3  750.3  764.3
   773.2  792.3  803.7  807.5  809.2  813.3  816.7  824.9  827.3  829.6
   847.7  902.4  907.7  923.5  939.7  941.9  953.7  960.1  964.2  967.8
   974.7  977.0  980.7  980.9 1026.9 1041.0 1060.5 1066.8 1077.4 1088.7
  1096.6 1123.7 1144.9 1154.1 1159.2 1173.5 1183.5 1189.8 1195.2 1199.2
  1223.6 1232.5 1235.8 1244.8 1254.0 1283.5 1295.3 1303.4 1314.7 1327.0
  1333.4 1343.5 1355.5 1363.5 1370.2 1383.0 1388.4 1391.1 1392.7 1396.5
  1406.2 1411.3 1422.2 1435.9 1464.2 1468.7 1473.9 1479.2 1482.4 1483.1
  1493.6 1494.1 1507.5 1524.0 1529.1 1560.7 1571.5 1576.7 1592.2 1609.6
  1616.4 1626.9 1665.7 1666.0 1680.9 1702.3 1703.5 1721.6 2992.3 3022.2
  3025.9 3027.6 3077.4 3080.4 3083.4 3097.8 3104.2 3119.8 3129.4 3138.5
  3182.4 3182.6 3190.6 3191.0 3200.2 3200.5 3200.9 3211.9 3212.2 3236.6
 g94    symmetries=
                                                 A      A      A      A
       A      A      A      A      A      A      A      A      A      A
       A      A      A      A      A      A      A      A      A      A
       A      A      A      A      A      A      A      A      A      A
       A      A      A      A      A      A      A      A      A      A
       A      A      A      A      A      A      A      A      A      A
       A      A      A      A      A      A      A      A      A      A
       A      A      A      A      A      A      A      A      A      A
       A      A      A      A      A      A      A      A      A      A
       A      A      A      A      A      A      A      A      A      A
       A      A      A      A      A      A      A      A      A      A
       A      A      A      A      A      A      A      A      A      A
       A      A      A      A      A      A      A      A      A      A
       A      A      A      A      A      A      A      A      A      A
       A      A      A      A      A      A      A      A      A      A
       A      A      A      A      A      A      A      A      A      A
       A      A      A      A      A      A      A      A      A      A
       A      A      A      A      A      A      A      A      A      A
 atomic masses:
 12.0000 12.0000 12.0000 12.0000 12.0000 14.0031 12.0000 15.9949 12.0000 12.0000
 12.0000 12.0000 12.0000 12.0000 12.0000 12.0000 12.0000 15.9949 14.0031 12.0000
 12.0000 12.0000 12.0000 15.9949 12.0000 12.0000 12.0000 12.0000 12.0000 12.0000
 12.0000 12.0000 12.0000 15.9949 12.0000 12.0000 12.0000 12.0000  1.0078  1.0078
  1.0078  1.0078  1.0078  1.0078  1.0078  1.0078  1.0078  1.0078  1.0078  1.0078
  1.0078  1.0078  1.0078  1.0078  1.0078  1.0078  1.0078  1.0078  1.0078  1.0078
 looking for force constants in 
 ./PDI_5_C-1S0.fchk                                                             
  
 Cartesian Force Constants                  R   N=       16290                  
  
 n3=         180       16290
 g94-fc frequencies=
    -2.3   -0.9   -0.0   -0.0    0.0    4.6   13.7   25.3   31.3   49.3
    56.3   60.1   69.8   85.5   90.1   94.9  107.5  110.9  164.0  166.0
   171.4  189.0  189.8  197.0  212.0  226.7  234.9  237.6  242.6  263.2
   264.2  272.9  298.1  300.5  310.6  342.3  362.4  393.3  401.5  410.0
   417.7  424.8  436.4  445.1  445.9  454.2  466.3  477.0  495.3  504.4
   507.9  513.1  516.6  538.5  555.6  579.8  582.6  588.9  622.8  624.7
   645.8  652.4  663.8  712.5  720.7  730.5  744.4  747.3  750.4  764.3
   773.3  792.3  803.7  807.5  809.2  813.3  816.7  824.9  827.3  829.7
   847.7  902.4  907.7  923.5  939.7  941.9  953.7  960.1  964.2  967.8
   974.8  977.1  980.7  980.9 1026.9 1041.1 1060.5 1066.8 1077.4 1088.8
  1096.6 1123.7 1144.9 1154.2 1159.2 1173.6 1183.5 1189.8 1195.3 1199.2
  1223.7 1232.5 1235.9 1244.8 1254.0 1283.5 1295.3 1303.5 1314.7 1327.1
  1333.4 1343.5 1355.5 1363.6 1370.2 1383.0 1388.4 1391.1 1392.7 1396.6
  1406.2 1411.3 1422.2 1436.0 1464.3 1468.8 1473.9 1479.3 1482.4 1483.1
  1493.6 1494.2 1507.5 1524.0 1529.2 1560.8 1571.5 1576.7 1592.3 1609.6
  1616.5 1627.0 1665.7 1666.1 1680.9 1702.3 1703.5 1721.7 2992.4 3022.2
  3026.0 3027.7 3077.5 3080.4 3083.4 3097.9 3104.3 3119.9 3129.5 3138.6
  3182.5 3182.7 3190.7 3191.1 3200.3 3200.6 3201.0 3212.0 3212.3 3236.7
 at 99999: n3=         180
 symm operator            1 :  F  nop=           0
 symm operator            2 :  F  nop=           0
 symm operator            3 :  F  nop=           0
 symm operator            4 :  F  nop=           0
 symm operator            5 :  F  nop=           0
 symm operator            6 :  F  nop=           0
 symm operator            7 :  F  nop=           0
 The point group of the molecule is  C1
 Symmetry rotation matrix:
   1.00000   0.00000   0.00000
   0.00000   1.00000   0.00000
   0.00000   0.00000   1.00000

 Projecting out zero-frequency components
 generating redundant internal coords
         300        3600          60
 search for int coords
   1 str   2   1   1.500
   2 str   3   2   1.342
   3 str   4   3   1.451
   4 str   5   4   1.347
   5 str   6   5   1.410
   6 str   7   6   1.440
   7 str   8   7   1.226
   8 str   9   7   1.454
   9 str  10   9   1.402
  10 str  11  10   1.378
  11 str  12  11   1.416
  12 str  13  12   1.447
  13 str  14  13   1.415
  14 str  15  14   1.380
  15 str  16  15   1.399
  16 str  17  16   1.463
  17 str  18  17   1.230
  18 str  19  17   1.407
  19 str  20  19   1.488
  20 str  21  20   1.534
  21 str  22  20   1.534
  22 str  23  19   1.415
  23 str  24  23   1.229
  24 str  25  23   1.462
  25 str  26  25   1.399
  26 str  27  26   1.380
  27 str  28  27   1.415
  28 str  29  28   1.448
  29 str  30  29   1.415
  30 str  31  30   1.379
  31 str  32  31   1.401
  32 str  33   6   1.423
  33 str  33  32   1.461
  34 str  34  33   1.226
  35 str  35   9   1.414
  36 str  35  32   1.412
  37 str  36  12   1.430
  38 str  36  29   1.430
  39 str  36  35   1.436
  40 str  37  13   1.430
  41 str  37  28   1.429
  42 str  38  16   1.413
  43 str  38  25   1.413
  44 str  38  37   1.436
  45 str  39   1   1.097
  46 str  40   1   1.097
  47 str  41   1   1.093
  48 str  42   2   1.089
  49 str  43   3   1.091
  50 str  44   4   1.079
  51 str  45   5   1.082
  52 str  46  10   1.083
  53 str  47  11   1.081
  54 str  48  14   1.081
  55 str  49  15   1.083
  56 str  50  20   1.088
  57 str  51  21   1.089
  58 str  52  21   1.093
  59 str  53  21   1.095
  60 str  54  22   1.089
  61 str  55  22   1.095
  62 str  56  22   1.093
  63 str  57  26   1.083
  64 str  58  27   1.081
  65 str  59  30   1.081
  66 str  60  31   1.083
 nber stretches=          66
  67 ben   1   2   3
  68 prop tor   1   2   3   4
  69 prop tor   1   2   3  43
  70 ben   1   2  42
  71 ben   2   1  39
  72 ben   2   1  40
  73 ben   2   1  41
  74 ben   2   3   4
  75 prop tor   2   3   4   5
  76 prop tor   2   3   4  44
  77 ben   2   3  43
  78 ben   3   2  42
  79 ben   3   4   5
  80 prop tor   3   4   5   6
  81 prop tor   3   4   5  45
  82 ben   3   4  44
  83 ben   4   3  43
  84 ben   4   5   6
  85 prop tor   4   5   6   7
  86 prop tor   4   5   6  33
  87 ben   4   5  45
  88 ben   5   4  44
  89 ben   5   6   7
  90 prop tor   5   6   7   8
  91 prop tor   5   6   7   9
  92 ben   5   6  33
  93 prop tor   5   6  33  32
  94 prop tor   5   6  33  34
  95 ben   6   5  45
  96 ben   6   7   8
  97 ben   6   7   9
  98 prop tor   6   7   9  10
  99 prop tor   6   7   9  35
 100 ben   6  33  32
 101 ben   6  33  34
 102 ben   7   6  33
 103 prop tor   7   6  33  32
 104 prop tor   7   6  33  34
 105 ben   7   9  10
 106 prop tor   7   9  10  11
 107 prop tor   7   9  10  46
 108 ben   7   9  35
 109 prop tor   7   9  35  32
 110 prop tor   7   9  35  36
 111 ben   8   7   9
 112 prop tor   8   7   9  10
 113 prop tor   8   7   9  35
 114 ben   9  10  11
 115 prop tor   9  10  11  12
 116 prop tor   9  10  11  47
 117 ben   9  10  46
 118 ben   9  35  32
 119 ben   9  35  36
 120 prop tor   9  35  36  12
 121 prop tor   9  35  36  29
 122 ben  10   9  35
 123 prop tor  10   9  35  32
 124 prop tor  10   9  35  36
 125 ben  10  11  12
 126 prop tor  10  11  12  13
 127 prop tor  10  11  12  36
 128 ben  10  11  47
 129 ben  11  10  46
 130 ben  11  12  13
 131 prop tor  11  12  13  14
 132 prop tor  11  12  13  37
 133 ben  11  12  36
 134 prop tor  11  12  36  29
 135 prop tor  11  12  36  35
 136 ben  12  11  47
 137 ben  12  13  14
 138 prop tor  12  13  14  15
 139 prop tor  12  13  14  48
 140 ben  12  13  37
 141 prop tor  12  13  37  28
 142 prop tor  12  13  37  38
 143 ben  12  36  29
 144 ben  12  36  35
 145 ben  13  12  36
 146 prop tor  13  12  36  29
 147 prop tor  13  12  36  35
 148 ben  13  14  15
 149 prop tor  13  14  15  16
 150 prop tor  13  14  15  49
 151 ben  13  14  48
 152 ben  13  37  28
 153 ben  13  37  38
 154 prop tor  13  37  38  16
 155 prop tor  13  37  38  25
 156 ben  14  13  37
 157 prop tor  14  13  37  28
 158 prop tor  14  13  37  38
 159 ben  14  15  16
 160 prop tor  14  15  16  17
 161 prop tor  14  15  16  38
 162 ben  14  15  49
 163 ben  15  14  48
 164 ben  15  16  17
 165 prop tor  15  16  17  18
 166 prop tor  15  16  17  19
 167 ben  15  16  38
 168 prop tor  15  16  38  25
 169 prop tor  15  16  38  37
 170 ben  16  15  49
 171 ben  16  17  18
 172 ben  16  17  19
 173 prop tor  16  17  19  20
 174 prop tor  16  17  19  23
 175 ben  16  38  25
 176 ben  16  38  37
 177 ben  17  16  38
 178 prop tor  17  16  38  25
 179 prop tor  17  16  38  37
 180 ben  17  19  20
 181 prop tor  17  19  20  21
 182 prop tor  17  19  20  22
 183 prop tor  17  19  20  50
 184 ben  17  19  23
 185 prop tor  17  19  23  24
 186 prop tor  17  19  23  25
 187 ben  18  17  19
 188 prop tor  18  17  19  20
 189 prop tor  18  17  19  23
 190 ben  19  20  21
 191 prop tor  19  20  21  51
 192 prop tor  19  20  21  52
 193 prop tor  19  20  21  53
 194 ben  19  20  22
 195 prop tor  19  20  22  54
 196 prop tor  19  20  22  55
 197 prop tor  19  20  22  56
 198 ben  19  20  50
 199 ben  19  23  24
 200 ben  19  23  25
 201 prop tor  19  23  25  26
 202 prop tor  19  23  25  38
 203 ben  20  19  23
 204 prop tor  20  19  23  24
 205 prop tor  20  19  23  25
 206 ben  20  21  51
 207 ben  20  21  52
 208 ben  20  21  53
 209 ben  20  22  54
 210 ben  20  22  55
 211 ben  20  22  56
 212 ben  21  20  22
 213 prop tor  21  20  22  54
 214 prop tor  21  20  22  55
 215 prop tor  21  20  22  56
 216 ben  21  20  50
 217 prop tor  22  20  21  51
 218 prop tor  22  20  21  52
 219 prop tor  22  20  21  53
 220 ben  22  20  50
 221 prop tor  23  19  20  21
 222 prop tor  23  19  20  22
 223 prop tor  23  19  20  50
 224 ben  23  25  26
 225 prop tor  23  25  26  27
 226 prop tor  23  25  26  57
 227 ben  23  25  38
 228 prop tor  23  25  38  16
 229 prop tor  23  25  38  37
 230 ben  24  23  25
 231 prop tor  24  23  25  26
 232 prop tor  24  23  25  38
 233 ben  25  26  27
 234 prop tor  25  26  27  28
 235 prop tor  25  26  27  58
 236 ben  25  26  57
 237 ben  25  38  37
 238 ben  26  25  38
 239 prop tor  26  25  38  16
 240 prop tor  26  25  38  37
 241 ben  26  27  28
 242 prop tor  26  27  28  29
 243 prop tor  26  27  28  37
 244 ben  26  27  58
 245 ben  27  26  57
 246 ben  27  28  29
 247 prop tor  27  28  29  30
 248 prop tor  27  28  29  36
 249 ben  27  28  37
 250 prop tor  27  28  37  13
 251 prop tor  27  28  37  38
 252 ben  28  27  58
 253 ben  28  29  30
 254 prop tor  28  29  30  31
 255 prop tor  28  29  30  59
 256 ben  28  29  36
 257 prop tor  28  29  36  12
 258 prop tor  28  29  36  35
 259 ben  28  37  38
 260 prop tor  28  37  38  16
 261 prop tor  28  37  38  25
 262 ben  29  28  37
 263 prop tor  29  28  37  13
 264 prop tor  29  28  37  38
 265 ben  29  30  31
 266 prop tor  29  30  31  32
 267 prop tor  29  30  31  60
 268 ben  29  30  59
 269 ben  29  36  35
 270 ben  30  29  36
 271 prop tor  30  29  36  12
 272 prop tor  30  29  36  35
 273 ben  30  31  32
 274 prop tor  30  31  32  33
 275 prop tor  30  31  32  35
 276 ben  30  31  60
 277 ben  31  30  59
 278 ben  31  32  33
 279 prop tor  31  32  33   6
 280 prop tor  31  32  33  34
 281 ben  31  32  35
 282 prop tor  31  32  35   9
 283 prop tor  31  32  35  36
 284 ben  32  31  60
 285 ben  32  33  34
 286 ben  32  35  36
 287 prop tor  32  35  36  12
 288 prop tor  32  35  36  29
 289 prop tor  33   6   7   8
 290 prop tor  33   6   7   9
 291 ben  33  32  35
 292 prop tor  33  32  35   9
 293 prop tor  33  32  35  36
 294 prop tor  35   9  10  11
 295 prop tor  35   9  10  46
 296 prop tor  35  32  33   6
 297 prop tor  35  32  33  34
 298 prop tor  36  12  13  14
 299 prop tor  36  12  13  37
 300 prop tor  36  29  30  31
 301 prop tor  36  29  30  59
 302 prop tor  37  13  14  15
 303 prop tor  37  13  14  48
 304 prop tor  37  28  29  30
 305 prop tor  37  28  29  36
 306 prop tor  38  16  17  18
 307 prop tor  38  16  17  19
 308 prop tor  38  25  26  27
 309 prop tor  38  25  26  57
 310 prop tor  39   1   2   3
 311 prop tor  39   1   2  42
 312 ben  39   1  40
 313 ben  39   1  41
 314 prop tor  40   1   2   3
 315 prop tor  40   1   2  42
 316 ben  40   1  41
 317 prop tor  41   1   2   3
 318 prop tor  41   1   2  42
 319 prop tor  42   2   3   4
 320 prop tor  42   2   3  43
 321 prop tor  43   3   4   5
 322 prop tor  43   3   4  44
 323 prop tor  44   4   5   6
 324 prop tor  44   4   5  45
 325 prop tor  45   5   6   7
 326 prop tor  45   5   6  33
 327 prop tor  46  10  11  12
 328 prop tor  46  10  11  47
 329 prop tor  47  11  12  13
 330 prop tor  47  11  12  36
 331 prop tor  48  14  15  16
 332 prop tor  48  14  15  49
 333 prop tor  49  15  16  17
 334 prop tor  49  15  16  38
 335 prop tor  50  20  21  51
 336 prop tor  50  20  21  52
 337 prop tor  50  20  21  53
 338 prop tor  50  20  22  54
 339 prop tor  50  20  22  55
 340 prop tor  50  20  22  56
 341 ben  51  21  52
 342 ben  51  21  53
 343 ben  52  21  53
 344 ben  54  22  55
 345 ben  54  22  56
 346 ben  55  22  56
 347 prop tor  57  26  27  28
 348 prop tor  57  26  27  58
 349 prop tor  58  27  28  29
 350 prop tor  58  27  28  37
 351 prop tor  59  30  31  32
 352 prop tor  59  30  31  60
 353 prop tor  60  31  32  33
 354 prop tor  60  31  32  35
 nber bend=             114
 nber lin bend=           0
 nber prop tor=         174
 nber impr tor=           0
 nber tot redund int=         354
 Eigenvalues of G in red int coords
    Gval -0.00000000 -0.00000000 -0.00000000 -0.00000000 -0.00000000 -0.00000000 -0.00000000 -0.00000000
    Gval -0.00000000 -0.00000000 -0.00000000 -0.00000000 -0.00000000 -0.00000000 -0.00000000 -0.00000000
    Gval -0.00000000 -0.00000000 -0.00000000 -0.00000000 -0.00000000 -0.00000000 -0.00000000 -0.00000000
    Gval -0.00000000 -0.00000000 -0.00000000 -0.00000000 -0.00000000 -0.00000000 -0.00000000 -0.00000000
    Gval -0.00000000 -0.00000000 -0.00000000 -0.00000000 -0.00000000 -0.00000000 -0.00000000 -0.00000000
    Gval -0.00000000 -0.00000000 -0.00000000 -0.00000000 -0.00000000 -0.00000000 -0.00000000 -0.00000000
    Gval -0.00000000 -0.00000000 -0.00000000 -0.00000000 -0.00000000 -0.00000000 -0.00000000 -0.00000000
    Gval -0.00000000 -0.00000000 -0.00000000 -0.00000000 -0.00000000 -0.00000000 -0.00000000 -0.00000000
    Gval -0.00000000 -0.00000000 -0.00000000 -0.00000000 -0.00000000 -0.00000000 -0.00000000 -0.00000000
    Gval -0.00000000 -0.00000000 -0.00000000 -0.00000000 -0.00000000 -0.00000000 -0.00000000 -0.00000000
    Gval -0.00000000 -0.00000000 -0.00000000 -0.00000000 -0.00000000 -0.00000000 -0.00000000 -0.00000000
    Gval  0.00000000  0.00000000  0.00000000  0.00000000  0.00000000  0.00000000  0.00000000  0.00000000
    Gval  0.00000000  0.00000000  0.00000000  0.00000000  0.00000000  0.00000000  0.00000000  0.00000000
    Gval  0.00000000  0.00000000  0.00000000  0.00000000  0.00000000  0.00000000  0.00000000  0.00000000
    Gval  0.00000000  0.00000000  0.00000000  0.00000000  0.00000000  0.00000000  0.00000000  0.00000000
    Gval  0.00000000  0.00000000  0.00000000  0.00000000  0.00000000  0.00000000  0.00000000  0.00000000
[...]
 nber times 1st assigned=         136           0
 nber times 1st assigned=         137           0
 nber times 1st assigned=         138           0
 nber times 1st assigned=         139           0
 nber times 1st assigned=         140           0
 nber times 1st assigned=         141           0
 nber times 1st assigned=         142           0
 nber times 1st assigned=         143           0
 nber times 1st assigned=         144           0
 nber times 1st assigned=         145           0
 nber times 1st assigned=         146           0
 nber times 1st assigned=         147           0
 nber times 1st assigned=         148           0
 nber times 1st assigned=         149           0
 nber times 1st assigned=         150           0
 nber times 1st assigned=         151           0
 nber times 1st assigned=         152           0
 nber times 1st assigned=         153           0
 nber times 1st assigned=         154           0
 nber times 1st assigned=         155           0
 nber times 1st assigned=         156           0
 nber times 1st assigned=         157           0
 nber times 1st assigned=         158           0
 nber times 1st assigned=         159           0
 nber times 1st assigned=         160           0
 nber times 1st assigned=         161           0
 nber times 1st assigned=         162           0
 nber times 1st assigned=         163           0
 nber times 1st assigned=         164           0
 nber times 1st assigned=         165           0
 nber times 1st assigned=         166           0
 nber times 1st assigned=         167           0
 nber times 1st assigned=         168           0
 nber times 1st assigned=         169           0
 nber times 1st assigned=         170           0
 nber times 1st assigned=         171           0
 nber times 1st assigned=         172           0
 nber times 1st assigned=         173           0
 nber times 1st assigned=         174           0
 nber times 1st assigned=         175           0
 nber times 1st assigned=         176           0
 nber times 1st assigned=         177           0
 nber times 1st assigned=         178           0
 nber times 1st assigned=         179           0
 nber times 1st assigned=         180           0
 modes represented=   174.153760497602     
 p1=
   -0.    0.   -0.    0.   -0.   -0.   -1.    0.    1.    1.   -0.    0.    0.   -0.   -0.   -0.   -0.    1.    0.   14.
   -0.   -0.   -6.    0.    0.    5.   -0.   -1.    0.   -0.   -9.    0.    0.    2.   -3.   -0.    2.    0.   -2.   -1.
   -2.   -0.    4.    2.    1.    0.   -9.    0.   -5.    2.   -0.   -0.   -0.    1.   -2.    0.    1.    0.    0.    0.
    0.   -0.    0.   -1.    0.   -1.   -0.    0.   -0.   -0.   -0.    1.    0.    0.   -0.   -0.    0.   -0.    0.   -1.
   -0.    1.   -0.   -1.   -1.    1.   -0.    0.   -1.    0.    0.    0.    0.   -0.    0.    0.   -0.   -3.   -1.   -0.
   -1.    2.    0.   -0.    0.   -0.    0.   -0.    0.    0.   -3.   -0.    0.   -1.    1.   -0.   -1.   -0.    1.    3.
    1.   -2.   -0.    2.    3.   -0.    0.   -0.   -0.    0.   -1.   -0.   -1.    1.    1.    0.   -0.    1.    0.    0.
    0.   -0.    0.    0.   -1.    1.    0.   -0.   -0.    0.   -0.    1.    1.   -6.    0.   -1.    1.    1.   -0.    0.
    0.    0.    0.    0.    0.    0.   -0.   -0.    0.   -0.    0.    0.   -0.    0.   -0.    0.   -0.    0.    0.   -0.
 p2=
    0.    0.    0.   -0.   -0.   -0.   -2.   -0.   -1.    1.    0.    0.   -0.   -0.    0.    0.    0.    1.  -14.   -0.
   -0.    0.   -6.    0.   -0.   -4.    0.    1.    0.    9.    0.    0.    2.    0.    4.   -0.   -2.    2.    3.    1.
    0.    0.    2.   -0.   -2.   -0.    6.    3.   -5.    0.   -6.    0.    0.    2.   -2.    0.   -1.   -0.    0.    0.
    0.    0.    0.   -1.    0.   -1.   -0.   -0.   -0.   -0.    0.   -0.    0.   -0.   -0.    1.    0.    0.   -0.   -0.
    1.   -1.   -0.   -1.    1.   -0.    0.   -0.   -0.   -0.   -0.    0.    0.   -0.   -0.   -0.   -0.    1.    2.    1.
    0.    2.    0.   -0.    0.    0.    1.   -2.   -1.    0.    1.    1.   -2.   -0.   -0.    0.   -0.   -2.    0.    1.
    1.    5.    0.   -2.   -1.    0.    1.   -2.    0.   -0.   -0.   -1.    1.    1.   -2.    0.    0.    0.    0.    1.
    0.    1.    0.   -0.    0.    1.    0.   -0.   -0.   -0.   -0.   -1.    1.   -3.    2.   -2.   -4.    1.    0.    0.
    0.   -0.   -0.    0.    0.    0.   -0.   -0.   -0.   -0.   -0.    0.   -0.   -0.    0.   -0.    0.   -0.   -0.    0.

 Displacement: in terms of nc of 1 THEN of nc of 2

   1     freq=    -0. Q= -0.000 lam=    -0.0     freq=    -0. Q= -0.000 lam=    -0.0
   2     freq=    -0. Q=  0.000 lam=    -0.0     freq=    -0. Q=  0.000 lam=    -0.0
   3     freq=    -0. Q= -0.000 lam=    -0.0     freq=    -0. Q= -0.000 lam=    -0.0
   4     freq=     0. Q=  0.000 lam=     0.0     freq=    -0. Q=  0.000 lam=    -0.0
   5     freq=     0. Q= -0.000 lam=     0.0     freq=     0. Q= -0.000 lam=     0.0
   6     freq=     0. Q= -0.000 lam=     0.0     freq=     0. Q= -0.000 lam=     0.0
   7     freq=    11. Q= -0.019 lam=     0.0     freq=    14. Q= -0.022 lam=     0.0
   8     freq=    23. Q=  0.004 lam=     0.0     freq=    25. Q=  0.007 lam=     0.0
   9     freq=    29. Q=  0.020 lam=     0.0     freq=    31. Q=  0.016 lam=     0.0
  10     freq=    50. Q=  0.027 lam=     0.0     freq=    49. Q=  0.040 lam=     0.0
  11     freq=    54. Q= -0.005 lam=     0.0     freq=    56. Q= -0.005 lam=     0.0
  12     freq=    58. Q=  0.008 lam=     0.0     freq=    60. Q=  0.008 lam=     0.0
  13     freq=    73. Q=  0.001 lam=     0.0     freq=    70. Q=  0.003 lam=     0.0
  14     freq=    77. Q= -0.004 lam=     0.0     freq=    86. Q= -0.003 lam=     0.0
  15     freq=    88. Q= -0.002 lam=     0.0     freq=    90. Q= -0.004 lam=     0.0
  16     freq=    96. Q= -0.003 lam=     0.0     freq=    95. Q= -0.001 lam=     0.0
  17     freq=   103. Q= -0.001 lam=     0.0     freq=   108. Q= -0.003 lam=     0.0
  18     freq=   111. Q=  0.043 lam=     0.1     freq=   111. Q=  0.044 lam=     0.1
  19     freq=   161. Q=  0.014 lam=     0.0     freq=   164. Q=  0.714 lam=    41.8
  20     freq=   164. Q=  0.724 lam=    43.1     freq=   166. Q=  0.016 lam=     0.0
  21     freq=   169. Q= -0.000 lam=     0.0     freq=   171. Q= -0.008 lam=     0.0
  22     freq=   178. Q= -0.000 lam=     0.0     freq=   189. Q= -0.006 lam=     0.0
  23     freq=   189. Q= -0.327 lam=    10.1     freq=   190. Q= -0.323 lam=     9.9
  24     freq=   195. Q=  0.001 lam=     0.0     freq=   197. Q=  0.002 lam=     0.0
  25     freq=   212. Q=  0.002 lam=     0.0     freq=   212. Q=  0.000 lam=     0.0
  26     freq=   228. Q=  0.281 lam=     9.0     freq=   227. Q=  0.269 lam=     8.2
  27     freq=   235. Q= -0.010 lam=     0.0     freq=   235. Q= -0.013 lam=     0.0
  28     freq=   239. Q= -0.085 lam=     0.9     freq=   238. Q= -0.092 lam=     1.0
  29     freq=   241. Q=  0.002 lam=     0.0     freq=   243. Q=  0.001 lam=     0.0
  30     freq=   257. Q= -0.001 lam=     0.0     freq=   263. Q= -0.617 lam=    50.2
  31     freq=   263. Q= -0.595 lam=    46.5     freq=   264. Q= -0.005 lam=     0.0
  32     freq=   283. Q=  0.001 lam=     0.0     freq=   273. Q=  0.001 lam=     0.0
  33     freq=   295. Q=  0.000 lam=     0.0     freq=   298. Q=  0.150 lam=     3.4
  34     freq=   298. Q=  0.164 lam=     4.0     freq=   301. Q=  0.000 lam=     0.0
  35     freq=   311. Q= -0.208 lam=     6.7     freq=   311. Q= -0.250 lam=     9.7
  36     freq=   340. Q= -0.000 lam=     0.0     freq=   342. Q= -0.000 lam=     0.0
  37     freq=   363. Q=  0.176 lam=     5.6     freq=   362. Q=  0.177 lam=     5.7
  38     freq=   390. Q=  0.003 lam=     0.0     freq=   393. Q=  0.124 lam=     3.0
  39     freq=   394. Q= -0.124 lam=     3.0     freq=   401. Q= -0.282 lam=    16.0
  40     freq=   402. Q= -0.081 lam=     1.3     freq=   410. Q= -0.115 lam=     2.7
  41     freq=   415. Q= -0.172 lam=     6.1     freq=   418. Q= -0.001 lam=     0.0
  42     freq=   418. Q= -0.000 lam=     0.0     freq=   425. Q= -0.004 lam=     0.0
  43     freq=   435. Q=  0.319 lam=    22.1     freq=   436. Q=  0.184 lam=     7.4
  44     freq=   442. Q=  0.131 lam=     3.8     freq=   445. Q=  0.006 lam=     0.0
  45     freq=   451. Q=  0.113 lam=     2.9     freq=   446. Q=  0.139 lam=     4.3
  46     freq=   453. Q=  0.011 lam=     0.0     freq=   454. Q=  0.002 lam=     0.0
  47     freq=   454. Q= -0.799 lam=   144.9     freq=   466. Q= -0.502 lam=    58.8
  48     freq=   472. Q=  0.023 lam=     0.1     freq=   477. Q=  0.265 lam=    16.7
  49     freq=   493. Q= -0.411 lam=    41.7     freq=   495. Q= -0.408 lam=    41.2
  50     freq=   499. Q=  0.155 lam=     6.0     freq=   504. Q=  0.000 lam=     0.0
  51     freq=   501. Q= -0.003 lam=     0.0     freq=   508. Q= -0.530 lam=    71.2
  52     freq=   514. Q= -0.000 lam=     0.0     freq=   513. Q= -0.000 lam=     0.0
  53     freq=   516. Q= -0.000 lam=     0.0     freq=   517. Q= -0.001 lam=     0.0
  54     freq=   538. Q=  0.092 lam=     2.3     freq=   538. Q=  0.214 lam=    12.3
  55     freq=   553. Q= -0.148 lam=     6.0     freq=   556. Q= -0.214 lam=    12.8
  56     freq=   579. Q=  0.007 lam=     0.0     freq=   580. Q=  0.001 lam=     0.0
  57     freq=   582. Q=  0.079 lam=     1.8     freq=   583. Q=  0.113 lam=     3.7
  58     freq=   590. Q=  0.001 lam=     0.0     freq=   589. Q=  0.001 lam=     0.0
  59     freq=   623. Q=  0.001 lam=     0.0     freq=   623. Q=  0.001 lam=     0.0
  60     freq=   625. Q=  0.002 lam=     0.0     freq=   625. Q=  0.008 lam=     0.0
  61     freq=   642. Q=  0.035 lam=     0.4     freq=   646. Q=  0.048 lam=     0.8
  62     freq=   663. Q= -0.000 lam=     0.0     freq=   652. Q= -0.000 lam=     0.0
  63     freq=   669. Q=  0.001 lam=     0.0     freq=   664. Q=  0.001 lam=     0.0
  64     freq=   712. Q= -0.081 lam=     2.3     freq=   712. Q= -0.109 lam=     4.2
  65     freq=   716. Q=  0.041 lam=     0.6     freq=   721. Q=  0.048 lam=     0.8
  66     freq=   729. Q= -0.067 lam=     1.6     freq=   730. Q= -0.118 lam=     5.1
  67     freq=   748. Q= -0.001 lam=     0.0     freq=   744. Q= -0.002 lam=     0.0
  68     freq=   758. Q=  0.001 lam=     0.0     freq=   747. Q=  0.001 lam=     0.0
  69     freq=   767. Q= -0.002 lam=     0.0     freq=   750. Q= -0.002 lam=     0.0
  70     freq=   773. Q= -0.000 lam=     0.0     freq=   764. Q= -0.002 lam=     0.0
  71     freq=   787. Q= -0.002 lam=     0.0     freq=   773. Q= -0.002 lam=     0.0
  72     freq=   801. Q=  0.074 lam=     2.2     freq=   792. Q=  0.001 lam=     0.0
  73     freq=   808. Q=  0.035 lam=     0.5     freq=   804. Q=  0.055 lam=     1.2
  74     freq=   817. Q=  0.000 lam=     0.0     freq=   808. Q=  0.001 lam=     0.0
  75     freq=   818. Q= -0.000 lam=     0.0     freq=   809. Q= -0.000 lam=     0.0
  76     freq=   823. Q= -0.005 lam=     0.0     freq=   813. Q= -0.059 lam=     1.4
  77     freq=   827. Q=  0.000 lam=     0.0     freq=   817. Q=  0.000 lam=     0.0
  78     freq=   831. Q= -0.001 lam=     0.0     freq=   825. Q= -0.016 lam=     0.1
  79     freq=   834. Q=  0.001 lam=     0.0     freq=   827. Q=  0.000 lam=     0.0
  80     freq=   846. Q= -0.107 lam=     4.9     freq=   830. Q= -0.001 lam=     0.0
  81     freq=   853. Q= -0.001 lam=     0.0     freq=   848. Q= -0.108 lam=     4.9
  82     freq=   897. Q=  0.127 lam=     7.3     freq=   902. Q=  0.105 lam=     4.9
  83     freq=   915. Q= -0.002 lam=     0.0     freq=   908. Q= -0.000 lam=     0.0
  84     freq=   917. Q= -0.105 lam=     5.0     freq=   923. Q= -0.143 lam=     9.4
  85     freq=   929. Q= -0.160 lam=    11.9     freq=   940. Q= -0.177 lam=    14.7
  86     freq=   940. Q=  0.127 lam=     7.6     freq=   942. Q=  0.003 lam=     0.0
  87     freq=   944. Q= -0.000 lam=     0.0     freq=   954. Q= -0.000 lam=     0.0
  88     freq=   956. Q=  0.000 lam=     0.0     freq=   960. Q=  0.028 lam=     0.4
  89     freq=   963. Q= -0.101 lam=     4.9     freq=   964. Q= -0.000 lam=     0.0
  90     freq=   974. Q=  0.000 lam=     0.0     freq=   968. Q=  0.000 lam=     0.0
  91     freq=   978. Q=  0.000 lam=     0.0     freq=   975. Q=  0.001 lam=     0.0
  92     freq=   980. Q=  0.042 lam=     0.8     freq=   977. Q=  0.000 lam=     0.0
  93     freq=   987. Q=  0.000 lam=     0.0     freq=   981. Q=  0.000 lam=     0.0
  94     freq=   989. Q= -0.000 lam=     0.0     freq=   981. Q= -0.002 lam=     0.0
  95     freq=   990. Q=  0.000 lam=     0.0     freq=  1027. Q=  0.037 lam=     0.7
  96     freq=  1035. Q=  0.000 lam=     0.0     freq=  1041. Q=  0.002 lam=     0.0
  97     freq=  1042. Q= -0.000 lam=     0.0     freq=  1060. Q= -0.000 lam=     0.0
  98     freq=  1050. Q= -0.388 lam=    79.0     freq=  1067. Q= -0.081 lam=     3.5
  99     freq=  1070. Q= -0.091 lam=     4.4     freq=  1077. Q= -0.245 lam=    32.3
 100     freq=  1095. Q= -0.015 lam=     0.1     freq=  1089. Q= -0.158 lam=    13.6
 101     freq=  1120. Q= -0.119 lam=     7.9     freq=  1097. Q= -0.013 lam=     0.1
 102     freq=  1134. Q=  0.325 lam=    59.9     freq=  1124. Q=  0.264 lam=    39.1
 103     freq=  1150. Q=  0.002 lam=     0.0     freq=  1145. Q=  0.022 lam=     0.3
 104     freq=  1155. Q= -0.000 lam=     0.0     freq=  1154. Q= -0.000 lam=     0.0
 105     freq=  1166. Q=  0.046 lam=     1.3     freq=  1159. Q=  0.061 lam=     2.1
 106     freq=  1175. Q= -0.037 lam=     0.8     freq=  1174. Q= -0.016 lam=     0.2
 107     freq=  1191. Q=  0.058 lam=     2.0     freq=  1184. Q=  0.135 lam=    10.8
 108     freq=  1202. Q= -0.005 lam=     0.0     freq=  1190. Q= -0.251 lam=    37.4
 109     freq=  1217. Q=  0.044 lam=     1.2     freq=  1195. Q=  0.107 lam=     6.9
 110     freq=  1228. Q=  0.067 lam=     2.8     freq=  1199. Q=  0.023 lam=     0.3
 111     freq=  1232. Q= -0.411 lam=   104.0     freq=  1224. Q= -0.074 lam=     3.3
 112     freq=  1236. Q= -0.017 lam=     0.2     freq=  1232. Q= -0.195 lam=    23.4
 113     freq=  1250. Q=  0.056 lam=     1.9     freq=  1236. Q=  0.316 lam=    61.6
 114     freq=  1259. Q= -0.137 lam=    11.8     freq=  1245. Q= -0.005 lam=     0.0
 115     freq=  1279. Q=  0.205 lam=    26.8     freq=  1254. Q=  0.018 lam=     0.2
 116     freq=  1290. Q= -0.021 lam=     0.3     freq=  1283. Q= -0.063 lam=     2.5
 117     freq=  1298. Q= -0.095 lam=     5.9     freq=  1295. Q= -0.021 lam=     0.3
 118     freq=  1303. Q= -0.021 lam=     0.3     freq=  1303. Q= -0.263 lam=    45.1
 119     freq=  1312. Q=  0.081 lam=     4.3     freq=  1315. Q=  0.013 lam=     0.1
 120     freq=  1328. Q=  0.372 lam=    92.0     freq=  1327. Q=  0.175 lam=    20.4
 121     freq=  1337. Q=  0.144 lam=    13.8     freq=  1333. Q=  0.214 lam=    30.4
 122     freq=  1360. Q= -0.316 lam=    68.0     freq=  1343. Q= -0.746 lam=   374.3
 123     freq=  1363. Q= -0.010 lam=     0.1     freq=  1355. Q= -0.041 lam=     1.2
 124     freq=  1371. Q=  0.281 lam=    54.3     freq=  1364. Q=  0.247 lam=    41.6
 125     freq=  1372. Q=  0.504 lam=   174.0     freq=  1370. Q=  0.209 lam=    29.9
 126     freq=  1384. Q= -0.000 lam=     0.0     freq=  1383. Q= -0.000 lam=     0.0
 127     freq=  1392. Q=  0.018 lam=     0.2     freq=  1388. Q=  0.175 lam=    21.2
 128     freq=  1394. Q= -0.026 lam=     0.5     freq=  1391. Q= -0.262 lam=    47.7
 129     freq=  1398. Q= -0.000 lam=     0.0     freq=  1393. Q= -0.004 lam=     0.0
 130     freq=  1398. Q=  0.016 lam=     0.2     freq=  1397. Q=  0.000 lam=     0.0
 131     freq=  1401. Q= -0.114 lam=     9.2     freq=  1406. Q= -0.019 lam=     0.2
 132     freq=  1413. Q= -0.030 lam=     0.6     freq=  1411. Q= -0.138 lam=    13.5
 133     freq=  1427. Q= -0.113 lam=     9.0     freq=  1422. Q= -0.113 lam=     9.1
 134     freq=  1440. Q=  0.129 lam=    11.9     freq=  1436. Q=  0.183 lam=    24.2
 135     freq=  1462. Q=  0.195 lam=    27.7     freq=  1464. Q=  0.245 lam=    44.0
 136     freq=  1463. Q=  0.003 lam=     0.0     freq=  1469. Q=  0.012 lam=     0.1
 137     freq=  1475. Q= -0.007 lam=     0.0     freq=  1474. Q= -0.016 lam=     0.2
 138     freq=  1482. Q=  0.143 lam=    15.2     freq=  1479. Q=  0.000 lam=     0.0
 139     freq=  1484. Q=  0.038 lam=     1.1     freq=  1482. Q=  0.001 lam=     0.0
 140     freq=  1484. Q=  0.001 lam=     0.0     freq=  1483. Q=  0.102 lam=     7.7
 141     freq=  1486. Q=  0.041 lam=     1.2     freq=  1494. Q=  0.019 lam=     0.3
 142     freq=  1497. Q= -0.011 lam=     0.1     freq=  1494. Q= -0.105 lam=     8.2
 143     freq=  1507. Q=  0.000 lam=     0.0     freq=  1507. Q=  0.001 lam=     0.0
 144     freq=  1524. Q=  0.013 lam=     0.1     freq=  1524. Q=  0.010 lam=     0.1
 145     freq=  1547. Q= -0.103 lam=     8.2     freq=  1529. Q= -0.035 lam=     0.9
 146     freq=  1556. Q=  0.119 lam=    10.9     freq=  1561. Q=  0.121 lam=    11.3
 147     freq=  1568. Q=  0.059 lam=     2.7     freq=  1571. Q=  0.058 lam=     2.7
 148     freq=  1576. Q= -0.021 lam=     0.4     freq=  1577. Q= -0.017 lam=     0.2
 149     freq=  1589. Q= -0.018 lam=     0.3     freq=  1592. Q= -0.009 lam=     0.1
 150     freq=  1610. Q=  0.069 lam=     3.9     freq=  1610. Q=  0.008 lam=     0.0
 151     freq=  1616. Q= -0.047 lam=     1.8     freq=  1616. Q= -0.011 lam=     0.1
 152     freq=  1621. Q=  0.191 lam=    29.5     freq=  1627. Q=  0.145 lam=    17.0
 153     freq=  1635. Q=  0.159 lam=    20.5     freq=  1666. Q=  0.179 lam=    26.8
 154     freq=  1671. Q= -0.970 lam=   785.2     freq=  1666. Q= -0.437 lam=   158.9
 155     freq=  1686. Q=  0.019 lam=     0.3     freq=  1681. Q=  0.276 lam=    64.1
 156     freq=  1723. Q= -0.097 lam=     8.1     freq=  1702. Q= -0.314 lam=    83.9
 157     freq=  1801. Q=  0.232 lam=    48.5     freq=  1703. Q=  0.681 lam=   394.6
 158     freq=  1824. Q=  0.091 lam=     7.5     freq=  1722. Q=  0.124 lam=    13.2
 159     freq=  3008. Q= -0.026 lam=     1.0     freq=  2992. Q= -0.026 lam=     1.0
 160     freq=  3030. Q=  0.000 lam=     0.0     freq=  3022. Q=  0.000 lam=     0.0
 161     freq=  3035. Q=  0.010 lam=     0.2     freq=  3026. Q=  0.000 lam=     0.0
 162     freq=  3045. Q=  0.000 lam=     0.0     freq=  3028. Q=  0.011 lam=     0.2
 163     freq=  3088. Q=  0.000 lam=     0.0     freq=  3077. Q=  0.017 lam=     0.4
 164     freq=  3091. Q=  0.008 lam=     0.1     freq=  3080. Q=  0.000 lam=     0.0
 165     freq=  3110. Q=  0.005 lam=     0.0     freq=  3083. Q=  0.007 lam=     0.1
 166     freq=  3118. Q=  0.022 lam=     0.7     freq=  3098. Q=  0.045 lam=     3.2
 167     freq=  3132. Q= -0.000 lam=     0.0     freq=  3104. Q= -0.006 lam=     0.0
 168     freq=  3142. Q= -0.003 lam=     0.0     freq=  3120. Q= -0.023 lam=     0.8
 169     freq=  3142. Q=  0.045 lam=     3.1     freq=  3129. Q=  0.000 lam=     0.0
 170     freq=  3159. Q= -0.018 lam=     0.5     freq=  3139. Q= -0.004 lam=     0.0
 171     freq=  3167. Q=  0.020 lam=     0.6     freq=  3182. Q=  0.004 lam=     0.0
 172     freq=  3194. Q=  0.002 lam=     0.0     freq=  3183. Q=  0.002 lam=     0.0
 173     freq=  3195. Q= -0.001 lam=     0.0     freq=  3191. Q= -0.002 lam=     0.0
 174     freq=  3199. Q=  0.003 lam=     0.0     freq=  3191. Q=  0.002 lam=     0.0
 175     freq=  3200. Q= -0.004 lam=     0.0     freq=  3200. Q= -0.005 lam=     0.0
 176     freq=  3210. Q=  0.001 lam=     0.0     freq=  3201. Q=  0.005 lam=     0.0
 177     freq=  3210. Q= -0.001 lam=     0.0     freq=  3201. Q= -0.010 lam=     0.2
 178     freq=  3226. Q=  0.008 lam=     0.1     freq=  3212. Q=  0.002 lam=     0.0
 179     freq=  3226. Q=  0.013 lam=     0.3     freq=  3212. Q=  0.016 lam=     0.4
 180     freq=  3251. Q= -0.005 lam=     0.0     freq=  3237. Q= -0.018 lam=     0.5

 total reorg energy (cm**-1, kcal/mol)=     2147.     2167.      6.14      6.20
 Nber of molecules processed=           2
