 Enter ifcurve (0=recti, 1=orth curvi, 2=apprx curvi, -1 = skip
 And atom ordering flag, 0= never changes, 1= use the first order thenceforth,
  2= deduce it (does read on fail), 3= always read it
 Reading file: 
 ./CDT-A_1_C0S1.log                                                             
                                          
  Entering Gaussian System, Link 0=g16                                          
  
 Gaussian format, type: g94, g98, g03= F F F
  #P Geom=AllCheck Guess=TCheck SCRF=Check GenChk RCAM-B3LYP TD(FC,Read)    
 energy type= TD      
 Original G94 input coords:
  6  8.958249 -2.379507  0.117020
  6  9.596726 -3.431628  0.154517
  6 10.313632 -4.605918  0.197180
  6 11.716371 -4.569558  0.449189
  6 12.456514 -5.710110  0.498257
  6 11.863183 -6.984818  0.300612
  6 12.620143 -8.178522  0.348719
  6 12.039841 -9.397442  0.157544
  6 10.643370 -9.514419 -0.098854
  6 10.020658-10.753434 -0.298929
  6  8.657892-10.831920 -0.546540
  6  7.885080 -9.687072 -0.601000
  6  8.464848 -8.421370 -0.406604
  6  7.705315 -7.220847 -0.454599
  6  8.292059 -6.004452 -0.262563
  6  9.678132 -5.884647 -0.007991
  6 10.466399 -7.060056  0.047079
  6  9.857750 -8.330744 -0.152796
  6  8.251830 -1.215427  0.075533
  6  8.719792  0.107178  0.254903
  6  7.713654  1.041233  0.144008
  6  7.594564  2.546057  0.232261
  6  6.119278  2.748970 -0.014866
  6  5.224780  3.830893 -0.094410
  6  3.944891  3.419618 -0.351591
 16  3.805740  1.695727 -0.502359
  6  5.497016  1.521971 -0.214831
  6  6.450042  0.481375 -0.121158
 16  6.494922 -1.233942 -0.238168
  1 12.183059 -3.604709  0.601904
  1 13.521838 -5.657077  0.691453
  1 13.684704 -8.107569  0.542883
  1 12.637381-10.300976  0.198305
  1 10.619507-11.656155 -0.257845
  1  8.195739-11.800211 -0.698556
  1  6.820592 -9.753855 -0.794772
  1  6.640666 -7.286109 -0.648179
  1  7.692951 -5.103260 -0.303691
  1  9.761521  0.312511  0.454880
  1  7.905332  2.922002  1.211542
  1  8.212477  3.047813 -0.518310
  1  5.492678  4.871357  0.029055
  1  3.062543  4.029836 -0.463854
 nber atoms=          43
  Total Energy, E(TD-HF/TD-DFT) =  -1833.21342710                               
  
          32          49 "  -1833.21342710"
After scan for Atom:   Atom  AN      X      Y      Z        X      Y      Z        X      Y      Z   
After scan for Atom:   Atom  AN      X      Y      Z        X      Y      Z        X      Y      Z   
After scan for Atom:   Atom  AN      X      Y      Z        X      Y      Z        X      Y      Z   
After scan for Atom:   Atom  AN      X      Y      Z        X      Y      Z        X      Y      Z   
After scan for Atom:   Atom  AN      X      Y      Z        X      Y      Z        X      Y      Z   
After scan for Atom:   Atom  AN      X      Y      Z        X      Y      Z        X      Y      Z   
After scan for Atom:   Atom  AN      X      Y      Z        X      Y      Z        X      Y      Z   
After scan for Atom:   Atom  AN      X      Y      Z        X      Y      Z        X      Y      Z   
After scan for Atom:   Atom  AN      X      Y      Z        X      Y      Z        X      Y      Z   
After scan for Atom:   Atom  AN      X      Y      Z        X      Y      Z        X      Y      Z   
After scan for Atom:   Atom  AN      X      Y      Z        X      Y      Z        X      Y      Z   
After scan for Atom:   Atom  AN      X      Y      Z        X      Y      Z        X      Y      Z   
After scan for Atom:   Atom  AN      X      Y      Z        X      Y      Z        X      Y      Z   
After scan for Atom:   Atom  AN      X      Y      Z        X      Y      Z        X      Y      Z   
After scan for Atom:   Atom  AN      X      Y      Z        X      Y      Z        X      Y      Z   
After scan for Atom:   Atom  AN      X      Y      Z        X      Y      Z        X      Y      Z   
After scan for Atom:   Atom  AN      X      Y      Z        X      Y      Z        X      Y      Z   
After scan for Atom:   Atom  AN      X      Y      Z        X      Y      Z        X      Y      Z   
After scan for Atom:   Atom  AN      X      Y      Z        X      Y      Z        X      Y      Z   
After scan for Atom:   Atom  AN      X      Y      Z        X      Y      Z        X      Y      Z   
After scan for Atom:   Atom  AN      X      Y      Z        X      Y      Z        X      Y      Z   
After scan for Atom:   Atom  AN      X      Y      Z        X      Y      Z        X      Y      Z   
After scan for Atom:   Atom  AN      X      Y      Z        X      Y      Z        X      Y      Z   
After scan for Atom:   Atom  AN      X      Y      Z        X      Y      Z        X      Y      Z   
After scan for Atom:   Atom  AN      X      Y      Z        X      Y      Z        X      Y      Z   
After scan for Atom:   Atom  AN      X      Y      Z        X      Y      Z        X      Y      Z   
After scan for Atom:   Atom  AN      X      Y      Z        X      Y      Z        X      Y      Z   
After scan for Atom:   Atom  AN      X      Y      Z        X      Y      Z        X      Y      Z   
After scan for Atom:   Atom  AN      X      Y      Z        X      Y      Z        X      Y      Z   
After scan for Atom:   Atom  AN      X      Y      Z        X      Y      Z        X      Y      Z   
After scan for Atom:   Atom  AN      X      Y      Z        X      Y      Z        X      Y      Z   
After scan for Atom:   Atom  AN      X      Y      Z        X      Y      Z        X      Y      Z   
After scan for Atom:   Atom  AN      X      Y      Z        X      Y      Z        X      Y      Z   
After scan for Atom:   Atom  AN      X      Y      Z        X      Y      Z        X      Y      Z   
After scan for Atom:   Atom  AN      X      Y      Z        X      Y      Z        X      Y      Z   
After scan for Atom:   Atom  AN      X      Y      Z        X      Y      Z        X      Y      Z   
After scan for Atom:   Atom  AN      X      Y      Z        X      Y      Z        X      Y      Z   
After scan for Atom:   Atom  AN      X      Y      Z        X      Y      Z        X      Y      Z   
After scan for Atom:   Atom  AN      X      Y      Z        X      Y      Z        X      Y      Z   
After scan for Atom:   Atom  AN      X      Y      Z        X      Y      Z        X      Y      Z   
After scan for Atom:   Atom  AN      X      Y      Z        X      Y      Z        X      Y      Z   
 g94    frequencies=
     0.0    0.0    0.0    0.0    0.0    0.0   17.5   18.6   27.0   46.0
    87.5   98.3  115.9  142.3  162.3  166.4  210.5  214.7  218.5  244.4
   267.3  279.1  318.4  334.0  399.4  404.3  414.7  438.1  456.9  472.2
   477.7  479.8  507.3  517.2  519.7  533.2  539.6  558.4  558.6  573.1
   581.4  585.2  606.3  628.6  641.3  648.6  673.7  690.9  704.1  707.1
   710.5  731.2  738.8  772.0  784.9  808.7  826.3  835.2  839.4  841.1
   851.1  869.0  893.5  903.7  918.2  957.2  964.0  981.9  991.5  994.8
  1000.8 1006.3 1008.0 1022.5 1081.0 1113.7 1117.1 1140.7 1145.8 1167.1
  1167.8 1178.2 1184.7 1208.9 1215.5 1219.3 1240.2 1253.0 1274.2 1279.1
  1298.5 1335.0 1345.8 1373.7 1377.2 1402.3 1421.2 1432.0 1447.1 1457.4
  1459.1 1470.6 1484.9 1502.1 1526.1 1536.5 1538.4 1553.5 1571.3 1577.1
  1634.6 1652.0 1663.3 1671.2 2191.7 3056.8 3087.6 3180.5 3182.5 3188.0
  3189.0 3192.0 3199.8 3206.9 3210.1 3213.1 3224.4 3238.5 3264.6
 g94    symmetries=
                                                 A      A      A      A
       A      A      A      A      A      A      A      A      A      A
       A      A      A      A      A      A      A      A      A      A
       A      A      A      A      A      A      A      A      A      A
       A      A      A      A      A      A      A      A      A      A
       A      A      A      A      A      A      A      A      A      A
       A      A      A      A      A      A      A      A      A      A
       A      A      A      A      A      A      A      A      A      A
       A      A      A      A      A      A      A      A      A      A
       A      A      A      A      A      A      A      A      A      A
       A      A      A      A      A      A      A      A      A      A
       A      A      A      A      A      A      A      A      A      A
       A      A      A      A      A      A      A      A      A
 atomic masses:
 12.0000 12.0000 12.0000 12.0000 12.0000 12.0000 12.0000 12.0000 12.0000 12.0000
 12.0000 12.0000 12.0000 12.0000 12.0000 12.0000 12.0000 12.0000 12.0000 12.0000
 12.0000 12.0000 12.0000 12.0000 12.0000 31.9721 12.0000 12.0000 31.9721  1.0078
  1.0078  1.0078  1.0078  1.0078  1.0078  1.0078  1.0078  1.0078  1.0078  1.0078
  1.0078  1.0078  1.0078
 looking for force constants in 
 ./CDT-A_1_C0S1.fchk                                                            
  
 Cartesian Force Constants                  R   N=        8385                  
  
 n3=         129        8385
 g94-fc frequencies=
    -0.0   -0.0    0.0    1.1    1.6    2.4   17.5   18.6   27.0   46.0
    87.5   98.3  115.9  142.3  162.4  166.4  210.5  214.7  218.5  244.4
   267.3  279.1  318.4  334.0  399.4  404.3  414.7  438.2  456.9  472.2
   477.8  479.8  507.3  517.2  519.7  533.2  539.6  558.4  558.6  573.1
   581.4  585.2  606.3  628.6  641.3  648.6  673.7  690.9  704.1  707.1
   710.5  731.2  738.8  772.0  784.9  808.7  826.3  835.2  839.4  841.1
   851.2  869.0  893.5  903.8  918.2  957.2  964.0  981.9  991.5  994.8
  1000.9 1006.3 1008.0 1022.6 1081.1 1113.7 1117.1 1140.7 1145.8 1167.2
  1167.8 1178.2 1184.7 1208.9 1215.6 1219.3 1240.2 1253.0 1274.3 1279.2
  1298.5 1335.1 1345.9 1373.7 1377.3 1402.3 1421.2 1432.0 1447.1 1457.5
  1459.1 1470.7 1485.0 1502.1 1526.2 1536.5 1538.4 1553.5 1571.3 1577.1
  1634.6 1652.0 1663.3 1671.2 2191.8 3056.8 3087.7 3180.6 3182.5 3188.1
  3189.0 3192.1 3199.8 3207.0 3210.2 3213.1 3224.4 3238.5 3264.7
 at 99999: n3=         129
 symm operator            1 :  F  nop=           0
 symm operator            2 :  F  nop=           0
 symm operator            3 :  F  nop=           0
 symm operator            4 :  F  nop=           0
 symm operator            5 :  F  nop=           0
 symm operator            6 :  F  nop=           0
 symm operator            7 :  F  nop=           0
 The point group of the molecule is  C1
 Symmetry rotation matrix:
   1.00000   0.00000   0.00000
   0.00000   1.00000   0.00000
   0.00000   0.00000   1.00000

 Projecting out zero-frequency components
 generating redundant internal coords
         300        3600          43
 search for int coords
   1 str   2   1   1.231
   2 str   3   2   1.376
   3 str   4   3   1.426
   4 str   5   4   1.361
   5 str   6   5   1.420
   6 str   7   6   1.414
   7 str   8   7   1.363
   8 str   9   8   1.425
   9 str  10   9   1.401
  10 str  11  10   1.387
  11 str  12  11   1.382
  12 str  13  12   1.406
  13 str  14  13   1.421
  14 str  15  14   1.364
  15 str  16   3   1.443
  16 str  16  15   1.414
  17 str  17   6   1.422
  18 str  17  16   1.416
  19 str  18   9   1.422
  20 str  18  13   1.419
  21 str  18  17   1.423
  22 str  19   1   1.362
  23 str  20  19   1.414
  24 str  21  20   1.377
  25 str  22  21   1.512
  26 str  23  22   1.510
  27 str  24  23   1.406
  28 str  25  24   1.369
  29 str  26  25   1.736
  30 str  27  23   1.390
  31 str  27  26   1.724
  32 str  28  21   1.407
  33 str  28  27   1.414
  34 str  29  19   1.785
  35 str  29  28   1.720
  36 str  30   4   1.083
  37 str  31   5   1.084
  38 str  32   7   1.084
  39 str  33   8   1.084
  40 str  34  10   1.084
  41 str  35  11   1.084
  42 str  36  12   1.084
  43 str  37  14   1.084
  44 str  38  15   1.083
  45 str  39  20   1.080
  46 str  40  22   1.094
  47 str  41  22   1.094
  48 str  42  24   1.081
  49 str  43  25   1.079
 nber stretches=          49
  50 lin ben   1   2   3
  52 ben   1  19  20
  53 prop tor   1  19  20  21
  54 prop tor   1  19  20  39
  55 ben   1  19  29
  56 prop tor   1  19  29  28
 Extend lin bond           1          19           2           3
  57 lin ben   2   1  19
  59 ben   2   3   4
  60 prop tor   2   3   4   5
  61 prop tor   2   3   4  30
  62 ben   2   3  16
  63 prop tor   2   3  16  15
  64 prop tor   2   3  16  17
  65 ben   3   4   5
  66 prop tor   3   4   5   6
  67 prop tor   3   4   5  31
  68 ben   3   4  30
  69 ben   3  16  15
  70 ben   3  16  17
  71 prop tor   3  16  17   6
  72 prop tor   3  16  17  18
  73 ben   4   3  16
  74 prop tor   4   3  16  15
  75 prop tor   4   3  16  17
  76 ben   4   5   6
  77 prop tor   4   5   6   7
  78 prop tor   4   5   6  17
  79 ben   4   5  31
  80 ben   5   4  30
  81 ben   5   6   7
  82 prop tor   5   6   7   8
  83 prop tor   5   6   7  32
  84 ben   5   6  17
  85 prop tor   5   6  17  16
  86 prop tor   5   6  17  18
  87 ben   6   5  31
  88 ben   6   7   8
  89 prop tor   6   7   8   9
  90 prop tor   6   7   8  33
  91 ben   6   7  32
  92 ben   6  17  16
  93 ben   6  17  18
  94 prop tor   6  17  18   9
  95 prop tor   6  17  18  13
  96 ben   7   6  17
  97 prop tor   7   6  17  16
  98 prop tor   7   6  17  18
  99 ben   7   8   9
 100 prop tor   7   8   9  10
 101 prop tor   7   8   9  18
 102 ben   7   8  33
 103 ben   8   7  32
 104 ben   8   9  10
 105 prop tor   8   9  10  11
 106 prop tor   8   9  10  34
 107 ben   8   9  18
 108 prop tor   8   9  18  13
 109 prop tor   8   9  18  17
 110 ben   9   8  33
 111 ben   9  10  11
 112 prop tor   9  10  11  12
 113 prop tor   9  10  11  35
 114 ben   9  10  34
 115 ben   9  18  13
 116 ben   9  18  17
 117 ben  10   9  18
 118 prop tor  10   9  18  13
 119 prop tor  10   9  18  17
 120 ben  10  11  12
 121 prop tor  10  11  12  13
 122 prop tor  10  11  12  36
 123 ben  10  11  35
 124 ben  11  10  34
 125 ben  11  12  13
 126 prop tor  11  12  13  14
 127 prop tor  11  12  13  18
 128 ben  11  12  36
 129 ben  12  11  35
 130 ben  12  13  14
 131 prop tor  12  13  14  15
 132 prop tor  12  13  14  37
 133 ben  12  13  18
 134 prop tor  12  13  18   9
 135 prop tor  12  13  18  17
 136 ben  13  12  36
 137 ben  13  14  15
 138 prop tor  13  14  15  16
 139 prop tor  13  14  15  38
 140 ben  13  14  37
 141 ben  13  18  17
 142 ben  14  13  18
 143 prop tor  14  13  18   9
 144 prop tor  14  13  18  17
 145 ben  14  15  16
 146 prop tor  14  15  16   3
 147 prop tor  14  15  16  17
 148 ben  14  15  38
 149 ben  15  14  37
 150 ben  15  16  17
 151 prop tor  15  16  17   6
 152 prop tor  15  16  17  18
 153 prop tor  16   3   4   5
 154 prop tor  16   3   4  30
 155 ben  16  15  38
 156 ben  16  17  18
 157 prop tor  16  17  18   9
 158 prop tor  16  17  18  13
 159 prop tor  17   6   7   8
 160 prop tor  17   6   7  32
 161 prop tor  18   9  10  11
 162 prop tor  18   9  10  34
 163 prop tor  18  13  14  15
 164 prop tor  18  13  14  37
 165 ben  19  20  21
 166 prop tor  19  20  21  22
 167 prop tor  19  20  21  28
 168 ben  19  20  39
 169 ben  19  29  28
 170 ben  20  19  29
 171 prop tor  20  19  29  28
 172 ben  20  21  22
 173 prop tor  20  21  22  23
 174 prop tor  20  21  22  40
 175 prop tor  20  21  22  41
 176 ben  20  21  28
 177 prop tor  20  21  28  27
 178 prop tor  20  21  28  29
 179 ben  21  20  39
 180 ben  21  22  23
 181 prop tor  21  22  23  24
 182 prop tor  21  22  23  27
 183 ben  21  22  40
 184 ben  21  22  41
 185 ben  21  28  27
 186 ben  21  28  29
 187 prop tor  21  28  29  19
 188 ben  22  21  28
 189 prop tor  22  21  28  27
 190 prop tor  22  21  28  29
 191 ben  22  23  24
 192 prop tor  22  23  24  25
 193 prop tor  22  23  24  42
 194 ben  22  23  27
 195 prop tor  22  23  27  26
 196 prop tor  22  23  27  28
 197 ben  23  22  40
 198 ben  23  22  41
 199 ben  23  24  25
 200 prop tor  23  24  25  26
 201 prop tor  23  24  25  43
 202 ben  23  24  42
 203 ben  23  27  26
 204 ben  23  27  28
 205 prop tor  23  27  28  21
 206 prop tor  23  27  28  29
 207 ben  24  23  27
 208 prop tor  24  23  27  26
 209 prop tor  24  23  27  28
 210 ben  24  25  26
 211 prop tor  24  25  26  27
 212 ben  24  25  43
 213 ben  25  24  42
 214 ben  25  26  27
 215 prop tor  25  26  27  23
 216 prop tor  25  26  27  28
 217 ben  26  25  43
 218 ben  26  27  28
 219 prop tor  26  27  28  21
 220 prop tor  26  27  28  29
 221 prop tor  27  23  24  25
 222 prop tor  27  23  24  42
 223 ben  27  28  29
 224 prop tor  27  28  29  19
 225 prop tor  28  21  22  23
 226 prop tor  28  21  22  40
 227 prop tor  28  21  22  41
 228 prop tor  29  19  20  21
 229 prop tor  29  19  20  39
 230 prop tor  30   4   5   6
 231 prop tor  30   4   5  31
 232 prop tor  31   5   6   7
 233 prop tor  31   5   6  17
 234 prop tor  32   7   8   9
 235 prop tor  32   7   8  33
 236 prop tor  33   8   9  10
 237 prop tor  33   8   9  18
 238 prop tor  34  10  11  12
 239 prop tor  34  10  11  35
 240 prop tor  35  11  12  13
 241 prop tor  35  11  12  36
 242 prop tor  36  12  13  14
 243 prop tor  36  12  13  18
 244 prop tor  37  14  15  16
 245 prop tor  37  14  15  38
 246 prop tor  38  15  16   3
 247 prop tor  38  15  16  17
 248 prop tor  39  20  21  22
 249 prop tor  39  20  21  28
 250 prop tor  40  22  23  24
 251 prop tor  40  22  23  27
 252 ben  40  22  41
 253 prop tor  41  22  23  24
 254 prop tor  41  22  23  27
 255 prop tor  42  24  25  26
 256 prop tor  42  24  25  43
 257 prop tor  43  25  26  27
 258 lin bend prop tor   1  19   3   2
 259 lin bend prop tor   1  19   3   4
 260 lin bend prop tor   1  19   3  16
 261 lin bend prop tor  20  19   3   2
 262 lin bend prop tor  20  19   3   4
 263 lin bend prop tor  20  19   3  16
 264 lin bend prop tor  29  19   3   2
 265 lin bend prop tor  29  19   3   4
 266 lin bend prop tor  29  19   3  16
 nber bend=              84
 nber lin bend=           1
 nber prop tor=         133
 nber impr tor=           0
 nber tot redund int=         266
 Eigenvalues of G in red int coords
    Gval -0.00000000 -0.00000000 -0.00000000 -0.00000000 -0.00000000 -0.00000000 -0.00000000 -0.00000000
    Gval -0.00000000 -0.00000000 -0.00000000 -0.00000000 -0.00000000 -0.00000000 -0.00000000 -0.00000000
    Gval -0.00000000 -0.00000000 -0.00000000 -0.00000000 -0.00000000 -0.00000000 -0.00000000 -0.00000000
    Gval -0.00000000 -0.00000000 -0.00000000 -0.00000000 -0.00000000 -0.00000000 -0.00000000 -0.00000000
    Gval -0.00000000 -0.00000000 -0.00000000 -0.00000000 -0.00000000 -0.00000000 -0.00000000 -0.00000000
    Gval -0.00000000 -0.00000000 -0.00000000 -0.00000000 -0.00000000 -0.00000000 -0.00000000 -0.00000000
    Gval -0.00000000 -0.00000000 -0.00000000 -0.00000000 -0.00000000 -0.00000000 -0.00000000 -0.00000000
    Gval -0.00000000 -0.00000000 -0.00000000 -0.00000000 -0.00000000 -0.00000000 -0.00000000 -0.00000000
    Gval -0.00000000 -0.00000000 -0.00000000 -0.00000000 -0.00000000 -0.00000000  0.00000000  0.00000000
    Gval  0.00000000  0.00000000  0.00000000  0.00000000  0.00000000  0.00000000  0.00000000  0.00000000
    Gval  0.00000000  0.00000000  0.00000000  0.00000000  0.00000000  0.00000000  0.00000000  0.00000000
    Gval  0.00000000  0.00000000  0.00000000  0.00000000  0.00000000  0.00000000  0.00000000  0.00000000
    Gval  0.00000000  0.00000000  0.00000000  0.00000000  0.00000000  0.00000000  0.00000000  0.00000000
    Gval  0.00000000  0.00000000  0.00000000  0.00000000  0.00000000  0.00000000  0.00000000  0.00000000
    Gval  0.00000000  0.00000000  0.00000000  0.00000000  0.00000000  0.00000000  0.00000000  0.00000000
    Gval  0.00000000  0.00000000  0.00000000  0.00000000  0.00000000  0.00000000  0.00000000  0.00000000
    Gval  0.00000000  0.00000000  0.00000000  0.00000000  0.00000000  0.00000000  0.00000000  0.00000000
    Gval  0.00000000  0.00000000  0.00000000  0.00000000  0.00000000  0.00000000  0.00000000  0.00000019
    Gval  0.00000157  0.00000248  0.00000347  0.00000766  0.00000898  0.00001265  0.00001429  0.00001602
    Gval  0.00002025  0.00002341  0.00002391  0.00002467  0.00002673  0.00003533  0.00003772  0.00003947
    Gval  0.00004922  0.00005073  0.00005562  0.00005704  0.00005785  0.00006365  0.00006839  0.00007180
    Gval  0.00007565  0.00007618  0.00007660  0.00008660  0.00009087  0.00009334  0.00009755  0.00010351
    Gval  0.00011103  0.00011190  0.00012814  0.00012968  0.00013427  0.00013596  0.00014021  0.00014120
    Gval  0.00014780  0.00016548  0.00018402  0.00019399  0.00021111  0.00021580  0.00023804  0.00026208
    Gval  0.00026926  0.00027363  0.00028919  0.00030081  0.00031368  0.00031791  0.00034326  0.00036898
    Gval  0.00037190  0.00037971  0.00038025  0.00038513  0.00040576  0.00042088  0.00042697  0.00043898
    Gval  0.00045208  0.00047724  0.00053035  0.00058320  0.00059390  0.00059677  0.00059682  0.00059880
    Gval  0.00059992  0.00060847  0.00061279  0.00062455  0.00062882  0.00063389  0.00064225  0.00064862
    Gval  0.00065895  0.00065955  0.00080223  0.00082180  0.00100461  0.00106620  0.00108306  0.00108394
    Gval  0.00109004  0.00109456  0.00109936  0.00113010  0.00114119  0.00114459  0.00116260  0.00116356
    Gval  0.00116506  0.00117022  0.00118527  0.00133595  0.00138777  0.00150266  0.00166876  0.00176205
    Gval  0.00193044  0.00196447  0.00208119  0.00219290  0.00239957  0.00251359  0.00261697  0.00265967
    Gval  0.00303328  0.00311466  0.00361604  0.00368387  0.00372090  0.00376099  0.00393347  0.00407824
    Gval 30.91573837120.20213339
  1.889231372065361E-007  1.889231372065361E-007
  1.568666191641575E-006  1.889231372065361E-007
  2.484559506950406E-006  1.889231372065361E-007
  3.469573962987863E-006  1.889231372065361E-007
  7.655225086030339E-006  1.889231372065361E-007
  8.976960679554696E-006  1.889231372065361E-007
  1.264661441354821E-005  1.889231372065361E-007
  1.428626514856313E-005  1.889231372065361E-007
  1.602259231940270E-005  1.889231372065361E-007
  2.025104314116040E-005  1.889231372065361E-007
  2.340629858181870E-005  1.889231372065361E-007
  2.390934826066634E-005  1.889231372065361E-007
  2.466972014195119E-005  1.889231372065361E-007
  2.672775875463189E-005  1.889231372065361E-007
  3.532818858661275E-005  1.889231372065361E-007
  3.771820318929381E-005  1.889231372065361E-007
  3.946591492754796E-005  1.889231372065361E-007
  4.921520718543073E-005  1.889231372065361E-007
  5.073464450569480E-005  1.889231372065361E-007
  5.561656803815266E-005  1.889231372065361E-007
  5.704455839964387E-005  1.889231372065361E-007
  5.785369495366977E-005  1.889231372065361E-007
  6.365180096704969E-005  1.889231372065361E-007
  6.838918187533670E-005  1.889231372065361E-007
  7.180343112569470E-005  1.889231372065361E-007
  7.564749208812643E-005  1.889231372065361E-007
  7.617840930789785E-005  1.889231372065361E-007
  7.660198717710858E-005  1.889231372065361E-007
  8.660089669668325E-005  1.889231372065361E-007
  9.087416201332684E-005  1.889231372065361E-007
  9.334375090006399E-005  1.889231372065361E-007
  9.755262525347857E-005  1.889231372065361E-007
  1.035112901746807E-004  1.889231372065361E-007
  1.110347760065928E-004  1.889231372065361E-007
  1.118999868902781E-004  1.889231372065361E-007
  1.281439446425596E-004  1.889231372065361E-007
  1.296775153766819E-004  1.889231372065361E-007
  1.342679963265457E-004  1.889231372065361E-007
  1.359624250144319E-004  1.889231372065361E-007
  1.402094062461591E-004  1.889231372065361E-007
  1.412044279560978E-004  1.889231372065361E-007
  1.478043123230725E-004  1.889231372065361E-007
  1.654785627609820E-004  1.889231372065361E-007
  1.840224898740306E-004  1.889231372065361E-007
  1.939858627723362E-004  1.889231372065361E-007
  2.111124279186555E-004  1.889231372065361E-007
  2.158039066434150E-004  1.889231372065361E-007
  2.380441022923960E-004  1.889231372065361E-007
  2.620835705076443E-004  1.889231372065361E-007
  2.692553878836704E-004  1.889231372065361E-007
  2.736254318830136E-004  1.889231372065361E-007
  2.891922389188061E-004  1.889231372065361E-007
  3.008138861721051E-004  1.889231372065361E-007
  3.136781011744929E-004  1.889231372065361E-007
  3.179122961638831E-004  1.889231372065361E-007
  3.432573339030125E-004  1.889231372065361E-007
  3.689763376583404E-004  1.889231372065361E-007
  3.719010453867813E-004  1.889231372065361E-007
  3.797071835801677E-004  1.889231372065361E-007
  3.802451094742279E-004  1.889231372065361E-007
  3.851341520097874E-004  1.889231372065361E-007
  4.057607714771415E-004  1.889231372065361E-007
  4.208829138327072E-004  1.889231372065361E-007
  4.269675521077434E-004  1.889231372065361E-007
  4.389813319263787E-004  1.889231372065361E-007
  4.520797159191246E-004  1.889231372065361E-007
  4.772390227241808E-004  1.889231372065361E-007
  5.303520746957111E-004  1.889231372065361E-007
  5.832005015858957E-004  1.889231372065361E-007
  5.938956700113707E-004  1.889231372065361E-007
  5.967732041375747E-004  1.889231372065361E-007
  5.968245221991000E-004  1.889231372065361E-007
  5.988014933996259E-004  1.889231372065361E-007
  5.999160060525416E-004  1.889231372065361E-007
  6.084713874751416E-004  1.889231372065361E-007
  6.127938179043678E-004  1.889231372065361E-007
  6.245498048093454E-004  1.889231372065361E-007
  6.288214232698814E-004  1.889231372065361E-007
  6.338932885854641E-004  1.889231372065361E-007
  6.422469016429281E-004  1.889231372065361E-007
  6.486234928205233E-004  1.889231372065361E-007
  6.589535179079384E-004  1.889231372065361E-007
  6.595540832825720E-004  1.889231372065361E-007
  8.022316418189699E-004  1.889231372065361E-007
  8.218010264894879E-004  1.889231372065361E-007
  1.004612684775468E-003  1.889231372065361E-007
  1.066197321349426E-003  1.889231372065361E-007
  1.083055006708245E-003  1.889231372065361E-007
  1.083935386092996E-003  1.889231372065361E-007
  1.090044380575519E-003  1.889231372065361E-007
  1.094557254313191E-003  1.889231372065361E-007
  1.099363186148506E-003  1.889231372065361E-007
  1.130100237160327E-003  1.889231372065361E-007
  1.141191010211794E-003  1.889231372065361E-007
  1.144591456884413E-003  1.889231372065361E-007
  1.162604178136389E-003  1.889231372065361E-007
  1.163555651583243E-003  1.889231372065361E-007
  1.165062309798868E-003  1.889231372065361E-007
  1.170222773418032E-003  1.889231372065361E-007
  1.185270167489744E-003  1.889231372065361E-007
  1.335949566819542E-003  1.889231372065361E-007
  1.387768822672196E-003  1.889231372065361E-007
  1.502658522709026E-003  1.889231372065361E-007
  1.668755335822406E-003  1.889231372065361E-007
  1.762046238925416E-003  1.889231372065361E-007
  1.930437855919156E-003  1.889231372065361E-007
  1.964472676440951E-003  1.889231372065361E-007
  2.081190032732081E-003  1.889231372065361E-007
  2.192899918559930E-003  1.889231372065361E-007
  2.399570863307640E-003  1.889231372065361E-007
  2.513590697492718E-003  1.889231372065361E-007
  2.616969725576637E-003  1.889231372065361E-007
  2.659672191348037E-003  1.889231372065361E-007
  3.033283538442552E-003  1.889231372065361E-007
  3.114661810296752E-003  1.889231372065361E-007
  3.616038724256640E-003  1.889231372065361E-007
  3.683870891762121E-003  1.889231372065361E-007
  3.720899150182090E-003  1.889231372065361E-007
  3.760990114592684E-003  1.889231372065361E-007
  3.933467560053521E-003  1.889231372065361E-007
  4.078244155690133E-003  1.889231372065361E-007
   30.9157383719074       1.889231372065361E-007
   120.202133385038       1.889231372065361E-007
 cut=1d-8, nber non-redundant internal coords=         123
 Check on Eigenvals of non-red overlap matrix:
  0.00000019  0.00000157  0.00000248  0.00000347  0.00000766  0.00000898  0.00001265  0.00001429
  0.00001602  0.00002025  0.00002341  0.00002391  0.00002467  0.00002673  0.00003533  0.00003772
  0.00003947  0.00004922  0.00005073  0.00005562  0.00005704  0.00005785  0.00006365  0.00006839
  0.00007180  0.00007565  0.00007618  0.00007660  0.00008660  0.00009087  0.00009334  0.00009755
  0.00010351  0.00011103  0.00011190  0.00012814  0.00012968  0.00013427  0.00013596  0.00014021
  0.00014120  0.00014780  0.00016548  0.00018402  0.00019399  0.00021111  0.00021580  0.00023804
  0.00026208  0.00026926  0.00027363  0.00028919  0.00030081  0.00031368  0.00031791  0.00034326
  0.00036898  0.00037190  0.00037971  0.00038025  0.00038513  0.00040576  0.00042088  0.00042697
  0.00043898  0.00045208  0.00047724  0.00053035  0.00058320  0.00059390  0.00059677  0.00059682
  0.00059880  0.00059992  0.00060847  0.00061279  0.00062455  0.00062882  0.00063389  0.00064225
  0.00064862  0.00065895  0.00065955  0.00080223  0.00082180  0.00100461  0.00106620  0.00108306
  0.00108394  0.00109004  0.00109456  0.00109936  0.00113010  0.00114119  0.00114459  0.00116260
  0.00116356  0.00116506  0.00117022  0.00118527  0.00133595  0.00138777  0.00150266  0.00166876
  0.00176205  0.00193044  0.00196447  0.00208119  0.00219290  0.00239957  0.00251359  0.00261697
  0.00265967  0.00303328  0.00311466  0.00361604  0.00368387  0.00372090  0.00376099  0.00393347
  0.00407824 30.91573837120.20213339
 Checking for correct frequencies
 recalc frequencies=
    -0.0   -0.0   -0.0    0.0    0.0    0.0   17.5   18.6   27.0   46.0
    87.5   98.3  115.9  142.3  162.4  166.4  210.5  214.7  218.5  244.4
   267.3  279.1  318.4  334.0  399.4  404.3  414.7  438.2  456.9  472.2
   477.8  479.8  507.3  517.2  519.7  533.2  539.6  558.4  558.6  573.1
   581.4  585.2  606.3  628.6  641.3  648.6  673.7  690.9  704.1  707.1
   710.5  731.2  738.8  772.0  784.9  808.7  826.3  835.2  839.4  841.1
   851.2  869.0  893.5  903.8  918.2  957.2  964.0  981.9  991.5  994.8
  1000.9 1006.3 1008.0 1022.6 1081.1 1113.7 1117.1 1140.7 1145.8 1167.2
  1167.8 1178.2 1184.7 1208.9 1215.6 1219.3 1240.2 1253.0 1274.3 1279.2
  1298.5 1335.1 1345.9 1373.7 1377.3 1402.3 1421.2 1432.0 1447.1 1457.5
  1459.1 1470.7 1485.0 1502.1 1526.2 1536.5 1538.4 1553.5 1571.3 1577.1
  1634.6 1652.0 1663.3 1671.2 2191.8 3056.8 3087.7 3180.6 3182.5 3188.1
  3189.0 3192.1 3199.8 3207.0 3210.2 3213.1 3224.4 3238.5 3264.7
 recalc symmetries=
                                                                       
                                                                       
                                                                       
                                                                       
                                                                       
                                                                       
                                                                       
                                                                       
                                                                       
                                                                       
                                                                       
                                                                       
                                                                
 recalc freqs check OK
 Zero-point lengths:
 10.0000 10.0000 10.0000 10.0000 10.0000 10.0000 59.2110 57.4190 47.6889 36.5555
 26.4956 25.0014 23.0274 20.7841 19.4564 19.2177 17.0869 16.9195 16.7717 15.8575
 15.1633 14.8392 13.8941 13.5641 12.4045 12.3292 12.1732 11.8436 11.5983 11.4091
 11.3421 11.3181 11.0068 10.9012 10.8749 10.7361 10.6719 10.4908 10.4892 10.3557
 10.2813 10.2483 10.0679  9.8883  9.7898  9.7345  9.5510  9.4317  9.3428  9.3230
  9.3006  9.1682  9.1209  8.9223  8.8489  8.7177  8.6241  8.5784  8.5567  8.5479
  8.4975  8.4098  8.2936  8.2465  8.1813  8.0130  7.9848  7.9114  7.8731  7.8602
  7.8362  7.8150  7.8086  7.7526  7.5400  7.4288  7.4173  7.3402  7.3239  7.2565
  7.2544  7.2225  7.2027  7.1302  7.1106  7.0997  7.0396  7.0035  6.9449  6.9316
  6.8798  6.7849  6.7576  6.6888  6.6801  6.6202  6.5761  6.5512  6.5170  6.4937
  6.4901  6.4646  6.4333  6.3966  6.3460  6.3245  6.3206  6.2898  6.2541  6.2425
  6.1318  6.0994  6.0786  6.0643  5.2954  4.4839  4.4615  4.3958  4.3945  4.3906
  4.3900  4.3879  4.3826  4.3777  4.3756  4.3735  4.3659  4.3563  4.3389
 highest evec of mol 1
 -0.0001  0.0002 -0.0000
  0.0001 -0.0002  0.0000
 -0.0000  0.0001  0.0000
 -0.0000 -0.0002 -0.0000
 -0.0001  0.0001 -0.0000
  0.0000 -0.0001  0.0000
 -0.0002  0.0001 -0.0000
 -0.0001  0.0000 -0.0000
  0.0000 -0.0000  0.0000
 -0.0000 -0.0000 -0.0000
  0.0001  0.0002  0.0000
  0.0000 -0.0001  0.0000
 -0.0000  0.0001 -0.0000
  0.0001 -0.0001  0.0000
  0.0002 -0.0001  0.0000
 -0.0001 -0.0000 -0.0000
 -0.0000  0.0000 -0.0000
 -0.0000  0.0000  0.0000
  0.0002 -0.0001  0.0000
  0.0006  0.0000  0.0001
 -0.0005  0.0001 -0.0001
 -0.0003  0.0002 -0.0000
  0.0038 -0.0062  0.0002
  0.0317  0.0688  0.0106
 -0.2427  0.1525 -0.0320
 -0.0006 -0.0024 -0.0003
  0.0030 -0.0017  0.0004
  0.0003  0.0001  0.0001
 -0.0000  0.0000 -0.0000
  0.0003  0.0006  0.0001
  0.0002  0.0000  0.0000
  0.0005  0.0000  0.0001
  0.0001 -0.0002  0.0000
  0.0001 -0.0001  0.0000
 -0.0003 -0.0007 -0.0001
 -0.0002 -0.0000 -0.0000
 -0.0003 -0.0000 -0.0001
 -0.0003  0.0004 -0.0000
 -0.0017 -0.0004 -0.0003
 -0.0002  0.0002  0.0002
 -0.0001  0.0003 -0.0002
 -0.0542 -0.1994 -0.0242
  0.7633 -0.5248  0.0973
 generating redundant internal coords
         300        3600          43
 Adding extra bonds for z output only
           6           6           6           6           6           6
           6           6           6           6           6           6
           6           6           6           6           6           6
           6           6           6           6           6           6
           6          16           6           6          16           1
           1           1           1           1           1           1
           1           1           1           1           1           1
           1
 search for int coords
   1 str   2   1   1.231
   2 str   3   2   1.376
   3 str   4   3   1.426
   4 str   5   4   1.361
   5 str   6   5   1.420
   6 str   7   6   1.414
   7 str   8   7   1.363
   8 str   9   8   1.425
   9 str  10   9   1.401
  10 str  11  10   1.387
  11 str  12  11   1.382
  12 str  13  12   1.406
  13 str  14  13   1.421
  14 str  15  14   1.364
  15 str  16   3   1.443
  16 str  16  15   1.414
  17 str  17   6   1.422
  18 str  17  16   1.416
  19 str  18   9   1.422
  20 str  18  13   1.419
  21 str  18  17   1.423
  22 str  19   1   1.362
  23 str  20  19   1.414
  24 str  21  20   1.377
  25 str  22  21   1.512
  26 str  23  22   1.510
  27 str  24  23   1.406
  28 str  25  24   1.369
  29 str  26  25   1.736
  30 str  27  23   1.390
  31 str  27  26   1.724
  32 str  28  21   1.407
  33 str  28  27   1.414
  34 str  29  19   1.785
  35 str  29  28   1.720
  36 str  30   4   1.083
  37 str  31   5   1.084
  38 str  32   7   1.084
  39 str  33   8   1.084
  40 str  34  10   1.084
  41 str  35  11   1.084
  42 str  36  12   1.084
  43 str  37  14   1.084
  44 str  38  15   1.083
  45 str  39  20   1.080
  46 str  40  22   1.094
  47 str  41  22   1.094
  48 str  42  24   1.081
  49 str  43  25   1.079
 nber stretches=          49
  50 lin ben   1   2   3
  52 ben   1  19  20
  53 prop tor   1  19  20  21
  54 prop tor   1  19  20  39
  55 ben   1  19  29
  56 prop tor   1  19  29  28
 Extend lin bond           1          19           2           3
  57 lin ben   2   1  19
  59 ben   2   3   4
  60 prop tor   2   3   4   5
  61 prop tor   2   3   4  30
  62 ben   2   3  16
  63 prop tor   2   3  16  15
  64 prop tor   2   3  16  17
  65 ben   3   4   5
  66 prop tor   3   4   5   6
  67 prop tor   3   4   5  31
  68 ben   3   4  30
  69 ben   3  16  15
  70 ben   3  16  17
  71 prop tor   3  16  17   6
  72 prop tor   3  16  17  18
  73 ben   4   3  16
  74 prop tor   4   3  16  15
  75 prop tor   4   3  16  17
  76 ben   4   5   6
  77 prop tor   4   5   6   7
  78 prop tor   4   5   6  17
  79 ben   4   5  31
  80 ben   5   4  30
  81 ben   5   6   7
  82 prop tor   5   6   7   8
  83 prop tor   5   6   7  32
  84 ben   5   6  17
  85 prop tor   5   6  17  16
  86 prop tor   5   6  17  18
  87 ben   6   5  31
  88 ben   6   7   8
  89 prop tor   6   7   8   9
  90 prop tor   6   7   8  33
  91 ben   6   7  32
  92 ben   6  17  16
  93 ben   6  17  18
  94 prop tor   6  17  18   9
  95 prop tor   6  17  18  13
  96 ben   7   6  17
  97 prop tor   7   6  17  16
  98 prop tor   7   6  17  18
  99 ben   7   8   9
 100 prop tor   7   8   9  10
 101 prop tor   7   8   9  18
 102 ben   7   8  33
 103 ben   8   7  32
 104 ben   8   9  10
 105 prop tor   8   9  10  11
 106 prop tor   8   9  10  34
 107 ben   8   9  18
 108 prop tor   8   9  18  13
 109 prop tor   8   9  18  17
 110 ben   9   8  33
 111 ben   9  10  11
 112 prop tor   9  10  11  12
 113 prop tor   9  10  11  35
 114 ben   9  10  34
 115 ben   9  18  13
 116 ben   9  18  17
 117 ben  10   9  18
 118 prop tor  10   9  18  13
 119 prop tor  10   9  18  17
 120 ben  10  11  12
 121 prop tor  10  11  12  13
 122 prop tor  10  11  12  36
 123 ben  10  11  35
 124 ben  11  10  34
 125 ben  11  12  13
 126 prop tor  11  12  13  14
 127 prop tor  11  12  13  18
 128 ben  11  12  36
 129 ben  12  11  35
 130 ben  12  13  14
 131 prop tor  12  13  14  15
 132 prop tor  12  13  14  37
 133 ben  12  13  18
 134 prop tor  12  13  18   9
 135 prop tor  12  13  18  17
 136 ben  13  12  36
 137 ben  13  14  15
 138 prop tor  13  14  15  16
 139 prop tor  13  14  15  38
 140 ben  13  14  37
 141 ben  13  18  17
 142 ben  14  13  18
 143 prop tor  14  13  18   9
 144 prop tor  14  13  18  17
 145 ben  14  15  16
 146 prop tor  14  15  16   3
 147 prop tor  14  15  16  17
 148 ben  14  15  38
 149 ben  15  14  37
 150 ben  15  16  17
 151 prop tor  15  16  17   6
 152 prop tor  15  16  17  18
 153 prop tor  16   3   4   5
 154 prop tor  16   3   4  30
 155 ben  16  15  38
 156 ben  16  17  18
 157 prop tor  16  17  18   9
 158 prop tor  16  17  18  13
 159 prop tor  17   6   7   8
 160 prop tor  17   6   7  32
 161 prop tor  18   9  10  11
 162 prop tor  18   9  10  34
 163 prop tor  18  13  14  15
 164 prop tor  18  13  14  37
 165 ben  19  20  21
 166 prop tor  19  20  21  22
 167 prop tor  19  20  21  28
 168 ben  19  20  39
 169 ben  19  29  28
 170 ben  20  19  29
 171 prop tor  20  19  29  28
 172 ben  20  21  22
 173 prop tor  20  21  22  23
 174 prop tor  20  21  22  40
 175 prop tor  20  21  22  41
 176 ben  20  21  28
 177 prop tor  20  21  28  27
 178 prop tor  20  21  28  29
 179 ben  21  20  39
 180 ben  21  22  23
 181 prop tor  21  22  23  24
 182 prop tor  21  22  23  27
 183 ben  21  22  40
 184 ben  21  22  41
 185 ben  21  28  27
 186 ben  21  28  29
 187 prop tor  21  28  29  19
 188 ben  22  21  28
 189 prop tor  22  21  28  27
 190 prop tor  22  21  28  29
 191 ben  22  23  24
 192 prop tor  22  23  24  25
 193 prop tor  22  23  24  42
 194 ben  22  23  27
 195 prop tor  22  23  27  26
 196 prop tor  22  23  27  28
 197 ben  23  22  40
 198 ben  23  22  41
 199 ben  23  24  25
 200 prop tor  23  24  25  26
 201 prop tor  23  24  25  43
 202 ben  23  24  42
 203 ben  23  27  26
 204 ben  23  27  28
 205 prop tor  23  27  28  21
 206 prop tor  23  27  28  29
 207 ben  24  23  27
 208 prop tor  24  23  27  26
 209 prop tor  24  23  27  28
 210 ben  24  25  26
 211 prop tor  24  25  26  27
 212 ben  24  25  43
 213 ben  25  24  42
 214 ben  25  26  27
 215 prop tor  25  26  27  23
 216 prop tor  25  26  27  28
 217 ben  26  25  43
 218 ben  26  27  28
 219 prop tor  26  27  28  21
 220 prop tor  26  27  28  29
 221 prop tor  27  23  24  25
 222 prop tor  27  23  24  42
 223 ben  27  28  29
 224 prop tor  27  28  29  19
 225 prop tor  28  21  22  23
 226 prop tor  28  21  22  40
 227 prop tor  28  21  22  41
 228 prop tor  29  19  20  21
 229 prop tor  29  19  20  39
 230 prop tor  30   4   5   6
 231 prop tor  30   4   5  31
 232 prop tor  31   5   6   7
 233 prop tor  31   5   6  17
 234 prop tor  32   7   8   9
 235 prop tor  32   7   8  33
 236 prop tor  33   8   9  10
 237 prop tor  33   8   9  18
 238 prop tor  34  10  11  12
 239 prop tor  34  10  11  35
 240 prop tor  35  11  12  13
 241 prop tor  35  11  12  36
 242 prop tor  36  12  13  14
 243 prop tor  36  12  13  18
 244 prop tor  37  14  15  16
 245 prop tor  37  14  15  38
 246 prop tor  38  15  16   3
 247 prop tor  38  15  16  17
 248 prop tor  39  20  21  22
 249 prop tor  39  20  21  28
 250 prop tor  40  22  23  24
 251 prop tor  40  22  23  27
 252 ben  40  22  41
 253 prop tor  41  22  23  24
 254 prop tor  41  22  23  27
 255 prop tor  42  24  25  26
 256 prop tor  42  24  25  43
 257 prop tor  43  25  26  27
 258 lin bend prop tor   1  19   3   2
 259 lin bend prop tor   1  19   3   4
 260 lin bend prop tor   1  19   3  16
 261 lin bend prop tor  20  19   3   2
 262 lin bend prop tor  20  19   3   4
 263 lin bend prop tor  20  19   3  16
 264 lin bend prop tor  29  19   3   2
 265 lin bend prop tor  29  19   3   4
 266 lin bend prop tor  29  19   3  16
 nber bend=              84
 nber lin bend=           1
 nber prop tor=         133
 nber impr tor=           0
 nber tot redund int=         266
 Reading file: 
 ./CDT-A_1_C0S2.log                                                             
                                          
  Entering Gaussian System, Link 0=g16                                          
  
 Gaussian format, type: g94, g98, g03= F F F
  #P Geom=AllCheck Guess=TCheck SCRF=Check GenChk RCAM-B3LYP TD(FC,Read)    
 energy type= TD      
 Original G94 input coords:
  6  8.940926 -2.393145  0.100627
  6  9.561338 -3.432862  0.111959
  6 10.305589 -4.624078  0.127806
  6 11.705591 -4.557056  0.321190
  6 12.479359 -5.715665  0.343065
  6 11.905821 -6.981175  0.175819
  6 12.670750 -8.176600  0.193841
  6 12.086437 -9.402151  0.028026
  6 10.686504 -9.532515 -0.169731
  6 10.060122-10.773871 -0.342242
  6  8.685389-10.868166 -0.534065
  6  7.897734 -9.710702 -0.557959
  6  8.465325 -8.446404 -0.391768
  6  7.697269 -7.249435 -0.410228
  6  8.279304 -6.023937 -0.244744
  6  9.672960 -5.886655 -0.047187
  6 10.476313 -7.085286 -0.024145
  6  9.886505 -8.329564 -0.192035
  6  8.221640 -1.194263  0.090925
  6  8.700627  0.089535  0.250389
  6  7.680705  1.052523  0.182591
  6  7.573965  2.555574  0.280030
  6  6.091248  2.768319  0.094663
  6  5.197857  3.866342  0.054275
  6  3.912628  3.463617 -0.150899
 16  3.763618  1.741433 -0.298942
  6  5.457647  1.562136 -0.081049
  6  6.434190  0.503559 -0.027450
 16  6.479010 -1.204787 -0.146733
  1 12.167494 -3.588331  0.452140
  1 13.550001 -5.640192  0.492551
  1 13.741871 -8.101708  0.343369
  1 12.693415-10.300181  0.045896
  1 10.667057-11.671866 -0.324290
  1  8.222567-11.837694 -0.665219
  1  6.827121 -9.789238 -0.707716
  1  6.626164 -7.323321 -0.559779
  1  7.668670 -5.130140 -0.263451
  1  9.750462  0.292253  0.408095
  1  7.924374  2.928421  1.246913
  1  8.160718  3.058464 -0.494227
  1  5.479533  4.903867  0.169797
  1  3.027841  4.075734 -0.225726
 nber atoms=          43
  Total Energy, E(TD-HF/TD-DFT) =  -1833.18494753                               
  
          32          49 "  -1833.18494753"
After scan for Atom:   Atom  AN      X      Y      Z        X      Y      Z        X      Y      Z   
After scan for Atom:   Atom  AN      X      Y      Z        X      Y      Z        X      Y      Z   
After scan for Atom:   Atom  AN      X      Y      Z        X      Y      Z        X      Y      Z   
After scan for Atom:   Atom  AN      X      Y      Z        X      Y      Z        X      Y      Z   
After scan for Atom:   Atom  AN      X      Y      Z        X      Y      Z        X      Y      Z   
After scan for Atom:   Atom  AN      X      Y      Z        X      Y      Z        X      Y      Z   
After scan for Atom:   Atom  AN      X      Y      Z        X      Y      Z        X      Y      Z   
After scan for Atom:   Atom  AN      X      Y      Z        X      Y      Z        X      Y      Z   
After scan for Atom:   Atom  AN      X      Y      Z        X      Y      Z        X      Y      Z   
After scan for Atom:   Atom  AN      X      Y      Z        X      Y      Z        X      Y      Z   
After scan for Atom:   Atom  AN      X      Y      Z        X      Y      Z        X      Y      Z   
After scan for Atom:   Atom  AN      X      Y      Z        X      Y      Z        X      Y      Z   
After scan for Atom:   Atom  AN      X      Y      Z        X      Y      Z        X      Y      Z   
After scan for Atom:   Atom  AN      X      Y      Z        X      Y      Z        X      Y      Z   
After scan for Atom:   Atom  AN      X      Y      Z        X      Y      Z        X      Y      Z   
After scan for Atom:   Atom  AN      X      Y      Z        X      Y      Z        X      Y      Z   
After scan for Atom:   Atom  AN      X      Y      Z        X      Y      Z        X      Y      Z   
After scan for Atom:   Atom  AN      X      Y      Z        X      Y      Z        X      Y      Z   
After scan for Atom:   Atom  AN      X      Y      Z        X      Y      Z        X      Y      Z   
After scan for Atom:   Atom  AN      X      Y      Z        X      Y      Z        X      Y      Z   
After scan for Atom:   Atom  AN      X      Y      Z        X      Y      Z        X      Y      Z   
After scan for Atom:   Atom  AN      X      Y      Z        X      Y      Z        X      Y      Z   
After scan for Atom:   Atom  AN      X      Y      Z        X      Y      Z        X      Y      Z   
After scan for Atom:   Atom  AN      X      Y      Z        X      Y      Z        X      Y      Z   
After scan for Atom:   Atom  AN      X      Y      Z        X      Y      Z        X      Y      Z   
After scan for Atom:   Atom  AN      X      Y      Z        X      Y      Z        X      Y      Z   
After scan for Atom:   Atom  AN      X      Y      Z        X      Y      Z        X      Y      Z   
After scan for Atom:   Atom  AN      X      Y      Z        X      Y      Z        X      Y      Z   
After scan for Atom:   Atom  AN      X      Y      Z        X      Y      Z        X      Y      Z   
After scan for Atom:   Atom  AN      X      Y      Z        X      Y      Z        X      Y      Z   
After scan for Atom:   Atom  AN      X      Y      Z        X      Y      Z        X      Y      Z   
After scan for Atom:   Atom  AN      X      Y      Z        X      Y      Z        X      Y      Z   
After scan for Atom:   Atom  AN      X      Y      Z        X      Y      Z        X      Y      Z   
After scan for Atom:   Atom  AN      X      Y      Z        X      Y      Z        X      Y      Z   
After scan for Atom:   Atom  AN      X      Y      Z        X      Y      Z        X      Y      Z   
After scan for Atom:   Atom  AN      X      Y      Z        X      Y      Z        X      Y      Z   
After scan for Atom:   Atom  AN      X      Y      Z        X      Y      Z        X      Y      Z   
After scan for Atom:   Atom  AN      X      Y      Z        X      Y      Z        X      Y      Z   
After scan for Atom:   Atom  AN      X      Y      Z        X      Y      Z        X      Y      Z   
After scan for Atom:   Atom  AN      X      Y      Z        X      Y      Z        X      Y      Z   
After scan for Atom:   Atom  AN      X      Y      Z        X      Y      Z        X      Y      Z   
 g94    frequencies=
     0.0    0.0    0.0    0.0    0.0    0.0   15.5   18.1   19.7   49.4
    88.5   91.4  119.9  144.6  159.8  169.7  200.6  217.1  218.3  241.8
   256.5  270.2  329.1  334.0  396.3  397.9  410.8  437.0  446.0  476.1
   478.4  480.0  484.0  492.5  508.9  510.4  529.4  555.0  561.8  575.7
   580.3  588.7  596.1  624.4  647.4  653.4  663.4  687.6  693.4  695.3
   723.2  724.6  737.3  739.8  769.6  776.1  790.5  818.7  819.8  837.4
   841.9  869.5  879.8  899.4  906.5  908.5  945.2  953.6  965.2  975.5
   984.0  986.2 1018.7 1030.4 1063.6 1102.0 1122.2 1129.9 1148.4 1164.1
  1168.4 1181.7 1186.5 1198.1 1208.3 1224.1 1258.7 1262.5 1280.7 1288.1
  1302.2 1361.2 1371.9 1393.0 1409.5 1425.8 1438.0 1449.0 1454.2 1461.0
  1476.4 1484.4 1488.5 1493.1 1498.3 1515.2 1541.5 1573.2 1573.8 1585.5
  1611.2 1618.4 1641.3 1695.8 2269.4 3062.5 3095.7 3183.1 3187.4 3189.8
  3194.0 3194.8 3201.2 3214.0 3216.6 3226.1 3226.6 3235.6 3266.3
 g94    symmetries=
                                                 A      A      A      A
       A      A      A      A      A      A      A      A      A      A
       A      A      A      A      A      A      A      A      A      A
       A      A      A      A      A      A      A      A      A      A
       A      A      A      A      A      A      A      A      A      A
       A      A      A      A      A      A      A      A      A      A
       A      A      A      A      A      A      A      A      A      A
       A      A      A      A      A      A      A      A      A      A
       A      A      A      A      A      A      A      A      A      A
       A      A      A      A      A      A      A      A      A      A
       A      A      A      A      A      A      A      A      A      A
       A      A      A      A      A      A      A      A      A      A
       A      A      A      A      A      A      A      A      A
 atomic masses:
 12.0000 12.0000 12.0000 12.0000 12.0000 12.0000 12.0000 12.0000 12.0000 12.0000
 12.0000 12.0000 12.0000 12.0000 12.0000 12.0000 12.0000 12.0000 12.0000 12.0000
 12.0000 12.0000 12.0000 12.0000 12.0000 31.9721 12.0000 12.0000 31.9721  1.0078
  1.0078  1.0078  1.0078  1.0078  1.0078  1.0078  1.0078  1.0078  1.0078  1.0078
  1.0078  1.0078  1.0078
 looking for force constants in 
 ./CDT-A_1_C0S2.fchk                                                            
  
 Cartesian Force Constants                  R   N=        8385                  
  
 n3=         129        8385
 g94-fc frequencies=
    -1.6   -0.0    0.0    0.0    0.6    1.8   15.5   18.1   19.7   49.4
    88.5   91.4  119.9  144.6  159.8  169.7  200.6  217.1  218.3  241.8
   256.5  270.2  329.1  334.0  396.3  397.9  410.8  437.0  446.0  476.1
   478.5  480.0  484.0  492.5  509.0  510.4  529.4  555.0  561.8  575.8
   580.3  588.7  596.1  624.4  647.4  653.4  663.4  687.6  693.4  695.3
   723.2  724.6  737.4  739.8  769.6  776.1  790.5  818.7  819.8  837.4
   841.9  869.5  879.8  899.4  906.5  908.6  945.2  953.6  965.2  975.5
   984.0  986.3 1018.7 1030.5 1063.6 1102.0 1122.2 1129.9 1148.4 1164.1
  1168.4 1181.7 1186.5 1198.1 1208.3 1224.2 1258.7 1262.6 1280.7 1288.2
  1302.2 1361.2 1372.0 1393.0 1409.5 1425.8 1438.1 1449.0 1454.2 1461.0
  1476.4 1484.5 1488.5 1493.1 1498.4 1515.3 1541.6 1573.3 1573.8 1585.5
  1611.2 1618.4 1641.4 1695.9 2269.5 3062.5 3095.8 3183.1 3187.5 3189.9
  3194.0 3194.9 3201.3 3214.0 3216.7 3226.2 3226.6 3235.6 3266.4
 at 99999: n3=         129
 symm operator            1 :  F  nop=           0
 symm operator            2 :  F  nop=           0
 symm operator            3 :  F  nop=           0
 symm operator            4 :  F  nop=           0
 symm operator            5 :  F  nop=           0
 symm operator            6 :  F  nop=           0
 symm operator            7 :  F  nop=           0
 The point group of the molecule is  C1
 Symmetry rotation matrix:
   1.00000   0.00000   0.00000
   0.00000   1.00000   0.00000
   0.00000   0.00000   1.00000

 Projecting out zero-frequency components
 generating redundant internal coords
         300        3600          43
 search for int coords
   1 str   2   1   1.211
   2 str   3   2   1.405
   3 str   4   3   1.415
   4 str   5   4   1.393
   5 str   6   5   1.399
   6 str   7   6   1.419
   7 str   8   7   1.368
   8 str   9   8   1.420
   9 str  10   9   1.401
  10 str  11  10   1.391
  11 str  12  11   1.400
  12 str  13  12   1.396
  13 str  14  13   1.422
  14 str  15  14   1.367
  15 str  16   3   1.423
  16 str  16  15   1.414
  17 str  17   6   1.447
  18 str  17  16   1.443
  19 str  18   9   1.445
  20 str  18  13   1.440
  21 str  18  17   1.387
  22 str  19   1   1.398
  23 str  20  19   1.379
  24 str  21  20   1.404
  25 str  22  21   1.510
  26 str  23  22   1.509
  27 str  24  23   1.416
  28 str  25  24   1.362
  29 str  26  25   1.735
  30 str  27  23   1.374
  31 str  27  26   1.717
  32 str  28  21   1.378
  33 str  28  27   1.441
  34 str  29  19   1.759
  35 str  29  28   1.713
  36 str  30   4   1.081
  37 str  31   5   1.084
  38 str  32   7   1.084
  39 str  33   8   1.084
  40 str  34  10   1.084
  41 str  35  11   1.082
  42 str  36  12   1.084
  43 str  37  14   1.084
  44 str  38  15   1.083
  45 str  39  20   1.081
  46 str  40  22   1.094
  47 str  41  22   1.094
  48 str  42  24   1.081
  49 str  43  25   1.078
 nber stretches=          49
  50 lin ben   1   2   3
  52 ben   1  19  20
  53 prop tor   1  19  20  21
  54 prop tor   1  19  20  39
  55 ben   1  19  29
  56 prop tor   1  19  29  28
 Extend lin bond           1          19           2           3
  57 lin ben   2   1  19
  59 ben   2   3   4
  60 prop tor   2   3   4   5
  61 prop tor   2   3   4  30
  62 ben   2   3  16
  63 prop tor   2   3  16  15
  64 prop tor   2   3  16  17
  65 ben   3   4   5
  66 prop tor   3   4   5   6
  67 prop tor   3   4   5  31
  68 ben   3   4  30
  69 ben   3  16  15
  70 ben   3  16  17
  71 prop tor   3  16  17   6
  72 prop tor   3  16  17  18
  73 ben   4   3  16
  74 prop tor   4   3  16  15
  75 prop tor   4   3  16  17
  76 ben   4   5   6
  77 prop tor   4   5   6   7
  78 prop tor   4   5   6  17
  79 ben   4   5  31
  80 ben   5   4  30
  81 ben   5   6   7
  82 prop tor   5   6   7   8
  83 prop tor   5   6   7  32
  84 ben   5   6  17
  85 prop tor   5   6  17  16
  86 prop tor   5   6  17  18
  87 ben   6   5  31
  88 ben   6   7   8
  89 prop tor   6   7   8   9
  90 prop tor   6   7   8  33
  91 ben   6   7  32
  92 ben   6  17  16
  93 ben   6  17  18
  94 prop tor   6  17  18   9
  95 prop tor   6  17  18  13
  96 ben   7   6  17
  97 prop tor   7   6  17  16
  98 prop tor   7   6  17  18
  99 ben   7   8   9
 100 prop tor   7   8   9  10
 101 prop tor   7   8   9  18
 102 ben   7   8  33
 103 ben   8   7  32
 104 ben   8   9  10
 105 prop tor   8   9  10  11
 106 prop tor   8   9  10  34
 107 ben   8   9  18
 108 prop tor   8   9  18  13
 109 prop tor   8   9  18  17
 110 ben   9   8  33
 111 ben   9  10  11
 112 prop tor   9  10  11  12
 113 prop tor   9  10  11  35
 114 ben   9  10  34
 115 ben   9  18  13
 116 ben   9  18  17
 117 ben  10   9  18
 118 prop tor  10   9  18  13
 119 prop tor  10   9  18  17
 120 ben  10  11  12
 121 prop tor  10  11  12  13
 122 prop tor  10  11  12  36
 123 ben  10  11  35
 124 ben  11  10  34
 125 ben  11  12  13
 126 prop tor  11  12  13  14
 127 prop tor  11  12  13  18
 128 ben  11  12  36
 129 ben  12  11  35
 130 ben  12  13  14
 131 prop tor  12  13  14  15
 132 prop tor  12  13  14  37
 133 ben  12  13  18
 134 prop tor  12  13  18   9
 135 prop tor  12  13  18  17
 136 ben  13  12  36
 137 ben  13  14  15
 138 prop tor  13  14  15  16
 139 prop tor  13  14  15  38
 140 ben  13  14  37
 141 ben  13  18  17
 142 ben  14  13  18
 143 prop tor  14  13  18   9
 144 prop tor  14  13  18  17
 145 ben  14  15  16
 146 prop tor  14  15  16   3
 147 prop tor  14  15  16  17
 148 ben  14  15  38
 149 ben  15  14  37
 150 ben  15  16  17
 151 prop tor  15  16  17   6
 152 prop tor  15  16  17  18
 153 prop tor  16   3   4   5
 154 prop tor  16   3   4  30
 155 ben  16  15  38
 156 ben  16  17  18
 157 prop tor  16  17  18   9
 158 prop tor  16  17  18  13
 159 prop tor  17   6   7   8
 160 prop tor  17   6   7  32
 161 prop tor  18   9  10  11
 162 prop tor  18   9  10  34
 163 prop tor  18  13  14  15
 164 prop tor  18  13  14  37
 165 ben  19  20  21
 166 prop tor  19  20  21  22
 167 prop tor  19  20  21  28
 168 ben  19  20  39
 169 ben  19  29  28
 170 ben  20  19  29
 171 prop tor  20  19  29  28
 172 ben  20  21  22
 173 prop tor  20  21  22  23
 174 prop tor  20  21  22  40
 175 prop tor  20  21  22  41
 176 ben  20  21  28
 177 prop tor  20  21  28  27
 178 prop tor  20  21  28  29
 179 ben  21  20  39
 180 ben  21  22  23
 181 prop tor  21  22  23  24
 182 prop tor  21  22  23  27
 183 ben  21  22  40
 184 ben  21  22  41
 185 ben  21  28  27
 186 ben  21  28  29
 187 prop tor  21  28  29  19
 188 ben  22  21  28
 189 prop tor  22  21  28  27
 190 prop tor  22  21  28  29
 191 ben  22  23  24
 192 prop tor  22  23  24  25
 193 prop tor  22  23  24  42
 194 ben  22  23  27
 195 prop tor  22  23  27  26
 196 prop tor  22  23  27  28
 197 ben  23  22  40
 198 ben  23  22  41
 199 ben  23  24  25
 200 prop tor  23  24  25  26
 201 prop tor  23  24  25  43
 202 ben  23  24  42
 203 ben  23  27  26
 204 ben  23  27  28
 205 prop tor  23  27  28  21
 206 prop tor  23  27  28  29
 207 ben  24  23  27
 208 prop tor  24  23  27  26
 209 prop tor  24  23  27  28
 210 ben  24  25  26
 211 prop tor  24  25  26  27
 212 ben  24  25  43
 213 ben  25  24  42
 214 ben  25  26  27
 215 prop tor  25  26  27  23
 216 prop tor  25  26  27  28
 217 ben  26  25  43
 218 ben  26  27  28
 219 prop tor  26  27  28  21
 220 prop tor  26  27  28  29
 221 prop tor  27  23  24  25
 222 prop tor  27  23  24  42
 223 ben  27  28  29
 224 prop tor  27  28  29  19
 225 prop tor  28  21  22  23
 226 prop tor  28  21  22  40
 227 prop tor  28  21  22  41
 228 prop tor  29  19  20  21
 229 prop tor  29  19  20  39
 230 prop tor  30   4   5   6
 231 prop tor  30   4   5  31
 232 prop tor  31   5   6   7
 233 prop tor  31   5   6  17
 234 prop tor  32   7   8   9
 235 prop tor  32   7   8  33
 236 prop tor  33   8   9  10
 237 prop tor  33   8   9  18
 238 prop tor  34  10  11  12
 239 prop tor  34  10  11  35
 240 prop tor  35  11  12  13
 241 prop tor  35  11  12  36
 242 prop tor  36  12  13  14
 243 prop tor  36  12  13  18
 244 prop tor  37  14  15  16
 245 prop tor  37  14  15  38
 246 prop tor  38  15  16   3
 247 prop tor  38  15  16  17
 248 prop tor  39  20  21  22
 249 prop tor  39  20  21  28
 250 prop tor  40  22  23  24
 251 prop tor  40  22  23  27
 252 ben  40  22  41
 253 prop tor  41  22  23  24
 254 prop tor  41  22  23  27
 255 prop tor  42  24  25  26
 256 prop tor  42  24  25  43
 257 prop tor  43  25  26  27
 258 lin bend prop tor   1  19   3   2
 259 lin bend prop tor   1  19   3   4
 260 lin bend prop tor   1  19   3  16
 261 lin bend prop tor  20  19   3   2
 262 lin bend prop tor  20  19   3   4
 263 lin bend prop tor  20  19   3  16
 264 lin bend prop tor  29  19   3   2
 265 lin bend prop tor  29  19   3   4
 266 lin bend prop tor  29  19   3  16
 nber bend=              84
 nber lin bend=           1
 nber prop tor=         133
 nber impr tor=           0
 nber tot redund int=         266
 Eigenvalues of G in red int coords
    Gval -0.00000000 -0.00000000 -0.00000000 -0.00000000 -0.00000000 -0.00000000 -0.00000000 -0.00000000
    Gval -0.00000000 -0.00000000 -0.00000000 -0.00000000 -0.00000000 -0.00000000 -0.00000000 -0.00000000
    Gval -0.00000000 -0.00000000 -0.00000000 -0.00000000 -0.00000000 -0.00000000 -0.00000000 -0.00000000
    Gval -0.00000000 -0.00000000 -0.00000000 -0.00000000 -0.00000000 -0.00000000 -0.00000000 -0.00000000
    Gval -0.00000000 -0.00000000 -0.00000000 -0.00000000 -0.00000000 -0.00000000 -0.00000000 -0.00000000
    Gval -0.00000000 -0.00000000 -0.00000000 -0.00000000 -0.00000000 -0.00000000 -0.00000000 -0.00000000
    Gval -0.00000000 -0.00000000 -0.00000000 -0.00000000 -0.00000000 -0.00000000 -0.00000000 -0.00000000
    Gval -0.00000000 -0.00000000 -0.00000000 -0.00000000 -0.00000000 -0.00000000 -0.00000000 -0.00000000
    Gval -0.00000000 -0.00000000 -0.00000000 -0.00000000 -0.00000000 -0.00000000 -0.00000000 -0.00000000
    Gval -0.00000000  0.00000000  0.00000000  0.00000000  0.00000000  0.00000000  0.00000000  0.00000000
    Gval  0.00000000  0.00000000  0.00000000  0.00000000  0.00000000  0.00000000  0.00000000  0.00000000
    Gval  0.00000000  0.00000000  0.00000000  0.00000000  0.00000000  0.00000000  0.00000000  0.00000000
    Gval  0.00000000  0.00000000  0.00000000  0.00000000  0.00000000  0.00000000  0.00000000  0.00000000
    Gval  0.00000000  0.00000000  0.00000000  0.00000000  0.00000000  0.00000000  0.00000000  0.00000000
    Gval  0.00000000  0.00000000  0.00000000  0.00000000  0.00000000  0.00000000  0.00000000  0.00000000
    Gval  0.00000000  0.00000000  0.00000000  0.00000000  0.00000000  0.00000000  0.00000000  0.00000000
    Gval  0.00000000  0.00000000  0.00000000  0.00000000  0.00000000  0.00000000  0.00000000  0.00000000
    Gval  0.00000000  0.00000000  0.00000000  0.00000000  0.00000000  0.00000000  0.00000000  0.00000021
    Gval  0.00000156  0.00000247  0.00000334  0.00000773  0.00000911  0.00001263  0.00001407  0.00001613
    Gval  0.00002029  0.00002332  0.00002401  0.00002491  0.00002671  0.00003551  0.00003783  0.00003954
    Gval  0.00004929  0.00005076  0.00005588  0.00005706  0.00005783  0.00006360  0.00006822  0.00007179
    Gval  0.00007532  0.00007614  0.00007691  0.00008670  0.00009121  0.00009354  0.00009748  0.00010339
    Gval  0.00010904  0.00011326  0.00012838  0.00013030  0.00013424  0.00013567  0.00013969  0.00014048
    Gval  0.00014779  0.00016542  0.00018307  0.00019169  0.00021319  0.00021772  0.00023587  0.00025944
    Gval  0.00026603  0.00027516  0.00029135  0.00030364  0.00031442  0.00031763  0.00034191  0.00037114
    Gval  0.00037578  0.00037894  0.00037938  0.00038421  0.00040477  0.00041668  0.00042167  0.00043219
    Gval  0.00044642  0.00048023  0.00055038  0.00058320  0.00059388  0.00059679  0.00059679  0.00059877
    Gval  0.00059997  0.00060861  0.00061376  0.00062432  0.00062845  0.00063307  0.00064205  0.00064816
    Gval  0.00065922  0.00066572  0.00080919  0.00081484  0.00100078  0.00106737  0.00108290  0.00108539
    Gval  0.00109027  0.00109303  0.00109709  0.00113970  0.00114070  0.00114450  0.00116143  0.00116269
    Gval  0.00116371  0.00117030  0.00118693  0.00134312  0.00138866  0.00149469  0.00166852  0.00173646
    Gval  0.00193024  0.00196186  0.00208235  0.00220066  0.00240825  0.00252638  0.00260672  0.00265636
    Gval  0.00303374  0.00310370  0.00360848  0.00367952  0.00371201  0.00375698  0.00393256  0.00408779
    Gval  0.58595613  2.80076270
  2.078389066322353E-007  2.078389066322353E-007
  1.561335836595888E-006  2.078389066322353E-007
  2.473463887464039E-006  2.078389066322353E-007
  3.337646458731325E-006  2.078389066322353E-007
  7.733237429932457E-006  2.078389066322353E-007
  9.107444238585936E-006  2.078389066322353E-007
  1.262799552319640E-005  2.078389066322353E-007
  1.407082740450262E-005  2.078389066322353E-007
  1.612553831686587E-005  2.078389066322353E-007
  2.028763795234338E-005  2.078389066322353E-007
  2.331592292867679E-005  2.078389066322353E-007
  2.401226877568904E-005  2.078389066322353E-007
  2.491141586201440E-005  2.078389066322353E-007
  2.670584379696262E-005  2.078389066322353E-007
  3.551040769880322E-005  2.078389066322353E-007
  3.782669301792330E-005  2.078389066322353E-007
  3.954308037139523E-005  2.078389066322353E-007
  4.929386030887463E-005  2.078389066322353E-007
  5.076252125241302E-005  2.078389066322353E-007
  5.588080861484903E-005  2.078389066322353E-007
  5.705680171512765E-005  2.078389066322353E-007
  5.783487847042335E-005  2.078389066322353E-007
  6.360494929301777E-005  2.078389066322353E-007
  6.822218989791832E-005  2.078389066322353E-007
  7.178898026702380E-005  2.078389066322353E-007
  7.532264026739628E-005  2.078389066322353E-007
  7.613996315581923E-005  2.078389066322353E-007
  7.690819281562436E-005  2.078389066322353E-007
  8.669849574841170E-005  2.078389066322353E-007
  9.120618658294642E-005  2.078389066322353E-007
  9.354090383590083E-005  2.078389066322353E-007
  9.748024801870514E-005  2.078389066322353E-007
  1.033871772266138E-004  2.078389066322353E-007
  1.090431602344166E-004  2.078389066322353E-007
  1.132572230243328E-004  2.078389066322353E-007
  1.283830031473728E-004  2.078389066322353E-007
  1.302971160666681E-004  2.078389066322353E-007
  1.342404068651808E-004  2.078389066322353E-007
  1.356740744186577E-004  2.078389066322353E-007
  1.396873019120856E-004  2.078389066322353E-007
  1.404827064028528E-004  2.078389066322353E-007
  1.477908701666626E-004  2.078389066322353E-007
  1.654156897533293E-004  2.078389066322353E-007
  1.830676804535409E-004  2.078389066322353E-007
  1.916932988207565E-004  2.078389066322353E-007
  2.131865461468374E-004  2.078389066322353E-007
  2.177230443551774E-004  2.078389066322353E-007
  2.358720937054922E-004  2.078389066322353E-007
  2.594415590839210E-004  2.078389066322353E-007
  2.660322172757300E-004  2.078389066322353E-007
  2.751642659757287E-004  2.078389066322353E-007
  2.913455869615797E-004  2.078389066322353E-007
  3.036389266549840E-004  2.078389066322353E-007
  3.144165075634895E-004  2.078389066322353E-007
  3.176313836726331E-004  2.078389066322353E-007
  3.419133418763403E-004  2.078389066322353E-007
  3.711373158819979E-004  2.078389066322353E-007
  3.757797421420482E-004  2.078389066322353E-007
  3.789444850034445E-004  2.078389066322353E-007
  3.793819410438730E-004  2.078389066322353E-007
  3.842095636869919E-004  2.078389066322353E-007
  4.047715416228862E-004  2.078389066322353E-007
  4.166799267231207E-004  2.078389066322353E-007
  4.216672900847661E-004  2.078389066322353E-007
  4.321922671291243E-004  2.078389066322353E-007
  4.464150770859329E-004  2.078389066322353E-007
  4.802271007759014E-004  2.078389066322353E-007
  5.503785020277172E-004  2.078389066322353E-007
  5.831998984831788E-004  2.078389066322353E-007
  5.938827264104317E-004  2.078389066322353E-007
  5.967868298822528E-004  2.078389066322353E-007
  5.967941819148004E-004  2.078389066322353E-007
  5.987736753469213E-004  2.078389066322353E-007
  5.999695686969159E-004  2.078389066322353E-007
  6.086109572477832E-004  2.078389066322353E-007
  6.137621169474807E-004  2.078389066322353E-007
  6.243206162646338E-004  2.078389066322353E-007
  6.284549689168359E-004  2.078389066322353E-007
  6.330656345587449E-004  2.078389066322353E-007
  6.420493378250795E-004  2.078389066322353E-007
  6.481638822113049E-004  2.078389066322353E-007
  6.592208035922205E-004  2.078389066322353E-007
  6.657190534289903E-004  2.078389066322353E-007
  8.091879117356224E-004  2.078389066322353E-007
  8.148350870534513E-004  2.078389066322353E-007
  1.000779443839444E-003  2.078389066322353E-007
  1.067369700770096E-003  2.078389066322353E-007
  1.082897601692146E-003  2.078389066322353E-007
  1.085390041336334E-003  2.078389066322353E-007
  1.090266445110488E-003  2.078389066322353E-007
  1.093032236536064E-003  2.078389066322353E-007
  1.097091556978901E-003  2.078389066322353E-007
  1.139697533738400E-003  2.078389066322353E-007
  1.140702908349041E-003  2.078389066322353E-007
  1.144496015695546E-003  2.078389066322353E-007
  1.161428070209260E-003  2.078389066322353E-007
  1.162694544275350E-003  2.078389066322353E-007
  1.163713165668401E-003  2.078389066322353E-007
  1.170304868095026E-003  2.078389066322353E-007
  1.186930067665973E-003  2.078389066322353E-007
  1.343118067003762E-003  2.078389066322353E-007
  1.388662645845016E-003  2.078389066322353E-007
  1.494689128463965E-003  2.078389066322353E-007
  1.668518475016433E-003  2.078389066322353E-007
  1.736456682701963E-003  2.078389066322353E-007
  1.930243126702725E-003  2.078389066322353E-007
  1.961859893734642E-003  2.078389066322353E-007
  2.082354274704535E-003  2.078389066322353E-007
  2.200663777546517E-003  2.078389066322353E-007
  2.408245417626952E-003  2.078389066322353E-007
  2.526379707245799E-003  2.078389066322353E-007
  2.606717346982153E-003  2.078389066322353E-007
  2.656356142883675E-003  2.078389066322353E-007
  3.033744274128072E-003  2.078389066322353E-007
  3.103700842205732E-003  2.078389066322353E-007
  3.608478192420502E-003  2.078389066322353E-007
  3.679515473621877E-003  2.078389066322353E-007
  3.712009900039438E-003  2.078389066322353E-007
  3.756978526315187E-003  2.078389066322353E-007
  3.932563181401187E-003  2.078389066322353E-007
  4.087785902274899E-003  2.078389066322353E-007
  0.585956127360773       2.078389066322353E-007
   2.80076269967577       2.078389066322353E-007
 cut=1d-8, nber non-redundant internal coords=         123
 Check on Eigenvals of non-red overlap matrix:
  0.00000021  0.00000156  0.00000247  0.00000334  0.00000773  0.00000911  0.00001263  0.00001407
  0.00001613  0.00002029  0.00002332  0.00002401  0.00002491  0.00002671  0.00003551  0.00003783
  0.00003954  0.00004929  0.00005076  0.00005588  0.00005706  0.00005783  0.00006360  0.00006822
  0.00007179  0.00007532  0.00007614  0.00007691  0.00008670  0.00009121  0.00009354  0.00009748
  0.00010339  0.00010904  0.00011326  0.00012838  0.00013030  0.00013424  0.00013567  0.00013969
  0.00014048  0.00014779  0.00016542  0.00018307  0.00019169  0.00021319  0.00021772  0.00023587
  0.00025944  0.00026603  0.00027516  0.00029135  0.00030364  0.00031442  0.00031763  0.00034191
  0.00037114  0.00037578  0.00037894  0.00037938  0.00038421  0.00040477  0.00041668  0.00042167
  0.00043219  0.00044642  0.00048023  0.00055038  0.00058320  0.00059388  0.00059679  0.00059679
  0.00059877  0.00059997  0.00060861  0.00061376  0.00062432  0.00062845  0.00063307  0.00064205
  0.00064816  0.00065922  0.00066572  0.00080919  0.00081484  0.00100078  0.00106737  0.00108290
  0.00108539  0.00109027  0.00109303  0.00109709  0.00113970  0.00114070  0.00114450  0.00116143
  0.00116269  0.00116371  0.00117030  0.00118693  0.00134312  0.00138866  0.00149469  0.00166852
  0.00173646  0.00193024  0.00196186  0.00208235  0.00220066  0.00240825  0.00252638  0.00260672
  0.00265636  0.00303374  0.00310370  0.00360848  0.00367952  0.00371201  0.00375698  0.00393256
  0.00408779  0.58595613  2.80076270
 Checking for correct frequencies
 recalc frequencies=
    -0.0   -0.0    0.0    0.0    0.0    0.0   15.5   18.1   19.7   49.4
    88.5   91.4  119.9  144.6  159.8  169.7  200.6  217.1  218.3  241.8
   256.5  270.2  329.1  334.0  396.3  397.9  410.8  437.0  446.0  476.1
   478.5  480.0  484.0  492.5  509.0  510.4  529.4  555.0  561.8  575.8
   580.3  588.7  596.1  624.4  647.4  653.4  663.4  687.6  693.4  695.3
   723.2  724.6  737.4  739.8  769.6  776.1  790.5  818.7  819.8  837.4
   841.9  869.5  879.8  899.4  906.5  908.6  945.2  953.6  965.2  975.5
   984.0  986.3 1018.7 1030.5 1063.6 1102.0 1122.2 1129.9 1148.4 1164.1
  1168.4 1181.7 1186.5 1198.1 1208.3 1224.2 1258.7 1262.6 1280.7 1288.2
  1302.2 1361.2 1372.0 1393.0 1409.5 1425.8 1438.1 1449.0 1454.2 1461.0
  1476.4 1484.5 1488.5 1493.1 1498.4 1515.3 1541.6 1573.3 1573.8 1585.5
  1611.2 1618.4 1641.4 1695.9 2269.5 3062.5 3095.8 3183.1 3187.5 3189.9
  3194.0 3194.9 3201.3 3214.0 3216.7 3226.2 3226.6 3235.6 3266.4
 recalc symmetries=
                                                                       
                                                                       
                                                                       
                                                                       
                                                                       
                                                                       
                                                                       
                                                                       
                                                                       
                                                                       
                                                                       
                                                                       
                                                                
 recalc freqs check OK
 Zero-point lengths:
 10.0000 10.0000 10.0000 10.0000 10.0000 10.0000 62.9380 58.3073 55.9010 35.2766
 26.3565 25.9261 22.6379 20.6128 19.6131 19.0285 17.5051 16.8254 16.7790 15.9437
 15.4786 15.0827 13.6649 13.5659 12.4527 12.4281 12.2315 11.8592 11.7386 11.3620
 11.3338 11.3156 11.2688 11.1713 10.9889 10.9736 10.7742 10.5235 10.4593 10.3319
 10.2913 10.2172 10.1541  9.9210  9.7432  9.6987  9.6249  9.4540  9.4148  9.4018
  9.2185  9.2099  9.1297  9.1146  8.9365  8.8988  8.8176  8.6644  8.6585  8.5671
  8.5441  8.4075  8.3581  8.2663  8.2338  8.2247  8.0638  8.0281  7.9796  7.9373
  7.9030  7.8940  7.7673  7.7228  7.6017  7.4681  7.4005  7.3751  7.3156  7.2662
  7.2526  7.2117  7.1972  7.1621  7.1319  7.0856  6.9876  6.9770  6.9274  6.9073
  6.8699  6.7194  6.6930  6.6423  6.6034  6.5655  6.5374  6.5126  6.5010  6.4859
  6.4519  6.4344  6.4257  6.4158  6.4045  6.3687  6.3142  6.2502  6.2491  6.2260
  6.1762  6.1624  6.1192  6.0201  5.2039  4.4798  4.4557  4.3941  4.3911  4.3894
  4.3866  4.3860  4.3816  4.3729  4.3711  4.3647  4.3644  4.3583  4.3377
 highest evec of mol 2
  0.0000 -0.0000  0.0000
 -0.0000  0.0000  0.0000
  0.0000  0.0000  0.0000
 -0.0001 -0.0002 -0.0000
  0.0001  0.0000  0.0000
 -0.0000 -0.0000 -0.0000
  0.0001  0.0000  0.0000
  0.0000 -0.0001 -0.0000
  0.0000  0.0000  0.0000
  0.0000 -0.0001 -0.0000
  0.0001  0.0001  0.0000
 -0.0001 -0.0000 -0.0000
  0.0000  0.0000  0.0000
 -0.0001 -0.0000 -0.0000
  0.0000  0.0000  0.0000
 -0.0000 -0.0001 -0.0000
  0.0000  0.0001  0.0000
 -0.0000 -0.0000 -0.0000
 -0.0002  0.0000 -0.0000
  0.0004  0.0001  0.0001
  0.0003  0.0000  0.0000
  0.0002 -0.0002  0.0000
 -0.0034  0.0063 -0.0000
 -0.0345 -0.0708 -0.0100
  0.2441 -0.1526  0.0219
  0.0007  0.0025  0.0003
 -0.0033  0.0017 -0.0003
 -0.0003 -0.0002 -0.0000
  0.0000 -0.0001 -0.0000
  0.0003  0.0006  0.0001
 -0.0003 -0.0000 -0.0000
 -0.0002 -0.0000 -0.0000
 -0.0002  0.0002 -0.0000
 -0.0002  0.0002 -0.0000
 -0.0001 -0.0002 -0.0000
  0.0004  0.0000  0.0000
  0.0003  0.0000  0.0000
  0.0001 -0.0001  0.0000
 -0.0011 -0.0002 -0.0002
  0.0002 -0.0001  0.0000
  0.0003 -0.0001  0.0000
  0.0588  0.2056  0.0233
 -0.7640  0.5254 -0.0649
 Enter nber and list of atoms to keep of mol #2
 keep list:          43           1           2           3           4
           5           6           7           8           9          10
          11          12          13          14          15          16
          17          18          19          20          21          22
          23          24          25          26          27          28
          29          30          31          32          33          34
          35          36          37          38          39          40
          41          42          43
 reordering atoms
           1 -0.737166919749242     
           2  0.466081099967953     
           3   1.85850067007778     
           4   2.37648279022972     
           5   3.75142322599518     
           6   4.66648569040104     
           7   6.07129240332037     
           8   6.94551500392709     
           9   6.48523403767889     
          10   7.35644771106690     
          11   6.87374777801973     
          12   5.49410717214285     
          13   4.57769026396548     
          14   3.17018563572863     
          15   2.29506935496398     
          16   2.74645395596636     
          17   4.17007034303141     
          18   5.05907155932817     
          19  -2.12626222384915     
          20  -3.09711389712173     
          21  -4.39575267837576     
          22  -5.80849148372586     
          23  -6.61540734969910     
          24  -7.98467421399226     
          25  -8.14949571137173     
          26  -6.64300008251175     
          27  -5.77916109577525     
          28  -4.41141335598795     
          29  -2.83736941480146     
          30   1.68547895641076     
          31   4.12549652087738     
          32   6.44609263577575     
          33   8.01421508107716     
          34   8.42509734881164     
          35   7.56510289140102     
          36   5.12283530089040     
          37   2.79447693678636     
          38   1.22871185019585     
          39  -2.84752238833690     
          40  -6.01130040750134     
          41  -6.01550340041055     
          42  -8.81289542442276     
          43  -9.07277056765233     
           1           1
           2           2
           3           3
           4           4
           5           5
           6           6
           7           7
           8           8
           9           9
          10          10
          11          11
          12          12
          13          13
          14          14
          15          15
          16          16
          17          17
          18          18
          19          19
          20          20
          21          21
          22          22
          23          23
          24          24
          25          25
          26          26
          27          27
          28          28
          29          29
          30          30
          31          31
          32          32
          33          33
          34          34
          35          35
          36          36
          37          37
          38          38
          39          39
          40          40
          41          41
          42          42
          43          43
 initial cartes coords mol 1
   6  -0.00067  -1.08588  -0.74934
   6  -0.00045  -1.23666   0.47266
   6  -0.00015  -1.40893   1.83833
   6   0.00020  -2.72552   2.38522
   6   0.00034  -2.93348   3.72978
   6   0.00021  -1.84807   4.64513
   6   0.00025  -2.04930   6.04504
   6   0.00024  -0.99942   6.91498
   6   0.00021   0.34514   6.44409
   6   0.00028   1.44278   7.31479
   6   0.00028   2.73991   6.82279
   6   0.00023   2.97635   5.46082
   6   0.00017   1.90734   4.54805
   6   0.00021   2.10808   3.14088
   6   0.00012   1.05330   2.27589
   6  -0.00003  -0.28276   2.73991
   6   0.00009  -0.52073   4.13610
   6   0.00015   0.57717   5.04146
   6  -0.00092  -0.91906  -2.10138
   6  -0.00028  -1.90837  -3.11217
   6  -0.00010  -1.36706  -4.37868
   6   0.00047  -1.88824  -5.79813
   6   0.00057  -0.60485  -6.59289
   6   0.00158  -0.22932  -7.94787
   6   0.00136   1.13063  -8.10259
  16  -0.00003   1.98347  -6.59045
   6  -0.00018   0.48749  -5.73294
   6  -0.00045   0.04018  -4.39138
  16  -0.00137   0.71861  -2.81096
   1   0.00029  -3.56340   1.69965
   1   0.00057  -3.94404   4.12197
   1   0.00029  -3.06664   6.42060
   1   0.00025  -1.17453   7.98476
   1   0.00033   1.26610   8.38437
   1   0.00032   3.57500   7.51338
   1   0.00026   3.99186   5.08149
   1   0.00035   3.12308   2.76010
   1   0.00019   1.23084   1.20760
   1  -0.00009  -2.96095  -2.86841
   1   0.88136  -2.50304  -6.00541
   1  -0.88005  -2.50337  -6.00605
   1   0.00223  -0.91463  -8.78449
   1   0.00160   1.69301  -9.02305
 initial cartes coords mol 2
   6  -0.00406  -1.06166  -0.73717
   6  -0.00193  -1.19672   0.46608
   6  -0.00111  -1.38198   1.85850
   6  -0.00122  -2.69864   2.37648
   6  -0.00068  -2.92471   3.75142
   6  -0.00003  -1.86590   4.66649
   6   0.00048  -2.06838   6.07129
   6   0.00116  -1.01642   6.94552
   6   0.00141   0.32673   6.48523
   6   0.00219   1.42403   7.35645
   6   0.00240   2.72886   6.87375
   6   0.00181   2.96821   5.49411
   6   0.00099   1.91540   4.57769
   6   0.00035   2.12013   3.17019
   6  -0.00034   1.07029   2.29507
   6  -0.00045  -0.27001   2.74645
   6   0.00013  -0.50652   4.17007
   6   0.00081   0.55835   5.05907
   6  -0.00267  -0.90292  -2.12626
   6   0.00029  -1.88294  -3.09711
   6   0.00100  -1.34841  -4.39575
   6   0.00517  -1.88152  -5.80849
   6   0.00441  -0.60600  -6.61541
   6   0.00581  -0.24469  -7.98467
   6   0.00272   1.10768  -8.14950
  16  -0.00188   1.96820  -6.64300
   6   0.00050   0.48390  -5.77916
   6  -0.00170   0.02964  -4.41141
  16  -0.00468   0.70570  -2.83737
   1  -0.00187  -3.53017   1.68548
   1  -0.00090  -3.94176   4.12550
   1   0.00028  -3.08563   6.44609
   1   0.00151  -1.19829   8.01422
   1   0.00263   1.24217   8.42510
   1   0.00304   3.56158   7.56510
   1   0.00197   3.98652   5.12284
   1   0.00045   3.13696   2.79448
[...]
 116      3057. -1.0000   100.0   100.0 116      3062.
 117      3088. -1.0000   100.0   100.0 117      3096.
 118      3181. -0.9773    95.5   100.0 118      3183.
 119      3182.  0.9420    88.7   100.0 119      3187.
 120      3188.  0.9803    96.1   100.0 120      3190.
 121      3189. -0.9294    86.4   100.0 122      3195.
 122      3192. -0.9366    87.7   100.0 121      3194.
 123      3200.  0.9859    97.2   100.0 123      3201.
 124      3207.  0.9475    89.8   100.0 125      3217.
 125      3210. -0.9735    94.8   100.0 124      3214.
 126      3213. -0.9825    96.5   100.0 127      3227.
 127      3224.  0.9973    99.5   100.0 126      3226.
 128      3238.  0.9998   100.0   100.0 128      3236.
 129      3265. -1.0000   100.0   100.0 129      3266.
 nber times 1st assigned=           1           0
 nber times 1st assigned=           2           0
 nber times 1st assigned=           3           0
 nber times 1st assigned=           4           0
 nber times 1st assigned=           5           0
 nber times 1st assigned=           6           0
 nber times 1st assigned=           7           0
 nber times 1st assigned=           8           0
 nber times 1st assigned=           9           0
 nber times 1st assigned=          10           0
 nber times 1st assigned=          11           0
 nber times 1st assigned=          12           0
 nber times 1st assigned=          13           0
 nber times 1st assigned=          14           0
 nber times 1st assigned=          15           0
 nber times 1st assigned=          16           0
 nber times 1st assigned=          17           0
 nber times 1st assigned=          18           0
 nber times 1st assigned=          19           0
 nber times 1st assigned=          20           0
 nber times 1st assigned=          21           0
 nber times 1st assigned=          22           0
 nber times 1st assigned=          23           0
 nber times 1st assigned=          24           0
 nber times 1st assigned=          25           0
 nber times 1st assigned=          26           0
 nber times 1st assigned=          27           0
 nber times 1st assigned=          28           0
 nber times 1st assigned=          29           0
 nber times 1st assigned=          30           0
 nber times 1st assigned=          31           0
 nber times 1st assigned=          32           0
 nber times 1st assigned=          33           0
 nber times 1st assigned=          34           0
 nber times 1st assigned=          35           0
 nber times 1st assigned=          36           0
 nber times 1st assigned=          37           0
 nber times 1st assigned=          38           0
 nber times 1st assigned=          39           0
 nber times 1st assigned=          40           0
 nber times 1st assigned=          41           0
 nber times 1st assigned=          42           0
 nber times 1st assigned=          43           0
 nber times 1st assigned=          44           0
 nber times 1st assigned=          45           0
 nber times 1st assigned=          46           0
 nber times 1st assigned=          47           0
 nber times 1st assigned=          48           0
 nber times 1st assigned=          49           0
 nber times 1st assigned=          50           0
 nber times 1st assigned=          51           0
 nber times 1st assigned=          52           0
 nber times 1st assigned=          53           0
 nber times 1st assigned=          54           0
 nber times 1st assigned=          55           0
 nber times 1st assigned=          56           0
 nber times 1st assigned=          57           0
 nber times 1st assigned=          58           0
 nber times 1st assigned=          59           0
 nber times 1st assigned=          60           0
 nber times 1st assigned=          61           0
 nber times 1st assigned=          62           0
 nber times 1st assigned=          63           0
 nber times 1st assigned=          64           0
 nber times 1st assigned=          65           0
 nber times 1st assigned=          66           0
 nber times 1st assigned=          67           0
 nber times 1st assigned=          68           0
 nber times 1st assigned=          69           0
 nber times 1st assigned=          70           0
 nber times 1st assigned=          71           0
 nber times 1st assigned=          72           0
 nber times 1st assigned=          73           0
 nber times 1st assigned=          74           0
 nber times 1st assigned=          75           0
 nber times 1st assigned=          76           0
 nber times 1st assigned=          77           0
 nber times 1st assigned=          78           0
 nber times 1st assigned=          79           0
 nber times 1st assigned=          80           0
 nber times 1st assigned=          81           0
 nber times 1st assigned=          82           0
 nber times 1st assigned=          83           0
 nber times 1st assigned=          84           0
 nber times 1st assigned=          85           0
 nber times 1st assigned=          86           0
 nber times 1st assigned=          87           0
 nber times 1st assigned=          88           0
 nber times 1st assigned=          89           0
 nber times 1st assigned=          90           0
 nber times 1st assigned=          91           0
 nber times 1st assigned=          92           0
 nber times 1st assigned=          93           0
 nber times 1st assigned=          94           0
 nber times 1st assigned=          95           0
 nber times 1st assigned=          96           0
 nber times 1st assigned=          97           0
 nber times 1st assigned=          98           0
 nber times 1st assigned=          99           0
 nber times 1st assigned=         100           0
 nber times 1st assigned=         101           0
 nber times 1st assigned=         102           0
 nber times 1st assigned=         103           0
 nber times 1st assigned=         104           0
 nber times 1st assigned=         105           0
 nber times 1st assigned=         106           0
 nber times 1st assigned=         107           0
 nber times 1st assigned=         108           0
 nber times 1st assigned=         109           0
 nber times 1st assigned=         110           0
 nber times 1st assigned=         111           0
 nber times 1st assigned=         112           0
 nber times 1st assigned=         113           0
 nber times 1st assigned=         114           0
 nber times 1st assigned=         115           0
 nber times 1st assigned=         116           0
 nber times 1st assigned=         117           0
 nber times 1st assigned=         118           0
 nber times 1st assigned=         119           0
 nber times 1st assigned=         120           0
 nber times 1st assigned=         121           0
 nber times 1st assigned=         122           0
 nber times 1st assigned=         123           0
 nber times 1st assigned=         124           0
 nber times 1st assigned=         125           0
 nber times 1st assigned=         126           0
 nber times 1st assigned=         127           0
 nber times 1st assigned=         128           0
 nber times 1st assigned=         129           0
 modes represented=   150.714953357384     
 p1=
    0.   -0.    0.    0.    0.    0.  -35.   -3.   -1.    0.   -4.   -0.   -0.    0.   15.    0.    0.    0.   -3.   -0.
    0.   -0.   -0.   -4.   -4.   -0.   -1.   -1.    0.    0.   -1.   -1.   -0.   -1.    0.    0.    0.    2.   -0.   -2.
    0.   -4.   -3.   -0.    2.   -0.    4.   -0.    2.   -1.    0.    1.   -0.   -0.    0.   -0.   -0.   -0.   -0.   -0.
    0.    0.   -0.   -0.    0.   -0.    0.   -0.   -0.    0.   -1.    0.    1.    0.   -1.   -1.   -1.    0.    1.    0.
   -0.    1.   -0.   -0.   -1.    0.   -2.   -1.   -2.   -0.   -2.   -2.   -2.   -1.    1.   -1.    1.   -2.   -0.   -0.
    0.    0.    0.    0.    1.    1.   -0.    0.   -3.   -1.    0.   -1.   -4.    3.   -3.   -0.   -0.    0.   -0.    0.
   -0.   -0.    0.   -0.    0.   -0.   -0.   -0.   -0.
 p2=
   -0.    0.   -0.    0.   -0.    0.    2.   26.    4.    1.   -4.   -0.   -0.    0.  -15.   -0.   -0.    2.   -0.   -0.
   -0.    0.    0.    4.    4.    0.   -0.    1.   -0.   -1.   -1.   -0.    0.    0.    0.   -0.   -0.    0.    1.    4.
    2.   -0.    0.   -3.    3.    0.   -0.   -3.   -2.    0.    2.    0.    2.    0.    0.    0.   -0.   -0.    0.    0.
    0.   -0.   -1.   -0.   -0.   -0.   -0.    0.    0.    0.   -0.    0.    1.   -1.    1.   -0.    0.   -1.   -0.   -0.
   -2.    0.   -1.   -0.    1.   -1.    0.   -2.    1.   -0.   -1.    2.    2.    1.   -0.   -3.    0.   -2.   -0.   -1.
    2.   -0.    3.   -3.    1.    0.   -1.   -1.    1.   -1.    0.    0.    2.   -3.   -2.    0.   -0.    0.    0.   -0.
   -0.   -0.   -0.    0.    0.    0.   -0.    0.   -0.

 Displacement: in terms of nc of 1 THEN of nc of 2

   1     freq=    -0. Q=  0.000 lam=    -0.0     freq=    -0. Q=  0.000 lam=    -0.0
   2     freq=    -0. Q= -0.000 lam=    -0.0     freq=    -0. Q= -0.000 lam=    -0.0
   3     freq=    -0. Q=  0.000 lam=    -0.0     freq=     0. Q=  0.000 lam=     0.0
   4     freq=     0. Q=  0.000 lam=     0.0     freq=     0. Q=  0.000 lam=     0.0
   5     freq=     0. Q=  0.000 lam=     0.0     freq=     0. Q=  0.000 lam=     0.0
   6     freq=     0. Q=  0.000 lam=     0.0     freq=     0. Q=  0.000 lam=     0.0
   7     freq=    18. Q= -0.585 lam=     3.0     freq=    16. Q= -0.034 lam=     0.0
   8     freq=    19. Q= -0.058 lam=     0.0     freq=    18. Q= -0.451 lam=     1.8
   9     freq=    27. Q= -0.030 lam=     0.0     freq=    20. Q= -0.074 lam=     0.1
  10     freq=    46. Q=  0.003 lam=     0.0     freq=    49. Q=  0.017 lam=     0.0
  11     freq=    88. Q= -0.149 lam=     1.0     freq=    88. Q= -0.146 lam=     0.9
  12     freq=    98. Q= -0.005 lam=     0.0     freq=    91. Q= -0.005 lam=     0.0
  13     freq=   116. Q= -0.001 lam=     0.0     freq=   120. Q= -0.013 lam=     0.0
  14     freq=   142. Q=  0.006 lam=     0.0     freq=   145. Q=  0.008 lam=     0.0
  15     freq=   162. Q=  0.752 lam=    45.9     freq=   160. Q=  0.758 lam=    45.8
  16     freq=   166. Q=  0.007 lam=     0.0     freq=   170. Q=  0.017 lam=     0.0
  17     freq=   211. Q=  0.005 lam=     0.0     freq=   201. Q=  0.000 lam=     0.0
  18     freq=   215. Q=  0.001 lam=     0.0     freq=   217. Q=  0.139 lam=     2.1
  19     freq=   218. Q= -0.161 lam=     2.8     freq=   218. Q= -0.010 lam=     0.0
  20     freq=   244. Q= -0.000 lam=     0.0     freq=   242. Q= -0.002 lam=     0.0
  21     freq=   267. Q=  0.001 lam=     0.0     freq=   257. Q=  0.003 lam=     0.0
  22     freq=   279. Q= -0.007 lam=     0.0     freq=   270. Q= -0.003 lam=     0.0
  23     freq=   318. Q= -0.008 lam=     0.0     freq=   329. Q= -0.011 lam=     0.0
  24     freq=   334. Q= -0.298 lam=    14.8     freq=   334. Q= -0.314 lam=    16.5
  25     freq=   399. Q= -0.333 lam=    22.2     freq=   396. Q= -0.326 lam=    21.1
  26     freq=   404. Q= -0.003 lam=     0.0     freq=   398. Q= -0.013 lam=     0.0
  27     freq=   415. Q= -0.102 lam=     2.2     freq=   411. Q= -0.033 lam=     0.2
  28     freq=   438. Q= -0.068 lam=     1.0     freq=   437. Q= -0.061 lam=     0.8
  29     freq=   457. Q=  0.001 lam=     0.0     freq=   446. Q=  0.020 lam=     0.1
  30     freq=   472. Q=  0.002 lam=     0.0     freq=   476. Q=  0.057 lam=     0.8
  31     freq=   478. Q= -0.057 lam=     0.8     freq=   478. Q= -0.069 lam=     1.1
  32     freq=   480. Q= -0.103 lam=     2.5     freq=   480. Q= -0.001 lam=     0.0
  33     freq=   507. Q= -0.001 lam=     0.0     freq=   484. Q= -0.005 lam=     0.0
  34     freq=   517. Q= -0.064 lam=     1.1     freq=   492. Q= -0.009 lam=     0.0
  35     freq=   520. Q=  0.000 lam=     0.0     freq=   509. Q=  0.037 lam=     0.3
  36     freq=   533. Q=  0.014 lam=     0.1     freq=   510. Q=  0.000 lam=     0.0
  37     freq=   540. Q=  0.001 lam=     0.0     freq=   529. Q=  0.012 lam=     0.0
  38     freq=   558. Q=  0.177 lam=     8.8     freq=   555. Q=  0.014 lam=     0.1
  39     freq=   559. Q= -0.003 lam=     0.0     freq=   562. Q= -0.102 lam=     2.9
  40     freq=   573. Q= -0.161 lam=     7.5     freq=   576. Q= -0.344 lam=    34.0
  41     freq=   581. Q=  0.001 lam=     0.0     freq=   580. Q=  0.162 lam=     7.6
  42     freq=   585. Q= -0.425 lam=    52.8     freq=   589. Q= -0.003 lam=     0.0
  43     freq=   606. Q= -0.252 lam=    19.3     freq=   596. Q= -0.015 lam=     0.1
  44     freq=   629. Q= -0.001 lam=     0.0     freq=   624. Q= -0.288 lam=    25.8
  45     freq=   641. Q=  0.171 lam=     9.4     freq=   647. Q=  0.273 lam=    24.2
  46     freq=   649. Q= -0.003 lam=     0.0     freq=   653. Q= -0.000 lam=     0.0
  47     freq=   674. Q=  0.417 lam=    58.5     freq=   663. Q=  0.001 lam=     0.0
  48     freq=   691. Q= -0.000 lam=     0.0     freq=   688. Q= -0.306 lam=    32.2
  49     freq=   704. Q=  0.217 lam=    16.5     freq=   693. Q=  0.256 lam=    22.7
  50     freq=   707. Q= -0.088 lam=     2.7     freq=   695. Q= -0.000 lam=     0.0
  51     freq=   710. Q=  0.002 lam=     0.0     freq=   723. Q=  0.201 lam=    14.6
  52     freq=   731. Q=  0.158 lam=     9.2     freq=   725. Q=  0.003 lam=     0.0
  53     freq=   739. Q= -0.000 lam=     0.0     freq=   737. Q= -0.269 lam=    26.7
  54     freq=   772. Q= -0.000 lam=     0.0     freq=   740. Q= -0.000 lam=     0.0
  55     freq=   785. Q=  0.017 lam=     0.1     freq=   770. Q=  0.001 lam=     0.0
  56     freq=   809. Q= -0.000 lam=     0.0     freq=   776. Q= -0.022 lam=     0.2
  57     freq=   826. Q= -0.000 lam=     0.0     freq=   790. Q= -0.000 lam=     0.0
  58     freq=   835. Q= -0.048 lam=     1.0     freq=   819. Q= -0.000 lam=     0.0
  59     freq=   839. Q= -0.000 lam=     0.0     freq=   820. Q= -0.019 lam=     0.1
  60     freq=   841. Q= -0.024 lam=     0.2     freq=   837. Q= -0.000 lam=     0.0
  61     freq=   851. Q=  0.000 lam=     0.0     freq=   842. Q=  0.040 lam=     0.7
  62     freq=   869. Q=  0.000 lam=     0.0     freq=   869. Q=  0.003 lam=     0.0
  63     freq=   894. Q= -0.035 lam=     0.6     freq=   880. Q= -0.077 lam=     2.6
  64     freq=   904. Q= -0.000 lam=     0.0     freq=   899. Q= -0.000 lam=     0.0
  65     freq=   918. Q=  0.000 lam=     0.0     freq=   907. Q=  0.000 lam=     0.0
  66     freq=   957. Q= -0.000 lam=     0.0     freq=   909. Q= -0.001 lam=     0.0
  67     freq=   964. Q=  0.044 lam=     0.9     freq=   945. Q=  0.000 lam=     0.0
  68     freq=   982. Q= -0.000 lam=     0.0     freq=   954. Q= -0.001 lam=     0.0
  69     freq=   991. Q= -0.000 lam=     0.0     freq=   965. Q= -0.056 lam=     1.5
  70     freq=   995. Q=  0.000 lam=     0.0     freq=   976. Q=  0.000 lam=     0.0
  71     freq=  1001. Q= -0.077 lam=     3.0     freq=   984. Q= -0.019 lam=     0.2
  72     freq=  1006. Q=  0.000 lam=     0.0     freq=   986. Q=  0.000 lam=     0.0
  73     freq=  1008. Q=  0.095 lam=     4.5     freq=  1019. Q=  0.176 lam=    15.9
  74     freq=  1023. Q=  0.021 lam=     0.2     freq=  1030. Q=  0.092 lam=     4.4
  75     freq=  1081. Q= -0.147 lam=    11.6     freq=  1064. Q= -0.159 lam=    13.5
  76     freq=  1114. Q= -0.125 lam=     8.7     freq=  1102. Q= -0.052 lam=     1.5
  77     freq=  1117. Q= -0.093 lam=     4.8     freq=  1122. Q= -0.011 lam=     0.1
  78     freq=  1141. Q=  0.058 lam=     1.9     freq=  1130. Q=  0.078 lam=     3.4
  79     freq=  1146. Q=  0.101 lam=     5.8     freq=  1148. Q=  0.041 lam=     1.0
  80     freq=  1167. Q=  0.000 lam=     0.0     freq=  1164. Q=  0.000 lam=     0.0
  81     freq=  1168. Q= -0.065 lam=     2.5     freq=  1168. Q= -0.240 lam=    33.5
  82     freq=  1178. Q=  0.191 lam=    21.6     freq=  1182. Q=  0.030 lam=     0.5
  83     freq=  1185. Q= -0.005 lam=     0.0     freq=  1186. Q= -0.073 lam=     3.2
  84     freq=  1209. Q= -0.068 lam=     2.8     freq=  1198. Q= -0.059 lam=     2.1
  85     freq=  1216. Q= -0.094 lam=     5.3     freq=  1208. Q= -0.136 lam=    11.1
  86     freq=  1219. Q=  0.058 lam=     2.1     freq=  1224. Q=  0.083 lam=     4.2
  87     freq=  1240. Q= -0.336 lam=    69.8     freq=  1259. Q= -0.009 lam=     0.1
  88     freq=  1253. Q= -0.095 lam=     5.7     freq=  1263. Q= -0.226 lam=    32.2
  89     freq=  1274. Q= -0.280 lam=    49.9     freq=  1281. Q= -0.126 lam=    10.2
  90     freq=  1279. Q= -0.067 lam=     2.9     freq=  1288. Q= -0.067 lam=     2.9
  91     freq=  1298. Q= -0.240 lam=    37.4     freq=  1302. Q= -0.154 lam=    15.4
  92     freq=  1335. Q= -0.332 lam=    73.6     freq=  1361. Q= -0.365 lam=    90.5
  93     freq=  1346. Q= -0.254 lam=    43.3     freq=  1372. Q= -0.313 lam=    67.2
  94     freq=  1374. Q= -0.083 lam=     4.7     freq=  1393. Q= -0.128 lam=    11.5
  95     freq=  1377. Q=  0.080 lam=     4.4     freq=  1409. Q=  0.073 lam=     3.7
  96     freq=  1402. Q= -0.164 lam=    18.9     freq=  1426. Q= -0.381 lam=   103.4
  97     freq=  1421. Q=  0.159 lam=    17.9     freq=  1438. Q=  0.019 lam=     0.3
  98     freq=  1432. Q= -0.293 lam=    61.3     freq=  1449. Q= -0.248 lam=    44.6
  99     freq=  1447. Q= -0.013 lam=     0.1     freq=  1454. Q= -0.018 lam=     0.2
 100     freq=  1457. Q= -0.020 lam=     0.3     freq=  1461. Q= -0.093 lam=     6.3
 101     freq=  1459. Q=  0.019 lam=     0.3     freq=  1476. Q=  0.233 lam=    40.1
 102     freq=  1471. Q=  0.029 lam=     0.6     freq=  1484. Q=  0.054 lam=     2.2
 103     freq=  1485. Q=  0.008 lam=     0.1     freq=  1488. Q=  0.449 lam=   149.9
 104     freq=  1502. Q=  0.006 lam=     0.0     freq=  1493. Q=  0.394 lam=   115.9
 105     freq=  1526. Q=  0.182 lam=    25.3     freq=  1498. Q=  0.138 lam=    14.2
 106     freq=  1536. Q=  0.080 lam=     4.9     freq=  1515. Q=  0.027 lam=     0.6
 107     freq=  1538. Q= -0.067 lam=     3.4     freq=  1542. Q= -0.195 lam=    29.4
 108     freq=  1553. Q=  0.016 lam=     0.2     freq=  1573. Q=  0.141 lam=    15.7
 109     freq=  1571. Q= -0.481 lam=   182.0     freq=  1574. Q= -0.233 lam=    42.8
 110     freq=  1577. Q= -0.089 lam=     6.3     freq=  1585. Q= -0.164 lam=    21.4
 111     freq=  1635. Q=  0.046 lam=     1.8     freq=  1611. Q=  0.066 lam=     3.5
 112     freq=  1652. Q= -0.085 lam=     5.9     freq=  1618. Q= -0.024 lam=     0.5
 113     freq=  1663. Q= -0.602 lam=   301.8     freq=  1641. Q= -0.326 lam=    87.3
 114     freq=  1671. Q=  0.521 lam=   227.2     freq=  1696. Q=  0.541 lam=   247.9
 115     freq=  2192. Q= -0.545 lam=   325.7     freq=  2269. Q= -0.434 lam=   213.3
 116     freq=  3057. Q= -0.001 lam=     0.0     freq=  3062. Q= -0.001 lam=     0.0
 117     freq=  3088. Q= -0.000 lam=     0.0     freq=  3096. Q= -0.000 lam=     0.0
 118     freq=  3181. Q=  0.002 lam=     0.0     freq=  3183. Q=  0.004 lam=     0.0
 119     freq=  3182. Q= -0.010 lam=     0.2     freq=  3187. Q= -0.004 lam=     0.0
 120     freq=  3188. Q=  0.003 lam=     0.0     freq=  3190. Q=  0.000 lam=     0.0
 121     freq=  3189. Q= -0.001 lam=     0.0     freq=  3194. Q= -0.001 lam=     0.0
 122     freq=  3192. Q= -0.001 lam=     0.0     freq=  3195. Q= -0.005 lam=     0.0
 123     freq=  3200. Q=  0.001 lam=     0.0     freq=  3201. Q=  0.005 lam=     0.0
 124     freq=  3207. Q= -0.020 lam=     0.6     freq=  3214. Q= -0.001 lam=     0.0
 125     freq=  3210. Q=  0.005 lam=     0.0     freq=  3217. Q=  0.019 lam=     0.6
 126     freq=  3213. Q= -0.027 lam=     1.2     freq=  3226. Q= -0.004 lam=     0.0
 127     freq=  3224. Q= -0.001 lam=     0.0     freq=  3227. Q= -0.025 lam=     1.0
 128     freq=  3238. Q= -0.007 lam=     0.1     freq=  3236. Q= -0.012 lam=     0.2
 129     freq=  3265. Q= -0.001 lam=     0.0     freq=  3266. Q= -0.001 lam=     0.0

 total reorg energy (cm**-1, kcal/mol)=     1838.     1758.      5.25      5.03
 Nber of molecules processed=           2
