 Enter ifcurve (0=recti, 1=orth curvi, 2=apprx curvi, -1 = skip
 And atom ordering flag, 0= never changes, 1= use the first order thenceforth,
  2= deduce it (does read on fail), 3= always read it
 Reading file: 
 ./Common_Moeties_6_C0S0.log                                                    
                                          
  Entering Gaussian System, Link 0=g16                                          
  
 Gaussian format, type: g94, g98, g03= F F F
  #P Geom=AllCheck Guess=TCheck SCRF=Check GenChk RB3LYP/6-311G(d,p) Fre    
 energy type= B3LYP   
 Original G94 input coords:
  7  2.297658  0.000000  0.000000
  6  0.919680  0.000000  0.000000
  6  0.198603 -1.207069  0.000000
  6 -1.191081 -1.199432  0.000000
  6 -1.901679  0.000000  0.000000
  6 -1.191081  1.199432  0.000000
  6  0.198603  1.207069  0.000000
  1  2.813815 -0.860039  0.000000
  1  2.813815  0.860039  0.000000
  1  0.736820 -2.149909  0.000000
  1 -1.723488 -2.144693  0.000000
  1 -2.984999  0.000000  0.000000
  1 -1.723488  2.144693  0.000000
  1  0.736820  2.149909  0.000000
 nber atoms=          14
 Original standard coords:
  7  0.000000  0.000000  2.318635
  6  0.000000  0.000000  0.940657
  6  0.000000  1.207069  0.219579
  6  0.000000  1.199432 -1.170104
  6  0.000000  0.000000 -1.880703
  6  0.000000 -1.199432 -1.170104
  6  0.000000 -1.207069  0.219579
  1  0.000000  0.860039  2.834792
  1  0.000000 -0.860039  2.834792
  1  0.000000  2.149909  0.757797
  1  0.000000  2.144693 -1.702511
  1  0.000000  0.000000 -2.964023
  1  0.000000 -2.144693 -1.702511
  1  0.000000 -2.149909  0.757797
  SCF Done:  E(RB3LYP) =  -287.680068774     A.U. after    1 cycles             
  
          23          40 "  -287.680068774"
After scan for Atom:   Atom  AN      X      Y      Z        X      Y      Z        X      Y      Z   
After scan for Atom:   Atom  AN      X      Y      Z        X      Y      Z        X      Y      Z   
After scan for Atom:   Atom  AN      X      Y      Z        X      Y      Z        X      Y      Z   
After scan for Atom:   Atom  AN      X      Y      Z        X      Y      Z        X      Y      Z   
After scan for Atom:   Atom  AN      X      Y      Z        X      Y      Z        X      Y      Z   
After scan for Atom:   Atom  AN      X      Y      Z        X      Y      Z        X      Y      Z   
After scan for Atom:   Atom  AN      X      Y      Z        X      Y      Z        X      Y      Z   
After scan for Atom:   Atom  AN      X      Y      Z        X      Y      Z        X      Y      Z   
After scan for Atom:   Atom  AN      X      Y      Z        X      Y      Z        X      Y      Z   
After scan for Atom:   Atom  AN      X      Y      Z        X      Y      Z        X      Y      Z   
After scan for Atom:   Atom  AN      X      Y      Z        X      Y      Z        X      Y      Z   
After scan for Atom:   Atom  AN      X      Y      Z        X      Y      Z        X      Y      Z   
 g94    frequencies=
     0.0    0.0    0.0    0.0    0.0    0.0 -438.8  219.4  345.2  379.2
   418.5  514.6  539.8  636.1  702.7  758.0  815.4  836.0  868.6  955.1
   974.6 1006.1 1023.4 1047.8 1120.6 1178.4 1200.0 1326.6 1341.8 1364.2
  1499.1 1534.2 1620.7 1640.8 1660.6 3148.0 3149.0 3165.2 3170.2 3189.2
  3638.5 3758.8
 g94    symmetries=
                                                B1     B1     A2     B2
      A2     B1     A1     B2     B1     B1     A2     A1     B1     A2
      B1     A1     B2     A1     B2     B2     A1     A1     B2     B2
      B2     A1     B2     A1     A1     A1     B2     A1     B2     A1
      A1     B2
 atomic masses:
 14.0031 12.0000 12.0000 12.0000 12.0000 12.0000 12.0000  1.0078  1.0078  1.0078
  1.0078  1.0078  1.0078  1.0078
 looking for force constants in 
 ./Common_Moeties_6_C0S0.fchk                                                   
  
 Cartesian Force Constants                  R   N=         903                  
  
 n3=          42         903
 g94-fc frequencies=
  -438.8   -8.0   -5.3   -5.0   -0.0    0.0    0.0  219.4  345.3  379.2
   418.6  514.6  539.8  636.2  702.8  758.0  815.4  836.0  868.7  955.2
   974.7 1006.2 1023.4 1047.8 1120.6 1178.5 1200.0 1326.6 1341.8 1364.3
  1499.1 1534.2 1620.8 1640.8 1660.6 3148.0 3149.1 3165.3 3170.2 3189.3
  3638.5 3758.9
 at 99999: n3=          42
 symm operator            1 :  T  nop=           1
 symm operator            2 :  F  nop=           1
 symm operator            3 :  F  nop=           1
 symm operator            4 :  F  nop=           1
 symm operator            5 :  F  nop=           1
 symm operator            6 :  T  nop=           2
 symm operator            7 :  T  nop=           3
 The point group of the molecule is C2V
 enforcing symm op           1  jsymt=          -1          -1           1
 enforcing symm op           6  jsymt=           1          -1           1
 enforcing symm op           7  jsymt=          -1           1           1
 cartesian coord symmetries:
 A1 :   14 A2 :    5 B1 :    9 B2 :   14
 Symmetry rotation matrix:
   1.00000   0.00000   0.00000
   0.00000   1.00000   0.00000
   0.00000   0.00000   1.00000

 Projecting out zero-frequency components
 generating redundant internal coords
         300        3600          14
 search for int coords
   1 str   2   1   1.378
   2 str   3   2   1.406
   3 str   4   3   1.390
   4 str   5   4   1.394
   5 str   6   5   1.394
   6 str   7   2   1.406
   7 str   7   6   1.390
   8 str   8   1   1.003
   9 str   9   1   1.003
  10 str  10   3   1.086
  11 str  11   4   1.085
  12 str  12   5   1.083
  13 str  13   6   1.085
  14 str  14   7   1.086
 nber stretches=          14
  15 ben   1   2   3
  16 prop tor   1   2   3   4
  17 prop tor   1   2   3  10
  18 ben   1   2   7
  19 prop tor   1   2   7   6
  20 prop tor   1   2   7  14
  21 ben   2   1   8
  22 ben   2   1   9
  23 ben   2   3   4
  24 prop tor   2   3   4   5
  25 prop tor   2   3   4  11
  26 ben   2   3  10
  27 ben   2   7   6
  28 ben   2   7  14
  29 ben   3   2   7
  30 prop tor   3   2   7   6
  31 prop tor   3   2   7  14
  32 ben   3   4   5
  33 prop tor   3   4   5   6
  34 prop tor   3   4   5  12
  35 ben   3   4  11
  36 ben   4   3  10
  37 ben   4   5   6
  38 prop tor   4   5   6   7
  39 prop tor   4   5   6  13
  40 ben   4   5  12
  41 ben   5   4  11
  42 ben   5   6   7
  43 prop tor   5   6   7   2
  44 prop tor   5   6   7  14
  45 ben   5   6  13
  46 ben   6   5  12
  47 ben   6   7  14
  48 prop tor   7   2   3   4
  49 prop tor   7   2   3  10
  50 ben   7   6  13
  51 prop tor   8   1   2   3
  52 prop tor   8   1   2   7
  53 ben   8   1   9
  54 prop tor   9   1   2   3
  55 prop tor   9   1   2   7
  56 prop tor  10   3   4   5
  57 prop tor  10   3   4  11
  58 prop tor  11   4   5   6
  59 prop tor  11   4   5  12
  60 prop tor  12   5   6   7
  61 prop tor  12   5   6  13
  62 prop tor  13   6   7   2
  63 prop tor  13   6   7  14
 nber bend=              21
 nber lin bend=           0
 nber prop tor=          28
 nber impr tor=           0
 nber tot redund int=          63
 Eigenvalues of G in red int coords
    Gval -0.00000000 -0.00000000 -0.00000000 -0.00000000 -0.00000000 -0.00000000 -0.00000000 -0.00000000
    Gval -0.00000000 -0.00000000 -0.00000000 -0.00000000 -0.00000000  0.00000000  0.00000000  0.00000000
    Gval  0.00000000  0.00000000  0.00000000  0.00000000  0.00000000  0.00000000  0.00000000  0.00000000
    Gval  0.00000000  0.00000000  0.00000000  0.00002464  0.00003110  0.00004994  0.00006042  0.00006671
    Gval  0.00011073  0.00011883  0.00015849  0.00017686  0.00026923  0.00029590  0.00036594  0.00049953
    Gval  0.00055984  0.00056347  0.00059307  0.00059326  0.00060426  0.00061962  0.00066057  0.00072049
    Gval  0.00080228  0.00103942  0.00110633  0.00113649  0.00116746  0.00117264  0.00140858  0.00151752
    Gval  0.00163766  0.00180184  0.00209810  0.00234551  0.00312978  0.00372404  0.00406947
  2.463572424003859E-005  2.463572424003859E-005
  3.110218695650028E-005  2.463572424003859E-005
  4.993752877478313E-005  2.463572424003859E-005
  6.041924445306874E-005  2.463572424003859E-005
  6.670990495176697E-005  2.463572424003859E-005
  1.107332957925562E-004  2.463572424003859E-005
  1.188301649231214E-004  2.463572424003859E-005
  1.584895339521213E-004  2.463572424003859E-005
  1.768607470736145E-004  2.463572424003859E-005
  2.692345758818489E-004  2.463572424003859E-005
  2.958982303859253E-004  2.463572424003859E-005
  3.659350626370469E-004  2.463572424003859E-005
  4.995348813064281E-004  2.463572424003859E-005
  5.598432996859186E-004  2.463572424003859E-005
  5.634659735843087E-004  2.463572424003859E-005
  5.930676293575305E-004  2.463572424003859E-005
  5.932637572246744E-004  2.463572424003859E-005
  6.042567275181737E-004  2.463572424003859E-005
  6.196158746651478E-004  2.463572424003859E-005
  6.605656810874523E-004  2.463572424003859E-005
  7.204911350690032E-004  2.463572424003859E-005
  8.022839707874982E-004  2.463572424003859E-005
  1.039419398266715E-003  2.463572424003859E-005
  1.106332112186933E-003  2.463572424003859E-005
  1.136492823411222E-003  2.463572424003859E-005
  1.167458351174835E-003  2.463572424003859E-005
  1.172642761882498E-003  2.463572424003859E-005
  1.408584619261584E-003  2.463572424003859E-005
  1.517517043964414E-003  2.463572424003859E-005
  1.637660412875547E-003  2.463572424003859E-005
  1.801837209067845E-003  2.463572424003859E-005
  2.098095457337616E-003  2.463572424003859E-005
  2.345514689089126E-003  2.463572424003859E-005
  3.129781695203772E-003  2.463572424003859E-005
  3.724042574548354E-003  2.463572424003859E-005
  4.069465623124805E-003  2.463572424003859E-005
 cut=1d-8, nber non-redundant internal coords=          36
 Check on Eigenvals of non-red overlap matrix:
  0.00002464  0.00003110  0.00004994  0.00006042  0.00006671  0.00011073  0.00011883  0.00015849
  0.00017686  0.00026923  0.00029590  0.00036594  0.00049953  0.00055984  0.00056347  0.00059307
  0.00059326  0.00060426  0.00061962  0.00066057  0.00072049  0.00080228  0.00103942  0.00110633
  0.00113649  0.00116746  0.00117264  0.00140858  0.00151752  0.00163766  0.00180184  0.00209810
  0.00234551  0.00312978  0.00372404  0.00406947
 Checking for correct frequencies
 recalc frequencies=
  -438.8   -0.0   -0.0   -0.0   -0.0   -0.0    0.0  219.4  345.3  379.2
   418.6  514.6  539.8  636.2  702.8  758.0  815.4  836.0  868.7  955.2
   974.7 1006.2 1023.4 1047.8 1120.6 1178.5 1200.0 1326.6 1341.8 1364.3
  1499.1 1534.2 1620.8 1640.8 1660.6 3148.0 3149.1 3165.3 3170.2 3189.3
  3638.5 3758.9
 recalc symmetries=
     B1     A1     B2     B2     B1     A2     B1     B1     A2     B2 
     A2     B1     A1     B2     B1     B1     A2     A1     B1     A2 
     B1     A1     B2     A1     B2     B2     A1     A1     B2     B2 
     B2     A1     B2     A1     A1     A1     B2     A1     B2     A1 
     A1     B2 
 recalc freqs check OK
 Zero-point lengths:
 11.8342 10.0000 10.0000 10.0000 10.0000 10.0000 10.0000 16.7375 13.3422 12.7315
 12.1176 10.9282 10.6700  9.8291  9.3517  9.0045  8.6816  8.5743  8.4114  8.0216
  7.9409  7.8156  7.7495  7.6587  7.4057  7.2217  7.1565  6.8065  6.7678  6.7119
  6.4029  6.3293  6.1580  6.1201  6.0836  4.4185  4.4178  4.4065  4.4030  4.3899
  4.1099  4.0436
 highest evec of mol 1
  0.0000 -0.3077  0.0000
  0.0000 -0.0040  0.0000
  0.0000  0.0018 -0.0004
  0.0000 -0.0001  0.0000
  0.0000 -0.0001  0.0000
  0.0000 -0.0001 -0.0000
  0.0000  0.0018  0.0004
  0.0000  0.5750  0.3492
  0.0000  0.5750 -0.3492
  0.0000 -0.0005 -0.0017
  0.0000  0.0001  0.0002
  0.0000  0.0000  0.0000
  0.0000  0.0001 -0.0002
  0.0000 -0.0005  0.0017
 generating redundant internal coords
         300        3600          14
 Adding extra bonds for z output only
           7           6           6           6           6           6
           6           1           1           1           1           1
           1           1
 search for int coords
   1 str   2   1   1.378
   2 str   3   2   1.406
   3 str   4   3   1.390
   4 str   5   4   1.394
   5 str   6   5   1.394
   6 str   7   2   1.406
   7 str   7   6   1.390
   8 str   8   1   1.003
   9 str   9   1   1.003
  10 str  10   3   1.086
  11 str  11   4   1.085
  12 str  12   5   1.083
  13 str  13   6   1.085
  14 str  14   7   1.086
 nber stretches=          14
  15 ben   1   2   3
  16 prop tor   1   2   3   4
  17 prop tor   1   2   3  10
  18 ben   1   2   7
  19 prop tor   1   2   7   6
  20 prop tor   1   2   7  14
  21 ben   2   1   8
  22 ben   2   1   9
  23 ben   2   3   4
  24 prop tor   2   3   4   5
  25 prop tor   2   3   4  11
  26 ben   2   3  10
  27 ben   2   7   6
  28 ben   2   7  14
  29 ben   3   2   7
  30 prop tor   3   2   7   6
  31 prop tor   3   2   7  14
  32 ben   3   4   5
  33 prop tor   3   4   5   6
  34 prop tor   3   4   5  12
  35 ben   3   4  11
  36 ben   4   3  10
  37 ben   4   5   6
  38 prop tor   4   5   6   7
  39 prop tor   4   5   6  13
  40 ben   4   5  12
  41 ben   5   4  11
  42 ben   5   6   7
  43 prop tor   5   6   7   2
  44 prop tor   5   6   7  14
  45 ben   5   6  13
  46 ben   6   5  12
  47 ben   6   7  14
  48 prop tor   7   2   3   4
  49 prop tor   7   2   3  10
  50 ben   7   6  13
  51 prop tor   8   1   2   3
  52 prop tor   8   1   2   7
  53 ben   8   1   9
  54 prop tor   9   1   2   3
  55 prop tor   9   1   2   7
  56 prop tor  10   3   4   5
  57 prop tor  10   3   4  11
  58 prop tor  11   4   5   6
  59 prop tor  11   4   5  12
  60 prop tor  12   5   6   7
  61 prop tor  12   5   6  13
  62 prop tor  13   6   7   2
  63 prop tor  13   6   7  14
 nber bend=              21
 nber lin bend=           0
 nber prop tor=          28
 nber impr tor=           0
 nber tot redund int=          63
 Reading file: 
 ./Common_Moeties_6_C1S0.log                                                    
                                          
  Entering Gaussian System, Link 0=g16                                          
  
 Gaussian format, type: g94, g98, g03= F F F
  #P Geom=AllCheck Guess=TCheck SCRF=Check GenChk UB3LYP/6-311G(d,p) Fre    
 energy type= B3LYP   
 Original G94 input coords:
  7  2.248461  0.000000  0.000000
  6  0.914694  0.000000  0.000000
  6  0.198143 -1.242672  0.000000
  6 -1.172299 -1.228523  0.000000
  6 -1.869524  0.000000  0.000000
  6 -1.172299  1.228523  0.000000
  6  0.198143  1.242672  0.000000
  1  2.778663 -0.863185  0.000000
  1  2.778663  0.863185  0.000000
  1  0.749828 -2.175788  0.000000
  1 -1.724695 -2.159702  0.000000
  1 -2.952910  0.000000  0.000000
  1 -1.724695  2.159702  0.000000
  1  0.749828  2.175788  0.000000
 nber atoms=          14
 Original standard coords:
  7  0.000000  0.000000  2.268960
  6  0.000000  0.000000  0.935193
  6  0.000000  1.242672  0.218642
  6  0.000000  1.228523 -1.151800
  6  0.000000  0.000000 -1.849025
  6  0.000000 -1.228523 -1.151800
  6  0.000000 -1.242672  0.218642
  1  0.000000  0.863185  2.799162
  1  0.000000 -0.863185  2.799162
  1  0.000000  2.175788  0.770326
  1  0.000000  2.159702 -1.704196
  1  0.000000  0.000000 -2.932411
  1  0.000000 -2.159702 -1.704196
  1  0.000000 -2.175788  0.770326
  SCF Done:  E(UB3LYP) =  -287.408763206     A.U. after    1 cycles             
  
          23          40 "  -287.408763206"
After scan for Atom:   Atom  AN      X      Y      Z        X      Y      Z        X      Y      Z   
After scan for Atom:   Atom  AN      X      Y      Z        X      Y      Z        X      Y      Z   
After scan for Atom:   Atom  AN      X      Y      Z        X      Y      Z        X      Y      Z   
After scan for Atom:   Atom  AN      X      Y      Z        X      Y      Z        X      Y      Z   
After scan for Atom:   Atom  AN      X      Y      Z        X      Y      Z        X      Y      Z   
After scan for Atom:   Atom  AN      X      Y      Z        X      Y      Z        X      Y      Z   
After scan for Atom:   Atom  AN      X      Y      Z        X      Y      Z        X      Y      Z   
After scan for Atom:   Atom  AN      X      Y      Z        X      Y      Z        X      Y      Z   
After scan for Atom:   Atom  AN      X      Y      Z        X      Y      Z        X      Y      Z   
After scan for Atom:   Atom  AN      X      Y      Z        X      Y      Z        X      Y      Z   
After scan for Atom:   Atom  AN      X      Y      Z        X      Y      Z        X      Y      Z   
After scan for Atom:   Atom  AN      X      Y      Z        X      Y      Z        X      Y      Z   
 g94    frequencies=
     0.0    0.0    0.0    0.0    0.0    0.0  184.9  367.7  388.3  453.1
   532.2  563.6  594.9  625.0  639.7  795.7  812.0  824.1  938.3  992.8
  1005.9 1008.5 1017.3 1028.0 1130.9 1187.3 1209.5 1369.6 1384.3 1397.3
  1472.6 1515.0 1548.3 1629.7 1679.1 3187.4 3187.9 3199.0 3208.7 3214.1
  3535.3 3647.3
 g94    symmetries=
                                                B1     A2     B2     B1
      A1     A2     B2     B1     B1     B1     A2     A1     B1     A1
      A2     A1     B1     B2     B2     B2     A1     B2     B2     A1
      B2     A1     B2     A1     A1     A1     B2     A1     B2     A1
      A1     B2
 atomic masses:
 14.0031 12.0000 12.0000 12.0000 12.0000 12.0000 12.0000  1.0078  1.0078  1.0078
  1.0078  1.0078  1.0078  1.0078
 looking for force constants in 
 ./Common_Moeties_6_C1S0.fchk                                                   
  
 Cartesian Force Constants                  R   N=         903                  
  
 n3=          42         903
 g94-fc frequencies=
    -7.0   -5.1   -4.9   -0.0   -0.0    0.0  184.9  367.7  388.3  453.1
   532.2  563.6  594.9  625.1  639.7  795.7  812.1  824.1  938.3  992.8
  1005.9 1008.5 1017.3 1028.1 1130.9 1187.3 1209.5 1369.6 1384.4 1397.3
  1472.7 1515.0 1548.4 1629.7 1679.1 3187.5 3187.9 3199.1 3208.8 3214.2
  3535.4 3647.4
 at 99999: n3=          42
 symm operator            1 :  T  nop=           1
 symm operator            2 :  F  nop=           1
 symm operator            3 :  F  nop=           1
 symm operator            4 :  F  nop=           1
 symm operator            5 :  F  nop=           1
 symm operator            6 :  T  nop=           2
 symm operator            7 :  T  nop=           3
 The point group of the molecule is C2V
 enforcing symm op           1  jsymt=          -1          -1           1
 enforcing symm op           6  jsymt=           1          -1           1
 enforcing symm op           7  jsymt=          -1           1           1
 cartesian coord symmetries:
 A1 :   14 A2 :    5 B1 :    9 B2 :   14
 Symmetry rotation matrix:
   1.00000   0.00000   0.00000
   0.00000   1.00000   0.00000
   0.00000   0.00000   1.00000

 Projecting out zero-frequency components
 generating redundant internal coords
         300        3600          14
 search for int coords
   1 str   2   1   1.334
   2 str   3   2   1.434
   3 str   4   3   1.371
   4 str   5   4   1.413
   5 str   6   5   1.413
   6 str   7   2   1.434
   7 str   7   6   1.371
   8 str   8   1   1.013
   9 str   9   1   1.013
  10 str  10   3   1.084
  11 str  11   4   1.083
  12 str  12   5   1.083
  13 str  13   6   1.083
  14 str  14   7   1.084
 nber stretches=          14
  15 ben   1   2   3
  16 prop tor   1   2   3   4
  17 prop tor   1   2   3  10
  18 ben   1   2   7
  19 prop tor   1   2   7   6
  20 prop tor   1   2   7  14
  21 ben   2   1   8
  22 ben   2   1   9
  23 ben   2   3   4
  24 prop tor   2   3   4   5
  25 prop tor   2   3   4  11
  26 ben   2   3  10
  27 ben   2   7   6
  28 ben   2   7  14
  29 ben   3   2   7
  30 prop tor   3   2   7   6
  31 prop tor   3   2   7  14
  32 ben   3   4   5
  33 prop tor   3   4   5   6
  34 prop tor   3   4   5  12
  35 ben   3   4  11
  36 ben   4   3  10
  37 ben   4   5   6
  38 prop tor   4   5   6   7
  39 prop tor   4   5   6  13
  40 ben   4   5  12
  41 ben   5   4  11
  42 ben   5   6   7
  43 prop tor   5   6   7   2
  44 prop tor   5   6   7  14
  45 ben   5   6  13
  46 ben   6   5  12
  47 ben   6   7  14
  48 prop tor   7   2   3   4
  49 prop tor   7   2   3  10
  50 ben   7   6  13
  51 prop tor   8   1   2   3
  52 prop tor   8   1   2   7
  53 ben   8   1   9
  54 prop tor   9   1   2   3
  55 prop tor   9   1   2   7
  56 prop tor  10   3   4   5
  57 prop tor  10   3   4  11
  58 prop tor  11   4   5   6
  59 prop tor  11   4   5  12
  60 prop tor  12   5   6   7
  61 prop tor  12   5   6  13
  62 prop tor  13   6   7   2
  63 prop tor  13   6   7  14
 nber bend=              21
 nber lin bend=           0
 nber prop tor=          28
 nber impr tor=           0
 nber tot redund int=          63
 Eigenvalues of G in red int coords
    Gval -0.00000000 -0.00000000 -0.00000000 -0.00000000 -0.00000000 -0.00000000 -0.00000000 -0.00000000
    Gval -0.00000000 -0.00000000 -0.00000000 -0.00000000 -0.00000000 -0.00000000  0.00000000  0.00000000
    Gval  0.00000000  0.00000000  0.00000000  0.00000000  0.00000000  0.00000000  0.00000000  0.00000000
    Gval  0.00000000  0.00000000  0.00000000  0.00002463  0.00003173  0.00004925  0.00006128  0.00006647
    Gval  0.00011072  0.00011844  0.00015882  0.00018071  0.00026575  0.00029296  0.00036168  0.00048255
    Gval  0.00055827  0.00056413  0.00059301  0.00059337  0.00060397  0.00061894  0.00065886  0.00073037
    Gval  0.00080570  0.00104109  0.00110706  0.00114010  0.00117203  0.00117548  0.00139137  0.00150476
    Gval  0.00162762  0.00176462  0.00210583  0.00234908  0.00313237  0.00379281  0.00406472
  2.463257756679149E-005  2.463257756679149E-005
  3.173317093373738E-005  2.463257756679149E-005
  4.924801403298783E-005  2.463257756679149E-005
  6.128094939710291E-005  2.463257756679149E-005
  6.647341935796675E-005  2.463257756679149E-005
  1.107164166635668E-004  2.463257756679149E-005
  1.184438597743336E-004  2.463257756679149E-005
  1.588242889135749E-004  2.463257756679149E-005
  1.807069329351186E-004  2.463257756679149E-005
  2.657474692380921E-004  2.463257756679149E-005
  2.929585989924104E-004  2.463257756679149E-005
  3.616752863277183E-004  2.463257756679149E-005
  4.825507689452671E-004  2.463257756679149E-005
  5.582740633431026E-004  2.463257756679149E-005
  5.641257184544594E-004  2.463257756679149E-005
  5.930116359548420E-004  2.463257756679149E-005
  5.933658236687932E-004  2.463257756679149E-005
  6.039711598859854E-004  2.463257756679149E-005
  6.189390197756686E-004  2.463257756679149E-005
  6.588580386339811E-004  2.463257756679149E-005
  7.303672057360512E-004  2.463257756679149E-005
  8.056987789384787E-004  2.463257756679149E-005
  1.041086264881246E-003  2.463257756679149E-005
  1.107055648759972E-003  2.463257756679149E-005
  1.140102030542350E-003  2.463257756679149E-005
  1.172032124381264E-003  2.463257756679149E-005
  1.175483947836656E-003  2.463257756679149E-005
  1.391373455701352E-003  2.463257756679149E-005
  1.504761755557031E-003  2.463257756679149E-005
  1.627617702502194E-003  2.463257756679149E-005
  1.764622985373425E-003  2.463257756679149E-005
  2.105832854134935E-003  2.463257756679149E-005
  2.349081669376098E-003  2.463257756679149E-005
  3.132365374245688E-003  2.463257756679149E-005
  3.792805676883352E-003  2.463257756679149E-005
  4.064718928410251E-003  2.463257756679149E-005
 cut=1d-8, nber non-redundant internal coords=          36
 Check on Eigenvals of non-red overlap matrix:
  0.00002463  0.00003173  0.00004925  0.00006128  0.00006647  0.00011072  0.00011844  0.00015882
  0.00018071  0.00026575  0.00029296  0.00036168  0.00048255  0.00055827  0.00056413  0.00059301
  0.00059337  0.00060397  0.00061894  0.00065886  0.00073037  0.00080570  0.00104109  0.00110706
  0.00114010  0.00117203  0.00117548  0.00139137  0.00150476  0.00162762  0.00176462  0.00210583
  0.00234908  0.00313237  0.00379281  0.00406472
 Checking for correct frequencies
 recalc frequencies=
    -0.0   -0.0   -0.0   -0.0    0.0    0.0  184.9  367.7  388.3  453.1
   532.2  563.6  594.9  625.1  639.7  795.7  812.1  824.1  938.3  992.8
  1005.9 1008.5 1017.3 1028.1 1130.9 1187.3 1209.5 1369.6 1384.4 1397.3
  1472.7 1515.0 1548.4 1629.7 1679.1 3187.5 3187.9 3199.1 3208.8 3214.2
  3535.4 3647.4
 recalc symmetries=
     A1     B2     B1     A2     B1     B2     B1     A2     B2     B1 
     A1     A2     B2     B1     B1     B1     A2     A1     B1     A1 
     A2     A1     B1     B2     B2     B2     A1     B2     B2     A1 
     B2     A1     B2     A1     A1     A1     B2     A1     B2     A1 
     A1     B2 
 recalc freqs check OK
 Zero-point lengths:
 10.0000 10.0000 10.0000 10.0000 10.0000 10.0000 18.2299 12.9280 12.5810 11.6465
 10.7463 10.4426 10.1639  9.9159  9.8017  8.7888  8.6996  8.6358  8.0931  7.8680
  7.8166  7.8063  7.7727  7.7319  7.3720  7.1947  7.1283  6.6988  6.6630  6.6321
  6.4601  6.3693  6.3002  6.1410  6.0500  4.3911  4.3908  4.3831  4.3765  4.3728
  4.1694  4.1049
 highest evec of mol 2
  0.0000  0.3094  0.0000
  0.0000  0.0016  0.0000
  0.0000 -0.0019  0.0005
  0.0000  0.0004  0.0004
  0.0000 -0.0006  0.0000
  0.0000  0.0004 -0.0004
  0.0000 -0.0019 -0.0005
  0.0000 -0.5738 -0.3505
  0.0000 -0.5738  0.3505
  0.0000  0.0009  0.0014
  0.0000 -0.0001 -0.0001
  0.0000  0.0001  0.0000
  0.0000 -0.0001  0.0001
  0.0000  0.0009 -0.0014
 Enter nber and list of atoms to keep of mol #2
 keep list:          14           1           2           3           4
           5           6           7           8           9          10
          11          12          13          14
 reordering atoms
           1   2.28744039020933     
           2  0.953673390209326     
           3  0.237122390209326     
           4  -1.13331960979067     
           5  -1.83054460979067     
           6  -1.13331960979067     
           7  0.237122390209326     
           8   2.81764239020933     
           9   2.81764239020933     
          10  0.788806390209326     
          11  -1.68571560979067     
          12  -2.91393060979067     
          13  -1.68571560979067     
          14  0.788806390209326     
           1           1
           2           2
           3           3
           4           4
           5           5
           6           6
           7           7
           8           8
           9           9
          10          10
          11          11
          12          12
          13          13
          14          14
 initial cartes coords mol 1
   7   0.00000   0.00000   2.33753
   6   0.00000   0.00000   0.95955
   6   0.00000  -1.20707   0.23848
   6   0.00000  -1.19943  -1.15121
   6   0.00000   0.00000  -1.86181
   6   0.00000   1.19943  -1.15121
   6   0.00000   1.20707   0.23848
   1   0.00000  -0.86004   2.85369
   1   0.00000   0.86004   2.85369
   1   0.00000  -2.14991   0.77669
   1   0.00000  -2.14469  -1.68361
   1   0.00000   0.00000  -2.94513
   1   0.00000   2.14469  -1.68361
   1   0.00000   2.14991   0.77669
 initial cartes coords mol 2
   7   0.00000   0.00000   2.28744
   6   0.00000   0.00000   0.95367
   6   0.00000  -1.24267   0.23712
   6   0.00000  -1.22852  -1.13332
   6   0.00000   0.00000  -1.83054
   6   0.00000   1.22852  -1.13332
   6   0.00000   1.24267   0.23712
   1   0.00000  -0.86318   2.81764
   1   0.00000   0.86318   2.81764
   1   0.00000  -2.17579   0.78881
   1   0.00000  -2.15970  -1.68572
   1   0.00000   0.00000  -2.91393
   1   0.00000   2.15970  -1.68572
   1   0.00000   2.17579   0.78881
 loop 1 0
 mod cartes coords mol 2
   7   0.00000   0.00000   2.28744
   6   0.00000   0.00000   0.95367
   6   0.00000  -1.24267   0.23712
   6   0.00000  -1.22852  -1.13332
   6   0.00000   0.00000  -1.83054
   6   0.00000   1.22852  -1.13332
   6   0.00000   1.24267   0.23712
   1   0.00000  -0.86318   2.81764
   1   0.00000   0.86318   2.81764
   1   0.00000  -2.17579   0.78881
   1   0.00000  -2.15970  -1.68572
   1   0.00000   0.00000  -2.91393
   1   0.00000   2.15970  -1.68572
   1   0.00000   2.17579   0.78881
 read in order, maxerr=  0.05 for atom   1
 final axis swaps:           1           1           1
 final xyz swap pattern=           1
 reorder list:
   1   2   3   4   5   6   7   8   9  10  11  12  13  14
 axis signs=           1           1           1
  7     0.000000  0.000000  2.287440     0.000000  0.000000  2.337531
  6     0.000000  0.000000  0.953673     0.000000  0.000000  0.959553
  6     0.000000 -1.242672  0.237122     0.000000 -1.207069  0.238475
  6     0.000000 -1.228523 -1.133320     0.000000 -1.199432 -1.151208
  6     0.000000  0.000000 -1.830545     0.000000  0.000000 -1.861807
  6     0.000000  1.228523 -1.133320     0.000000  1.199432 -1.151208
  6     0.000000  1.242672  0.237122     0.000000  1.207069  0.238475
  1     0.000000 -0.863185  2.817642     0.000000 -0.860039  2.853688
  1     0.000000  0.863185  2.817642     0.000000  0.860039  2.853688
  1     0.000000 -2.175788  0.788806     0.000000 -2.149909  0.776693
  1     0.000000 -2.159702 -1.685716     0.000000 -2.144693 -1.683615
  1     0.000000  0.000000 -2.913931     0.000000  0.000000 -2.945127
  1     0.000000  2.159702 -1.685716     0.000000  2.144693 -1.683615
  1     0.000000  2.175788  0.788806     0.000000  2.149909  0.776693
 generating redundant internal coords
         300        3600          14
 Adding extra bonds for z output only
           7           6           6           6           6           6
           6           1           1           1           1           1
           1           1
 search for int coords
   1 str   2   1   1.334
   2 str   3   2   1.434
   3 str   4   3   1.371
   4 str   5   4   1.413
   5 str   6   5   1.413
   6 str   7   2   1.434
   7 str   7   6   1.371
   8 str   8   1   1.013
   9 str   9   1   1.013
  10 str  10   3   1.084
  11 str  11   4   1.083
  12 str  12   5   1.083
  13 str  13   6   1.083
  14 str  14   7   1.084
 nber stretches=          14
  15 ben   1   2   3
  16 prop tor   1   2   3   4
  17 prop tor   1   2   3  10
  18 ben   1   2   7
  19 prop tor   1   2   7   6
  20 prop tor   1   2   7  14
  21 ben   2   1   8
  22 ben   2   1   9
  23 ben   2   3   4
  24 prop tor   2   3   4   5
  25 prop tor   2   3   4  11
  26 ben   2   3  10
  27 ben   2   7   6
  28 ben   2   7  14
  29 ben   3   2   7
  30 prop tor   3   2   7   6
  31 prop tor   3   2   7  14
  32 ben   3   4   5
  33 prop tor   3   4   5   6
  34 prop tor   3   4   5  12
  35 ben   3   4  11
  36 ben   4   3  10
  37 ben   4   5   6
  38 prop tor   4   5   6   7
  39 prop tor   4   5   6  13
  40 ben   4   5  12
  41 ben   5   4  11
  42 ben   5   6   7
  43 prop tor   5   6   7   2
  44 prop tor   5   6   7  14
  45 ben   5   6  13
  46 ben   6   5  12
  47 ben   6   7  14
  48 prop tor   7   2   3   4
  49 prop tor   7   2   3  10
  50 ben   7   6  13
  51 prop tor   8   1   2   3
  52 prop tor   8   1   2   7
  53 ben   8   1   9
  54 prop tor   9   1   2   3
  55 prop tor   9   1   2   7
  56 prop tor  10   3   4   5
  57 prop tor  10   3   4  11
  58 prop tor  11   4   5   6
  59 prop tor  11   4   5  12
  60 prop tor  12   5   6   7
  61 prop tor  12   5   6  13
  62 prop tor  13   6   7   2
  63 prop tor  13   6   7  14
 nber bend=              21
 nber lin bend=           0
 nber prop tor=          28
 nber impr tor=           0
 nber tot redund int=          63
 generating redundant internal coords
         300        3600          14
 search for int coords
   1 str   2   1   1.378
   2 str   3   2   1.406
   3 str   4   3   1.390
   4 str   5   4   1.394
   5 str   6   5   1.394
   6 str   7   2   1.406
   7 str   7   6   1.390
   8 str   8   1   1.003
   9 str   9   1   1.003
  10 str  10   3   1.086
  11 str  11   4   1.085
  12 str  12   5   1.083
  13 str  13   6   1.085
  14 str  14   7   1.086
 nber stretches=          14
  15 ben   1   2   3
  16 prop tor   1   2   3   4
  17 prop tor   1   2   3  10
  18 ben   1   2   7
  19 prop tor   1   2   7   6
  20 prop tor   1   2   7  14
  21 ben   2   1   8
  22 ben   2   1   9
  23 ben   2   3   4
  24 prop tor   2   3   4   5
  25 prop tor   2   3   4  11
  26 ben   2   3  10
  27 ben   2   7   6
  28 ben   2   7  14
  29 ben   3   2   7
  30 prop tor   3   2   7   6
  31 prop tor   3   2   7  14
  32 ben   3   4   5
  33 prop tor   3   4   5   6
  34 prop tor   3   4   5  12
  35 ben   3   4  11
  36 ben   4   3  10
  37 ben   4   5   6
  38 prop tor   4   5   6   7
  39 prop tor   4   5   6  13
  40 ben   4   5  12
  41 ben   5   4  11
  42 ben   5   6   7
  43 prop tor   5   6   7   2
  44 prop tor   5   6   7  14
  45 ben   5   6  13
  46 ben   6   5  12
  47 ben   6   7  14
  48 prop tor   7   2   3   4
  49 prop tor   7   2   3  10
  50 ben   7   6  13
  51 prop tor   8   1   2   3
  52 prop tor   8   1   2   7
  53 ben   8   1   9
  54 prop tor   9   1   2   3
  55 prop tor   9   1   2   7
  56 prop tor  10   3   4   5
  57 prop tor  10   3   4  11
  58 prop tor  11   4   5   6
  59 prop tor  11   4   5  12
  60 prop tor  12   5   6   7
  61 prop tor  12   5   6  13
  62 prop tor  13   6   7   2
  63 prop tor  13   6   7  14
 nber bend=              21
 nber lin bend=           0
 nber prop tor=          28
 nber impr tor=           0
 nber tot redund int=          63
 Eigenvalues of G in red int coords
    Gval -0.00000000 -0.00000000 -0.00000000 -0.00000000 -0.00000000 -0.00000000 -0.00000000 -0.00000000
    Gval -0.00000000 -0.00000000 -0.00000000 -0.00000000 -0.00000000  0.00000000  0.00000000  0.00000000
    Gval  0.00000000  0.00000000  0.00000000  0.00000000  0.00000000  0.00000000  0.00000000  0.00000000
    Gval  0.00000000  0.00000000  0.00000000  0.00002464  0.00003110  0.00004994  0.00006042  0.00006671
    Gval  0.00011073  0.00011883  0.00015849  0.00017686  0.00026923  0.00029590  0.00036594  0.00049953
    Gval  0.00055984  0.00056347  0.00059307  0.00059326  0.00060426  0.00061962  0.00066057  0.00072049
    Gval  0.00080228  0.00103942  0.00110633  0.00113649  0.00116746  0.00117264  0.00140858  0.00151752
    Gval  0.00163766  0.00180184  0.00209810  0.00234551  0.00312978  0.00372404  0.00406947
  2.463572424003859E-005  2.463572424003859E-005
  3.110218695650028E-005  2.463572424003859E-005
  4.993752877478313E-005  2.463572424003859E-005
  6.041924445306874E-005  2.463572424003859E-005
  6.670990495176697E-005  2.463572424003859E-005
  1.107332957925562E-004  2.463572424003859E-005
  1.188301649231214E-004  2.463572424003859E-005
  1.584895339521213E-004  2.463572424003859E-005
  1.768607470736145E-004  2.463572424003859E-005
  2.692345758818489E-004  2.463572424003859E-005
  2.958982303859253E-004  2.463572424003859E-005
  3.659350626370469E-004  2.463572424003859E-005
  4.995348813064281E-004  2.463572424003859E-005
  5.598432996859186E-004  2.463572424003859E-005
  5.634659735843087E-004  2.463572424003859E-005
  5.930676293575305E-004  2.463572424003859E-005
  5.932637572246744E-004  2.463572424003859E-005
  6.042567275181737E-004  2.463572424003859E-005
  6.196158746651478E-004  2.463572424003859E-005
  6.605656810874523E-004  2.463572424003859E-005
  7.204911350690032E-004  2.463572424003859E-005
  8.022839707874982E-004  2.463572424003859E-005
  1.039419398266715E-003  2.463572424003859E-005
  1.106332112186933E-003  2.463572424003859E-005
  1.136492823411222E-003  2.463572424003859E-005
  1.167458351174835E-003  2.463572424003859E-005
  1.172642761882498E-003  2.463572424003859E-005
  1.408584619261584E-003  2.463572424003859E-005
  1.517517043964414E-003  2.463572424003859E-005
  1.637660412875547E-003  2.463572424003859E-005
  1.801837209067845E-003  2.463572424003859E-005
  2.098095457337616E-003  2.463572424003859E-005
  2.345514689089126E-003  2.463572424003859E-005
  3.129781695203772E-003  2.463572424003859E-005
  3.724042574548354E-003  2.463572424003859E-005
  4.069465623124805E-003  2.463572424003859E-005
 cut=1d-8, nber non-redundant internal coords=          36
 Check on Eigenvals of non-red overlap matrix:
  0.00002464  0.00003110  0.00004994  0.00006042  0.00006671  0.00011073  0.00011883  0.00015849
  0.00017686  0.00026923  0.00029590  0.00036594  0.00049953  0.00055984  0.00056347  0.00059307
  0.00059326  0.00060426  0.00061962  0.00066057  0.00072049  0.00080228  0.00103942  0.00110633
  0.00113649  0.00116746  0.00117264  0.00140858  0.00151752  0.00163766  0.00180184  0.00209810
  0.00234551  0.00312978  0.00372404  0.00406947
 generating redundant internal coords
         300        3600          14
 search for int coords
   1 str   2   1   1.334
   2 str   3   2   1.434
   3 str   4   3   1.371
   4 str   5   4   1.413
   5 str   6   5   1.413
   6 str   7   2   1.434
   7 str   7   6   1.371
   8 str   8   1   1.013
   9 str   9   1   1.013
  10 str  10   3   1.084
  11 str  11   4   1.083
  12 str  12   5   1.083
  13 str  13   6   1.083
  14 str  14   7   1.084
 nber stretches=          14
  15 ben   1   2   3
  16 prop tor   1   2   3   4
  17 prop tor   1   2   3  10
  18 ben   1   2   7
  19 prop tor   1   2   7   6
  20 prop tor   1   2   7  14
  21 ben   2   1   8
  22 ben   2   1   9
  23 ben   2   3   4
  24 prop tor   2   3   4   5
  25 prop tor   2   3   4  11
  26 ben   2   3  10
  27 ben   2   7   6
  28 ben   2   7  14
  29 ben   3   2   7
  30 prop tor   3   2   7   6
  31 prop tor   3   2   7  14
  32 ben   3   4   5
  33 prop tor   3   4   5   6
  34 prop tor   3   4   5  12
  35 ben   3   4  11
  36 ben   4   3  10
  37 ben   4   5   6
  38 prop tor   4   5   6   7
  39 prop tor   4   5   6  13
  40 ben   4   5  12
  41 ben   5   4  11
  42 ben   5   6   7
  43 prop tor   5   6   7   2
  44 prop tor   5   6   7  14
  45 ben   5   6  13
  46 ben   6   5  12
  47 ben   6   7  14
  48 prop tor   7   2   3   4
  49 prop tor   7   2   3  10
  50 ben   7   6  13
  51 prop tor   8   1   2   3
  52 prop tor   8   1   2   7
  53 ben   8   1   9
  54 prop tor   9   1   2   3
  55 prop tor   9   1   2   7
  56 prop tor  10   3   4   5
  57 prop tor  10   3   4  11
  58 prop tor  11   4   5   6
  59 prop tor  11   4   5  12
  60 prop tor  12   5   6   7
  61 prop tor  12   5   6  13
  62 prop tor  13   6   7   2
  63 prop tor  13   6   7  14
 nber bend=              21
 nber lin bend=           0
 nber prop tor=          28
 nber impr tor=           0
 nber tot redund int=          63
 Eigenvalues of G in red int coords
    Gval -0.00000000 -0.00000000 -0.00000000 -0.00000000 -0.00000000 -0.00000000 -0.00000000 -0.00000000
    Gval -0.00000000 -0.00000000 -0.00000000 -0.00000000 -0.00000000  0.00000000  0.00000000  0.00000000
    Gval  0.00000000  0.00000000  0.00000000  0.00000000  0.00000000  0.00000000  0.00000000  0.00000000
    Gval  0.00000000  0.00000000  0.00000000  0.00002463  0.00003173  0.00004925  0.00006128  0.00006647
    Gval  0.00011072  0.00011844  0.00015882  0.00018071  0.00026575  0.00029296  0.00036168  0.00048255
    Gval  0.00055827  0.00056413  0.00059301  0.00059337  0.00060397  0.00061894  0.00065886  0.00073037
    Gval  0.00080570  0.00104109  0.00110706  0.00114010  0.00117203  0.00117548  0.00139137  0.00150476
    Gval  0.00162762  0.00176462  0.00210583  0.00234908  0.00313237  0.00379281  0.00406472
  2.463257756679147E-005  2.463257756679147E-005
  3.173317093373720E-005  2.463257756679147E-005
  4.924801403298768E-005  2.463257756679147E-005
  6.128094939710288E-005  2.463257756679147E-005
  6.647341935796685E-005  2.463257756679147E-005
  1.107164166635666E-004  2.463257756679147E-005
  1.184438597743337E-004  2.463257756679147E-005
  1.588242889135750E-004  2.463257756679147E-005
  1.807069329351188E-004  2.463257756679147E-005
  2.657474692380923E-004  2.463257756679147E-005
  2.929585989924097E-004  2.463257756679147E-005
  3.616752863277181E-004  2.463257756679147E-005
  4.825507689452679E-004  2.463257756679147E-005
  5.582740633431017E-004  2.463257756679147E-005
  5.641257184544598E-004  2.463257756679147E-005
  5.930116359548420E-004  2.463257756679147E-005
  5.933658236687927E-004  2.463257756679147E-005
  6.039711598859858E-004  2.463257756679147E-005
  6.189390197756681E-004  2.463257756679147E-005
  6.588580386339793E-004  2.463257756679147E-005
  7.303672057360519E-004  2.463257756679147E-005
  8.056987789384793E-004  2.463257756679147E-005
  1.041086264881246E-003  2.463257756679147E-005
  1.107055648759973E-003  2.463257756679147E-005
  1.140102030542350E-003  2.463257756679147E-005
  1.172032124381265E-003  2.463257756679147E-005
  1.175483947836658E-003  2.463257756679147E-005
  1.391373455701353E-003  2.463257756679147E-005
  1.504761755557032E-003  2.463257756679147E-005
  1.627617702502189E-003  2.463257756679147E-005
  1.764622985373424E-003  2.463257756679147E-005
  2.105832854134937E-003  2.463257756679147E-005
  2.349081669376097E-003  2.463257756679147E-005
  3.132365374245682E-003  2.463257756679147E-005
  3.792805676883341E-003  2.463257756679147E-005
  4.064718928410250E-003  2.463257756679147E-005
 cut=1d-8, nber non-redundant internal coords=          36
 Check on Eigenvals of non-red overlap matrix:
  0.00002463  0.00003173  0.00004925  0.00006128  0.00006647  0.00011072  0.00011844  0.00015882
  0.00018071  0.00026575  0.00029296  0.00036168  0.00048255  0.00055827  0.00056413  0.00059301
  0.00059337  0.00060397  0.00061894  0.00065886  0.00073037  0.00080570  0.00104109  0.00110706
  0.00114010  0.00117203  0.00117548  0.00139137  0.00150476  0.00162762  0.00176462  0.00210583
  0.00234908  0.00313237  0.00379281  0.00406472
 d1=
   7.7   0.0 -10.8  -0.0  -3.2   2.9  -0.0   0.0  -0.0   2.1  -0.0  -0.2  -0.0  -0.0  -0.6   0.1   0.0  -0.8  -0.0   0.2
  -0.0  -0.0   0.0  -0.7   0.0  -0.0  -0.0   0.0   0.0  -0.0   0.7   0.0   0.0   0.0  -0.0   0.0
 d2=
  -7.9   0.0 -10.9  -0.0  -3.1  -2.9  -0.0   0.0   0.0   2.1   0.0  -0.2   0.0  -0.0   0.6  -0.1  -0.0  -0.7   0.0  -0.2
  -0.0   0.0   0.0   0.7   0.0   0.0  -0.0   0.0  -0.0   0.0  -0.7  -0.0  -0.0   0.0   0.0   0.0
 curvilinear- renormalizn of Dush matrix done
  mol 1 sym            1  -> mol 2 sym            1
  mol 1 sym            2  -> mol 2 sym            2
  mol 1 sym            3  -> mol 2 sym            3
  mol 1 sym            4  -> mol 2 sym            4

 Dushinsky matrix, ncs 2 in terms of ncs 1

   mode   freq    coeff     %      %tot     of    at

   1 A1     -0. -0.0000     0.0     0.0  13 A1    540.
   2 B2     -0.  0.0000     0.0     0.0  23 B2   1023.
   3 B1     -0.  0.0000     0.0     0.0   8 B1    219.
   4 A2     -0. -0.0000     0.0     0.0  20 A2    955.
   5 B1      0. -0.0000     0.0     0.0   8 B1    219.
   6 B2      0.  0.0000     0.0     0.0  10 B2    379.
   7 B1    185.  0.9994    99.9   102.0   8 B1    219.
   8 A2    368.  0.9961    99.2    96.9  11 A2    419.
   9 B2    388. -0.9974    99.5   103.7  10 B2    379.
  10 B1    453. -0.9315    86.8   101.3  12 B1    515.
                 0.3276    10.7          15 B1    703.
  11 A1    532.  0.9992    99.8    97.2  13 A1    540.
  12 A2    564. -0.9859    97.2    99.2   9 A2    345.
  13 B2    595.  0.9955    99.1    99.0  14 B2    636.
  14 B1    625.  0.9873    97.5   100.0   1 B1   -439.
  15 B1    640. -0.3523    12.4    99.6  12 B1    515.
                -0.9241    85.4          15 B1    703.
  16 B1    796. -0.9660    93.3    98.5  16 B1    758.
  17 A2    812. -0.9867    97.4   100.1  17 A2    815.
  18 A1    824. -0.9887    97.8   100.2  18 A1    836.
  19 B1    938.  0.9655    93.2   100.2  19 B1    869.
  20 A1    993. -0.9848    97.0    99.0  22 A1   1006.
  21 A2   1006.  0.9989    99.8   101.5  20 A2    955.
  22 A1   1009. -0.9795    95.9   100.1  24 A1   1048.
  23 B1   1017.  0.9935    98.7   100.4  21 B1    975.
  24 B2   1028. -0.9940    98.8    99.1  23 B2   1023.
  25 B2   1131. -0.9601    92.2   100.3  25 B2   1121.
  26 B2   1187. -0.9601    92.2   100.4  26 B2   1178.
  27 A1   1210. -0.9931    98.6   100.2  27 A1   1200.
  28 B2   1370. -0.9825    96.5   100.1  30 B2   1364.
  29 B2   1384.  0.9810    96.2   100.3  29 B2   1342.
  30 A1   1397. -0.9659    93.3   100.4  28 A1   1327.
  31 B2   1473.  0.6475    41.9   100.6  31 B2   1499.
                 0.7282    53.0          33 B2   1621.
  32 A1   1515. -0.9690    93.9   100.0  32 A1   1534.
  33 B2   1548. -0.7474    55.9    99.5  31 B2   1499.
                 0.6414    41.1          33 B2   1621.
  34 A1   1630. -0.7021    49.3    99.1  34 A1   1641.
                -0.7012    49.2          35 A1   1661.
  35 A1   1679.  0.6985    48.8    98.1  34 A1   1641.
                -0.7083    50.2          35 A1   1661.
  36 A1   3187. -0.9778    95.6   100.0  36 A1   3148.
  37 B2   3188. -0.9880    97.6   100.0  37 B2   3149.
  38 A1   3199.  0.9200    84.6   100.0  38 A1   3165.
                 0.3688    13.6          40 A1   3189.
  39 B2   3209.  0.9880    97.6   100.0  39 B2   3170.
  40 A1   3214. -0.3471    12.1   100.0  38 A1   3165.
                 0.9236    85.3          40 A1   3189.
  41 A1   3535.  0.9999   100.0   100.1  41 A1   3638.
  42 B2   3647. -0.9999   100.0    99.9  42 B2   3759.
 nber times 1st assigned=           1           0
 nber times 1st assigned=           2           0
 nber times 1st assigned=           3           0
 nber times 1st assigned=           4           0
 nber times 1st assigned=           5           0
 nber times 1st assigned=           6           0
 nber times 1st assigned=           7           0
 nber times 1st assigned=           8           2
 nber times 1st assigned=           9           0
 nber times 1st assigned=          11           0
 nber times 1st assigned=          12           0
 nber times 1st assigned=          14           0
 nber times 1st assigned=          15           0
 nber times 1st assigned=          16           0
 nber times 1st assigned=          17           0
 nber times 1st assigned=          18           0
 nber times 1st assigned=          19           0
 nber times 1st assigned=          21           0
 nber times 1st assigned=          22           0
 nber times 1st assigned=          24           0
 nber times 1st assigned=          25           0
 nber times 1st assigned=          26           0
 nber times 1st assigned=          27           0
 nber times 1st assigned=          28           0
 nber times 1st assigned=          29           0
 nber times 1st assigned=          30           0
 nber times 1st assigned=          31           0
 nber times 1st assigned=          32           0
 nber times 1st assigned=          33           0
 nber times 1st assigned=          34           0
 nber times 1st assigned=          35           0
 nber times 1st assigned=          36           0
 nber times 1st assigned=          37           0
 nber times 1st assigned=          38           0
 nber times 1st assigned=          39           0
 nber times 1st assigned=          40           0
 nber times 1st assigned=          41           0
 nber times 1st assigned=          42           0
 Dushinsky matrix written to .out file
 modes represented=   35.9720424116693     

 Dushinsky matrix, ncs 1 in terms of ncs 2

   mode   freq    coeff     %      %tot     of    at

   1 B1   -439.  0.9873    97.5   100.1  14 B1    625.
   8 B1    219.  0.9994    99.9   102.1   7 B1    185.
   9 A2    345. -0.9859    97.2    99.1  12 A2    564.
  10 B2    379. -0.9974    99.5   103.6   9 B2    388.
  11 A2    419.  0.9961    99.2    96.7   8 A2    368.
  12 B1    515. -0.9315    86.8   101.8  10 B1    453.
                -0.3523    12.4          15 B1    640.
  13 A1    540.  0.9992    99.8    97.2  11 A1    532.
  14 B2    636.  0.9955    99.1    99.0  13 B2    595.
  15 B1    703.  0.3276    10.7    99.6  10 B1    453.
                -0.9241    85.4          15 B1    640.
  16 B1    758. -0.9660    93.3    98.5  16 B1    796.
  17 A2    815. -0.9867    97.4   100.4  17 A2    812.
  18 A1    836. -0.9887    97.8   100.4  18 A1    824.
  19 B1    869.  0.9655    93.2    99.9  19 B1    938.
  20 A2    955.  0.9989    99.8   101.5  21 A2   1006.
  21 B1    975.  0.9935    98.7   100.2  23 B1   1017.
  22 A1   1006. -0.9848    97.0    99.5  20 A1    993.
  23 B2   1023. -0.9940    98.8    99.2  24 B2   1028.
  24 A1   1048. -0.9795    95.9    99.9  22 A1   1009.
  25 B2   1121. -0.9601    92.2   100.1  25 B2   1131.
  26 B2   1178. -0.9601    92.2   100.3  26 B2   1187.
  27 A1   1200. -0.9931    98.6   100.1  27 A1   1210.
  28 A1   1327. -0.9659    93.3   100.0  30 A1   1397.
  29 B2   1342.  0.9810    96.2   100.3  29 B2   1384.
  30 B2   1364. -0.9825    96.5   100.3  28 B2   1370.
  31 B2   1499.  0.6475    41.9    99.1  31 B2   1473.
                -0.7474    55.9          33 B2   1548.
  32 A1   1534. -0.9690    93.9   100.3  32 A1   1515.
  33 B2   1621.  0.7282    53.0   101.1  31 B2   1473.
                 0.6414    41.1          33 B2   1548.
  34 A1   1641. -0.7021    49.3    98.3  34 A1   1630.
                 0.6985    48.8          35 A1   1679.
  35 A1   1661. -0.7012    49.2    98.5  34 A1   1630.
                -0.7083    50.2          35 A1   1679.
  36 A1   3148. -0.9778    95.6   100.0  36 A1   3187.
  37 B2   3149. -0.9880    97.6   100.0  37 B2   3188.
  38 A1   3165.  0.9200    84.6   100.0  38 A1   3199.
                -0.3471    12.1          40 A1   3214.
  39 B2   3170.  0.9880    97.6   100.0  39 B2   3209.
  40 A1   3189.  0.3688    13.6   100.0  38 A1   3199.
                 0.9236    85.3          40 A1   3214.
  41 A1   3638.  0.9999   100.0   100.1  41 A1   3535.
  42 B2   3759. -0.9999   100.0    99.9  42 B2   3647.
 nber times 1st assigned=           1           0
 nber times 1st assigned=           2           0
 nber times 1st assigned=           3           0
 nber times 1st assigned=           4           0
 nber times 1st assigned=           5           0
 nber times 1st assigned=           6           0
 nber times 1st assigned=           7           0
 nber times 1st assigned=           8           0
 nber times 1st assigned=           9           0
 nber times 1st assigned=          10           0
 nber times 1st assigned=          11           0
 nber times 1st assigned=          12           0
 nber times 1st assigned=          13           0
 nber times 1st assigned=          14           0
 nber times 1st assigned=          15           0
 nber times 1st assigned=          16           0
 nber times 1st assigned=          17           0
 nber times 1st assigned=          18           0
 nber times 1st assigned=          19           0
 nber times 1st assigned=          20           0
 nber times 1st assigned=          21           0
 nber times 1st assigned=          22           0
 nber times 1st assigned=          23           0
 nber times 1st assigned=          24           0
 nber times 1st assigned=          25           0
 nber times 1st assigned=          26           0
 nber times 1st assigned=          27           0
 nber times 1st assigned=          28           0
 nber times 1st assigned=          29           0
 nber times 1st assigned=          30           0
 nber times 1st assigned=          31           0
 nber times 1st assigned=          32           0
 nber times 1st assigned=          33           0
 nber times 1st assigned=          34           0
 nber times 1st assigned=          35           0
 nber times 1st assigned=          36           0
 nber times 1st assigned=          37           0
 nber times 1st assigned=          38           0
 nber times 1st assigned=          39           0
 nber times 1st assigned=          40           0
 nber times 1st assigned=          41           0
 nber times 1st assigned=          42           0
 modes represented=   35.9720424116693     
 p1=
    0.    0.   -0.    0.   -0.   -0.   -0.    0.    0.   -0.    0.    0.  -13.    0.   -0.   -0.   -0.   -2.   -0.   -0.
   -0.    3.   -0.   -1.    0.   -0.   -3.    3.    0.    0.   -0.   -1.    0.    1.    3.   -0.    0.    0.   -0.   -0.
    1.   -0.
 p2=
   -0.   -0.   -0.   -0.    0.   -0.    0.   -0.    0.   -0.   13.   -0.    0.   -0.    0.    0.   -0.   -3.    0.    3.
    0.   -1.    0.    0.   -0.    0.   -3.    0.    0.    2.   -0.   -2.    0.    3.    2.   -0.    0.   -0.    0.    0.
   -1.    0.

 Displacement: in terms of nc of 1 THEN of nc of 2

   1 B1  freq=  -439. Q=  0.000 lam=    -0.0 A1  freq=    -0. Q=  0.000 lam=    -0.0
   2 A1  freq=    -0. Q=  0.000 lam=    -0.0 B2  freq=    -0. Q=  0.000 lam=    -0.0
   3 B2  freq=    -0. Q= -0.000 lam=    -0.0 B1  freq=    -0. Q= -0.000 lam=    -0.0
   4 B2  freq=    -0. Q=  0.000 lam=    -0.0 A2  freq=    -0. Q=  0.000 lam=    -0.0
   5 B1  freq=    -0. Q= -0.000 lam=    -0.0 B1  freq=     0. Q= -0.000 lam=     0.0
   6 A2  freq=    -0. Q= -0.000 lam=    -0.0 B2  freq=     0. Q= -0.000 lam=     0.0
   7 B1  freq=     0. Q= -0.000 lam=     0.0 B1  freq=   185. Q= -0.000 lam=     0.0
   8 B1  freq=   219. Q=  0.000 lam=     0.0 A2  freq=   368. Q=  0.000 lam=     0.0
   9 A2  freq=   345. Q=  0.000 lam=     0.0 B2  freq=   388. Q=  0.000 lam=     0.0
  10 B2  freq=   379. Q= -0.000 lam=     0.0 B1  freq=   453. Q= -0.000 lam=     0.0
  11 A2  freq=   419. Q=  0.000 lam=     0.0 A1  freq=   532. Q=  1.185 lam=   373.9
  12 B1  freq=   515. Q=  0.000 lam=     0.0 A2  freq=   564. Q=  0.000 lam=     0.0
  13 A1  freq=   540. Q= -1.181 lam=   376.6 B2  freq=   595. Q= -0.000 lam=     0.0
  14 B2  freq=   636. Q=  0.000 lam=     0.0 B1  freq=   625. Q=  0.000 lam=     0.0
  15 B1  freq=   703. Q= -0.000 lam=     0.0 B1  freq=   640. Q= -0.000 lam=     0.0
  16 B1  freq=   758. Q= -0.000 lam=     0.0 B1  freq=   796. Q= -0.000 lam=     0.0
  17 A2  freq=   815. Q= -0.000 lam=     0.0 A2  freq=   812. Q= -0.000 lam=     0.0
  18 A1  freq=   836. Q= -0.255 lam=    27.1 A1  freq=   824. Q= -0.302 lam=    37.5
  19 B1  freq=   869. Q= -0.000 lam=     0.0 B1  freq=   938. Q= -0.000 lam=     0.0
  20 A2  freq=   955. Q= -0.000 lam=     0.0 A1  freq=   993. Q= -0.354 lam=    62.4
  21 B1  freq=   975. Q= -0.000 lam=     0.0 A2  freq=  1006. Q= -0.000 lam=     0.0
  22 A1  freq=  1006. Q=  0.320 lam=    51.6 A1  freq=  1009. Q=  0.072 lam=     2.6
  23 B2  freq=  1023. Q= -0.000 lam=     0.0 B1  freq=  1017. Q= -0.000 lam=     0.0
  24 A1  freq=  1048. Q= -0.111 lam=     6.5 B2  freq=  1028. Q= -0.000 lam=     0.0
  25 B2  freq=  1121. Q=  0.000 lam=     0.0 B2  freq=  1131. Q=  0.000 lam=     0.0
  26 B2  freq=  1178. Q= -0.000 lam=     0.0 B2  freq=  1187. Q= -0.000 lam=     0.0
  27 A1  freq=  1200. Q= -0.402 lam=    97.1 A1  freq=  1210. Q= -0.397 lam=    95.5
  28 A1  freq=  1327. Q=  0.400 lam=   106.2 B2  freq=  1370. Q=  0.000 lam=     0.0
  29 B2  freq=  1342. Q=  0.000 lam=     0.0 B2  freq=  1384. Q=  0.000 lam=     0.0
  30 B2  freq=  1364. Q=  0.000 lam=     0.0 A1  freq=  1397. Q=  0.346 lam=    83.8
  31 B2  freq=  1499. Q= -0.000 lam=     0.0 B2  freq=  1473. Q= -0.000 lam=     0.0
  32 A1  freq=  1534. Q= -0.164 lam=    20.5 A1  freq=  1515. Q= -0.258 lam=    50.5
  33 B2  freq=  1621. Q=  0.000 lam=     0.0 B2  freq=  1548. Q=  0.000 lam=     0.0
  34 A1  freq=  1641. Q=  0.186 lam=    28.4 A1  freq=  1630. Q=  0.462 lam=   174.0
  35 A1  freq=  1661. Q=  0.568 lam=   267.7 A1  freq=  1679. Q=  0.313 lam=    82.5
  36 A1  freq=  3148. Q= -0.010 lam=     0.2 A1  freq=  3187. Q= -0.018 lam=     0.5
  37 B2  freq=  3149. Q=  0.000 lam=     0.0 B2  freq=  3188. Q=  0.000 lam=     0.0
  38 A1  freq=  3165. Q=  0.037 lam=     2.1 A1  freq=  3199. Q=  0.022 lam=     0.8
  39 B2  freq=  3170. Q= -0.000 lam=     0.0 B2  freq=  3209. Q= -0.000 lam=     0.0
  40 A1  freq=  3189. Q= -0.031 lam=     1.6 A1  freq=  3214. Q= -0.035 lam=     2.0
  41 A1  freq=  3638. Q=  0.152 lam=    42.3 A1  freq=  3535. Q=  0.164 lam=    47.3
  42 B2  freq=  3759. Q= -0.000 lam=     0.0 B2  freq=  3647. Q= -0.000 lam=     0.0

 total reorg energy (cm**-1, kcal/mol)=     1028.     1013.      2.94      2.90
 Nber of molecules processed=           2
