 Enter ifcurve (0=recti, 1=orth curvi, 2=apprx curvi, -1 = skip
 And atom ordering flag, 0= never changes, 1= use the first order thenceforth,
  2= deduce it (does read on fail), 3= always read it
 Reading file: 
 ./Common_Moeties_18_C0S0.log                                                   
                                          
  Entering Gaussian System, Link 0=g16                                          
  
 Gaussian format, type: g94, g98, g03= F F F
  #P Geom=AllCheck Guess=TCheck SCRF=Check GenChk RB3LYP/6-311G(d,p) Fre    
 energy type= B3LYP   
 Original G94 input coords:
  7  2.934300 -2.229696  0.000000
  6  2.370564 -1.219027  0.000000
  6  1.639936  0.000208  0.000000
  6  2.370120  1.219615  0.000000
  7  2.933572  2.230118  0.000000
  6  0.254851  0.000059  0.000000
  6 -0.525776 -1.213623  0.000000
  6 -1.869747 -1.160283  0.000000
  8 -2.572798 -0.000276  0.000000
  6 -1.870020  1.159888  0.000000
  6 -0.526059  1.213546  0.000000
  1 -0.038729 -2.179798  0.000000
  1 -2.524348 -2.019828  0.000000
  1 -2.524816  2.019285  0.000000
  1 -0.039253  2.179813  0.000000
 nber atoms=          15
 Original standard coords:
  7 -2.229097 -2.577702  0.000000
  6 -1.218566 -2.013717  0.000000
  6  0.000489 -1.282790  0.000000
  6  1.220075 -2.012674  0.000000
  7  2.230717 -2.575878  0.000000
  6  0.000000  0.102295  0.000000
  6 -1.213874  0.882624  0.000000
  6 -1.160864  2.226608  0.000000
  8 -0.001030  2.929943  0.000000
  6  1.159307  2.227450  0.000000
  6  1.213295  0.883502  0.000000
  1 -2.179929  0.395339  0.000000
  1 -2.020570  2.880997  0.000000
  1  2.018543  2.882458  0.000000
  1  2.179681  0.396934  0.000000
  SCF Done:  E(RB3LYP) =  -492.036260392     A.U. after    1 cycles             
  
          23          40 "  -492.036260392"
After scan for Atom:   Atom  AN      X      Y      Z        X      Y      Z        X      Y      Z   
After scan for Atom:   Atom  AN      X      Y      Z        X      Y      Z        X      Y      Z   
After scan for Atom:   Atom  AN      X      Y      Z        X      Y      Z        X      Y      Z   
After scan for Atom:   Atom  AN      X      Y      Z        X      Y      Z        X      Y      Z   
After scan for Atom:   Atom  AN      X      Y      Z        X      Y      Z        X      Y      Z   
After scan for Atom:   Atom  AN      X      Y      Z        X      Y      Z        X      Y      Z   
After scan for Atom:   Atom  AN      X      Y      Z        X      Y      Z        X      Y      Z   
After scan for Atom:   Atom  AN      X      Y      Z        X      Y      Z        X      Y      Z   
After scan for Atom:   Atom  AN      X      Y      Z        X      Y      Z        X      Y      Z   
After scan for Atom:   Atom  AN      X      Y      Z        X      Y      Z        X      Y      Z   
After scan for Atom:   Atom  AN      X      Y      Z        X      Y      Z        X      Y      Z   
After scan for Atom:   Atom  AN      X      Y      Z        X      Y      Z        X      Y      Z   
After scan for Atom:   Atom  AN      X      Y      Z        X      Y      Z        X      Y      Z   
 g94    frequencies=
     0.0    0.0    0.0    0.0    0.0    0.0   94.4  108.2  121.6  132.8
   225.2  345.4  413.5  422.5  435.2  488.4  532.4  615.6  626.9  675.4
   687.3  731.7  841.1  845.5  938.5  974.0  980.0 1003.2 1047.3 1064.1
  1214.1 1238.1 1289.7 1347.9 1428.9 1448.8 1557.1 1598.1 1699.0 2311.5
  2327.3 3207.0 3207.2 3236.5 3239.8
 g94    symmetries=
                                                A"     A"     A'     A'
      A"     A'     A'     A"     A"     A"     A'     A'     A"     A'
      A'     A"     A"     A"     A'     A"     A"     A'     A'     A'
      A'     A'     A'     A'     A'     A'     A'     A'     A'     A'
      A'     A'     A'     A'     A'
 atomic masses:
 14.0031 12.0000 12.0000 12.0000 14.0031 12.0000 12.0000 12.0000 15.9949 12.0000
 12.0000  1.0078  1.0078  1.0078  1.0078
 looking for force constants in 
 ./Common_Moeties_18_C0S0.fchk                                                  
  
 Cartesian Force Constants                  R   N=        1035                  
  
 n3=          45        1035
 g94-fc frequencies=
    -3.9   -0.0    0.0    0.0    1.3    3.5   94.4  108.3  121.6  132.9
   225.2  345.4  413.5  422.5  435.3  488.4  532.4  615.6  626.9  675.5
   687.3  731.7  841.1  845.5  938.6  974.0  980.0 1003.2 1047.3 1064.1
  1214.2 1238.2 1289.8 1347.9 1429.0 1448.8 1557.1 1598.1 1699.0 2311.6
  2327.3 3207.0 3207.3 3236.5 3239.9
 at 99999: n3=          45
 symm operator            1 :  F  nop=           0
 symm operator            2 :  F  nop=           0
 symm operator            3 :  F  nop=           0
 symm operator            4 :  F  nop=           0
 symm operator            5 :  T  nop=           1
 symm operator            6 :  F  nop=           1
 symm operator            7 :  F  nop=           1
 The point group of the molecule is  CS
 enforcing symm op           5  jsymt=           1           1          -1
 cartesian coord symmetries:
 A' :   30 A" :   15
 Symmetry rotation matrix:
   1.00000   0.00000   0.00000
   0.00000   1.00000   0.00000
   0.00000   0.00000   1.00000

 Projecting out zero-frequency components
 generating redundant internal coords
         300        3600          15
 search for int coords
   1 str   2   1   1.157
   2 str   3   2   1.421
   3 str   4   3   1.421
   4 str   5   4   1.157
   5 str   6   3   1.385
   6 str   7   6   1.443
   7 str   8   7   1.345
   8 str   9   8   1.356
   9 str  10   9   1.356
  10 str  11   6   1.443
  11 str  11  10   1.345
  12 str  12   7   1.082
  13 str  13   8   1.080
  14 str  14  10   1.080
  15 str  15  11   1.082
 nber stretches=          15
  16 lin ben   1   2   3
  18 ben   2   3   4
  19 prop tor   2   3   4   5
  20 ben   2   3   6
  21 prop tor   2   3   6   7
  22 prop tor   2   3   6  11
  23 lin ben   3   4   5
  25 ben   3   6   7
  26 prop tor   3   6   7   8
  27 prop tor   3   6   7  12
  28 ben   3   6  11
  29 prop tor   3   6  11  10
  30 prop tor   3   6  11  15
  31 ben   4   3   6
  32 prop tor   4   3   6   7
  33 prop tor   4   3   6  11
  34 prop tor   6   3   4   5
  35 ben   6   7   8
  36 prop tor   6   7   8   9
  37 prop tor   6   7   8  13
  38 ben   6   7  12
  39 ben   6  11  10
  40 ben   6  11  15
  41 ben   7   6  11
  42 prop tor   7   6  11  10
  43 prop tor   7   6  11  15
  44 ben   7   8   9
  45 prop tor   7   8   9  10
  46 ben   7   8  13
  47 ben   8   7  12
  48 ben   8   9  10
  49 prop tor   8   9  10  11
  50 prop tor   8   9  10  14
  51 ben   9   8  13
  52 ben   9  10  11
  53 prop tor   9  10  11   6
  54 prop tor   9  10  11  15
  55 ben   9  10  14
  56 ben  10  11  15
  57 prop tor  11   6   7   8
  58 prop tor  11   6   7  12
  59 ben  11  10  14
  60 prop tor  12   7   8   9
  61 prop tor  12   7   8  13
  62 prop tor  13   8   9  10
  63 prop tor  14  10  11   6
  64 prop tor  14  10  11  15
  65 lin bend prop tor   2   1   3   4
  66 lin bend prop tor   2   1   3   6
  67 lin bend prop tor   2   3   5   4
  68 lin bend prop tor   6   3   5   4
 nber bend=              23
 nber lin bend=           2
 nber prop tor=          30
 nber impr tor=           0
 nber tot redund int=          68
 Eigenvalues of G in red int coords
    Gval -0.00000000 -0.00000000 -0.00000000 -0.00000000 -0.00000000 -0.00000000 -0.00000000 -0.00000000
    Gval -0.00000000 -0.00000000 -0.00000000  0.00000000  0.00000000  0.00000000  0.00000000  0.00000000
    Gval  0.00000000  0.00000000  0.00000000  0.00000000  0.00000000  0.00000000  0.00000000  0.00000000
    Gval  0.00000000  0.00000000  0.00000000  0.00000000  0.00000000  0.00000486  0.00000712  0.00001390
    Gval  0.00001859  0.00003619  0.00003901  0.00005183  0.00005272  0.00006236  0.00006525  0.00007499
    Gval  0.00010388  0.00011764  0.00012073  0.00012944  0.00015506  0.00023730  0.00026255  0.00033795
    Gval  0.00034538  0.00037201  0.00043754  0.00052046  0.00059588  0.00059914  0.00063117  0.00064278
    Gval  0.00085938  0.00107286  0.00109785  0.00116391  0.00117707  0.00140134  0.00188737  0.00196398
    Gval  0.00345512  0.00355205  0.33020415  0.70056965
  4.856148232335075E-006  4.856148232335075E-006
  7.124939513320318E-006  4.856148232335075E-006
  1.390494373638677E-005  4.856148232335075E-006
  1.859039524562594E-005  4.856148232335075E-006
  3.619327059344598E-005  4.856148232335075E-006
  3.900757217646448E-005  4.856148232335075E-006
  5.183320826417570E-005  4.856148232335075E-006
  5.271577848759507E-005  4.856148232335075E-006
  6.236404023729702E-005  4.856148232335075E-006
  6.525190192901992E-005  4.856148232335075E-006
  7.499232171868026E-005  4.856148232335075E-006
  1.038755545707540E-004  4.856148232335075E-006
  1.176384607536264E-004  4.856148232335075E-006
  1.207311535854801E-004  4.856148232335075E-006
  1.294379665156668E-004  4.856148232335075E-006
  1.550640892790251E-004  4.856148232335075E-006
  2.373037287109806E-004  4.856148232335075E-006
  2.625498958498827E-004  4.856148232335075E-006
  3.379486564770602E-004  4.856148232335075E-006
  3.453793778651206E-004  4.856148232335075E-006
  3.720137770905480E-004  4.856148232335075E-006
  4.375427086163349E-004  4.856148232335075E-006
  5.204603055384018E-004  4.856148232335075E-006
  5.958803083639045E-004  4.856148232335075E-006
  5.991398086515133E-004  4.856148232335075E-006
  6.311656519223274E-004  4.856148232335075E-006
  6.427782531232510E-004  4.856148232335075E-006
  8.593766297083367E-004  4.856148232335075E-006
  1.072860997575088E-003  4.856148232335075E-006
  1.097851445109044E-003  4.856148232335075E-006
  1.163907521224718E-003  4.856148232335075E-006
  1.177072061358193E-003  4.856148232335075E-006
  1.401343587260540E-003  4.856148232335075E-006
  1.887371798762447E-003  4.856148232335075E-006
  1.963976433480159E-003  4.856148232335075E-006
  3.455119077851847E-003  4.856148232335075E-006
  3.552050646528249E-003  4.856148232335075E-006
  0.330204152315461       4.856148232335075E-006
  0.700569646469467       4.856148232335075E-006
 cut=1d-8, nber non-redundant internal coords=          39
 Check on Eigenvals of non-red overlap matrix:
  0.00000486  0.00000712  0.00001390  0.00001859  0.00003619  0.00003901  0.00005183  0.00005272
  0.00006236  0.00006525  0.00007499  0.00010388  0.00011764  0.00012073  0.00012944  0.00015506
  0.00023730  0.00026255  0.00033795  0.00034538  0.00037201  0.00043754  0.00052046  0.00059588
  0.00059914  0.00063117  0.00064278  0.00085938  0.00107286  0.00109785  0.00116391  0.00117707
  0.00140134  0.00188737  0.00196398  0.00345512  0.00355205  0.33020415  0.70056965
 Checking for correct frequencies
 recalc frequencies=
    -0.0   -0.0    0.0    0.0    0.0    0.0   94.4  108.3  121.6  132.9
   225.2  345.4  413.5  422.5  435.3  488.4  532.4  615.6  626.9  675.5
   687.3  731.7  841.1  845.5  938.6  974.0  980.0 1003.2 1047.3 1064.1
  1214.2 1238.2 1289.8 1347.9 1429.0 1448.8 1557.1 1598.1 1699.0 2311.6
  2327.3 3207.0 3207.3 3236.5 3239.9
 recalc symmetries=
     A'     A'     A"     A"     A"     A'     A"     A"     A'     A' 
     A"     A'     A'     A"     A"     A"     A'     A'     A"     A' 
     A'     A"     A"     A"     A'     A"     A"     A'     A'     A' 
     A'     A'     A'     A'     A'     A'     A'     A'     A'     A' 
     A'     A'     A'     A'     A' 
 recalc freqs check OK
 Zero-point lengths:
 10.0000 10.0000 10.0000 10.0000 10.0000 10.0000 25.5100 23.8276 22.4835 21.5085
 16.5191 13.3391 12.1909 12.0606 11.8830 11.2182 10.7446  9.9917  9.9015  9.5389
  9.4563  9.1651  8.5482  8.5258  8.0922  7.9436  7.9190  7.8270  7.6605  7.5999
  7.1147  7.0455  6.9030  6.7525  6.5582  6.5131  6.2825  6.2014  6.0145  5.1563
  5.1389  4.3777  4.3775  4.3577  4.3554
 highest evec of mol 1
  0.0002  0.0000  0.0000
 -0.0003 -0.0001  0.0000
  0.0000  0.0013  0.0000
  0.0003 -0.0001  0.0000
 -0.0002  0.0000  0.0000
 -0.0000 -0.0045  0.0000
 -0.0446 -0.0372  0.0000
 -0.1573  0.1320  0.0000
 -0.0000 -0.0014  0.0000
  0.1576  0.1325  0.0000
  0.0451 -0.0375  0.0000
  0.1479  0.0780  0.0000
  0.5171 -0.3968  0.0000
 -0.5182 -0.3983  0.0000
 -0.1496  0.0787  0.0000
 generating redundant internal coords
         300        3600          15
 Adding extra bonds for z output only
           7           6           6           6           7           6
           6           6           8           6           6           1
           1           1           1
 search for int coords
   1 str   2   1   1.157
   2 str   3   2   1.421
   3 str   4   3   1.421
   4 str   5   4   1.157
   5 str   6   3   1.385
   6 str   7   6   1.443
   7 str   8   7   1.345
   8 str   9   8   1.356
   9 str  10   9   1.356
  10 str  11   6   1.443
  11 str  11  10   1.345
  12 str  12   7   1.082
  13 str  13   8   1.080
  14 str  14  10   1.080
  15 str  15  11   1.082
 nber stretches=          15
  16 lin ben   1   2   3
  18 ben   2   3   4
  19 prop tor   2   3   4   5
  20 ben   2   3   6
  21 prop tor   2   3   6   7
  22 prop tor   2   3   6  11
  23 lin ben   3   4   5
  25 ben   3   6   7
  26 prop tor   3   6   7   8
  27 prop tor   3   6   7  12
  28 ben   3   6  11
  29 prop tor   3   6  11  10
  30 prop tor   3   6  11  15
  31 ben   4   3   6
  32 prop tor   4   3   6   7
  33 prop tor   4   3   6  11
  34 prop tor   6   3   4   5
  35 ben   6   7   8
  36 prop tor   6   7   8   9
  37 prop tor   6   7   8  13
  38 ben   6   7  12
  39 ben   6  11  10
  40 ben   6  11  15
  41 ben   7   6  11
  42 prop tor   7   6  11  10
  43 prop tor   7   6  11  15
  44 ben   7   8   9
  45 prop tor   7   8   9  10
  46 ben   7   8  13
  47 ben   8   7  12
  48 ben   8   9  10
  49 prop tor   8   9  10  11
  50 prop tor   8   9  10  14
  51 ben   9   8  13
  52 ben   9  10  11
  53 prop tor   9  10  11   6
  54 prop tor   9  10  11  15
  55 ben   9  10  14
  56 ben  10  11  15
  57 prop tor  11   6   7   8
  58 prop tor  11   6   7  12
  59 ben  11  10  14
  60 prop tor  12   7   8   9
  61 prop tor  12   7   8  13
  62 prop tor  13   8   9  10
  63 prop tor  14  10  11   6
  64 prop tor  14  10  11  15
  65 lin bend prop tor   2   1   3   4
  66 lin bend prop tor   2   1   3   6
  67 lin bend prop tor   2   3   5   4
  68 lin bend prop tor   6   3   5   4
 nber bend=              23
 nber lin bend=           2
 nber prop tor=          30
 nber impr tor=           0
 nber tot redund int=          68
 Reading file: 
 ./Common_Moeties_18_C1S0.log                                                   
                                          
  Entering Gaussian System, Link 0=g16                                          
  
 Gaussian format, type: g94, g98, g03= F F F
  #P Geom=AllCheck Guess=TCheck SCRF=Check GenChk UB3LYP/6-311G(d,p) Fre    
 energy type= B3LYP   
 Original G94 input coords:
  7  2.935105 -2.227288  0.000000
  6  2.375598 -1.209942  0.000000
  6  1.660115  0.000182  0.000000
  6  2.375168  1.210498  0.000000
  7  2.934554  2.228008  0.000000
  6  0.214624 -0.000002  0.000000
  6 -0.518253 -1.211924  0.000000
  6 -1.883154 -1.160837  0.000000
  8 -2.540123 -0.000272  0.000000
  6 -1.883388  1.160418  0.000000
  6 -0.518494  1.211768  0.000000
  1 -0.027293 -2.177036  0.000000
  1 -2.549310 -2.012920  0.000000
  1 -2.549707  2.012373  0.000000
  1 -0.027718  2.176974  0.000000
 nber atoms=          15
 Original standard coords:
  7  2.228152  2.575667  0.000000
  6  1.210627  2.016484  0.000000
  6  0.000276  1.301387  0.000000
  6 -1.209813  2.016825  0.000000
  7 -2.227145  2.576535  0.000000
  6  0.000000 -0.144104  0.000000
  6  1.211688 -0.877367  0.000000
  6  1.160167 -2.242252  0.000000
  8 -0.000607 -2.898851  0.000000
  6 -1.161088 -2.241747  0.000000
  6 -1.212004 -0.876836  0.000000
  1  2.176956 -0.386715  0.000000
  1  2.012038 -2.908679  0.000000
  1 -2.013255 -2.907795  0.000000
  1 -2.177053 -0.385753  0.000000
  SCF Done:  E(UB3LYP) =  -491.727108032     A.U. after    1 cycles             
  
          23          40 "  -491.727108032"
After scan for Atom:   Atom  AN      X      Y      Z        X      Y      Z        X      Y      Z   
After scan for Atom:   Atom  AN      X      Y      Z        X      Y      Z        X      Y      Z   
After scan for Atom:   Atom  AN      X      Y      Z        X      Y      Z        X      Y      Z   
After scan for Atom:   Atom  AN      X      Y      Z        X      Y      Z        X      Y      Z   
After scan for Atom:   Atom  AN      X      Y      Z        X      Y      Z        X      Y      Z   
After scan for Atom:   Atom  AN      X      Y      Z        X      Y      Z        X      Y      Z   
After scan for Atom:   Atom  AN      X      Y      Z        X      Y      Z        X      Y      Z   
After scan for Atom:   Atom  AN      X      Y      Z        X      Y      Z        X      Y      Z   
After scan for Atom:   Atom  AN      X      Y      Z        X      Y      Z        X      Y      Z   
After scan for Atom:   Atom  AN      X      Y      Z        X      Y      Z        X      Y      Z   
After scan for Atom:   Atom  AN      X      Y      Z        X      Y      Z        X      Y      Z   
After scan for Atom:   Atom  AN      X      Y      Z        X      Y      Z        X      Y      Z   
After scan for Atom:   Atom  AN      X      Y      Z        X      Y      Z        X      Y      Z   
 g94    frequencies=
     0.0    0.0    0.0    0.0    0.0    0.0   63.0  114.5  121.8  129.9
   236.8  330.8  387.5  407.5  407.5  466.7  515.7  609.4  628.3  678.8
   695.9  741.8  858.6  884.3  966.8  995.9 1000.9 1024.2 1068.2 1094.1
  1235.0 1236.5 1255.2 1324.7 1362.7 1485.0 1494.6 1527.2 1654.7 2208.6
  2263.6 3208.3 3208.4 3238.8 3242.6
 g94    symmetries=
                                                A"     A"     A'     A'
      A"     A'     A"     A'     A"     A"     A'     A'     A"     A'
      A'     A"     A"     A"     A'     A"     A"     A'     A'     A'
      A'     A'     A'     A'     A'     A'     A'     A'     A'     A'
      A'     A'     A'     A'     A'
 atomic masses:
 14.0031 12.0000 12.0000 12.0000 14.0031 12.0000 12.0000 12.0000 15.9949 12.0000
 12.0000  1.0078  1.0078  1.0078  1.0078
 looking for force constants in 
 ./Common_Moeties_18_C1S0.fchk                                                  
  
 Cartesian Force Constants                  R   N=        1035                  
  
 n3=          45        1035
 g94-fc frequencies=
    -0.0    0.0    0.0    1.4    3.2    4.5   63.0  114.5  121.8  129.9
   236.8  330.8  387.5  407.5  407.5  466.7  515.8  609.4  628.3  678.8
   695.9  741.8  858.6  884.3  966.8  995.9 1000.9 1024.2 1068.2 1094.1
  1235.0 1236.5 1255.2 1324.8 1362.7 1485.1 1494.6 1527.2 1654.7 2208.6
  2263.6 3208.4 3208.5 3238.8 3242.6
 at 99999: n3=          45
 symm operator            1 :  F  nop=           0
 symm operator            2 :  F  nop=           0
 symm operator            3 :  F  nop=           0
 symm operator            4 :  F  nop=           0
 symm operator            5 :  T  nop=           1
 symm operator            6 :  F  nop=           1
 symm operator            7 :  F  nop=           1
 The point group of the molecule is  CS
 enforcing symm op           5  jsymt=           1           1          -1
 cartesian coord symmetries:
 A' :   30 A" :   15
 Symmetry rotation matrix:
   1.00000   0.00000   0.00000
   0.00000   1.00000   0.00000
   0.00000   0.00000   1.00000

 Projecting out zero-frequency components
 generating redundant internal coords
         300        3600          15
 search for int coords
   1 str   2   1   1.161
   2 str   3   2   1.406
   3 str   4   3   1.406
   4 str   5   4   1.161
   5 str   6   3   1.445
   6 str   7   6   1.416
   7 str   8   7   1.366
   8 str   9   8   1.334
   9 str  10   9   1.334
  10 str  11   6   1.416
  11 str  11  10   1.366
  12 str  12   7   1.083
  13 str  13   8   1.082
  14 str  14  10   1.082
  15 str  15  11   1.083
 nber stretches=          15
  16 lin ben   1   2   3
  18 ben   2   3   4
  19 prop tor   2   3   4   5
  20 ben   2   3   6
  21 prop tor   2   3   6   7
  22 prop tor   2   3   6  11
  23 lin ben   3   4   5
  25 ben   3   6   7
  26 prop tor   3   6   7   8
  27 prop tor   3   6   7  12
  28 ben   3   6  11
  29 prop tor   3   6  11  10
  30 prop tor   3   6  11  15
  31 ben   4   3   6
  32 prop tor   4   3   6   7
  33 prop tor   4   3   6  11
  34 prop tor   6   3   4   5
  35 ben   6   7   8
  36 prop tor   6   7   8   9
  37 prop tor   6   7   8  13
  38 ben   6   7  12
  39 ben   6  11  10
  40 ben   6  11  15
  41 ben   7   6  11
  42 prop tor   7   6  11  10
  43 prop tor   7   6  11  15
  44 ben   7   8   9
  45 prop tor   7   8   9  10
  46 ben   7   8  13
  47 ben   8   7  12
  48 ben   8   9  10
  49 prop tor   8   9  10  11
  50 prop tor   8   9  10  14
  51 ben   9   8  13
  52 ben   9  10  11
  53 prop tor   9  10  11   6
  54 prop tor   9  10  11  15
  55 ben   9  10  14
  56 ben  10  11  15
  57 prop tor  11   6   7   8
  58 prop tor  11   6   7  12
  59 ben  11  10  14
  60 prop tor  12   7   8   9
  61 prop tor  12   7   8  13
  62 prop tor  13   8   9  10
  63 prop tor  14  10  11   6
  64 prop tor  14  10  11  15
  65 lin bend prop tor   2   1   3   4
  66 lin bend prop tor   2   1   3   6
  67 lin bend prop tor   2   3   5   4
  68 lin bend prop tor   6   3   5   4
 nber bend=              23
 nber lin bend=           2
 nber prop tor=          30
 nber impr tor=           0
 nber tot redund int=          68
 Eigenvalues of G in red int coords
    Gval -0.00000000 -0.00000000 -0.00000000 -0.00000000 -0.00000000 -0.00000000 -0.00000000 -0.00000000
    Gval -0.00000000 -0.00000000 -0.00000000 -0.00000000 -0.00000000 -0.00000000  0.00000000  0.00000000
    Gval  0.00000000  0.00000000  0.00000000  0.00000000  0.00000000  0.00000000  0.00000000  0.00000000
    Gval  0.00000000  0.00000000  0.00000000  0.00000000  0.00000000  0.00000490  0.00000717  0.00001396
    Gval  0.00001840  0.00003613  0.00003899  0.00005140  0.00005312  0.00006239  0.00006430  0.00007486
    Gval  0.00010267  0.00011788  0.00012054  0.00012973  0.00015473  0.00024360  0.00025887  0.00034257
    Gval  0.00035417  0.00037789  0.00042113  0.00048412  0.00059594  0.00059947  0.00062939  0.00064327
    Gval  0.00085727  0.00107292  0.00110128  0.00116187  0.00117695  0.00141064  0.00192048  0.00196754
    Gval  0.00348967  0.00360504  0.33030821  0.70080927
  4.899604368930929E-006  4.899604368930929E-006
  7.171043650291036E-006  4.899604368930929E-006
  1.396162477373680E-005  4.899604368930929E-006
  1.839749162456054E-005  4.899604368930929E-006
  3.613314581989838E-005  4.899604368930929E-006
  3.898517044394109E-005  4.899604368930929E-006
  5.139821614497381E-005  4.899604368930929E-006
  5.312370283752967E-005  4.899604368930929E-006
  6.239369072032342E-005  4.899604368930929E-006
  6.430218168014030E-005  4.899604368930929E-006
  7.486309236711698E-005  4.899604368930929E-006
  1.026744620842307E-004  4.899604368930929E-006
  1.178754826110615E-004  4.899604368930929E-006
  1.205382353109289E-004  4.899604368930929E-006
  1.297278715826129E-004  4.899604368930929E-006
  1.547300678858771E-004  4.899604368930929E-006
  2.435950663707772E-004  4.899604368930929E-006
  2.588746433540941E-004  4.899604368930929E-006
  3.425664405494660E-004  4.899604368930929E-006
  3.541735952045453E-004  4.899604368930929E-006
  3.778899496973138E-004  4.899604368930929E-006
  4.211261908339362E-004  4.899604368930929E-006
  4.841185697090426E-004  4.899604368930929E-006
  5.959363270943381E-004  4.899604368930929E-006
  5.994672595279923E-004  4.899604368930929E-006
  6.293858035800342E-004  4.899604368930929E-006
  6.432727463435818E-004  4.899604368930929E-006
  8.572660803673976E-004  4.899604368930929E-006
  1.072920041823790E-003  4.899604368930929E-006
  1.101276045247026E-003  4.899604368930929E-006
  1.161870638274619E-003  4.899604368930929E-006
  1.176950578927169E-003  4.899604368930929E-006
  1.410639463326834E-003  4.899604368930929E-006
  1.920484883490581E-003  4.899604368930929E-006
  1.967541832144166E-003  4.899604368930929E-006
  3.489669366478780E-003  4.899604368930929E-006
  3.605035089673789E-003  4.899604368930929E-006
  0.330308213352735       4.899604368930929E-006
  0.700809269013399       4.899604368930929E-006
 cut=1d-8, nber non-redundant internal coords=          39
 Check on Eigenvals of non-red overlap matrix:
  0.00000490  0.00000717  0.00001396  0.00001840  0.00003613  0.00003899  0.00005140  0.00005312
  0.00006239  0.00006430  0.00007486  0.00010267  0.00011788  0.00012054  0.00012973  0.00015473
  0.00024360  0.00025887  0.00034257  0.00035417  0.00037789  0.00042113  0.00048412  0.00059594
  0.00059947  0.00062939  0.00064327  0.00085727  0.00107292  0.00110128  0.00116187  0.00117695
  0.00141064  0.00192048  0.00196754  0.00348967  0.00360504  0.33030821  0.70080927
 Checking for correct frequencies
 recalc frequencies=
    -0.0   -0.0   -0.0    0.0    0.0    0.0   63.0  114.5  121.8  129.9
   236.8  330.8  387.5  407.5  407.5  466.7  515.8  609.4  628.3  678.8
   695.9  741.8  858.6  884.3  966.8  995.9 1000.9 1024.2 1068.2 1094.1
  1235.0 1236.5 1255.2 1324.8 1362.7 1485.1 1494.6 1527.2 1654.7 2208.6
  2263.6 3208.4 3208.5 3238.8 3242.6
 recalc symmetries=
     A"     A"     A"     A'     A'     A'     A"     A"     A'     A' 
     A"     A'     A"     A'     A"     A"     A'     A'     A"     A' 
     A'     A"     A"     A"     A'     A"     A"     A'     A'     A' 
     A'     A'     A'     A'     A'     A'     A'     A'     A'     A' 
     A'     A'     A'     A'     A' 
 recalc freqs check OK
 Zero-point lengths:
 10.0000 10.0000 10.0000 10.0000 10.0000 10.0000 31.2294 23.1684 22.4649 21.7518
 16.1091 13.6312 12.5935 12.2812 12.2802 11.4760 10.9163 10.0422  9.8901  9.5152
  9.3979  9.1021  8.4604  8.3366  7.9730  7.8556  7.8359  7.7464  7.5852  7.4949
  7.0543  7.0502  6.9974  6.8112  6.7156  6.4331  6.4126  6.3437  6.0945  5.2752
  5.2107  4.3767  4.3767  4.3561  4.3536
 highest evec of mol 2
 -0.0002 -0.0001  0.0000
  0.0003  0.0002  0.0000
  0.0000 -0.0002  0.0000
 -0.0003  0.0002  0.0000
  0.0002 -0.0001  0.0000
  0.0000 -0.0024  0.0000
 -0.0306 -0.0304  0.0000
 -0.1625  0.1348  0.0000
 -0.0000 -0.0018  0.0000
  0.1625  0.1347  0.0000
  0.0306 -0.0304  0.0000
  0.1052  0.0578  0.0000
  0.5204 -0.4104  0.0000
 -0.5205 -0.4100  0.0000
 -0.1052  0.0578  0.0000
 Enter nber and list of atoms to keep of mol #2
 keep list:          15           1           2           3           4
           5           6           7           8           9          10
          11          12          13          14          15
 reordering atoms
           1   2.48178308960408     
           2   1.92238929762922     
           3   1.20704156060857     
           4   1.92222884716750     
           5   2.48172807116520     
           6 -0.238449465550460     
           7 -0.971461420456807     
           8  -2.33635706493957     
           9  -2.99319653218671     
          10  -2.33633296692465     
          11 -0.971432544650052     
          12 -0.480609453264478     
          13  -3.00260756574247     
          14  -3.00255749884961     
          15 -0.480549487539844     
           1           1
           2           2
           3           3
           4           4
           5           5
           6           6
           7           7
           8           8
           9           9
          10          10
          11          11
          12          12
          13          13
          14          14
          15          15
 initial cartes coords mol 1
   7   0.00000  -2.22988  -2.48316
   6   0.00000  -1.21918  -1.91948
   6   0.00000   0.00010  -1.18892
   6   0.00000   1.21946  -1.91917
   7   0.00000   2.22993  -2.48268
   6   0.00000   0.00003   0.19617
   6   0.00000  -1.21361   0.97686
   6   0.00000  -1.16019   2.32083
   8   0.00000  -0.00015   3.02382
   6   0.00000   1.15998   2.32097
   6   0.00000   1.21356   0.97701
   1   0.00000  -2.17981   0.48987
   1   0.00000  -2.01970   2.97548
   1   0.00000   2.01941   2.97572
   1   0.00000   2.17980   0.49015
 initial cartes coords mol 2
   7   0.00000   2.22762   2.48178
   6   0.00000   1.21021   1.92239
   6   0.00000   0.00001   1.20704
   6   0.00000  -1.21023   1.92223
   7   0.00000  -2.22768   2.48173
   6   0.00000   0.00003  -0.23845
   6   0.00000   1.21187  -0.97146
   6   0.00000   1.16063  -2.33636
   8   0.00000  -0.00001  -2.99320
   6   0.00000  -1.16062  -2.33633
   6   0.00000  -1.21182  -0.97143
   1   0.00000   2.17704  -0.48061
   1   0.00000   2.01264  -3.00261
   1   0.00000  -2.01265  -3.00256
   1   0.00000  -2.17697  -0.48055
 loop 1 0
 mod cartes coords mol 2
   7   0.00000   2.22762   2.48178
   6   0.00000   1.21021   1.92239
   6   0.00000   0.00001   1.20704
   6   0.00000  -1.21023   1.92223
   7   0.00000  -2.22768   2.48173
   6   0.00000   0.00003  -0.23845
   6   0.00000   1.21187  -0.97146
   6   0.00000   1.16063  -2.33636
   8   0.00000  -0.00001  -2.99320
   6   0.00000  -1.16062  -2.33633
   6   0.00000  -1.21182  -0.97143
   1   0.00000   2.17704  -0.48061
   1   0.00000   2.01264  -3.00261
   1   0.00000  -2.01265  -3.00256
   1   0.00000  -2.17697  -0.48055
 read in order, maxerr=  7.21 for atom  13
 loop 1 1
 mod cartes coords mol 2
   7   0.00000   2.22762   2.48178
   6   0.00000   1.21021   1.92239
   6   0.00000   0.00001   1.20704
   6   0.00000  -1.21023   1.92223
   7   0.00000  -2.22768   2.48173
   6   0.00000   0.00003  -0.23845
   6   0.00000   1.21187  -0.97146
   6   0.00000   1.16063  -2.33636
   8   0.00000  -0.00001  -2.99320
   6   0.00000  -1.16062  -2.33633
   6   0.00000  -1.21182  -0.97143
   1   0.00000   2.17704  -0.48061
   1   0.00000   2.01264  -3.00261
   1   0.00000  -2.01265  -3.00256
   1   0.00000  -2.17697  -0.48055
 read in order, maxerr=  7.21 for atom  13
 loop 1 2
 mod cartes coords mol 2
   7   0.00000  -2.22762   2.48178
   6   0.00000  -1.21021   1.92239
   6   0.00000  -0.00001   1.20704
   6   0.00000   1.21023   1.92223
   7   0.00000   2.22768   2.48173
   6   0.00000  -0.00003  -0.23845
   6   0.00000  -1.21187  -0.97146
   6   0.00000  -1.16063  -2.33636
   8   0.00000   0.00001  -2.99320
   6   0.00000   1.16062  -2.33633
   6   0.00000   1.21182  -0.97143
   1   0.00000  -2.17704  -0.48061
   1   0.00000  -2.01264  -3.00261
   1   0.00000   2.01265  -3.00256
   1   0.00000   2.17697  -0.48055
 read in order, maxerr=  6.02 for atom   9
 loop 1 3
 mod cartes coords mol 2
   7   0.00000  -2.22762   2.48178
   6   0.00000  -1.21021   1.92239
   6   0.00000  -0.00001   1.20704
   6   0.00000   1.21023   1.92223
   7   0.00000   2.22768   2.48173
   6   0.00000  -0.00003  -0.23845
   6   0.00000  -1.21187  -0.97146
   6   0.00000  -1.16063  -2.33636
   8   0.00000   0.00001  -2.99320
   6   0.00000   1.16062  -2.33633
   6   0.00000   1.21182  -0.97143
   1   0.00000  -2.17704  -0.48061
   1   0.00000  -2.01264  -3.00261
   1   0.00000   2.01265  -3.00256
   1   0.00000   2.17697  -0.48055
 read in order, maxerr=  6.02 for atom   9
 loop 1 4
 mod cartes coords mol 2
   7   0.00000   2.22762  -2.48178
   6   0.00000   1.21021  -1.92239
   6   0.00000   0.00001  -1.20704
   6   0.00000  -1.21023  -1.92223
   7   0.00000  -2.22768  -2.48173
   6   0.00000   0.00003   0.23845
   6   0.00000   1.21187   0.97146
   6   0.00000   1.16063   2.33636
   8   0.00000  -0.00001   2.99320
   6   0.00000  -1.16062   2.33633
   6   0.00000  -1.21182   0.97143
   1   0.00000   2.17704   0.48061
   1   0.00000   2.01264   3.00261
   1   0.00000  -2.01265   3.00256
   1   0.00000  -2.17697   0.48055
 read in order, maxerr=  4.46 for atom   5
 loop 1 5
 mod cartes coords mol 2
   7   0.00000   2.22762  -2.48178
   6   0.00000   1.21021  -1.92239
   6   0.00000   0.00001  -1.20704
   6   0.00000  -1.21023  -1.92223
   7   0.00000  -2.22768  -2.48173
   6   0.00000   0.00003   0.23845
   6   0.00000   1.21187   0.97146
   6   0.00000   1.16063   2.33636
   8   0.00000  -0.00001   2.99320
   6   0.00000  -1.16062   2.33633
   6   0.00000  -1.21182   0.97143
   1   0.00000   2.17704   0.48061
   1   0.00000   2.01264   3.00261
   1   0.00000  -2.01265   3.00256
   1   0.00000  -2.17697   0.48055
 read in order, maxerr=  4.46 for atom   5
 loop 1 6
 mod cartes coords mol 2
   7   0.00000  -2.22762  -2.48178
   6   0.00000  -1.21021  -1.92239
   6   0.00000  -0.00001  -1.20704
   6   0.00000   1.21023  -1.92223
   7   0.00000   2.22768  -2.48173
   6   0.00000  -0.00003   0.23845
   6   0.00000  -1.21187   0.97146
   6   0.00000  -1.16063   2.33636
   8   0.00000   0.00001   2.99320
   6   0.00000   1.16062   2.33633
   6   0.00000   1.21182   0.97143
   1   0.00000  -2.17704   0.48061
   1   0.00000  -2.01264   3.00261
   1   0.00000   2.01265   3.00256
   1   0.00000   2.17697   0.48055
 read in order, maxerr=  0.04 for atom   6
 final axis swaps:           1          -1          -1
 final xyz swap pattern=           1
 reorder list:
   1   2   3   4   5   6   7   8   9  10  11  12  13  14  15
 axis signs=           1          -1          -1
  7     0.000000 -2.227619 -2.481783     0.000000 -2.229880 -2.483156
  6     0.000000 -1.210210 -1.922389     0.000000 -1.219179 -1.919476
  6     0.000000 -0.000007 -1.207042     0.000000  0.000097 -1.188918
  6     0.000000  1.210230 -1.922229     0.000000  1.219462 -1.919171
  7     0.000000  2.227678 -2.481728     0.000000  2.229934 -2.482680
  6     0.000000 -0.000031  0.238449     0.000000  0.000027  0.196167
  6     0.000000 -1.211871  0.971461     0.000000 -1.213611  0.976863
  6     0.000000 -1.160632  2.336357     0.000000 -1.160195  2.320831
  8     0.000000  0.000006  2.993197     0.000000 -0.000148  3.023815
  6     0.000000  1.160623  2.336333     0.000000  1.159976  2.320971
  6     0.000000  1.211822  0.971433     0.000000  1.213558  0.977007
  1     0.000000 -2.177037  0.480609     0.000000 -2.179814  0.489870
  1     0.000000 -2.012641  3.002608     0.000000 -2.019703  2.975480
  1     0.000000  2.012652  3.002557     0.000000  2.019410  2.975720
  1     0.000000  2.176972  0.480549     0.000000  2.179797  0.490147
 generating redundant internal coords
         300        3600          15
 Adding extra bonds for z output only
           7           6           6           6           7           6
           6           6           8           6           6           1
           1           1           1
 search for int coords
   1 str   2   1   1.161
   2 str   3   2   1.406
   3 str   4   3   1.406
   4 str   5   4   1.161
   5 str   6   3   1.445
   6 str   7   6   1.416
   7 str   8   7   1.366
   8 str   9   8   1.334
   9 str  10   9   1.334
  10 str  11   6   1.416
  11 str  11  10   1.366
  12 str  12   7   1.083
  13 str  13   8   1.082
  14 str  14  10   1.082
  15 str  15  11   1.083
 nber stretches=          15
  16 lin ben   1   2   3
  18 ben   2   3   4
  19 prop tor   2   3   4   5
  20 ben   2   3   6
  21 prop tor   2   3   6   7
  22 prop tor   2   3   6  11
  23 lin ben   3   4   5
  25 ben   3   6   7
  26 prop tor   3   6   7   8
  27 prop tor   3   6   7  12
  28 ben   3   6  11
  29 prop tor   3   6  11  10
  30 prop tor   3   6  11  15
  31 ben   4   3   6
  32 prop tor   4   3   6   7
  33 prop tor   4   3   6  11
  34 prop tor   6   3   4   5
  35 ben   6   7   8
  36 prop tor   6   7   8   9
  37 prop tor   6   7   8  13
  38 ben   6   7  12
  39 ben   6  11  10
  40 ben   6  11  15
  41 ben   7   6  11
  42 prop tor   7   6  11  10
  43 prop tor   7   6  11  15
  44 ben   7   8   9
  45 prop tor   7   8   9  10
  46 ben   7   8  13
  47 ben   8   7  12
  48 ben   8   9  10
  49 prop tor   8   9  10  11
  50 prop tor   8   9  10  14
  51 ben   9   8  13
  52 ben   9  10  11
  53 prop tor   9  10  11   6
  54 prop tor   9  10  11  15
  55 ben   9  10  14
  56 ben  10  11  15
  57 prop tor  11   6   7   8
  58 prop tor  11   6   7  12
  59 ben  11  10  14
  60 prop tor  12   7   8   9
  61 prop tor  12   7   8  13
  62 prop tor  13   8   9  10
  63 prop tor  14  10  11   6
  64 prop tor  14  10  11  15
  65 lin bend prop tor   2   1   3   4
  66 lin bend prop tor   2   1   3   6
  67 lin bend prop tor   2   3   5   4
  68 lin bend prop tor   6   3   5   4
 nber bend=              23
 nber lin bend=           2
 nber prop tor=          30
 nber impr tor=           0
 nber tot redund int=          68
 generating redundant internal coords
         300        3600          15
 search for int coords
   1 str   2   1   1.157
   2 str   3   2   1.421
   3 str   4   3   1.421
   4 str   5   4   1.157
   5 str   6   3   1.385
   6 str   7   6   1.443
   7 str   8   7   1.345
   8 str   9   8   1.356
   9 str  10   9   1.356
  10 str  11   6   1.443
  11 str  11  10   1.345
  12 str  12   7   1.082
  13 str  13   8   1.080
  14 str  14  10   1.080
  15 str  15  11   1.082
 nber stretches=          15
  16 lin ben   1   2   3
  18 ben   2   3   4
  19 prop tor   2   3   4   5
  20 ben   2   3   6
  21 prop tor   2   3   6   7
  22 prop tor   2   3   6  11
  23 lin ben   3   4   5
  25 ben   3   6   7
  26 prop tor   3   6   7   8
  27 prop tor   3   6   7  12
  28 ben   3   6  11
  29 prop tor   3   6  11  10
  30 prop tor   3   6  11  15
  31 ben   4   3   6
  32 prop tor   4   3   6   7
  33 prop tor   4   3   6  11
  34 prop tor   6   3   4   5
  35 ben   6   7   8
  36 prop tor   6   7   8   9
  37 prop tor   6   7   8  13
  38 ben   6   7  12
  39 ben   6  11  10
  40 ben   6  11  15
  41 ben   7   6  11
  42 prop tor   7   6  11  10
  43 prop tor   7   6  11  15
  44 ben   7   8   9
  45 prop tor   7   8   9  10
  46 ben   7   8  13
  47 ben   8   7  12
  48 ben   8   9  10
  49 prop tor   8   9  10  11
  50 prop tor   8   9  10  14
  51 ben   9   8  13
  52 ben   9  10  11
  53 prop tor   9  10  11   6
  54 prop tor   9  10  11  15
  55 ben   9  10  14
  56 ben  10  11  15
  57 prop tor  11   6   7   8
  58 prop tor  11   6   7  12
  59 ben  11  10  14
  60 prop tor  12   7   8   9
  61 prop tor  12   7   8  13
  62 prop tor  13   8   9  10
  63 prop tor  14  10  11   6
  64 prop tor  14  10  11  15
  65 lin bend prop tor   2   1   3   4
  66 lin bend prop tor   2   1   3   6
  67 lin bend prop tor   2   3   5   4
  68 lin bend prop tor   6   3   5   4
 nber bend=              23
 nber lin bend=           2
 nber prop tor=          30
 nber impr tor=           0
 nber tot redund int=          68
 Eigenvalues of G in red int coords
    Gval -0.00000000 -0.00000000 -0.00000000 -0.00000000 -0.00000000 -0.00000000 -0.00000000 -0.00000000
    Gval -0.00000000 -0.00000000 -0.00000000  0.00000000  0.00000000  0.00000000  0.00000000  0.00000000
    Gval  0.00000000  0.00000000  0.00000000  0.00000000  0.00000000  0.00000000  0.00000000  0.00000000
    Gval  0.00000000  0.00000000  0.00000000  0.00000000  0.00000000  0.00000486  0.00000712  0.00001390
    Gval  0.00001859  0.00003619  0.00003901  0.00005183  0.00005272  0.00006236  0.00006525  0.00007499
    Gval  0.00010388  0.00011764  0.00012073  0.00012944  0.00015506  0.00023730  0.00026255  0.00033795
    Gval  0.00034538  0.00037201  0.00043754  0.00052046  0.00059588  0.00059914  0.00063117  0.00064278
    Gval  0.00085938  0.00107286  0.00109785  0.00116391  0.00117707  0.00140134  0.00188737  0.00196398
    Gval  0.00345512  0.00355205  0.33020415  0.70056965
  4.856148232335142E-006  4.856148232335142E-006
  7.124939513320350E-006  4.856148232335142E-006
  1.390494373638683E-005  4.856148232335142E-006
  1.859039524562606E-005  4.856148232335142E-006
  3.619327059344571E-005  4.856148232335142E-006
  3.900757217646457E-005  4.856148232335142E-006
  5.183320826417579E-005  4.856148232335142E-006
  5.271577848759520E-005  4.856148232335142E-006
  6.236404023729707E-005  4.856148232335142E-006
  6.525190192902326E-005  4.856148232335142E-006
  7.499232171868022E-005  4.856148232335142E-006
  1.038755545707541E-004  4.856148232335142E-006
  1.176384607536264E-004  4.856148232335142E-006
  1.207311535854802E-004  4.856148232335142E-006
  1.294379665156670E-004  4.856148232335142E-006
  1.550640892790254E-004  4.856148232335142E-006
  2.373037287109809E-004  4.856148232335142E-006
  2.625498958498829E-004  4.856148232335142E-006
  3.379486564770607E-004  4.856148232335142E-006
  3.453793778651233E-004  4.856148232335142E-006
  3.720137770905480E-004  4.856148232335142E-006
  4.375427086163341E-004  4.856148232335142E-006
  5.204603055384013E-004  4.856148232335142E-006
  5.958803083639046E-004  4.856148232335142E-006
  5.991398086515137E-004  4.856148232335142E-006
  6.311656519223289E-004  4.856148232335142E-006
  6.427782531232501E-004  4.856148232335142E-006
  8.593766297083360E-004  4.856148232335142E-006
  1.072860997575087E-003  4.856148232335142E-006
  1.097851445109043E-003  4.856148232335142E-006
  1.163907521224719E-003  4.856148232335142E-006
  1.177072061358196E-003  4.856148232335142E-006
  1.401343587260536E-003  4.856148232335142E-006
  1.887371798762444E-003  4.856148232335142E-006
  1.963976433480166E-003  4.856148232335142E-006
  3.455119077851846E-003  4.856148232335142E-006
  3.552050646528251E-003  4.856148232335142E-006
  0.330204152314972       4.856148232335142E-006
  0.700569646469067       4.856148232335142E-006
 cut=1d-8, nber non-redundant internal coords=          39
 Check on Eigenvals of non-red overlap matrix:
  0.00000486  0.00000712  0.00001390  0.00001859  0.00003619  0.00003901  0.00005183  0.00005272
  0.00006236  0.00006525  0.00007499  0.00010388  0.00011764  0.00012073  0.00012944  0.00015506
  0.00023730  0.00026255  0.00033795  0.00034538  0.00037201  0.00043754  0.00052046  0.00059588
  0.00059914  0.00063117  0.00064278  0.00085938  0.00107286  0.00109785  0.00116391  0.00117707
  0.00140134  0.00188737  0.00196398  0.00345512  0.00355205  0.33020415  0.70056965
 generating redundant internal coords
         300        3600          15
 search for int coords
   1 str   2   1   1.161
   2 str   3   2   1.406
   3 str   4   3   1.406
   4 str   5   4   1.161
   5 str   6   3   1.445
   6 str   7   6   1.416
   7 str   8   7   1.366
   8 str   9   8   1.334
   9 str  10   9   1.334
  10 str  11   6   1.416
  11 str  11  10   1.366
  12 str  12   7   1.083
  13 str  13   8   1.082
  14 str  14  10   1.082
  15 str  15  11   1.083
 nber stretches=          15
  16 lin ben   1   2   3
  18 ben   2   3   4
  19 prop tor   2   3   4   5
  20 ben   2   3   6
  21 prop tor   2   3   6   7
  22 prop tor   2   3   6  11
  23 lin ben   3   4   5
  25 ben   3   6   7
  26 prop tor   3   6   7   8
  27 prop tor   3   6   7  12
  28 ben   3   6  11
  29 prop tor   3   6  11  10
  30 prop tor   3   6  11  15
  31 ben   4   3   6
  32 prop tor   4   3   6   7
  33 prop tor   4   3   6  11
  34 prop tor   6   3   4   5
  35 ben   6   7   8
  36 prop tor   6   7   8   9
  37 prop tor   6   7   8  13
  38 ben   6   7  12
  39 ben   6  11  10
  40 ben   6  11  15
  41 ben   7   6  11
  42 prop tor   7   6  11  10
  43 prop tor   7   6  11  15
  44 ben   7   8   9
  45 prop tor   7   8   9  10
  46 ben   7   8  13
  47 ben   8   7  12
  48 ben   8   9  10
  49 prop tor   8   9  10  11
  50 prop tor   8   9  10  14
  51 ben   9   8  13
  52 ben   9  10  11
  53 prop tor   9  10  11   6
  54 prop tor   9  10  11  15
  55 ben   9  10  14
  56 ben  10  11  15
  57 prop tor  11   6   7   8
  58 prop tor  11   6   7  12
  59 ben  11  10  14
  60 prop tor  12   7   8   9
  61 prop tor  12   7   8  13
  62 prop tor  13   8   9  10
  63 prop tor  14  10  11   6
  64 prop tor  14  10  11  15
  65 lin bend prop tor   2   1   3   4
  66 lin bend prop tor   2   1   3   6
  67 lin bend prop tor   2   3   5   4
  68 lin bend prop tor   6   3   5   4
 nber bend=              23
 nber lin bend=           2
 nber prop tor=          30
 nber impr tor=           0
 nber tot redund int=          68
 Eigenvalues of G in red int coords
    Gval -0.00000000 -0.00000000 -0.00000000 -0.00000000 -0.00000000 -0.00000000 -0.00000000 -0.00000000
    Gval -0.00000000 -0.00000000  0.00000000  0.00000000  0.00000000  0.00000000  0.00000000  0.00000000
    Gval  0.00000000  0.00000000  0.00000000  0.00000000  0.00000000  0.00000000  0.00000000  0.00000000
    Gval  0.00000000  0.00000000  0.00000000  0.00000000  0.00000000  0.00000490  0.00000717  0.00001396
    Gval  0.00001840  0.00003613  0.00003899  0.00005140  0.00005312  0.00006239  0.00006430  0.00007486
    Gval  0.00010267  0.00011788  0.00012054  0.00012973  0.00015473  0.00024360  0.00025887  0.00034257
    Gval  0.00035417  0.00037789  0.00042113  0.00048412  0.00059594  0.00059947  0.00062939  0.00064327
    Gval  0.00085727  0.00107292  0.00110128  0.00116187  0.00117695  0.00141064  0.00192048  0.00196754
    Gval  0.00348967  0.00360504  0.33030821  0.70080927
  4.899604368930951E-006  4.899604368930951E-006
  7.171043650291081E-006  4.899604368930951E-006
  1.396162477373679E-005  4.899604368930951E-006
  1.839749162456058E-005  4.899604368930951E-006
  3.613314581989829E-005  4.899604368930951E-006
  3.898517044394107E-005  4.899604368930951E-006
  5.139821614497380E-005  4.899604368930951E-006
  5.312370283752970E-005  4.899604368930951E-006
  6.239369072032346E-005  4.899604368930951E-006
  6.430218168014141E-005  4.899604368930951E-006
  7.486309236711708E-005  4.899604368930951E-006
  1.026744620842307E-004  4.899604368930951E-006
  1.178754826110613E-004  4.899604368930951E-006
  1.205382353109288E-004  4.899604368930951E-006
  1.297278715826131E-004  4.899604368930951E-006
  1.547300678858770E-004  4.899604368930951E-006
  2.435950663707772E-004  4.899604368930951E-006
  2.588746433540945E-004  4.899604368930951E-006
  3.425664405494664E-004  4.899604368930951E-006
  3.541735952045466E-004  4.899604368930951E-006
  3.778899496973142E-004  4.899604368930951E-006
  4.211261908339368E-004  4.899604368930951E-006
  4.841185697090422E-004  4.899604368930951E-006
  5.959363270943379E-004  4.899604368930951E-006
  5.994672595279914E-004  4.899604368930951E-006
  6.293858035800339E-004  4.899604368930951E-006
  6.432727463435795E-004  4.899604368930951E-006
  8.572660803674012E-004  4.899604368930951E-006
  1.072920041823790E-003  4.899604368930951E-006
  1.101276045247026E-003  4.899604368930951E-006
  1.161870638274621E-003  4.899604368930951E-006
  1.176950578927171E-003  4.899604368930951E-006
  1.410639463326833E-003  4.899604368930951E-006
  1.920484883490582E-003  4.899604368930951E-006
  1.967541832144165E-003  4.899604368930951E-006
  3.489669366478781E-003  4.899604368930951E-006
  3.605035089673789E-003  4.899604368930951E-006
  0.330308213353708       4.899604368930951E-006
  0.700809269012758       4.899604368930951E-006
 cut=1d-8, nber non-redundant internal coords=          39
 Check on Eigenvals of non-red overlap matrix:
  0.00000490  0.00000717  0.00001396  0.00001840  0.00003613  0.00003899  0.00005140  0.00005312
  0.00006239  0.00006430  0.00007486  0.00010267  0.00011788  0.00012054  0.00012973  0.00015473
  0.00024360  0.00025887  0.00034257  0.00035417  0.00037789  0.00042113  0.00048412  0.00059594
  0.00059947  0.00062939  0.00064327  0.00085727  0.00107292  0.00110128  0.00116187  0.00117695
  0.00141064  0.00192048  0.00196754  0.00348967  0.00360504  0.33030821  0.70080927
 d1=
   0.1   0.5   1.0   0.0  -0.0   1.3   1.6  -0.0  -3.7   0.0   0.0   0.1  -0.0   1.5  -0.0   0.0  -7.9  -0.1  -0.4  -0.0
  -2.8   0.0  -0.0  -0.0  -0.5   0.0   0.2   0.0  -0.0  -1.3  -0.0  -0.6   0.0  -0.0   0.0  -0.0   0.0  -0.0   0.0
 d2=
   0.1  -0.7   1.1  -0.0  -0.0  -1.4  -2.1   0.0   3.5   0.0   0.0   0.1   0.1   1.6   0.0   0.0  -7.7   0.1  -0.2  -0.0
   2.8  -0.0  -0.0  -0.0   0.5   0.0  -0.2  -0.0   0.0  -1.3   0.0   0.6   0.0   0.0  -0.0   0.0  -0.0   0.0  -0.0
 curvilinear- renormalizn of Dush matrix done
  mol 1 sym            1  -> mol 2 sym            1
  mol 1 sym            2  -> mol 2 sym            2

 Dushinsky matrix, ncs 2 in terms of ncs 1

   mode   freq    coeff     %      %tot     of    at

   1 A"     -0.  0.0000     0.0     0.0   9 A'    122.
   2 A"     -0. -0.0000     0.0     0.0  10 A'    133.
   3 A"     -0.  0.0000     0.0     0.0  10 A'    133.
   4 A'      0.  0.0000     0.0     0.0   9 A'    122.
   5 A'      0. -0.0000     0.0     0.0   9 A'    122.
   6 A'      0.  0.0000     0.0     0.0   9 A'    122.
   7 A"     63. -0.9989    99.8   100.0   7 A"     94.
   8 A"    114. -0.9933    98.7    98.9   8 A"    108.
   9 A'    122. -0.9977    99.5   100.2   9 A'    122.
  10 A'    130.  0.9977    99.5   100.2  10 A'    133.
  11 A"    237. -0.9808    96.2    98.9  11 A"    225.
  12 A'    331.  0.9986    99.7    96.3  12 A'    345.
  13 A"    388.  0.9698    94.1    95.4  14 A"    423.
  14 A'    407. -0.9974    99.5   101.4  13 A'    414.
  15 A"    408.  0.9776    95.6    98.1  16 A"    488.
  16 A"    467.  0.9502    90.3   104.6  15 A"    435.
  17 A'    516. -0.9993    99.9    99.1  17 A'    532.
  18 A'    609. -0.9972    99.4   101.3  18 A'    616.
  19 A"    628. -0.9712    94.3   100.4  19 A"    627.
  20 A'    679.  0.9992    99.8    97.8  20 A'    675.
  21 A'    696. -0.9942    98.8   103.6  21 A'    687.
  22 A"    742. -0.9865    97.3    99.8  22 A"    732.
  23 A"    859.  0.9910    98.2   100.8  24 A"    845.
  24 A"    884.  0.9958    99.2   101.7  23 A"    841.
  25 A'    967. -0.9867    97.4   100.1  25 A'    939.
  26 A"    996.  0.9986    99.7   101.1  26 A"    974.
  27 A"   1001.  0.9962    99.3   100.9  27 A"    980.
  28 A'   1024.  0.9468    89.6   100.1  28 A'   1003.
  29 A'   1068. -0.9429    88.9    99.3  29 A'   1047.
  30 A'   1094.  0.9982    99.6   101.0  30 A'   1064.
  31 A'   1235. -0.6083    37.0    99.9  31 A'   1214.
                -0.7289    53.1          33 A'   1290.
  32 A'   1236. -0.9897    97.9    99.0  32 A'   1238.
  33 A'   1255. -0.7899    62.4   100.1  31 A'   1214.
                 0.5631    31.7          33 A'   1290.
  34 A'   1325. -0.7396    54.7   100.1  35 A'   1429.
                -0.6609    43.7          37 A'   1557.
  35 A'   1363. -0.9601    92.2   100.1  34 A'   1348.
  36 A'   1485.  0.5529    30.6   100.7  36 A'   1449.
                -0.7732    59.8          38 A'   1598.
  37 A'   1495. -0.6682    44.7   100.1  35 A'   1429.
                 0.7409    54.9          37 A'   1557.
  38 A'   1527. -0.8076    65.2   100.6  36 A'   1449.
                -0.4976    24.8          38 A'   1598.
  39 A'   1655. -0.9959    99.2   100.2  39 A'   1699.
  40 A'   2209. -0.9975    99.5   100.0  40 A'   2312.
  41 A'   2264.  0.9974    99.5   100.0  41 A'   2327.
  42 A'   3208.  0.7296    53.2   100.0  42 A'   3207.
                -0.6798    46.2          43 A'   3207.
  43 A'   3208.  0.6791    46.1   100.0  42 A'   3207.
                 0.7286    53.1          43 A'   3207.
  44 A'   3239. -0.9960    99.2   100.0  44 A'   3236.
  45 A'   3243. -0.9973    99.5   100.0  45 A'   3240.
 nber times 1st assigned=           1           0
 nber times 1st assigned=           2           0
 nber times 1st assigned=           3           0
 nber times 1st assigned=           4           0
 nber times 1st assigned=           5           0
 nber times 1st assigned=           6           0
 nber times 1st assigned=           7           0
 nber times 1st assigned=           8           0
 nber times 1st assigned=           9           4
 nber times 1st assigned=          10           2
 nber times 1st assigned=          11           0
 nber times 1st assigned=          12           0
 nber times 1st assigned=          13           0
 nber times 1st assigned=          14           0
 nber times 1st assigned=          15           0
 nber times 1st assigned=          16           0
 nber times 1st assigned=          17           0
 nber times 1st assigned=          18           0
 nber times 1st assigned=          19           0
 nber times 1st assigned=          20           0
 nber times 1st assigned=          21           0
 nber times 1st assigned=          22           0
 nber times 1st assigned=          23           0
 nber times 1st assigned=          24           0
 nber times 1st assigned=          25           0
 nber times 1st assigned=          26           0
 nber times 1st assigned=          27           0
 nber times 1st assigned=          28           0
 nber times 1st assigned=          29           0
 nber times 1st assigned=          30           0
 nber times 1st assigned=          31           0
 nber times 1st assigned=          32           0
 nber times 1st assigned=          33           0
 nber times 1st assigned=          34           0
 nber times 1st assigned=          35           0
 nber times 1st assigned=          36           0
 nber times 1st assigned=          37           0
 nber times 1st assigned=          38           0
 nber times 1st assigned=          39           0
 nber times 1st assigned=          40           0
 nber times 1st assigned=          41           0
 nber times 1st assigned=          42           0
 nber times 1st assigned=          43           0
 nber times 1st assigned=          44           0
 nber times 1st assigned=          45           0
 Dushinsky matrix written to .out file
 modes represented=   39.0189094098070     

 Dushinsky matrix, ncs 1 in terms of ncs 2

   mode   freq    coeff     %      %tot     of    at

   7 A"     94. -0.9989    99.8    99.9   7 A"     63.
   8 A"    108. -0.9933    98.7   100.1   8 A"    114.
   9 A'    122. -0.9977    99.5   100.4   9 A'    122.
  10 A'    133.  0.9977    99.5   100.4  10 A'    130.
  11 A"    225. -0.9808    96.2   101.2  11 A"    237.
  12 A'    345.  0.9986    99.7    96.5  12 A'    331.
  13 A'    414. -0.9974    99.5   101.8  14 A'    407.
  14 A"    423.  0.9698    94.1    94.2  13 A"    388.
  15 A"    435.  0.9502    90.3   101.3  16 A"    467.
  16 A"    488.  0.9776    95.6    99.3  15 A"    408.
  17 A'    532. -0.9993    99.9    99.6  17 A'    516.
  18 A'    616. -0.9972    99.4   101.1  18 A'    609.
  19 A"    627. -0.9712    94.3   100.7  19 A"    628.
  20 A'    675.  0.9992    99.8    97.9  20 A'    679.
  21 A'    687. -0.9942    98.8   103.5  21 A'    696.
  22 A"    732. -0.9865    97.3    99.5  22 A"    742.
  23 A"    841.  0.9958    99.2   101.6  24 A"    884.
  24 A"    845.  0.9910    98.2   100.6  23 A"    859.
  25 A'    939. -0.9867    97.4    99.8  25 A'    967.
  26 A"    974.  0.9986    99.7   101.1  26 A"    996.
  27 A"    980.  0.9962    99.3   101.2  27 A"   1001.
  28 A'   1003.  0.9468    89.6    99.6  28 A'   1024.
  29 A'   1047. -0.9429    88.9    99.8  29 A'   1068.
  30 A'   1064.  0.9982    99.6   101.1  30 A'   1094.
  31 A'   1214. -0.6083    37.0   100.4  31 A'   1235.
                -0.7899    62.4          33 A'   1255.
  32 A'   1238. -0.9897    97.9    99.3  32 A'   1236.
  33 A'   1290. -0.7289    53.1    99.8  31 A'   1235.
                 0.5631    31.7          33 A'   1255.
  34 A'   1348. -0.9601    92.2   100.0  35 A'   1363.
  35 A'   1429. -0.7396    54.7    99.9  34 A'   1325.
                -0.6682    44.7          37 A'   1495.
  36 A'   1449.  0.5529    30.6    99.7  36 A'   1485.
                -0.8076    65.2          38 A'   1527.
  37 A'   1557. -0.6609    43.7   100.2  34 A'   1325.
                 0.7409    54.9          37 A'   1495.
  38 A'   1598. -0.7732    59.8   100.5  36 A'   1485.
                -0.4976    24.8          38 A'   1527.
  39 A'   1699. -0.9959    99.2   100.0  39 A'   1655.
  40 A'   2312. -0.9975    99.5   100.0  40 A'   2209.
  41 A'   2327.  0.9974    99.5   100.0  41 A'   2264.
  42 A'   3207.  0.7296    53.2   100.0  42 A'   3208.
                 0.6791    46.1          43 A'   3208.
  43 A'   3207. -0.6798    46.2   100.0  42 A'   3208.
                 0.7286    53.1          43 A'   3208.
  44 A'   3236. -0.9960    99.2   100.0  44 A'   3239.
  45 A'   3240. -0.9973    99.5   100.0  45 A'   3243.
 nber times 1st assigned=           1           0
 nber times 1st assigned=           2           0
 nber times 1st assigned=           3           0
 nber times 1st assigned=           4           0
 nber times 1st assigned=           5           0
 nber times 1st assigned=           6           0
 nber times 1st assigned=           7           0
 nber times 1st assigned=           8           0
 nber times 1st assigned=           9           0
 nber times 1st assigned=          10           0
 nber times 1st assigned=          11           0
 nber times 1st assigned=          12           0
 nber times 1st assigned=          13           0
 nber times 1st assigned=          14           0
 nber times 1st assigned=          15           0
 nber times 1st assigned=          16           0
 nber times 1st assigned=          17           0
 nber times 1st assigned=          18           0
 nber times 1st assigned=          19           0
 nber times 1st assigned=          20           0
 nber times 1st assigned=          21           0
 nber times 1st assigned=          22           0
 nber times 1st assigned=          23           0
 nber times 1st assigned=          24           0
 nber times 1st assigned=          25           0
 nber times 1st assigned=          26           0
 nber times 1st assigned=          27           0
 nber times 1st assigned=          28           0
 nber times 1st assigned=          29           0
 nber times 1st assigned=          30           0
 nber times 1st assigned=          31           0
 nber times 1st assigned=          32           0
 nber times 1st assigned=          33           0
 nber times 1st assigned=          34           0
 nber times 1st assigned=          35           0
 nber times 1st assigned=          36           0
 nber times 1st assigned=          37           0
 nber times 1st assigned=          38           0
 nber times 1st assigned=          39           0
 nber times 1st assigned=          40           0
 nber times 1st assigned=          41           0
 nber times 1st assigned=          42           0
 nber times 1st assigned=          43           0
 nber times 1st assigned=          44           0
 nber times 1st assigned=          45           0
 modes represented=   39.0189094098070     
 p1=
    0.   -0.   -0.    0.   -0.   -0.   -0.   -0.   -0.    0.   -0.   -0.    2.    0.    0.   -0.    0.   -2.   -0.    0.
   -4.    0.    0.    0.   -4.   -0.    0.    0.   -1.   -0.   -0.   -2.    0.    0.   -2.    0.   -4.   -0.   -5.    0.
   -1.    0.   -0.    0.   -0.
 p2=
    0.   -0.   -0.   -0.    0.   -0.   -0.   -0.   -0.   -0.    0.    0.   -0.    1.   -0.   -0.    0.   -2.   -0.    0.
   -4.    0.    0.    0.   -4.    0.   -0.    0.   -1.    0.   -0.   -3.   -0.   -4.    0.   -0.    2.    0.   -5.   -0.
    1.   -0.   -0.    0.    0.

 Displacement: in terms of nc of 1 THEN of nc of 2

   1 A'  freq=    -0. Q=  0.000 lam=    -0.0 A"  freq=    -0. Q=  0.000 lam=    -0.0
   2 A'  freq=    -0. Q= -0.000 lam=    -0.0 A"  freq=    -0. Q= -0.000 lam=    -0.0
   3 A"  freq=     0. Q= -0.000 lam=     0.0 A"  freq=    -0. Q= -0.000 lam=    -0.0
   4 A"  freq=     0. Q=  0.000 lam=     0.0 A'  freq=     0. Q=  0.000 lam=     0.0
   5 A"  freq=     0. Q= -0.000 lam=     0.0 A'  freq=     0. Q= -0.000 lam=     0.0
   6 A'  freq=     0. Q= -0.000 lam=     0.0 A'  freq=     0. Q= -0.000 lam=     0.0
   7 A"  freq=    94. Q= -0.000 lam=     0.0 A"  freq=    63. Q= -0.000 lam=     0.0
   8 A"  freq=   108. Q= -0.000 lam=     0.0 A"  freq=   114. Q= -0.000 lam=     0.0
   9 A'  freq=   122. Q= -0.003 lam=     0.0 A'  freq=   122. Q= -0.002 lam=     0.0
  10 A'  freq=   133. Q=  0.012 lam=     0.0 A'  freq=   130. Q=  0.018 lam=     0.0
  11 A"  freq=   225. Q= -0.000 lam=     0.0 A"  freq=   237. Q= -0.000 lam=     0.0
  12 A'  freq=   345. Q= -0.003 lam=     0.0 A'  freq=   331. Q= -0.003 lam=     0.0
  13 A'  freq=   414. Q=  0.183 lam=     6.9 A"  freq=   388. Q=  0.000 lam=     0.0
  14 A"  freq=   423. Q=  0.000 lam=     0.0 A'  freq=   407. Q=  0.114 lam=     2.7
  15 A"  freq=   435. Q=  0.000 lam=     0.0 A"  freq=   408. Q=  0.000 lam=     0.0
  16 A"  freq=   488. Q= -0.000 lam=     0.0 A"  freq=   467. Q= -0.000 lam=     0.0
  17 A'  freq=   532. Q=  0.001 lam=     0.0 A'  freq=   516. Q=  0.000 lam=     0.0
  18 A'  freq=   616. Q= -0.213 lam=    14.0 A'  freq=   609. Q= -0.241 lam=    17.7
  19 A"  freq=   627. Q= -0.000 lam=     0.0 A"  freq=   628. Q= -0.000 lam=     0.0
  20 A'  freq=   675. Q=  0.000 lam=     0.0 A'  freq=   679. Q=  0.000 lam=     0.0
  21 A'  freq=   687. Q= -0.439 lam=    66.2 A'  freq=   696. Q= -0.476 lam=    78.7
  22 A"  freq=   732. Q=  0.000 lam=     0.0 A"  freq=   742. Q=  0.000 lam=     0.0
  23 A"  freq=   841. Q=  0.000 lam=     0.0 A"  freq=   859. Q=  0.000 lam=     0.0
  24 A"  freq=   845. Q=  0.000 lam=     0.0 A"  freq=   884. Q=  0.000 lam=     0.0
  25 A'  freq=   939. Q= -0.486 lam=   110.9 A'  freq=   967. Q= -0.480 lam=   111.2
  26 A"  freq=   974. Q= -0.000 lam=     0.0 A"  freq=   996. Q= -0.000 lam=     0.0
  27 A"  freq=   980. Q=  0.000 lam=     0.0 A"  freq=  1001. Q=  0.000 lam=     0.0
  28 A'  freq=  1003. Q=  0.009 lam=     0.0 A'  freq=  1024. Q=  0.027 lam=     0.4
  29 A'  freq=  1047. Q= -0.151 lam=    12.0 A'  freq=  1068. Q= -0.100 lam=     5.4
  30 A'  freq=  1064. Q= -0.001 lam=     0.0 A'  freq=  1094. Q= -0.001 lam=     0.0
  31 A'  freq=  1214. Q= -0.003 lam=     0.0 A'  freq=  1235. Q= -0.003 lam=     0.0
  32 A'  freq=  1238. Q= -0.317 lam=    62.1 A'  freq=  1236. Q= -0.451 lam=   125.5
  33 A'  freq=  1290. Q=  0.001 lam=     0.0 A'  freq=  1255. Q=  0.002 lam=     0.0
  34 A'  freq=  1348. Q=  0.001 lam=     0.0 A'  freq=  1325. Q=  0.580 lam=   223.0
  35 A'  freq=  1429. Q= -0.297 lam=    63.0 A'  freq=  1363. Q= -0.001 lam=     0.0
  36 A'  freq=  1449. Q=  0.000 lam=     0.0 A'  freq=  1485. Q=  0.000 lam=     0.0
  37 A'  freq=  1557. Q= -0.689 lam=   369.2 A'  freq=  1495. Q= -0.262 lam=    51.2
  38 A'  freq=  1598. Q= -0.000 lam=     0.0 A'  freq=  1527. Q= -0.000 lam=     0.0
  39 A'  freq=  1699. Q= -0.783 lam=   521.1 A'  freq=  1655. Q= -0.739 lam=   452.0
  40 A'  freq=  2312. Q=  0.003 lam=     0.0 A'  freq=  2209. Q=  0.006 lam=     0.0
  41 A'  freq=  2327. Q= -0.123 lam=    17.7 A'  freq=  2264. Q= -0.139 lam=    21.7
  42 A'  freq=  3207. Q=  0.006 lam=     0.1 A'  freq=  3208. Q=  0.011 lam=     0.2
  43 A'  freq=  3207. Q= -0.006 lam=     0.1 A'  freq=  3208. Q= -0.000 lam=     0.0
  44 A'  freq=  3236. Q=  0.000 lam=     0.0 A'  freq=  3239. Q=  0.000 lam=     0.0
  45 A'  freq=  3240. Q= -0.000 lam=     0.0 A'  freq=  3243. Q= -0.003 lam=     0.0

 total reorg energy (cm**-1, kcal/mol)=     1243.     1090.      3.55      3.12
 Nber of molecules processed=           2
