 Enter ifcurve (0=recti, 1=orth curvi, 2=apprx curvi, -1 = skip
 And atom ordering flag, 0= never changes, 1= use the first order thenceforth,
  2= deduce it (does read on fail), 3= always read it
 Reading file: 
 ./phenothiazine-pyrene_1_C0S1.log                                              
                                          
  Entering Gaussian System, Link 0=g16                                          
  
 Gaussian format, type: g94, g98, g03= F F F
  #P Geom=AllCheck Guess=TCheck SCRF=Check GenChk RB3LYP TD(FC,Read)/6-3    
 energy type= TD      
 Original G94 input coords:
  6 -0.650028 -0.290354 -1.598021
  6  0.677772  0.037818 -1.374366
  6  1.360932 -0.427845 -0.218856
  6  2.766080 -0.146289  0.023998
  6  3.581460 -1.157503  0.596560
  6  4.945709 -1.042177  0.680715
  6  5.622853  0.131198  0.218772
  6  7.024634  0.252981  0.258702
  6  7.660390  1.409943 -0.165830
  6  6.911778  2.521138 -0.625061
  6  7.528599  3.730368 -1.038854
  6  6.767827  4.816703 -1.467610
  6  5.384041  4.744847 -1.490957
  6  4.713078  3.554254 -1.086940
  6  3.306991  3.449253 -1.064898
  6  2.678040  2.269911 -0.686578
  6  3.407848  1.110355 -0.340728
  6  4.834525  1.220284 -0.274343
  6  5.482905  2.424965 -0.663315
  6  0.620967 -1.242231  0.680825
  6 -0.710625 -1.557602  0.465664
  7 -1.397263 -2.373693  1.445682
  6 -1.787558 -3.698901  0.885704
  6 -0.595675 -4.351258  0.152843
  6 -0.939397 -5.736730 -0.408108
  6 -1.443770 -6.678806  0.687724
  6 -2.622957 -6.047379  1.434648
  6 -2.268846 -4.658999  1.987457
 16 -3.740811 -4.011946  2.867237
  6 -3.033131 -2.389868  3.343829
  6 -4.120268 -1.601303  4.088687
  6 -3.614641 -0.228461  4.543494
  6 -3.049850  0.554003  3.355226
  6 -1.971911 -0.246134  2.613588
  6 -2.485174 -1.619395  2.129882
  6 -1.358557 -1.076621 -0.686074
  1 -1.139762  0.058852 -2.500994
  1  1.218018  0.606057 -2.120530
  1  3.115369 -2.087302  0.898122
  1  5.536709 -1.862721  1.073110
  1  7.610898 -0.579838  0.632541
  1  8.742136  1.479196 -0.137654
  1  8.610572  3.801143 -1.010302
  1  7.265169  5.728810 -1.778227
  1  4.793279  5.595273 -1.813338
  1  2.708585  4.310656 -1.341481
  1  1.597974  2.248669 -0.637928
  1  1.078424 -1.603813  1.592991
  1 -2.617805 -3.583882  0.165907
  1  0.240147 -4.431824  0.858541
  1 -0.258054 -3.705144 -0.658181
  1 -0.058351 -6.158058 -0.902193
  1 -1.710400 -5.635384 -1.182450
  1 -0.630836 -6.885949  1.394789
  1 -1.743675 -7.642166  0.263371
  1 -2.945545 -6.688954  2.259942
  1 -3.478657 -5.954157  0.755096
  1 -1.465904 -4.755454  2.726380
  1 -2.197343 -2.588199  4.023600
  1 -4.464808 -2.188792  4.944824
  1 -4.985071 -1.472018  3.426787
  1 -2.831561 -0.358964  5.300689
  1 -4.425987  0.327612  5.023704
  1 -2.630034  1.508355  3.688151
  1 -3.864555  0.798338  2.661675
  1 -1.110899 -0.411851  3.272260
  1 -1.607835  0.335122  1.765702
  1 -3.331049 -1.451494  1.439045
  1 -2.398829 -1.320405 -0.868141
 nber atoms=          69
  Total Energy, E(TD-HF/TD-DFT) =  -1768.72581968                               
  
          32          49 "  -1768.72581968"
After scan for Atom:   Atom  AN      X      Y      Z        X      Y      Z        X      Y      Z   
After scan for Atom:   Atom  AN      X      Y      Z        X      Y      Z        X      Y      Z   
After scan for Atom:   Atom  AN      X      Y      Z        X      Y      Z        X      Y      Z   
After scan for Atom:   Atom  AN      X      Y      Z        X      Y      Z        X      Y      Z   
After scan for Atom:   Atom  AN      X      Y      Z        X      Y      Z        X      Y      Z   
After scan for Atom:   Atom  AN      X      Y      Z        X      Y      Z        X      Y      Z   
After scan for Atom:   Atom  AN      X      Y      Z        X      Y      Z        X      Y      Z   
After scan for Atom:   Atom  AN      X      Y      Z        X      Y      Z        X      Y      Z   
After scan for Atom:   Atom  AN      X      Y      Z        X      Y      Z        X      Y      Z   
After scan for Atom:   Atom  AN      X      Y      Z        X      Y      Z        X      Y      Z   
After scan for Atom:   Atom  AN      X      Y      Z        X      Y      Z        X      Y      Z   
After scan for Atom:   Atom  AN      X      Y      Z        X      Y      Z        X      Y      Z   
After scan for Atom:   Atom  AN      X      Y      Z        X      Y      Z        X      Y      Z   
After scan for Atom:   Atom  AN      X      Y      Z        X      Y      Z        X      Y      Z   
After scan for Atom:   Atom  AN      X      Y      Z        X      Y      Z        X      Y      Z   
After scan for Atom:   Atom  AN      X      Y      Z        X      Y      Z        X      Y      Z   
After scan for Atom:   Atom  AN      X      Y      Z        X      Y      Z        X      Y      Z   
After scan for Atom:   Atom  AN      X      Y      Z        X      Y      Z        X      Y      Z   
After scan for Atom:   Atom  AN      X      Y      Z        X      Y      Z        X      Y      Z   
After scan for Atom:   Atom  AN      X      Y      Z        X      Y      Z        X      Y      Z   
After scan for Atom:   Atom  AN      X      Y      Z        X      Y      Z        X      Y      Z   
After scan for Atom:   Atom  AN      X      Y      Z        X      Y      Z        X      Y      Z   
After scan for Atom:   Atom  AN      X      Y      Z        X      Y      Z        X      Y      Z   
After scan for Atom:   Atom  AN      X      Y      Z        X      Y      Z        X      Y      Z   
After scan for Atom:   Atom  AN      X      Y      Z        X      Y      Z        X      Y      Z   
After scan for Atom:   Atom  AN      X      Y      Z        X      Y      Z        X      Y      Z   
After scan for Atom:   Atom  AN      X      Y      Z        X      Y      Z        X      Y      Z   
After scan for Atom:   Atom  AN      X      Y      Z        X      Y      Z        X      Y      Z   
After scan for Atom:   Atom  AN      X      Y      Z        X      Y      Z        X      Y      Z   
After scan for Atom:   Atom  AN      X      Y      Z        X      Y      Z        X      Y      Z   
After scan for Atom:   Atom  AN      X      Y      Z        X      Y      Z        X      Y      Z   
After scan for Atom:   Atom  AN      X      Y      Z        X      Y      Z        X      Y      Z   
After scan for Atom:   Atom  AN      X      Y      Z        X      Y      Z        X      Y      Z   
After scan for Atom:   Atom  AN      X      Y      Z        X      Y      Z        X      Y      Z   
After scan for Atom:   Atom  AN      X      Y      Z        X      Y      Z        X      Y      Z   
After scan for Atom:   Atom  AN      X      Y      Z        X      Y      Z        X      Y      Z   
After scan for Atom:   Atom  AN      X      Y      Z        X      Y      Z        X      Y      Z   
After scan for Atom:   Atom  AN      X      Y      Z        X      Y      Z        X      Y      Z   
After scan for Atom:   Atom  AN      X      Y      Z        X      Y      Z        X      Y      Z   
After scan for Atom:   Atom  AN      X      Y      Z        X      Y      Z        X      Y      Z   
After scan for Atom:   Atom  AN      X      Y      Z        X      Y      Z        X      Y      Z   
After scan for Atom:   Atom  AN      X      Y      Z        X      Y      Z        X      Y      Z   
After scan for Atom:   Atom  AN      X      Y      Z        X      Y      Z        X      Y      Z   
After scan for Atom:   Atom  AN      X      Y      Z        X      Y      Z        X      Y      Z   
After scan for Atom:   Atom  AN      X      Y      Z        X      Y      Z        X      Y      Z   
After scan for Atom:   Atom  AN      X      Y      Z        X      Y      Z        X      Y      Z   
After scan for Atom:   Atom  AN      X      Y      Z        X      Y      Z        X      Y      Z   
After scan for Atom:   Atom  AN      X      Y      Z        X      Y      Z        X      Y      Z   
After scan for Atom:   Atom  AN      X      Y      Z        X      Y      Z        X      Y      Z   
After scan for Atom:   Atom  AN      X      Y      Z        X      Y      Z        X      Y      Z   
After scan for Atom:   Atom  AN      X      Y      Z        X      Y      Z        X      Y      Z   
After scan for Atom:   Atom  AN      X      Y      Z        X      Y      Z        X      Y      Z   
After scan for Atom:   Atom  AN      X      Y      Z        X      Y      Z        X      Y      Z   
After scan for Atom:   Atom  AN      X      Y      Z        X      Y      Z        X      Y      Z   
After scan for Atom:   Atom  AN      X      Y      Z        X      Y      Z        X      Y      Z   
After scan for Atom:   Atom  AN      X      Y      Z        X      Y      Z        X      Y      Z   
After scan for Atom:   Atom  AN      X      Y      Z        X      Y      Z        X      Y      Z   
After scan for Atom:   Atom  AN      X      Y      Z        X      Y      Z        X      Y      Z   
After scan for Atom:   Atom  AN      X      Y      Z        X      Y      Z        X      Y      Z   
After scan for Atom:   Atom  AN      X      Y      Z        X      Y      Z        X      Y      Z   
After scan for Atom:   Atom  AN      X      Y      Z        X      Y      Z        X      Y      Z   
After scan for Atom:   Atom  AN      X      Y      Z        X      Y      Z        X      Y      Z   
After scan for Atom:   Atom  AN      X      Y      Z        X      Y      Z        X      Y      Z   
After scan for Atom:   Atom  AN      X      Y      Z        X      Y      Z        X      Y      Z   
After scan for Atom:   Atom  AN      X      Y      Z        X      Y      Z        X      Y      Z   
After scan for Atom:   Atom  AN      X      Y      Z        X      Y      Z        X      Y      Z   
After scan for Atom:   Atom  AN      X      Y      Z        X      Y      Z        X      Y      Z   
 g94    frequencies=
     0.0    0.0    0.0    0.0    0.0    0.0   15.0   20.3   26.2   37.3
    59.7   73.7   79.0   90.8  104.7  121.1  145.9  155.2  169.3  184.3
   204.4  214.3  221.5  253.1  257.7  271.2  277.8  305.4  317.5  319.5
   337.8  339.7  350.4  355.9  375.8  393.9  413.7  420.3  435.7  444.1
   459.3  463.2  469.3  479.0  490.9  498.0  500.3  514.5  521.3  528.0
   543.4  554.9  574.6  606.8  610.7  634.9  656.2  674.0  689.3  697.7
   709.7  715.4  737.1  755.5  758.2  770.7  774.2  797.5  799.7  804.2
   816.8  818.2  819.0  829.0  835.9  849.8  859.5  867.6  869.4  876.6
   896.3  897.7  909.8  915.6  921.2  927.5  946.8  950.1  953.9  959.2
   968.9  979.5  982.3  986.2  987.0  997.1 1028.0 1041.0 1051.9 1064.5
  1065.6 1083.0 1088.0 1088.4 1096.0 1097.2 1106.4 1119.1 1128.7 1136.2
  1137.0 1148.8 1150.1 1152.8 1164.8 1187.8 1195.8 1207.6 1218.1 1223.8
  1224.4 1230.9 1241.1 1243.3 1249.1 1257.6 1264.5 1272.2 1278.6 1292.5
  1297.8 1304.4 1314.5 1316.4 1323.9 1325.7 1333.0 1340.9 1351.2 1357.3
  1359.2 1363.7 1368.5 1373.6 1374.9 1377.2 1379.8 1381.7 1387.1 1390.5
  1395.9 1405.2 1433.0 1440.1 1442.0 1459.4 1485.9 1488.3 1488.8 1489.3
  1489.7 1494.8 1495.1 1501.1 1505.3 1505.7 1520.2 1534.5 1554.7 1560.8
  1577.9 1584.5 1613.7 1636.2 2915.1 2919.8 3004.0 3004.3 3008.9 3009.3
  3015.0 3015.1 3018.6 3020.5 3029.0 3029.4 3053.0 3053.2 3056.3 3056.3
  3065.4 3065.6 3094.4 3095.3 3159.3 3159.7 3161.1 3165.4 3166.6 3170.7
  3178.5 3181.3 3184.8 3187.3 3191.9 3196.0 3204.0
 g94    symmetries=
                                                 A      A      A      A
       A      A      A      A      A      A      A      A      A      A
       A      A      A      A      A      A      A      A      A      A
       A      A      A      A      A      A      A      A      A      A
       A      A      A      A      A      A      A      A      A      A
       A      A      A      A      A      A      A      A      A      A
       A      A      A      A      A      A      A      A      A      A
       A      A      A      A      A      A      A      A      A      A
       A      A      A      A      A      A      A      A      A      A
       A      A      A      A      A      A      A      A      A      A
       A      A      A      A      A      A      A      A      A      A
       A      A      A      A      A      A      A      A      A      A
       A      A      A      A      A      A      A      A      A      A
       A      A      A      A      A      A      A      A      A      A
       A      A      A      A      A      A      A      A      A      A
       A      A      A      A      A      A      A      A      A      A
       A      A      A      A      A      A      A      A      A      A
       A      A      A      A      A      A      A      A      A      A
       A      A      A      A      A      A      A      A      A      A
       A      A      A      A      A      A      A      A      A      A
       A      A      A      A      A      A      A
 atomic masses:
 12.0000 12.0000 12.0000 12.0000 12.0000 12.0000 12.0000 12.0000 12.0000 12.0000
 12.0000 12.0000 12.0000 12.0000 12.0000 12.0000 12.0000 12.0000 12.0000 12.0000
 12.0000 14.0031 12.0000 12.0000 12.0000 12.0000 12.0000 12.0000 31.9721 12.0000
 12.0000 12.0000 12.0000 12.0000 12.0000 12.0000  1.0078  1.0078  1.0078  1.0078
  1.0078  1.0078  1.0078  1.0078  1.0078  1.0078  1.0078  1.0078  1.0078  1.0078
  1.0078  1.0078  1.0078  1.0078  1.0078  1.0078  1.0078  1.0078  1.0078  1.0078
  1.0078  1.0078  1.0078  1.0078  1.0078  1.0078  1.0078  1.0078  1.0078
 looking for force constants in 
 ./phenothiazine-pyrene_1_C0S1.fchk                                             
  
 Cartesian Force Constants                  R   N=       21528                  
  
 n3=         207       21528
 g94-fc frequencies=
    -0.0    0.0    0.0    0.6    1.2    4.6   15.1   20.3   26.2   37.3
    59.7   73.7   79.0   90.8  104.7  121.1  145.9  155.2  169.3  184.3
   204.4  214.3  221.5  253.1  257.7  271.2  277.8  305.4  317.5  319.5
   337.8  339.7  350.4  355.9  375.8  393.9  413.8  420.3  435.7  444.1
   459.4  463.2  469.3  479.0  490.9  498.0  500.3  514.5  521.3  528.0
   543.4  554.9  574.7  606.8  610.7  634.9  656.2  674.0  689.3  697.7
   709.7  715.4  737.1  755.5  758.2  770.7  774.2  797.5  799.7  804.2
   816.8  818.2  819.0  829.0  835.9  849.8  859.5  867.6  869.4  876.6
   896.3  897.7  909.8  915.7  921.2  927.5  946.8  950.1  953.9  959.2
   968.9  979.5  982.3  986.2  987.0  997.1 1028.0 1041.0 1052.0 1064.6
  1065.6 1083.0 1088.0 1088.5 1096.0 1097.2 1106.4 1119.1 1128.7 1136.2
  1137.0 1148.9 1150.1 1152.8 1164.9 1187.8 1195.8 1207.6 1218.1 1223.8
  1224.4 1230.9 1241.1 1243.3 1249.1 1257.6 1264.5 1272.2 1278.6 1292.5
  1297.8 1304.4 1314.6 1316.5 1323.9 1325.7 1333.0 1340.9 1351.2 1357.3
  1359.2 1363.7 1368.6 1373.6 1374.9 1377.3 1379.8 1381.8 1387.1 1390.5
  1395.9 1405.2 1433.0 1440.1 1442.0 1459.4 1485.9 1488.3 1488.8 1489.4
  1489.8 1494.8 1495.2 1501.2 1505.3 1505.8 1520.2 1534.5 1554.7 1560.9
  1577.9 1584.6 1613.7 1636.3 2915.1 2919.8 3004.1 3004.3 3009.0 3009.3
  3015.0 3015.1 3018.6 3020.6 3029.1 3029.4 3053.0 3053.3 3056.3 3056.4
  3065.4 3065.6 3094.5 3095.4 3159.3 3159.7 3161.2 3165.4 3166.6 3170.7
  3178.6 3181.4 3184.9 3187.4 3192.0 3196.1 3204.1
 at 99999: n3=         207
 symm operator            1 :  F  nop=           0
 symm operator            2 :  F  nop=           0
 symm operator            3 :  F  nop=           0
 symm operator            4 :  F  nop=           0
 symm operator            5 :  F  nop=           0
 symm operator            6 :  F  nop=           0
 symm operator            7 :  F  nop=           0
 The point group of the molecule is  C1
 Symmetry rotation matrix:
   1.00000   0.00000   0.00000
   0.00000   1.00000   0.00000
   0.00000   0.00000   1.00000

 Projecting out zero-frequency components
 generating redundant internal coords
         300        3600          69
 search for int coords
   1 str   2   1   1.386
   2 str   3   2   1.421
   3 str   4   3   1.454
   4 str   5   4   1.420
   5 str   6   5   1.372
   6 str   7   6   1.431
   7 str   8   7   1.408
   8 str   9   8   1.387
   9 str  10   9   1.416
  10 str  11  10   1.419
  11 str  12  11   1.394
  12 str  13  12   1.386
  13 str  14  13   1.425
  14 str  15  14   1.410
  15 str  16  15   1.389
  16 str  17   4   1.457
  17 str  17  16   1.413
  18 str  18   7   1.432
  19 str  18  17   1.432
  20 str  19  10   1.433
  21 str  19  14   1.431
  22 str  19  18   1.422
  23 str  20   3   1.421
  24 str  21  20   1.385
  25 str  22  21   1.448
  26 str  23  22   1.491
  27 str  24  23   1.544
  28 str  25  24   1.534
  29 str  26  25   1.531
  30 str  27  26   1.532
  31 str  28  23   1.539
  32 str  28  27   1.536
  33 str  29  28   1.833
  34 str  30  29   1.833
  35 str  31  30   1.536
  36 str  32  31   1.532
  37 str  33  32   1.531
  38 str  34  33   1.534
  39 str  35  22   1.490
  40 str  35  30   1.539
  41 str  35  34   1.544
  42 str  36   1   1.397
  43 str  36  21   1.406
  44 str  37   1   1.085
  45 str  38   2   1.082
  46 str  39   5   1.083
  47 str  40   6   1.085
  48 str  41   8   1.085
  49 str  42   9   1.084
  50 str  43  11   1.085
  51 str  44  12   1.084
  52 str  45  13   1.085
  53 str  46  15   1.085
  54 str  47  16   1.081
  55 str  48  20   1.083
  56 str  49  23   1.105
  57 str  50  24   1.097
  58 str  51  24   1.091
  59 str  52  25   1.094
  60 str  53  25   1.097
  61 str  54  26   1.097
  62 str  55  26   1.095
  63 str  56  27   1.094
  64 str  57  27   1.097
  65 str  58  28   1.095
  66 str  59  30   1.095
  67 str  60  31   1.094
  68 str  61  31   1.097
  69 str  62  32   1.097
  70 str  63  32   1.095
  71 str  64  33   1.094
  72 str  65  33   1.097
  73 str  66  34   1.097
  74 str  67  34   1.091
  75 str  68  35   1.105
  76 str  69  36   1.084
 nber stretches=          76
  77 ben   1   2   3
  78 prop tor   1   2   3   4
  79 prop tor   1   2   3  20
  80 ben   1   2  38
  81 ben   1  36  21
  82 ben   1  36  69
  83 ben   2   1  36
  84 prop tor   2   1  36  21
  85 prop tor   2   1  36  69
  86 ben   2   1  37
  87 ben   2   3   4
  88 prop tor   2   3   4   5
  89 prop tor   2   3   4  17
  90 ben   2   3  20
  91 prop tor   2   3  20  21
  92 prop tor   2   3  20  48
  93 ben   3   2  38
  94 ben   3   4   5
  95 prop tor   3   4   5   6
  96 prop tor   3   4   5  39
  97 ben   3   4  17
  98 prop tor   3   4  17  16
  99 prop tor   3   4  17  18
 100 ben   3  20  21
 101 prop tor   3  20  21  22
 102 prop tor   3  20  21  36
 103 ben   3  20  48
 104 ben   4   3  20
 105 prop tor   4   3  20  21
 106 prop tor   4   3  20  48
 107 ben   4   5   6
 108 prop tor   4   5   6   7
 109 prop tor   4   5   6  40
 110 ben   4   5  39
 111 ben   4  17  16
 112 ben   4  17  18
 113 prop tor   4  17  18   7
 114 prop tor   4  17  18  19
 115 ben   5   4  17
 116 prop tor   5   4  17  16
 117 prop tor   5   4  17  18
 118 ben   5   6   7
 119 prop tor   5   6   7   8
 120 prop tor   5   6   7  18
 121 ben   5   6  40
 122 ben   6   5  39
 123 ben   6   7   8
 124 prop tor   6   7   8   9
 125 prop tor   6   7   8  41
 126 ben   6   7  18
 127 prop tor   6   7  18  17
 128 prop tor   6   7  18  19
 129 ben   7   6  40
 130 ben   7   8   9
 131 prop tor   7   8   9  10
 132 prop tor   7   8   9  42
 133 ben   7   8  41
 134 ben   7  18  17
 135 ben   7  18  19
 136 prop tor   7  18  19  10
 137 prop tor   7  18  19  14
 138 ben   8   7  18
 139 prop tor   8   7  18  17
 140 prop tor   8   7  18  19
 141 ben   8   9  10
 142 prop tor   8   9  10  11
 143 prop tor   8   9  10  19
 144 ben   8   9  42
 145 ben   9   8  41
 146 ben   9  10  11
 147 prop tor   9  10  11  12
 148 prop tor   9  10  11  43
 149 ben   9  10  19
 150 prop tor   9  10  19  14
 151 prop tor   9  10  19  18
 152 ben  10   9  42
 153 ben  10  11  12
 154 prop tor  10  11  12  13
 155 prop tor  10  11  12  44
 156 ben  10  11  43
 157 ben  10  19  14
 158 ben  10  19  18
 159 ben  11  10  19
 160 prop tor  11  10  19  14
 161 prop tor  11  10  19  18
 162 ben  11  12  13
 163 prop tor  11  12  13  14
 164 prop tor  11  12  13  45
 165 ben  11  12  44
 166 ben  12  11  43
 167 ben  12  13  14
 168 prop tor  12  13  14  15
 169 prop tor  12  13  14  19
 170 ben  12  13  45
 171 ben  13  12  44
 172 ben  13  14  15
 173 prop tor  13  14  15  16
 174 prop tor  13  14  15  46
 175 ben  13  14  19
 176 prop tor  13  14  19  10
 177 prop tor  13  14  19  18
 178 ben  14  13  45
 179 ben  14  15  16
 180 prop tor  14  15  16  17
 181 prop tor  14  15  16  47
 182 ben  14  15  46
 183 ben  14  19  18
 184 ben  15  14  19
 185 prop tor  15  14  19  10
 186 prop tor  15  14  19  18
 187 ben  15  16  17
 188 prop tor  15  16  17   4
 189 prop tor  15  16  17  18
 190 ben  15  16  47
 191 ben  16  15  46
 192 ben  16  17  18
 193 prop tor  16  17  18   7
 194 prop tor  16  17  18  19
 195 prop tor  17   4   5   6
 196 prop tor  17   4   5  39
 197 ben  17  16  47
 198 ben  17  18  19
 199 prop tor  17  18  19  10
 200 prop tor  17  18  19  14
 201 prop tor  18   7   8   9
 202 prop tor  18   7   8  41
 203 prop tor  19  10  11  12
 204 prop tor  19  10  11  43
 205 prop tor  19  14  15  16
 206 prop tor  19  14  15  46
 207 prop tor  20   3   4   5
 208 prop tor  20   3   4  17
 209 ben  20  21  22
 210 prop tor  20  21  22  23
 211 prop tor  20  21  22  35
 212 ben  20  21  36
 213 prop tor  20  21  36   1
 214 prop tor  20  21  36  69
 215 ben  21  20  48
 216 ben  21  22  23
 217 prop tor  21  22  23  24
 218 prop tor  21  22  23  28
 219 prop tor  21  22  23  49
 220 ben  21  22  35
 221 prop tor  21  22  35  30
 222 prop tor  21  22  35  34
 223 prop tor  21  22  35  68
 224 ben  21  36  69
 225 ben  22  21  36
 226 prop tor  22  21  36   1
 227 prop tor  22  21  36  69
 228 ben  22  23  24
 229 prop tor  22  23  24  25
 230 prop tor  22  23  24  50
 231 prop tor  22  23  24  51
 232 ben  22  23  28
 233 prop tor  22  23  28  27
 234 prop tor  22  23  28  29
 235 prop tor  22  23  28  58
 236 ben  22  23  49
 237 ben  22  35  30
 238 ben  22  35  34
 239 ben  22  35  68
 240 ben  23  22  35
 241 prop tor  23  22  35  30
 242 prop tor  23  22  35  34
 243 prop tor  23  22  35  68
 244 ben  23  24  25
 245 prop tor  23  24  25  26
 246 prop tor  23  24  25  52
 247 prop tor  23  24  25  53
 248 ben  23  24  50
 249 ben  23  24  51
 250 ben  23  28  27
 251 ben  23  28  29
 252 prop tor  23  28  29  30
 253 ben  23  28  58
 254 ben  24  23  28
 255 prop tor  24  23  28  27
 256 prop tor  24  23  28  29
 257 prop tor  24  23  28  58
 258 ben  24  23  49
 259 ben  24  25  26
 260 prop tor  24  25  26  27
 261 prop tor  24  25  26  54
 262 prop tor  24  25  26  55
 263 ben  24  25  52
 264 ben  24  25  53
 265 ben  25  24  50
 266 ben  25  24  51
 267 ben  25  26  27
 268 prop tor  25  26  27  28
 269 prop tor  25  26  27  56
 270 prop tor  25  26  27  57
 271 ben  25  26  54
 272 ben  25  26  55
 273 ben  26  25  52
 274 ben  26  25  53
 275 ben  26  27  28
 276 prop tor  26  27  28  23
 277 prop tor  26  27  28  29
 278 prop tor  26  27  28  58
 279 ben  26  27  56
 280 ben  26  27  57
 281 ben  27  26  54
 282 ben  27  26  55
 283 ben  27  28  29
 284 prop tor  27  28  29  30
 285 ben  27  28  58
 286 prop tor  28  23  24  25
 287 prop tor  28  23  24  50
 288 prop tor  28  23  24  51
 289 ben  28  23  49
 290 ben  28  27  56
 291 ben  28  27  57
 292 ben  28  29  30
 293 prop tor  28  29  30  31
 294 prop tor  28  29  30  35
 295 prop tor  28  29  30  59
 296 ben  29  28  58
 297 ben  29  30  31
 298 prop tor  29  30  31  32
 299 prop tor  29  30  31  60
 300 prop tor  29  30  31  61
 301 ben  29  30  35
 302 prop tor  29  30  35  22
 303 prop tor  29  30  35  34
 304 prop tor  29  30  35  68
 305 ben  29  30  59
 306 ben  30  31  32
 307 prop tor  30  31  32  33
 308 prop tor  30  31  32  62
 309 prop tor  30  31  32  63
 310 ben  30  31  60
 311 ben  30  31  61
 312 ben  30  35  34
 313 ben  30  35  68
 314 ben  31  30  35
 315 prop tor  31  30  35  22
 316 prop tor  31  30  35  34
 317 prop tor  31  30  35  68
 318 ben  31  30  59
 319 ben  31  32  33
 320 prop tor  31  32  33  34
 321 prop tor  31  32  33  64
 322 prop tor  31  32  33  65
 323 ben  31  32  62
 324 ben  31  32  63
 325 ben  32  31  60
 326 ben  32  31  61
 327 ben  32  33  34
 328 prop tor  32  33  34  35
 329 prop tor  32  33  34  66
 330 prop tor  32  33  34  67
 331 ben  32  33  64
 332 ben  32  33  65
 333 ben  33  32  62
 334 ben  33  32  63
 335 ben  33  34  35
 336 prop tor  33  34  35  22
 337 prop tor  33  34  35  30
 338 prop tor  33  34  35  68
 339 ben  33  34  66
 340 ben  33  34  67
 341 ben  34  33  64
 342 ben  34  33  65
 343 ben  34  35  68
 344 prop tor  35  22  23  24
 345 prop tor  35  22  23  28
 346 prop tor  35  22  23  49
 347 prop tor  35  30  31  32
 348 prop tor  35  30  31  60
 349 prop tor  35  30  31  61
 350 ben  35  30  59
 351 ben  35  34  66
 352 ben  35  34  67
 353 prop tor  36   1   2   3
 354 prop tor  36   1   2  38
 355 ben  36   1  37
 356 prop tor  36  21  22  23
 357 prop tor  36  21  22  35
 358 prop tor  37   1   2   3
 359 prop tor  37   1   2  38
 360 prop tor  37   1  36  21
 361 prop tor  37   1  36  69
 362 prop tor  38   2   3   4
 363 prop tor  38   2   3  20
 364 prop tor  39   5   6   7
 365 prop tor  39   5   6  40
 366 prop tor  40   6   7   8
 367 prop tor  40   6   7  18
 368 prop tor  41   8   9  10
 369 prop tor  41   8   9  42
 370 prop tor  42   9  10  11
 371 prop tor  42   9  10  19
 372 prop tor  43  11  12  13
 373 prop tor  43  11  12  44
 374 prop tor  44  12  13  14
 375 prop tor  44  12  13  45
 376 prop tor  45  13  14  15
 377 prop tor  45  13  14  19
 378 prop tor  46  15  16  17
 379 prop tor  46  15  16  47
 380 prop tor  47  16  17   4
 381 prop tor  47  16  17  18
 382 prop tor  48  20  21  22
 383 prop tor  48  20  21  36
 384 prop tor  49  23  24  25
 385 prop tor  49  23  24  50
 386 prop tor  49  23  24  51
 387 prop tor  49  23  28  27
 388 prop tor  49  23  28  29
 389 prop tor  49  23  28  58
 390 prop tor  50  24  25  26
 391 prop tor  50  24  25  52
 392 prop tor  50  24  25  53
 393 ben  50  24  51
 394 prop tor  51  24  25  26
 395 prop tor  51  24  25  52
 396 prop tor  51  24  25  53
 397 prop tor  52  25  26  27
 398 prop tor  52  25  26  54
 399 prop tor  52  25  26  55
 400 ben  52  25  53
 401 prop tor  53  25  26  27
 402 prop tor  53  25  26  54
 403 prop tor  53  25  26  55
 404 prop tor  54  26  27  28
 405 prop tor  54  26  27  56
 406 prop tor  54  26  27  57
 407 ben  54  26  55
 408 prop tor  55  26  27  28
 409 prop tor  55  26  27  56
 410 prop tor  55  26  27  57
 411 prop tor  56  27  28  23
 412 prop tor  56  27  28  29
 413 prop tor  56  27  28  58
 414 ben  56  27  57
 415 prop tor  57  27  28  23
 416 prop tor  57  27  28  29
 417 prop tor  57  27  28  58
 418 prop tor  58  28  29  30
 419 prop tor  59  30  31  32
 420 prop tor  59  30  31  60
 421 prop tor  59  30  31  61
 422 prop tor  59  30  35  22
 423 prop tor  59  30  35  34
 424 prop tor  59  30  35  68
 425 prop tor  60  31  32  33
 426 prop tor  60  31  32  62
 427 prop tor  60  31  32  63
 428 ben  60  31  61
 429 prop tor  61  31  32  33
 430 prop tor  61  31  32  62
 431 prop tor  61  31  32  63
 432 prop tor  62  32  33  34
 433 prop tor  62  32  33  64
 434 prop tor  62  32  33  65
 435 ben  62  32  63
 436 prop tor  63  32  33  34
 437 prop tor  63  32  33  64
 438 prop tor  63  32  33  65
 439 prop tor  64  33  34  35
 440 prop tor  64  33  34  66
 441 prop tor  64  33  34  67
 442 ben  64  33  65
 443 prop tor  65  33  34  35
 444 prop tor  65  33  34  66
 445 prop tor  65  33  34  67
 446 prop tor  66  34  35  22
 447 prop tor  66  34  35  30
 448 prop tor  66  34  35  68
 449 ben  66  34  67
 450 prop tor  67  34  35  22
 451 prop tor  67  34  35  30
 452 prop tor  67  34  35  68
 nber bend=             142
 nber lin bend=           0
 nber prop tor=         234
 nber impr tor=           0
 nber tot redund int=         452
 Eigenvalues of G in red int coords
    Gval -0.00000000 -0.00000000 -0.00000000 -0.00000000 -0.00000000 -0.00000000 -0.00000000 -0.00000000
    Gval -0.00000000 -0.00000000 -0.00000000 -0.00000000 -0.00000000 -0.00000000 -0.00000000 -0.00000000
    Gval -0.00000000 -0.00000000 -0.00000000 -0.00000000 -0.00000000 -0.00000000 -0.00000000 -0.00000000
    Gval -0.00000000 -0.00000000 -0.00000000 -0.00000000 -0.00000000 -0.00000000 -0.00000000 -0.00000000
    Gval -0.00000000 -0.00000000 -0.00000000 -0.00000000 -0.00000000 -0.00000000 -0.00000000 -0.00000000
    Gval -0.00000000 -0.00000000 -0.00000000 -0.00000000 -0.00000000 -0.00000000 -0.00000000 -0.00000000
    Gval -0.00000000 -0.00000000 -0.00000000 -0.00000000 -0.00000000 -0.00000000 -0.00000000 -0.00000000
    Gval -0.00000000 -0.00000000 -0.00000000 -0.00000000 -0.00000000 -0.00000000 -0.00000000 -0.00000000
    Gval -0.00000000 -0.00000000 -0.00000000 -0.00000000 -0.00000000 -0.00000000 -0.00000000 -0.00000000
    Gval -0.00000000 -0.00000000 -0.00000000 -0.00000000 -0.00000000 -0.00000000 -0.00000000 -0.00000000
    Gval -0.00000000 -0.00000000 -0.00000000 -0.00000000 -0.00000000 -0.00000000 -0.00000000 -0.00000000
    Gval -0.00000000 -0.00000000 -0.00000000 -0.00000000 -0.00000000 -0.00000000 -0.00000000 -0.00000000
    Gval -0.00000000 -0.00000000 -0.00000000 -0.00000000 -0.00000000 -0.00000000 -0.00000000 -0.00000000
    Gval -0.00000000 -0.00000000 -0.00000000 -0.00000000 -0.00000000 -0.00000000 -0.00000000 -0.00000000
    Gval -0.00000000 -0.00000000 -0.00000000 -0.00000000 -0.00000000 -0.00000000 -0.00000000 -0.00000000
    Gval -0.00000000 -0.00000000 -0.00000000 -0.00000000 -0.00000000 -0.00000000 -0.00000000 -0.00000000
    Gval -0.00000000 -0.00000000  0.00000000  0.00000000  0.00000000  0.00000000  0.00000000  0.00000000
    Gval  0.00000000  0.00000000  0.00000000  0.00000000  0.00000000  0.00000000  0.00000000  0.00000000
    Gval  0.00000000  0.00000000  0.00000000  0.00000000  0.00000000  0.00000000  0.00000000  0.00000000
    Gval  0.00000000  0.00000000  0.00000000  0.00000000  0.00000000  0.00000000  0.00000000  0.00000000
    Gval  0.00000000  0.00000000  0.00000000  0.00000000  0.00000000  0.00000000  0.00000000  0.00000000
    Gval  0.00000000  0.00000000  0.00000000  0.00000000  0.00000000  0.00000000  0.00000000  0.00000000
    Gval  0.00000000  0.00000000  0.00000000  0.00000000  0.00000000  0.00000000  0.00000000  0.00000000
    Gval  0.00000000  0.00000000  0.00000000  0.00000000  0.00000000  0.00000000  0.00000000  0.00000000
    Gval  0.00000000  0.00000000  0.00000000  0.00000000  0.00000000  0.00000000  0.00000000  0.00000000
    Gval  0.00000000  0.00000000  0.00000000  0.00000000  0.00000000  0.00000000  0.00000000  0.00000000
    Gval  0.00000000  0.00000000  0.00000000  0.00000000  0.00000000  0.00000000  0.00000000  0.00000000
    Gval  0.00000000  0.00000000  0.00000000  0.00000000  0.00000000  0.00000000  0.00000000  0.00000000
    Gval  0.00000000  0.00000000  0.00000000  0.00000000  0.00000000  0.00000000  0.00000000  0.00000000
    Gval  0.00000000  0.00000000  0.00000000  0.00000000  0.00000000  0.00000000  0.00000000  0.00000000
    Gval  0.00000000  0.00000000  0.00000000  0.00000000  0.00000000  0.00000000  0.00000000  0.00000000
    Gval  0.00000000  0.00000000  0.00000000  0.00000044  0.00000064  0.00000117  0.00000178  0.00000327
    Gval  0.00000531  0.00000635  0.00000937  0.00000996  0.00001174  0.00001522  0.00001782  0.00001995
    Gval  0.00002300  0.00002349  0.00002418  0.00002639  0.00002859  0.00003118  0.00003370  0.00003854
    Gval  0.00004059  0.00004284  0.00004813  0.00005152  0.00005371  0.00005492  0.00005768  0.00006073
    Gval  0.00006319  0.00006432  0.00006662  0.00006816  0.00007023  0.00007255  0.00007516  0.00007653
    Gval  0.00008130  0.00008405  0.00008885  0.00009120  0.00009258  0.00010399  0.00011063  0.00011423
    Gval  0.00012297  0.00012680  0.00013319  0.00013665  0.00014028  0.00014281  0.00016331  0.00016859
    Gval  0.00017773  0.00018439  0.00018508  0.00018844  0.00019699  0.00020115  0.00020232  0.00020984
    Gval  0.00023052  0.00023619  0.00024510  0.00025160  0.00026162  0.00026887  0.00027627  0.00027842
    Gval  0.00029491  0.00029784  0.00032063  0.00033275  0.00034310  0.00034500  0.00036649  0.00037424
    Gval  0.00037913  0.00038189  0.00040010  0.00041088  0.00042000  0.00042081  0.00043411  0.00043927
    Gval  0.00044693  0.00044955  0.00047209  0.00051284  0.00051469  0.00057408  0.00057495  0.00057686
    Gval  0.00057696  0.00058078  0.00058146  0.00058241  0.00058499  0.00058585  0.00058598  0.00058920
    Gval  0.00059063  0.00059244  0.00059387  0.00059443  0.00059617  0.00059865  0.00059926  0.00060540
    Gval  0.00060793  0.00061124  0.00061640  0.00062637  0.00063010  0.00063547  0.00064113  0.00064633
    Gval  0.00065431  0.00065752  0.00066715  0.00067501  0.00069526  0.00070163  0.00079834  0.00081727
    Gval  0.00097381  0.00099167  0.00104547  0.00104999  0.00106396  0.00106601  0.00106756  0.00108454
    Gval  0.00109266  0.00109551  0.00112840  0.00113856  0.00114338  0.00115924  0.00116038  0.00116334
    Gval  0.00116809  0.00117064  0.00119576  0.00119858  0.00123100  0.00123246  0.00133605  0.00138663
    Gval  0.00150146  0.00151702  0.00154437  0.00159270  0.00164644  0.00176918  0.00176962  0.00178818
    Gval  0.00179502  0.00180095  0.00183790  0.00185533  0.00188052  0.00189202  0.00190864  0.00192166
    Gval  0.00197884  0.00207550  0.00219550  0.00223883  0.00225378  0.00248153  0.00251269  0.00259398
    Gval  0.00262199  0.00267494  0.00295438  0.00299823  0.00307318  0.00308276  0.00310471  0.00313588
    Gval  0.00314424  0.00359048  0.00366463  0.00373178  0.00373213  0.00373900  0.00382657  0.00382909
    Gval  0.00390576  0.00392445  0.00393070  0.00393078  0.00402337  0.00402353  0.00403401  0.00403426
    Gval  0.00407320  0.00407422  0.00435732  0.00435858
  4.425868184540538E-007  4.425868184540538E-007
  6.403695602706045E-007  4.425868184540538E-007
  1.170435184100559E-006  4.425868184540538E-007
  1.783008901316410E-006  4.425868184540538E-007
  3.271879648647007E-006  4.425868184540538E-007
  5.307644317808146E-006  4.425868184540538E-007
  6.345976108400336E-006  4.425868184540538E-007
  9.370894328140571E-006  4.425868184540538E-007
  9.961319094489437E-006  4.425868184540538E-007
  1.173844784898404E-005  4.425868184540538E-007
  1.522400840178627E-005  4.425868184540538E-007
  1.782260101188031E-005  4.425868184540538E-007
  1.994781471852455E-005  4.425868184540538E-007
  2.299998350156091E-005  4.425868184540538E-007
  2.349345198132391E-005  4.425868184540538E-007
  2.418070327680055E-005  4.425868184540538E-007
  2.638880914815529E-005  4.425868184540538E-007
  2.858682480763979E-005  4.425868184540538E-007
  3.117953903851305E-005  4.425868184540538E-007
  3.369777366222830E-005  4.425868184540538E-007
  3.853822817009864E-005  4.425868184540538E-007
  4.059030933808002E-005  4.425868184540538E-007
  4.284059486803361E-005  4.425868184540538E-007
  4.813054222070009E-005  4.425868184540538E-007
  5.152147391440535E-005  4.425868184540538E-007
  5.370823918621526E-005  4.425868184540538E-007
  5.491763161498249E-005  4.425868184540538E-007
  5.767914260488705E-005  4.425868184540538E-007
  6.073223157923464E-005  4.425868184540538E-007
  6.319150198272047E-005  4.425868184540538E-007
  6.432240421706977E-005  4.425868184540538E-007
  6.662171488402444E-005  4.425868184540538E-007
  6.815519411490326E-005  4.425868184540538E-007
  7.023499266726641E-005  4.425868184540538E-007
  7.255253349298360E-005  4.425868184540538E-007
  7.515676539717345E-005  4.425868184540538E-007
  7.653027768164730E-005  4.425868184540538E-007
  8.130378703888170E-005  4.425868184540538E-007
  8.405242424485565E-005  4.425868184540538E-007
  8.885055035089586E-005  4.425868184540538E-007
  9.120144144656215E-005  4.425868184540538E-007
  9.258213273110421E-005  4.425868184540538E-007
  1.039932381391734E-004  4.425868184540538E-007
  1.106348649301319E-004  4.425868184540538E-007
  1.142293678052547E-004  4.425868184540538E-007
  1.229742674582942E-004  4.425868184540538E-007
  1.268023475522208E-004  4.425868184540538E-007
  1.331935753152950E-004  4.425868184540538E-007
  1.366484273175255E-004  4.425868184540538E-007
  1.402758572729788E-004  4.425868184540538E-007
  1.428077986228037E-004  4.425868184540538E-007
  1.633140663849587E-004  4.425868184540538E-007
  1.685863380066881E-004  4.425868184540538E-007
  1.777343441642299E-004  4.425868184540538E-007
  1.843898574084407E-004  4.425868184540538E-007
  1.850815385792749E-004  4.425868184540538E-007
  1.884363962870182E-004  4.425868184540538E-007
  1.969941043880185E-004  4.425868184540538E-007
  2.011515718462948E-004  4.425868184540538E-007
  2.023234920307393E-004  4.425868184540538E-007
  2.098365161746507E-004  4.425868184540538E-007
  2.305240275486932E-004  4.425868184540538E-007
  2.361886125139733E-004  4.425868184540538E-007
  2.451001812903966E-004  4.425868184540538E-007
  2.516031658397561E-004  4.425868184540538E-007
  2.616222750272132E-004  4.425868184540538E-007
  2.688740906688801E-004  4.425868184540538E-007
  2.762701691404573E-004  4.425868184540538E-007
  2.784161663855542E-004  4.425868184540538E-007
  2.949140356347888E-004  4.425868184540538E-007
  2.978418321536711E-004  4.425868184540538E-007
  3.206309871983775E-004  4.425868184540538E-007
  3.327497735435575E-004  4.425868184540538E-007
  3.430960164211541E-004  4.425868184540538E-007
  3.450047119052267E-004  4.425868184540538E-007
  3.664869933452927E-004  4.425868184540538E-007
  3.742358813909604E-004  4.425868184540538E-007
  3.791294996378303E-004  4.425868184540538E-007
  3.818923093466436E-004  4.425868184540538E-007
  4.000956772577263E-004  4.425868184540538E-007
  4.108843032020431E-004  4.425868184540538E-007
  4.200018811343326E-004  4.425868184540538E-007
  4.208117495338695E-004  4.425868184540538E-007
  4.341095085902683E-004  4.425868184540538E-007
  4.392695829042234E-004  4.425868184540538E-007
  4.469302790276790E-004  4.425868184540538E-007
  4.495494671930950E-004  4.425868184540538E-007
  4.720943473143960E-004  4.425868184540538E-007
  5.128429292385457E-004  4.425868184540538E-007
  5.146869814690421E-004  4.425868184540538E-007
  5.740783716091738E-004  4.425868184540538E-007
  5.749546695950704E-004  4.425868184540538E-007
  5.768635086111845E-004  4.425868184540538E-007
  5.769552961654142E-004  4.425868184540538E-007
  5.807836917789313E-004  4.425868184540538E-007
  5.814577166741971E-004  4.425868184540538E-007
  5.824084869369277E-004  4.425868184540538E-007
  5.849909613592013E-004  4.425868184540538E-007
  5.858485293855481E-004  4.425868184540538E-007
  5.859813105015336E-004  4.425868184540538E-007
  5.891975209143457E-004  4.425868184540538E-007
  5.906288286197644E-004  4.425868184540538E-007
  5.924369783438871E-004  4.425868184540538E-007
  5.938721292357519E-004  4.425868184540538E-007
  5.944343487797132E-004  4.425868184540538E-007
  5.961671558048358E-004  4.425868184540538E-007
  5.986490522125501E-004  4.425868184540538E-007
  5.992609259865016E-004  4.425868184540538E-007
  6.053966804406681E-004  4.425868184540538E-007
  6.079334944566217E-004  4.425868184540538E-007
  6.112407201017181E-004  4.425868184540538E-007
  6.163954770571549E-004  4.425868184540538E-007
  6.263727897422613E-004  4.425868184540538E-007
  6.301005255794429E-004  4.425868184540538E-007
  6.354739100881598E-004  4.425868184540538E-007
  6.411297713237564E-004  4.425868184540538E-007
  6.463320077680460E-004  4.425868184540538E-007
  6.543126190002780E-004  4.425868184540538E-007
  6.575211149318280E-004  4.425868184540538E-007
  6.671513393677993E-004  4.425868184540538E-007
  6.750129641506540E-004  4.425868184540538E-007
  6.952633920806282E-004  4.425868184540538E-007
  7.016290234901503E-004  4.425868184540538E-007
  7.983414933751374E-004  4.425868184540538E-007
  8.172717875600373E-004  4.425868184540538E-007
  9.738078930495646E-004  4.425868184540538E-007
  9.916665777929946E-004  4.425868184540538E-007
  1.045473165017674E-003  4.425868184540538E-007
  1.049990045117962E-003  4.425868184540538E-007
  1.063957038388329E-003  4.425868184540538E-007
  1.066006703365119E-003  4.425868184540538E-007
  1.067561842613085E-003  4.425868184540538E-007
  1.084538318059446E-003  4.425868184540538E-007
  1.092657196478259E-003  4.425868184540538E-007
  1.095510228925848E-003  4.425868184540538E-007
  1.128401484028065E-003  4.425868184540538E-007
  1.138561475528559E-003  4.425868184540538E-007
  1.143380960645179E-003  4.425868184540538E-007
  1.159244341549427E-003  4.425868184540538E-007
  1.160381463942648E-003  4.425868184540538E-007
  1.163338932481692E-003  4.425868184540538E-007
  1.168089280720206E-003  4.425868184540538E-007
  1.170636148837959E-003  4.425868184540538E-007
  1.195755859710999E-003  4.425868184540538E-007
  1.198577051381131E-003  4.425868184540538E-007
  1.230996723583296E-003  4.425868184540538E-007
  1.232463266022039E-003  4.425868184540538E-007
  1.336054071606312E-003  4.425868184540538E-007
  1.386633262825652E-003  4.425868184540538E-007
  1.501463010587077E-003  4.425868184540538E-007
  1.517015663589986E-003  4.425868184540538E-007
  1.544371484912512E-003  4.425868184540538E-007
  1.592702914131178E-003  4.425868184540538E-007
  1.646441358931858E-003  4.425868184540538E-007
  1.769184070118990E-003  4.425868184540538E-007
  1.769618439067329E-003  4.425868184540538E-007
  1.788176237797718E-003  4.425868184540538E-007
  1.795018534596586E-003  4.425868184540538E-007
  1.800946984912525E-003  4.425868184540538E-007
  1.837895217860271E-003  4.425868184540538E-007
  1.855329198785725E-003  4.425868184540538E-007
  1.880516181581431E-003  4.425868184540538E-007
  1.892015939817213E-003  4.425868184540538E-007
  1.908636043069716E-003  4.425868184540538E-007
  1.921656487026338E-003  4.425868184540538E-007
  1.978843260442323E-003  4.425868184540538E-007
  2.075498606975602E-003  4.425868184540538E-007
  2.195495900493847E-003  4.425868184540538E-007
  2.238826711694302E-003  4.425868184540538E-007
  2.253776818885198E-003  4.425868184540538E-007
  2.481525795821420E-003  4.425868184540538E-007
  2.512693300709486E-003  4.425868184540538E-007
  2.593983736971374E-003  4.425868184540538E-007
  2.621994964883591E-003  4.425868184540538E-007
  2.674937276974362E-003  4.425868184540538E-007
  2.954384757105038E-003  4.425868184540538E-007
  2.998231134499558E-003  4.425868184540538E-007
  3.073181622255547E-003  4.425868184540538E-007
  3.082759568288451E-003  4.425868184540538E-007
  3.104708041758078E-003  4.425868184540538E-007
  3.135876862591160E-003  4.425868184540538E-007
  3.144238318308070E-003  4.425868184540538E-007
  3.590478095203879E-003  4.425868184540538E-007
  3.664632152701090E-003  4.425868184540538E-007
  3.731777508933968E-003  4.425868184540538E-007
  3.732128468697693E-003  4.425868184540538E-007
  3.738999965569718E-003  4.425868184540538E-007
  3.826569551667595E-003  4.425868184540538E-007
  3.829090277065272E-003  4.425868184540538E-007
  3.905762998500637E-003  4.425868184540538E-007
  3.924449782967712E-003  4.425868184540538E-007
  3.930703548441715E-003  4.425868184540538E-007
  3.930777242658100E-003  4.425868184540538E-007
  4.023371797647033E-003  4.425868184540538E-007
  4.023534733778998E-003  4.425868184540538E-007
  4.034014501459500E-003  4.425868184540538E-007
  4.034260293758216E-003  4.425868184540538E-007
  4.073202468632199E-003  4.425868184540538E-007
  4.074219525186753E-003  4.425868184540538E-007
  4.357320045920840E-003  4.425868184540538E-007
  4.358581983665434E-003  4.425868184540538E-007
 cut=1d-8, nber non-redundant internal coords=         201
 Check on Eigenvals of non-red overlap matrix:
  0.00000044  0.00000064  0.00000117  0.00000178  0.00000327  0.00000531  0.00000635  0.00000937
  0.00000996  0.00001174  0.00001522  0.00001782  0.00001995  0.00002300  0.00002349  0.00002418
  0.00002639  0.00002859  0.00003118  0.00003370  0.00003854  0.00004059  0.00004284  0.00004813
  0.00005152  0.00005371  0.00005492  0.00005768  0.00006073  0.00006319  0.00006432  0.00006662
  0.00006816  0.00007023  0.00007255  0.00007516  0.00007653  0.00008130  0.00008405  0.00008885
  0.00009120  0.00009258  0.00010399  0.00011063  0.00011423  0.00012297  0.00012680  0.00013319
  0.00013665  0.00014028  0.00014281  0.00016331  0.00016859  0.00017773  0.00018439  0.00018508
  0.00018844  0.00019699  0.00020115  0.00020232  0.00020984  0.00023052  0.00023619  0.00024510
  0.00025160  0.00026162  0.00026887  0.00027627  0.00027842  0.00029491  0.00029784  0.00032063
  0.00033275  0.00034310  0.00034500  0.00036649  0.00037424  0.00037913  0.00038189  0.00040010
  0.00041088  0.00042000  0.00042081  0.00043411  0.00043927  0.00044693  0.00044955  0.00047209
  0.00051284  0.00051469  0.00057408  0.00057495  0.00057686  0.00057696  0.00058078  0.00058146
  0.00058241  0.00058499  0.00058585  0.00058598  0.00058920  0.00059063  0.00059244  0.00059387
  0.00059443  0.00059617  0.00059865  0.00059926  0.00060540  0.00060793  0.00061124  0.00061640
  0.00062637  0.00063010  0.00063547  0.00064113  0.00064633  0.00065431  0.00065752  0.00066715
  0.00067501  0.00069526  0.00070163  0.00079834  0.00081727  0.00097381  0.00099167  0.00104547
  0.00104999  0.00106396  0.00106601  0.00106756  0.00108454  0.00109266  0.00109551  0.00112840
  0.00113856  0.00114338  0.00115924  0.00116038  0.00116334  0.00116809  0.00117064  0.00119576
  0.00119858  0.00123100  0.00123246  0.00133605  0.00138663  0.00150146  0.00151702  0.00154437
  0.00159270  0.00164644  0.00176918  0.00176962  0.00178818  0.00179502  0.00180095  0.00183790
  0.00185533  0.00188052  0.00189202  0.00190864  0.00192166  0.00197884  0.00207550  0.00219550
  0.00223883  0.00225378  0.00248153  0.00251269  0.00259398  0.00262199  0.00267494  0.00295438
  0.00299823  0.00307318  0.00308276  0.00310471  0.00313588  0.00314424  0.00359048  0.00366463
  0.00373178  0.00373213  0.00373900  0.00382657  0.00382909  0.00390576  0.00392445  0.00393070
  0.00393078  0.00402337  0.00402353  0.00403401  0.00403426  0.00407320  0.00407422  0.00435732
  0.00435858
 Checking for correct frequencies
 recalc frequencies=
    -0.0   -0.0   -0.0    0.0    0.0    0.0   15.0   20.3   26.2   37.3
    59.7   73.7   79.0   90.8  104.7  121.1  145.9  155.2  169.3  184.3
   204.4  214.3  221.5  253.1  257.7  271.2  277.8  305.4  317.5  319.5
   337.8  339.7  350.4  355.9  375.8  393.9  413.8  420.3  435.7  444.1
   459.4  463.2  469.3  479.0  490.9  498.0  500.3  514.5  521.3  528.0
   543.4  554.9  574.7  606.8  610.7  634.9  656.2  674.0  689.3  697.7
   709.7  715.4  737.1  755.5  758.2  770.7  774.2  797.5  799.7  804.2
   816.8  818.2  819.0  829.0  835.9  849.8  859.5  867.6  869.4  876.6
   896.3  897.7  909.8  915.7  921.2  927.5  946.8  950.1  953.9  959.2
   968.9  979.5  982.3  986.2  987.0  997.1 1028.0 1041.0 1052.0 1064.6
  1065.6 1083.0 1088.0 1088.5 1096.0 1097.2 1106.4 1119.1 1128.7 1136.2
  1137.0 1148.9 1150.1 1152.8 1164.9 1187.8 1195.8 1207.6 1218.1 1223.8
  1224.4 1230.9 1241.1 1243.3 1249.1 1257.6 1264.5 1272.2 1278.6 1292.5
  1297.8 1304.4 1314.6 1316.5 1323.9 1325.7 1333.0 1340.9 1351.2 1357.3
  1359.2 1363.7 1368.6 1373.6 1374.9 1377.3 1379.8 1381.8 1387.1 1390.5
  1395.9 1405.2 1433.0 1440.1 1442.0 1459.4 1485.9 1488.3 1488.8 1489.4
  1489.8 1494.8 1495.2 1501.2 1505.3 1505.8 1520.2 1534.5 1554.7 1560.9
  1577.9 1584.6 1613.7 1636.3 2915.1 2919.8 3004.1 3004.3 3009.0 3009.3
  3015.0 3015.1 3018.6 3020.6 3029.1 3029.4 3053.0 3053.3 3056.3 3056.4
  3065.4 3065.6 3094.5 3095.4 3159.3 3159.7 3161.2 3165.4 3166.6 3170.7
  3178.6 3181.4 3184.9 3187.4 3192.0 3196.1 3204.1
 recalc symmetries=
                                                                       
                                                                       
                                                                       
                                                                       
                                                                       
                                                                       
                                                                       
                                                                       
                                                                       
                                                                       
                                                                       
                                                                       
                                                                       
                                                                       
                                                                       
                                                                       
                                                                       
                                                                       
                                                                       
                                                                       
                                                  
 recalc freqs check OK
 Zero-point lengths:
 10.0000 10.0000 10.0000 10.0000 10.0000 10.0000 64.0255 55.0245 48.4467 40.5829
 32.0886 28.8759 27.8879 26.0114 24.2285 22.5286 20.5233 19.9015 19.0530 18.2619
 17.3408 16.9333 16.6570 15.5823 15.4418 15.0543 14.8740 14.1856 13.9135 13.8690
 13.4881 13.4512 13.2439 13.1418 12.7881 12.4911 12.1878 12.0919 11.8765 11.7643
 11.5671 11.5190 11.4438 11.3275 11.1896 11.1094 11.0834 10.9293 10.8584 10.7888
 10.6348 10.5240 10.3416 10.0641 10.0322  9.8384  9.6779  9.5490  9.4427  9.3858
  9.3058  9.2686  9.1312  9.0194  9.0032  8.9301  8.9099  8.7787  8.7664  8.7421
  8.6741  8.6669  8.6625  8.6102  8.5747  8.5043  8.4561  8.4165  8.4080  8.3732
  8.2808  8.2742  8.2191  8.1927  8.1682  8.1402  8.0570  8.0429  8.0267  8.0047
  7.9643  7.9211  7.9100  7.8942  7.8910  7.8509  7.7320  7.6836  7.6435  7.5982
  7.5945  7.5332  7.5157  7.5143  7.4884  7.4843  7.4531  7.4106  7.3792  7.3547
  7.3520  7.3141  7.3102  7.3016  7.2637  7.1932  7.1692  7.1340  7.1032  7.0866
  7.0848  7.0662  7.0370  7.0309  7.0144  6.9907  6.9716  6.9504  6.9331  6.8957
  6.8816  6.8641  6.8376  6.8327  6.8134  6.8089  6.7902  6.7702  6.7442  6.7290
  6.7244  6.7132  6.7013  6.6890  6.6858  6.6801  6.6740  6.6693  6.6564  6.6482
  6.6353  6.6135  6.5489  6.5328  6.5284  6.4894  6.4313  6.4261  6.4250  6.4239
  6.4230  6.4121  6.4114  6.3985  6.3897  6.3888  6.3583  6.3286  6.2873  6.2750
  6.2410  6.2279  6.1714  6.1287  4.5916  4.5879  4.5231  4.5230  4.5195  4.5192
  4.5149  4.5148  4.5122  4.5108  4.5045  4.5042  4.4867  4.4866  4.4843  4.4843
  4.4776  4.4775  4.4566  4.4559  4.4106  4.4103  4.4093  4.4064  4.4055  4.4027
  4.3972  4.3953  4.3929  4.3911  4.3880  4.3852  4.3797
 highest evec of mol 1
  0.0150 -0.0070  0.0214
 -0.0523 -0.0545  0.0721
 -0.0042  0.0011 -0.0027
  0.0027  0.0003  0.0002
  0.0031  0.0052 -0.0018
 -0.0016  0.0018 -0.0009
 -0.0002 -0.0000 -0.0000
  0.0000  0.0006 -0.0003
 -0.0029 -0.0005  0.0001
 -0.0002  0.0002 -0.0001
 -0.0004 -0.0001  0.0000
 -0.0011 -0.0009  0.0004
  0.0028 -0.0028  0.0011
 -0.0048 -0.0009 -0.0002
  0.0274 -0.0510  0.0165
  0.2599  0.0058 -0.0120
 -0.0032  0.0070 -0.0018
 -0.0016  0.0000  0.0001
 -0.0002 -0.0001 -0.0000
 -0.0028  0.0031 -0.0072
 -0.0000  0.0005 -0.0008
 -0.0000 -0.0001  0.0002
  0.0000  0.0000  0.0000
  0.0000 -0.0000  0.0000
  0.0000  0.0000  0.0000
  0.0000  0.0000  0.0000
  0.0000  0.0000  0.0000
  0.0000 -0.0000  0.0000
 -0.0000  0.0000  0.0000
  0.0000  0.0000  0.0000
  0.0000  0.0000 -0.0000
  0.0000 -0.0000 -0.0000
 -0.0000 -0.0001 -0.0000
 -0.0001 -0.0001  0.0001
  0.0000 -0.0000  0.0000
  0.0095  0.0027  0.0006
 -0.0376  0.0257 -0.0671
  0.1731  0.1859 -0.2359
 -0.0096 -0.0196  0.0066
  0.0045 -0.0061  0.0030
  0.0013 -0.0017  0.0007
  0.0089  0.0005  0.0004
  0.0022  0.0002 -0.0000
  0.0026  0.0043 -0.0015
 -0.0065  0.0102 -0.0040
 -0.0995  0.1474 -0.0467
 -0.8672 -0.0220  0.0338
  0.0113 -0.0091  0.0225
 -0.0002  0.0000 -0.0002
 -0.0000  0.0000 -0.0000
  0.0000  0.0001 -0.0000
  0.0001 -0.0000 -0.0000
 -0.0001  0.0000 -0.0001
 -0.0000  0.0000 -0.0000
 -0.0000 -0.0001 -0.0000
 -0.0000 -0.0000  0.0000
 -0.0000  0.0000 -0.0000
 -0.0000  0.0000 -0.0000
 -0.0000  0.0000 -0.0000
 -0.0000 -0.0000  0.0000
 -0.0000  0.0000 -0.0000
  0.0000 -0.0000  0.0000
 -0.0001  0.0000  0.0000
  0.0001  0.0002  0.0001
 -0.0000 -0.0000 -0.0000
  0.0001 -0.0001  0.0001
  0.0002  0.0003 -0.0006
 -0.0001  0.0000 -0.0001
 -0.0284 -0.0069 -0.0046
 generating redundant internal coords
         300        3600          69
 Adding extra bonds for z output only
           6           6           6           6           6           6
           6           6           6           6           6           6
           6           6           6           6           6           6
           6           6           6           7           6           6
           6           6           6           6          16           6
           6           6           6           6           6           6
           1           1           1           1           1           1
           1           1           1           1           1           1
           1           1           1           1           1           1
           1           1           1           1           1           1
           1           1           1           1           1           1
           1           1           1
 search for int coords
   1 str   2   1   1.386
   2 str   3   2   1.421
   3 str   4   3   1.454
   4 str   5   4   1.420
   5 str   6   5   1.372
   6 str   7   6   1.431
   7 str   8   7   1.408
   8 str   9   8   1.387
   9 str  10   9   1.416
  10 str  11  10   1.419
  11 str  12  11   1.394
  12 str  13  12   1.386
  13 str  14  13   1.425
  14 str  15  14   1.410
  15 str  16  15   1.389
  16 str  17   4   1.457
  17 str  17  16   1.413
  18 str  18   7   1.432
  19 str  18  17   1.432
  20 str  19  10   1.433
  21 str  19  14   1.431
  22 str  19  18   1.422
  23 str  20   3   1.421
  24 str  21  20   1.385
  25 str  22  21   1.448
  26 str  23  22   1.491
  27 str  24  23   1.544
  28 str  25  24   1.534
  29 str  26  25   1.531
  30 str  27  26   1.532
  31 str  28  23   1.539
  32 str  28  27   1.536
  33 str  29  28   1.833
  34 str  30  29   1.833
  35 str  31  30   1.536
  36 str  32  31   1.532
  37 str  33  32   1.531
  38 str  34  33   1.534
  39 str  35  22   1.490
  40 str  35  30   1.539
  41 str  35  34   1.544
  42 str  36   1   1.397
  43 str  36  21   1.406
  44 str  37   1   1.085
  45 str  38   2   1.082
  46 str  39   5   1.083
  47 str  40   6   1.085
  48 str  41   8   1.085
  49 str  42   9   1.084
  50 str  43  11   1.085
  51 str  44  12   1.084
  52 str  45  13   1.085
  53 str  46  15   1.085
  54 str  47  16   1.081
  55 str  48  20   1.083
  56 str  49  23   1.105
  57 str  50  24   1.097
  58 str  51  24   1.091
  59 str  52  25   1.094
  60 str  53  25   1.097
  61 str  54  26   1.097
  62 str  55  26   1.095
  63 str  56  27   1.094
  64 str  57  27   1.097
  65 str  58  28   1.095
  66 str  59  30   1.095
  67 str  60  31   1.094
  68 str  61  31   1.097
  69 str  62  32   1.097
  70 str  63  32   1.095
  71 str  64  33   1.094
  72 str  65  33   1.097
  73 str  66  34   1.097
  74 str  67  34   1.091
  75 str  68  35   1.105
  76 str  69  36   1.084
 nber stretches=          76
  77 ben   1   2   3
  78 prop tor   1   2   3   4
  79 prop tor   1   2   3  20
  80 ben   1   2  38
  81 ben   1  36  21
  82 ben   1  36  69
  83 ben   2   1  36
  84 prop tor   2   1  36  21
  85 prop tor   2   1  36  69
  86 ben   2   1  37
  87 ben   2   3   4
  88 prop tor   2   3   4   5
  89 prop tor   2   3   4  17
  90 ben   2   3  20
  91 prop tor   2   3  20  21
  92 prop tor   2   3  20  48
  93 ben   3   2  38
  94 ben   3   4   5
  95 prop tor   3   4   5   6
  96 prop tor   3   4   5  39
  97 ben   3   4  17
  98 prop tor   3   4  17  16
  99 prop tor   3   4  17  18
 100 ben   3  20  21
 101 prop tor   3  20  21  22
 102 prop tor   3  20  21  36
 103 ben   3  20  48
 104 ben   4   3  20
 105 prop tor   4   3  20  21
 106 prop tor   4   3  20  48
 107 ben   4   5   6
 108 prop tor   4   5   6   7
 109 prop tor   4   5   6  40
 110 ben   4   5  39
 111 ben   4  17  16
 112 ben   4  17  18
 113 prop tor   4  17  18   7
 114 prop tor   4  17  18  19
 115 ben   5   4  17
 116 prop tor   5   4  17  16
 117 prop tor   5   4  17  18
 118 ben   5   6   7
 119 prop tor   5   6   7   8
 120 prop tor   5   6   7  18
 121 ben   5   6  40
 122 ben   6   5  39
 123 ben   6   7   8
 124 prop tor   6   7   8   9
 125 prop tor   6   7   8  41
 126 ben   6   7  18
 127 prop tor   6   7  18  17
 128 prop tor   6   7  18  19
 129 ben   7   6  40
 130 ben   7   8   9
 131 prop tor   7   8   9  10
 132 prop tor   7   8   9  42
 133 ben   7   8  41
 134 ben   7  18  17
 135 ben   7  18  19
 136 prop tor   7  18  19  10
 137 prop tor   7  18  19  14
 138 ben   8   7  18
 139 prop tor   8   7  18  17
 140 prop tor   8   7  18  19
 141 ben   8   9  10
 142 prop tor   8   9  10  11
 143 prop tor   8   9  10  19
 144 ben   8   9  42
 145 ben   9   8  41
 146 ben   9  10  11
 147 prop tor   9  10  11  12
 148 prop tor   9  10  11  43
 149 ben   9  10  19
 150 prop tor   9  10  19  14
 151 prop tor   9  10  19  18
 152 ben  10   9  42
 153 ben  10  11  12
 154 prop tor  10  11  12  13
 155 prop tor  10  11  12  44
 156 ben  10  11  43
 157 ben  10  19  14
 158 ben  10  19  18
 159 ben  11  10  19
 160 prop tor  11  10  19  14
 161 prop tor  11  10  19  18
 162 ben  11  12  13
 163 prop tor  11  12  13  14
 164 prop tor  11  12  13  45
 165 ben  11  12  44
 166 ben  12  11  43
 167 ben  12  13  14
 168 prop tor  12  13  14  15
 169 prop tor  12  13  14  19
 170 ben  12  13  45
 171 ben  13  12  44
 172 ben  13  14  15
 173 prop tor  13  14  15  16
 174 prop tor  13  14  15  46
 175 ben  13  14  19
 176 prop tor  13  14  19  10
 177 prop tor  13  14  19  18
 178 ben  14  13  45
 179 ben  14  15  16
 180 prop tor  14  15  16  17
 181 prop tor  14  15  16  47
 182 ben  14  15  46
 183 ben  14  19  18
 184 ben  15  14  19
 185 prop tor  15  14  19  10
 186 prop tor  15  14  19  18
 187 ben  15  16  17
 188 prop tor  15  16  17   4
 189 prop tor  15  16  17  18
 190 ben  15  16  47
 191 ben  16  15  46
 192 ben  16  17  18
 193 prop tor  16  17  18   7
 194 prop tor  16  17  18  19
 195 prop tor  17   4   5   6
 196 prop tor  17   4   5  39
 197 ben  17  16  47
 198 ben  17  18  19
 199 prop tor  17  18  19  10
 200 prop tor  17  18  19  14
 201 prop tor  18   7   8   9
 202 prop tor  18   7   8  41
 203 prop tor  19  10  11  12
 204 prop tor  19  10  11  43
 205 prop tor  19  14  15  16
 206 prop tor  19  14  15  46
 207 prop tor  20   3   4   5
 208 prop tor  20   3   4  17
 209 ben  20  21  22
 210 prop tor  20  21  22  23
 211 prop tor  20  21  22  35
 212 ben  20  21  36
 213 prop tor  20  21  36   1
 214 prop tor  20  21  36  69
 215 ben  21  20  48
 216 ben  21  22  23
 217 prop tor  21  22  23  24
 218 prop tor  21  22  23  28
 219 prop tor  21  22  23  49
 220 ben  21  22  35
 221 prop tor  21  22  35  30
 222 prop tor  21  22  35  34
 223 prop tor  21  22  35  68
 224 ben  21  36  69
 225 ben  22  21  36
 226 prop tor  22  21  36   1
 227 prop tor  22  21  36  69
 228 ben  22  23  24
 229 prop tor  22  23  24  25
 230 prop tor  22  23  24  50
 231 prop tor  22  23  24  51
 232 ben  22  23  28
 233 prop tor  22  23  28  27
 234 prop tor  22  23  28  29
 235 prop tor  22  23  28  58
 236 ben  22  23  49
 237 ben  22  35  30
 238 ben  22  35  34
 239 ben  22  35  68
 240 ben  23  22  35
 241 prop tor  23  22  35  30
 242 prop tor  23  22  35  34
 243 prop tor  23  22  35  68
 244 ben  23  24  25
 245 prop tor  23  24  25  26
 246 prop tor  23  24  25  52
 247 prop tor  23  24  25  53
 248 ben  23  24  50
 249 ben  23  24  51
 250 ben  23  28  27
 251 ben  23  28  29
 252 prop tor  23  28  29  30
 253 ben  23  28  58
 254 ben  24  23  28
 255 prop tor  24  23  28  27
 256 prop tor  24  23  28  29
 257 prop tor  24  23  28  58
 258 ben  24  23  49
 259 ben  24  25  26
 260 prop tor  24  25  26  27
 261 prop tor  24  25  26  54
 262 prop tor  24  25  26  55
 263 ben  24  25  52
 264 ben  24  25  53
 265 ben  25  24  50
 266 ben  25  24  51
 267 ben  25  26  27
 268 prop tor  25  26  27  28
 269 prop tor  25  26  27  56
 270 prop tor  25  26  27  57
 271 ben  25  26  54
 272 ben  25  26  55
 273 ben  26  25  52
 274 ben  26  25  53
 275 ben  26  27  28
 276 prop tor  26  27  28  23
 277 prop tor  26  27  28  29
 278 prop tor  26  27  28  58
 279 ben  26  27  56
 280 ben  26  27  57
 281 ben  27  26  54
 282 ben  27  26  55
 283 ben  27  28  29
 284 prop tor  27  28  29  30
 285 ben  27  28  58
 286 prop tor  28  23  24  25
 287 prop tor  28  23  24  50
 288 prop tor  28  23  24  51
 289 ben  28  23  49
 290 ben  28  27  56
 291 ben  28  27  57
 292 ben  28  29  30
 293 prop tor  28  29  30  31
 294 prop tor  28  29  30  35
 295 prop tor  28  29  30  59
 296 ben  29  28  58
 297 ben  29  30  31
 298 prop tor  29  30  31  32
 299 prop tor  29  30  31  60
 300 prop tor  29  30  31  61
 301 ben  29  30  35
 302 prop tor  29  30  35  22
 303 prop tor  29  30  35  34
 304 prop tor  29  30  35  68
 305 ben  29  30  59
 306 ben  30  31  32
 307 prop tor  30  31  32  33
 308 prop tor  30  31  32  62
 309 prop tor  30  31  32  63
 310 ben  30  31  60
 311 ben  30  31  61
 312 ben  30  35  34
 313 ben  30  35  68
 314 ben  31  30  35
 315 prop tor  31  30  35  22
 316 prop tor  31  30  35  34
 317 prop tor  31  30  35  68
 318 ben  31  30  59
 319 ben  31  32  33
 320 prop tor  31  32  33  34
 321 prop tor  31  32  33  64
 322 prop tor  31  32  33  65
 323 ben  31  32  62
 324 ben  31  32  63
 325 ben  32  31  60
 326 ben  32  31  61
 327 ben  32  33  34
 328 prop tor  32  33  34  35
 329 prop tor  32  33  34  66
 330 prop tor  32  33  34  67
 331 ben  32  33  64
 332 ben  32  33  65
 333 ben  33  32  62
 334 ben  33  32  63
 335 ben  33  34  35
 336 prop tor  33  34  35  22
 337 prop tor  33  34  35  30
 338 prop tor  33  34  35  68
 339 ben  33  34  66
 340 ben  33  34  67
 341 ben  34  33  64
 342 ben  34  33  65
 343 ben  34  35  68
 344 prop tor  35  22  23  24
 345 prop tor  35  22  23  28
 346 prop tor  35  22  23  49
 347 prop tor  35  30  31  32
 348 prop tor  35  30  31  60
 349 prop tor  35  30  31  61
 350 ben  35  30  59
 351 ben  35  34  66
 352 ben  35  34  67
 353 prop tor  36   1   2   3
 354 prop tor  36   1   2  38
 355 ben  36   1  37
 356 prop tor  36  21  22  23
 357 prop tor  36  21  22  35
 358 prop tor  37   1   2   3
 359 prop tor  37   1   2  38
 360 prop tor  37   1  36  21
 361 prop tor  37   1  36  69
 362 prop tor  38   2   3   4
 363 prop tor  38   2   3  20
 364 prop tor  39   5   6   7
 365 prop tor  39   5   6  40
 366 prop tor  40   6   7   8
 367 prop tor  40   6   7  18
 368 prop tor  41   8   9  10
 369 prop tor  41   8   9  42
 370 prop tor  42   9  10  11
 371 prop tor  42   9  10  19
 372 prop tor  43  11  12  13
 373 prop tor  43  11  12  44
 374 prop tor  44  12  13  14
 375 prop tor  44  12  13  45
 376 prop tor  45  13  14  15
 377 prop tor  45  13  14  19
 378 prop tor  46  15  16  17
 379 prop tor  46  15  16  47
 380 prop tor  47  16  17   4
 381 prop tor  47  16  17  18
 382 prop tor  48  20  21  22
 383 prop tor  48  20  21  36
 384 prop tor  49  23  24  25
 385 prop tor  49  23  24  50
 386 prop tor  49  23  24  51
 387 prop tor  49  23  28  27
 388 prop tor  49  23  28  29
 389 prop tor  49  23  28  58
 390 prop tor  50  24  25  26
 391 prop tor  50  24  25  52
 392 prop tor  50  24  25  53
 393 ben  50  24  51
 394 prop tor  51  24  25  26
 395 prop tor  51  24  25  52
 396 prop tor  51  24  25  53
 397 prop tor  52  25  26  27
 398 prop tor  52  25  26  54
 399 prop tor  52  25  26  55
 400 ben  52  25  53
 401 prop tor  53  25  26  27
 402 prop tor  53  25  26  54
 403 prop tor  53  25  26  55
 404 prop tor  54  26  27  28
 405 prop tor  54  26  27  56
 406 prop tor  54  26  27  57
 407 ben  54  26  55
 408 prop tor  55  26  27  28
 409 prop tor  55  26  27  56
 410 prop tor  55  26  27  57
 411 prop tor  56  27  28  23
 412 prop tor  56  27  28  29
 413 prop tor  56  27  28  58
 414 ben  56  27  57
 415 prop tor  57  27  28  23
 416 prop tor  57  27  28  29
 417 prop tor  57  27  28  58
 418 prop tor  58  28  29  30
 419 prop tor  59  30  31  32
 420 prop tor  59  30  31  60
 421 prop tor  59  30  31  61
 422 prop tor  59  30  35  22
 423 prop tor  59  30  35  34
 424 prop tor  59  30  35  68
 425 prop tor  60  31  32  33
 426 prop tor  60  31  32  62
 427 prop tor  60  31  32  63
 428 ben  60  31  61
 429 prop tor  61  31  32  33
 430 prop tor  61  31  32  62
 431 prop tor  61  31  32  63
 432 prop tor  62  32  33  34
 433 prop tor  62  32  33  64
 434 prop tor  62  32  33  65
 435 ben  62  32  63
 436 prop tor  63  32  33  34
 437 prop tor  63  32  33  64
 438 prop tor  63  32  33  65
 439 prop tor  64  33  34  35
 440 prop tor  64  33  34  66
 441 prop tor  64  33  34  67
 442 ben  64  33  65
 443 prop tor  65  33  34  35
 444 prop tor  65  33  34  66
 445 prop tor  65  33  34  67
 446 prop tor  66  34  35  22
 447 prop tor  66  34  35  30
 448 prop tor  66  34  35  68
 449 ben  66  34  67
 450 prop tor  67  34  35  22
 451 prop tor  67  34  35  30
 452 prop tor  67  34  35  68
 nber bend=             142
 nber lin bend=           0
 nber prop tor=         234
 nber impr tor=           0
 nber tot redund int=         452
 Reading file: 
 ./phenothiazine-pyrene_1_C0S2.log                                              
                                          
  Entering Gaussian System, Link 0=g16                                          
  
 Gaussian format, type: g94, g98, g03= F F F
  #P Geom=AllCheck Guess=TCheck SCRF=Check GenChk RB3LYP TD(FC,Read)/6-3    
 energy type= TD      
 Original G94 input coords:
  6 -0.835546 -0.215699 -2.036560
  6  0.472565  0.030746 -1.656280
  6  1.021890 -0.481325 -0.451620
  6  2.410690 -0.289052 -0.047120
  6  3.091265 -1.375441  0.551667
  6  4.428290 -1.344126  0.860806
  6  5.209124 -0.182907  0.596658
  6  6.595211 -0.130142  0.864873
  6  7.337364  1.001077  0.613482
  6  6.731485  2.172933  0.088080
  6  7.464324  3.357422 -0.162132
  6  6.834099  4.490843 -0.663375
  6  5.471340  4.494924 -0.927226
  6  4.691830  3.335196 -0.694944
  6  3.293349  3.294975 -0.916860
  6  2.561182  2.147765 -0.706860
  6  3.153563  0.935240 -0.268439
  6  4.557738  0.965114  0.038797
  6  5.324006  2.153383 -0.192256
  6  0.137930 -1.259929  0.342132
  6 -1.170842 -1.492946 -0.053686
  7 -2.064467 -2.261221  0.803500
  6 -2.053862 -3.704741  0.774525
  6 -1.638875 -4.300946 -0.578822
  6 -1.623754 -5.832829 -0.527290
  6 -0.677770 -6.345768  0.562484
  6 -1.053677 -5.775128  1.936063
  6 -1.086953 -4.240711  1.926989
 16 -1.666522 -3.651286  3.546933
  6 -1.866929 -1.869575  3.243293
  6 -2.551323 -1.229441  4.458815
  6 -2.847574  0.257854  4.227575
  6 -3.688875  0.463405  2.964555
  6 -3.002593 -0.135275  1.731520
  6 -2.732354 -1.635411  1.920642
  6 -1.694819 -0.983622 -1.241676
  1 -1.200116  0.181435 -2.977672
  1  1.111034  0.602905 -2.315392
  1  2.551957 -2.305703  0.703091
  1  4.914958 -2.220655  1.275576
  1  7.073989 -1.012825  1.278646
  1  8.402105  1.015677  0.823302
  1  8.528740  3.368898  0.046971
  1  7.417283  5.388144 -0.847435
  1  4.986593  5.386458 -1.310735
  1  2.793843  4.198638 -1.252588
  1  1.491079  2.188869 -0.861172
  1  0.500194 -1.642019  1.287034
  1 -3.057181 -4.050571  1.040408
  1 -0.651946 -3.925022 -0.855698
  1 -2.334947 -3.947741 -1.342542
  1 -1.321735 -6.217574 -1.504268
  1 -2.637211 -6.211212 -0.343578
  1  0.352258 -6.064074  0.317132
  1 -0.701665 -7.437466  0.608545
  1 -0.338843 -6.106602  2.693700
  1 -2.037165 -6.154347  2.236516
  1 -0.095891 -3.836726  1.723080
  1 -0.892162 -1.414715  3.069394
  1 -1.906275 -1.356831  5.332076
  1 -3.484827 -1.763844  4.669397
  1 -1.905643  0.809796  4.135750
  1 -3.363662  0.661386  5.102367
  1 -3.860557  1.528463  2.791956
  1 -4.677291  0.006918  3.101605
  1 -2.061577  0.383151  1.537477
  1 -3.623389 -0.003227  0.842994
  1 -3.675564 -2.165466  2.083344
  1 -2.720606 -1.171232 -1.531021
 nber atoms=          69
  Total Energy, E(TD-HF/TD-DFT) =  -1768.73620186                               
  
          32          49 "  -1768.73620186"
After scan for Atom:   Atom  AN      X      Y      Z        X      Y      Z        X      Y      Z   
After scan for Atom:   Atom  AN      X      Y      Z        X      Y      Z        X      Y      Z   
After scan for Atom:   Atom  AN      X      Y      Z        X      Y      Z        X      Y      Z   
After scan for Atom:   Atom  AN      X      Y      Z        X      Y      Z        X      Y      Z   
After scan for Atom:   Atom  AN      X      Y      Z        X      Y      Z        X      Y      Z   
After scan for Atom:   Atom  AN      X      Y      Z        X      Y      Z        X      Y      Z   
After scan for Atom:   Atom  AN      X      Y      Z        X      Y      Z        X      Y      Z   
After scan for Atom:   Atom  AN      X      Y      Z        X      Y      Z        X      Y      Z   
After scan for Atom:   Atom  AN      X      Y      Z        X      Y      Z        X      Y      Z   
After scan for Atom:   Atom  AN      X      Y      Z        X      Y      Z        X      Y      Z   
After scan for Atom:   Atom  AN      X      Y      Z        X      Y      Z        X      Y      Z   
After scan for Atom:   Atom  AN      X      Y      Z        X      Y      Z        X      Y      Z   
After scan for Atom:   Atom  AN      X      Y      Z        X      Y      Z        X      Y      Z   
After scan for Atom:   Atom  AN      X      Y      Z        X      Y      Z        X      Y      Z   
After scan for Atom:   Atom  AN      X      Y      Z        X      Y      Z        X      Y      Z   
After scan for Atom:   Atom  AN      X      Y      Z        X      Y      Z        X      Y      Z   
After scan for Atom:   Atom  AN      X      Y      Z        X      Y      Z        X      Y      Z   
After scan for Atom:   Atom  AN      X      Y      Z        X      Y      Z        X      Y      Z   
After scan for Atom:   Atom  AN      X      Y      Z        X      Y      Z        X      Y      Z   
After scan for Atom:   Atom  AN      X      Y      Z        X      Y      Z        X      Y      Z   
After scan for Atom:   Atom  AN      X      Y      Z        X      Y      Z        X      Y      Z   
After scan for Atom:   Atom  AN      X      Y      Z        X      Y      Z        X      Y      Z   
After scan for Atom:   Atom  AN      X      Y      Z        X      Y      Z        X      Y      Z   
After scan for Atom:   Atom  AN      X      Y      Z        X      Y      Z        X      Y      Z   
After scan for Atom:   Atom  AN      X      Y      Z        X      Y      Z        X      Y      Z   
After scan for Atom:   Atom  AN      X      Y      Z        X      Y      Z        X      Y      Z   
After scan for Atom:   Atom  AN      X      Y      Z        X      Y      Z        X      Y      Z   
After scan for Atom:   Atom  AN      X      Y      Z        X      Y      Z        X      Y      Z   
After scan for Atom:   Atom  AN      X      Y      Z        X      Y      Z        X      Y      Z   
After scan for Atom:   Atom  AN      X      Y      Z        X      Y      Z        X      Y      Z   
After scan for Atom:   Atom  AN      X      Y      Z        X      Y      Z        X      Y      Z   
After scan for Atom:   Atom  AN      X      Y      Z        X      Y      Z        X      Y      Z   
After scan for Atom:   Atom  AN      X      Y      Z        X      Y      Z        X      Y      Z   
After scan for Atom:   Atom  AN      X      Y      Z        X      Y      Z        X      Y      Z   
After scan for Atom:   Atom  AN      X      Y      Z        X      Y      Z        X      Y      Z   
After scan for Atom:   Atom  AN      X      Y      Z        X      Y      Z        X      Y      Z   
After scan for Atom:   Atom  AN      X      Y      Z        X      Y      Z        X      Y      Z   
After scan for Atom:   Atom  AN      X      Y      Z        X      Y      Z        X      Y      Z   
After scan for Atom:   Atom  AN      X      Y      Z        X      Y      Z        X      Y      Z   
After scan for Atom:   Atom  AN      X      Y      Z        X      Y      Z        X      Y      Z   
After scan for Atom:   Atom  AN      X      Y      Z        X      Y      Z        X      Y      Z   
After scan for Atom:   Atom  AN      X      Y      Z        X      Y      Z        X      Y      Z   
After scan for Atom:   Atom  AN      X      Y      Z        X      Y      Z        X      Y      Z   
After scan for Atom:   Atom  AN      X      Y      Z        X      Y      Z        X      Y      Z   
After scan for Atom:   Atom  AN      X      Y      Z        X      Y      Z        X      Y      Z   
After scan for Atom:   Atom  AN      X      Y      Z        X      Y      Z        X      Y      Z   
After scan for Atom:   Atom  AN      X      Y      Z        X      Y      Z        X      Y      Z   
After scan for Atom:   Atom  AN      X      Y      Z        X      Y      Z        X      Y      Z   
After scan for Atom:   Atom  AN      X      Y      Z        X      Y      Z        X      Y      Z   
After scan for Atom:   Atom  AN      X      Y      Z        X      Y      Z        X      Y      Z   
After scan for Atom:   Atom  AN      X      Y      Z        X      Y      Z        X      Y      Z   
After scan for Atom:   Atom  AN      X      Y      Z        X      Y      Z        X      Y      Z   
After scan for Atom:   Atom  AN      X      Y      Z        X      Y      Z        X      Y      Z   
After scan for Atom:   Atom  AN      X      Y      Z        X      Y      Z        X      Y      Z   
After scan for Atom:   Atom  AN      X      Y      Z        X      Y      Z        X      Y      Z   
After scan for Atom:   Atom  AN      X      Y      Z        X      Y      Z        X      Y      Z   
After scan for Atom:   Atom  AN      X      Y      Z        X      Y      Z        X      Y      Z   
After scan for Atom:   Atom  AN      X      Y      Z        X      Y      Z        X      Y      Z   
After scan for Atom:   Atom  AN      X      Y      Z        X      Y      Z        X      Y      Z   
After scan for Atom:   Atom  AN      X      Y      Z        X      Y      Z        X      Y      Z   
After scan for Atom:   Atom  AN      X      Y      Z        X      Y      Z        X      Y      Z   
After scan for Atom:   Atom  AN      X      Y      Z        X      Y      Z        X      Y      Z   
After scan for Atom:   Atom  AN      X      Y      Z        X      Y      Z        X      Y      Z   
After scan for Atom:   Atom  AN      X      Y      Z        X      Y      Z        X      Y      Z   
After scan for Atom:   Atom  AN      X      Y      Z        X      Y      Z        X      Y      Z   
After scan for Atom:   Atom  AN      X      Y      Z        X      Y      Z        X      Y      Z   
After scan for Atom:   Atom  AN      X      Y      Z        X      Y      Z        X      Y      Z   
 g94    frequencies=
     0.0    0.0    0.0    0.0    0.0    0.0   16.2   19.8   28.9   46.6
    61.2   64.5   81.7   97.2  107.2  122.3  146.0  166.7  169.5  180.5
   210.2  218.6  237.3  256.3  266.8  268.2  280.9  303.6  318.6  321.2
   323.9  335.2  351.0  361.5  367.0  395.0  412.4  415.7  428.9  435.5
   451.7  459.0  479.7  497.3  498.1  499.7  510.8  521.4  527.7  541.1
   554.1  568.5  584.0  598.4  608.2  612.1  672.8  687.8  691.6  696.7
   707.8  721.2  728.9  731.1  740.8  752.2  753.3  756.8  770.7  786.0
   789.6  796.7  824.5  825.4  833.3  841.5  850.4  856.2  860.9  867.9
   871.1  872.6  876.6  887.5  893.3  916.7  923.6  934.2  941.5  952.4
   956.7  961.4  978.7  983.9  988.8  993.1 1000.8 1010.6 1030.1 1049.0
  1063.5 1069.7 1086.6 1087.6 1091.0 1102.3 1111.6 1119.5 1125.9 1132.7
  1134.6 1152.2 1156.4 1158.5 1177.0 1187.0 1194.2 1202.3 1212.8 1213.7
  1219.4 1223.6 1232.3 1243.5 1249.2 1260.4 1274.5 1277.3 1283.1 1288.6
  1299.1 1304.8 1306.8 1319.7 1321.0 1326.9 1331.3 1338.6 1340.8 1351.9
  1353.6 1369.2 1372.3 1373.9 1376.9 1379.2 1381.7 1388.0 1389.3 1389.8
  1392.6 1418.6 1435.2 1440.1 1445.2 1469.2 1487.9 1488.6 1490.3 1490.6
  1495.0 1495.6 1496.2 1502.1 1504.8 1505.6 1523.9 1537.5 1555.4 1575.8
  1582.9 1600.0 1618.6 1639.9 3010.9 3011.2 3023.1 3023.3 3031.5 3032.4
  3040.8 3048.9 3061.1 3062.0 3074.8 3074.9 3077.8 3078.4 3080.4 3081.0
  3103.8 3104.9 3109.0 3109.1 3135.3 3139.6 3141.3 3147.0 3158.1 3160.9
  3163.3 3166.2 3170.7 3187.0 3193.1 3194.8 3208.5
 g94    symmetries=
                                                 A      A      A      A
       A      A      A      A      A      A      A      A      A      A
       A      A      A      A      A      A      A      A      A      A
       A      A      A      A      A      A      A      A      A      A
       A      A      A      A      A      A      A      A      A      A
       A      A      A      A      A      A      A      A      A      A
       A      A      A      A      A      A      A      A      A      A
       A      A      A      A      A      A      A      A      A      A
       A      A      A      A      A      A      A      A      A      A
       A      A      A      A      A      A      A      A      A      A
       A      A      A      A      A      A      A      A      A      A
       A      A      A      A      A      A      A      A      A      A
       A      A      A      A      A      A      A      A      A      A
       A      A      A      A      A      A      A      A      A      A
       A      A      A      A      A      A      A      A      A      A
       A      A      A      A      A      A      A      A      A      A
       A      A      A      A      A      A      A      A      A      A
       A      A      A      A      A      A      A      A      A      A
       A      A      A      A      A      A      A      A      A      A
       A      A      A      A      A      A      A      A      A      A
       A      A      A      A      A      A      A
 atomic masses:
 12.0000 12.0000 12.0000 12.0000 12.0000 12.0000 12.0000 12.0000 12.0000 12.0000
 12.0000 12.0000 12.0000 12.0000 12.0000 12.0000 12.0000 12.0000 12.0000 12.0000
 12.0000 14.0031 12.0000 12.0000 12.0000 12.0000 12.0000 12.0000 31.9721 12.0000
 12.0000 12.0000 12.0000 12.0000 12.0000 12.0000  1.0078  1.0078  1.0078  1.0078
  1.0078  1.0078  1.0078  1.0078  1.0078  1.0078  1.0078  1.0078  1.0078  1.0078
  1.0078  1.0078  1.0078  1.0078  1.0078  1.0078  1.0078  1.0078  1.0078  1.0078
  1.0078  1.0078  1.0078  1.0078  1.0078  1.0078  1.0078  1.0078  1.0078
 looking for force constants in 
 ./phenothiazine-pyrene_1_C0S2.fchk                                             
  
 Cartesian Force Constants                  R   N=       21528                  
  
 n3=         207       21528
 g94-fc frequencies=
    -1.7   -0.0    0.0    0.0    0.6    2.0   16.2   19.8   28.9   46.6
    61.2   64.5   81.7   97.2  107.2  122.3  146.0  166.7  169.5  180.5
   210.2  218.6  237.3  256.3  266.8  268.2  280.9  303.6  318.6  321.3
   324.0  335.2  351.1  361.5  367.0  395.0  412.4  415.7  428.9  435.5
   451.7  459.0  479.7  497.3  498.1  499.7  510.8  521.4  527.7  541.1
   554.2  568.6  584.0  598.4  608.2  612.1  672.8  687.8  691.7  696.7
[...]
   -1.   -1.   -0.   -1.   -2.   -3.    2.    3.   -0.   -0.   -1.    0.    1.   -3.    0.   -0.   -0.    1.   -0.   -0.
    3.   -1.    1.   -5.    1.   -0.    0.   -0.    4.   -1.    0.    1.    0.   -1.    0.    0.    2.    3.   -0.    0.
    1.    2.    0.    0.    1.   -0.   -1.   -0.    1.   -1.    1.    0.    0.    0.    1.   -1.    0.   -2.    1.   -0.
   -0.   -0.   -2.   -1.   -1.    0.   -0.   -0.   -3.    0.    0.   -2.    0.   -0.    0.   -0.    0.   -1.    5.    1.
   -0.    1.    0.    2.   -0.   -0.    1.    1.    2.    0.    2.   -2.    3.    1.    1.    1.    0.    0.    1.    0.
   -0.    0.   -0.   -1.   -0.    0.    0.   -0.    0.    2.   -0.    1.    3.   -0.    0.   -1.   -0.    0.   -0.   -0.
    0.    0.    0.    0.   -0.   -0.   -0.   -0.    0.    0.   -0.    0.   -0.    0.    0.   -0.   -0.    0.   -0.   -0.
    0.   -0.    0.   -0.   -0.    0.    0.
 p2=
   -0.    0.    0.   -0.   -0.    0.  279. -264.  782. -545. -139.   -0.   36.  -30.   66.  -17.  -13.   11.   17.   21.
  -16.   19.  -17.   -0.   -4.   -7.    2.  -17.   -0.   -1.   -0.    6.    0.  -11.    3.   -0.   -9.  -10.   -0.   -3.
    2.   -3.   -4.   -1.    1.   -0.    1.    1.    4.    5.   -1.    3.    2.  -11.    7.   -3.    0.   -3.   -1.    1.
    0.    1.    0.    0.    0.   -0.   -0.   -1.   -1.   -4.   -0.   -1.    0.   -0.   -0.   -0.   -0.   -0.    0.   -1.
    1.    2.    0.   -0.    0.   -0.   -0.   -0.   -0.   -0.   -1.   -0.   -3.   -1.   -2.    0.    1.   -2.   -2.    0.
   -2.   -2.   -0.    1.   -1.    0.    0.   -0.   -1.    0.   -0.   -0.    1.   -0.    1.    0.    0.   -1.   -0.    0.
   -0.   -0.    0.   -0.   -1.    0.    0.   -1.    0.   -0.    1.    1.    0.    0.   -1.    1.   -1.    1.    2.    0.
    0.   -0.   -0.    1.   -1.    0.    1.    0.    0.   -1.    0.    2.    0.   -1.   -2.   -0.    0.    0.   -0.   -1.
    0.    0.    0.   -0.   -0.    0.   -0.   -0.    1.   -1.   -1.    1.   -1.    1.   -0.    0.   -0.   -0.    0.   -0.
   -0.   -0.    0.   -0.    0.    0.   -0.   -0.   -0.    0.    0.    0.    0.   -0.   -0.   -0.    0.    0.    0.   -0.
   -0.    0.    0.    0.   -0.    0.   -0.

 Displacement: in terms of nc of 1 THEN of nc of 2

   1     freq=    -0. Q=  0.000 lam=    -0.0     freq=    -0. Q=  0.000 lam=    -0.0
   2     freq=    -0. Q=  0.000 lam=    -0.0     freq=    -0. Q=  0.000 lam=    -0.0
   3     freq=    -0. Q= -0.000 lam=    -0.0     freq=    -0. Q= -0.000 lam=    -0.0
   4     freq=     0. Q=  0.000 lam=     0.0     freq=     0. Q=  0.000 lam=     0.0
   5     freq=     0. Q= -0.000 lam=     0.0     freq=     0. Q= -0.000 lam=     0.0
   6     freq=     0. Q=  0.000 lam=     0.0     freq=     0. Q=  0.000 lam=     0.0
   7     freq=    15. Q=  2.460 lam=    45.4     freq=    16. Q=  4.524 lam=   165.3
   8     freq=    20. Q=  6.844 lam=   475.4     freq=    20. Q=  4.747 lam=   223.6
   9     freq=    26. Q= 18.505 lam=  4483.2     freq=    29. Q= 16.952 lam=  4154.4
  10     freq=    37. Q= -4.695 lam=   411.2     freq=    47. Q=-15.008 lam=  5250.3
  11     freq=    60. Q= -5.471 lam=   893.2     freq=    61. Q= -4.386 lam=   588.1
  12     freq=    74. Q=  5.252 lam=  1016.4     freq=    65. Q=  0.007 lam=     0.0
  13     freq=    79. Q= -0.358 lam=     5.1     freq=    82. Q= -1.300 lam=    69.1
  14     freq=    91. Q=  0.680 lam=    21.0     freq=    97. Q=  1.182 lam=    67.8
  15     freq=   105. Q= -1.749 lam=   160.1     freq=   107. Q= -2.745 lam=   404.0
  16     freq=   121. Q=  0.005 lam=     0.0     freq=   122. Q=  0.747 lam=    34.1
  17     freq=   146. Q=  0.266 lam=     5.2     freq=   146. Q=  0.630 lam=    29.0
  18     freq=   155. Q= -2.275 lam=   401.6     freq=   167. Q= -0.589 lam=    28.9
  19     freq=   169. Q= -0.054 lam=     0.2     freq=   170. Q= -0.877 lam=    65.2
  20     freq=   184. Q= -0.017 lam=     0.0     freq=   180. Q= -1.145 lam=   118.2
  21     freq=   204. Q=  0.170 lam=     3.0     freq=   210. Q=  0.939 lam=    92.7
  22     freq=   214. Q= -0.659 lam=    46.6     freq=   219. Q= -1.118 lam=   136.6
  23     freq=   222. Q=  4.134 lam=  1892.9     freq=   237. Q=  1.062 lam=   133.9
  24     freq=   253. Q=  0.281 lam=    10.0     freq=   256. Q=  0.023 lam=     0.1
  25     freq=   258. Q=  0.345 lam=    15.3     freq=   267. Q=  0.276 lam=    10.1
  26     freq=   271. Q= -0.582 lam=    46.0     freq=   268. Q= -0.432 lam=    25.0
  27     freq=   278. Q=  0.142 lam=     2.8     freq=   281. Q=  0.163 lam=     3.7
  28     freq=   305. Q= -0.562 lam=    48.1     freq=   304. Q= -1.187 lam=   213.8
  29     freq=   317. Q=  0.523 lam=    43.3     freq=   319. Q=  0.031 lam=     0.2
  30     freq=   320. Q= -0.043 lam=     0.3     freq=   321. Q= -0.063 lam=     0.6
  31     freq=   338. Q= -0.177 lam=     5.3     freq=   324. Q= -0.006 lam=     0.0
  32     freq=   340. Q=  0.035 lam=     0.2     freq=   335. Q=  0.476 lam=    38.0
  33     freq=   350. Q= -0.030 lam=     0.2     freq=   351. Q= -0.016 lam=     0.0
  34     freq=   356. Q=  1.533 lam=   418.3     freq=   362. Q=  0.837 lam=   126.7
  35     freq=   376. Q= -0.076 lam=     1.1     freq=   367. Q= -0.266 lam=    13.0
  36     freq=   394. Q= -0.023 lam=     0.1     freq=   395. Q= -0.003 lam=     0.0
  37     freq=   414. Q= -0.075 lam=     1.2     freq=   412. Q= -0.699 lam=   100.8
  38     freq=   420. Q= -1.460 lam=   447.8     freq=   416. Q= -0.841 lam=   147.1
  39     freq=   436. Q=  0.413 lam=    37.1     freq=   429. Q=  0.031 lam=     0.2
  40     freq=   444. Q= -0.111 lam=     2.7     freq=   436. Q= -0.269 lam=    15.8
  41     freq=   459. Q=  0.948 lam=   206.4     freq=   452. Q=  0.147 lam=     4.9
  42     freq=   463. Q= -1.055 lam=   257.9     freq=   459. Q= -0.287 lam=    18.9
  43     freq=   469. Q=  0.018 lam=     0.1     freq=   480. Q=  0.364 lam=    31.7
  44     freq=   479. Q=  0.397 lam=    37.7     freq=   497. Q=  0.081 lam=     1.6
  45     freq=   491. Q=  0.745 lam=   136.0     freq=   498. Q=  0.057 lam=     0.8
  46     freq=   498. Q=  0.838 lam=   174.7     freq=   500. Q=  0.040 lam=     0.4
  47     freq=   500. Q=  0.596 lam=    88.8     freq=   511. Q=  0.134 lam=     4.6
  48     freq=   515. Q=  0.605 lam=    94.2     freq=   521. Q=  0.106 lam=     2.9
  49     freq=   521. Q= -2.505 lam=  1635.9     freq=   528. Q= -0.370 lam=    36.0
  50     freq=   528. Q= -0.993 lam=   260.3     freq=   541. Q= -0.423 lam=    48.4
  51     freq=   543. Q= -0.638 lam=   110.7     freq=   554. Q= -0.105 lam=     3.0
  52     freq=   555. Q=  0.148 lam=     6.1     freq=   569. Q=  0.297 lam=    25.0
  53     freq=   575. Q=  0.610 lam=   106.8     freq=   584. Q=  0.216 lam=    13.7
  54     freq=   607. Q=  0.287 lam=    25.0     freq=   598. Q=  1.109 lam=   368.0
  55     freq=   611. Q=  0.177 lam=     9.6     freq=   608. Q=  0.673 lam=   137.7
  56     freq=   635. Q=  1.022 lam=   331.6     freq=   612. Q=  0.314 lam=    30.2
  57     freq=   656. Q=  0.021 lam=     0.1     freq=   673. Q=  0.024 lam=     0.2
  58     freq=   674. Q=  0.033 lam=     0.4     freq=   688. Q=  0.308 lam=    32.6
  59     freq=   689. Q= -0.133 lam=     6.1     freq=   692. Q= -0.130 lam=     5.9
  60     freq=   698. Q= -0.793 lam=   219.3     freq=   697. Q= -0.056 lam=     1.1
  61     freq=   710. Q= -0.160 lam=     9.1     freq=   708. Q= -0.043 lam=     0.6
  62     freq=   715. Q= -0.094 lam=     3.2     freq=   721. Q= -0.087 lam=     2.7
  63     freq=   737. Q= -0.002 lam=     0.0     freq=   729. Q= -0.029 lam=     0.3
  64     freq=   755. Q= -0.152 lam=     8.7     freq=   731. Q= -0.010 lam=     0.0
  65     freq=   758. Q= -0.214 lam=    17.3     freq=   741. Q= -0.038 lam=     0.5
  66     freq=   771. Q= -0.307 lam=    36.4     freq=   752. Q= -0.037 lam=     0.5
  67     freq=   774. Q=  0.203 lam=    16.0     freq=   753. Q=  0.040 lam=     0.6
  68     freq=   797. Q=  0.375 lam=    56.0     freq=   757. Q=  0.059 lam=     1.3
  69     freq=   800. Q= -0.030 lam=     0.4     freq=   771. Q= -0.071 lam=     2.0
  70     freq=   804. Q= -0.037 lam=     0.5     freq=   786. Q= -0.442 lam=    76.7
  71     freq=   817. Q= -0.085 lam=     2.9     freq=   790. Q= -0.031 lam=     0.4
  72     freq=   818. Q=  0.000 lam=     0.0     freq=   797. Q=  0.075 lam=     2.2
  73     freq=   819. Q=  0.066 lam=     1.8     freq=   825. Q=  0.024 lam=     0.2
  74     freq=   829. Q= -0.344 lam=    49.0     freq=   825. Q= -0.023 lam=     0.2
  75     freq=   836. Q=  0.022 lam=     0.2     freq=   833. Q=  0.004 lam=     0.0
  76     freq=   850. Q= -0.010 lam=     0.0     freq=   842. Q= -0.007 lam=     0.0
  77     freq=   859. Q= -0.015 lam=     0.1     freq=   850. Q= -0.007 lam=     0.0
  78     freq=   868. Q=  0.061 lam=     1.6     freq=   856. Q=  0.001 lam=     0.0
  79     freq=   869. Q= -0.005 lam=     0.0     freq=   861. Q= -0.003 lam=     0.0
  80     freq=   877. Q= -0.003 lam=     0.0     freq=   868. Q= -0.127 lam=     7.0
  81     freq=   896. Q=  0.336 lam=    50.7     freq=   871. Q=  0.085 lam=     3.2
  82     freq=   898. Q= -0.073 lam=     2.4     freq=   873. Q= -0.256 lam=    28.5
  83     freq=   910. Q=  0.069 lam=     2.2     freq=   877. Q=  0.007 lam=     0.0
  84     freq=   916. Q= -0.606 lam=   168.4     freq=   887. Q= -0.015 lam=     0.1
  85     freq=   921. Q=  0.106 lam=     5.2     freq=   893. Q=  0.037 lam=     0.6
  86     freq=   927. Q= -0.005 lam=     0.0     freq=   917. Q= -0.017 lam=     0.1
  87     freq=   947. Q=  0.003 lam=     0.0     freq=   924. Q=  0.007 lam=     0.0
  88     freq=   950. Q= -0.044 lam=     0.9     freq=   934. Q= -0.033 lam=     0.5
  89     freq=   954. Q=  0.485 lam=   112.0     freq=   942. Q=  0.007 lam=     0.0
  90     freq=   959. Q= -0.160 lam=    12.3     freq=   952. Q= -0.008 lam=     0.0
  91     freq=   969. Q=  0.001 lam=     0.0     freq=   957. Q=  0.065 lam=     2.0
  92     freq=   980. Q=  0.093 lam=     4.3     freq=   961. Q=  0.006 lam=     0.0
  93     freq=   982. Q=  0.057 lam=     1.6     freq=   979. Q=  0.342 lam=    57.4
  94     freq=   986. Q= -0.156 lam=    11.9     freq=   984. Q= -0.126 lam=     7.8
  95     freq=   987. Q=  0.041 lam=     0.8     freq=   989. Q=  0.313 lam=    48.5
  96     freq=   997. Q=  0.025 lam=     0.3     freq=   993. Q=  0.008 lam=     0.0
  97     freq=  1028. Q=  0.274 lam=    38.7     freq=  1001. Q=  0.100 lam=     5.0
  98     freq=  1041. Q=  0.423 lam=    93.1     freq=  1011. Q=  0.208 lam=    21.8
  99     freq=  1052. Q= -0.022 lam=     0.2     freq=  1030. Q= -0.210 lam=    22.6
 100     freq=  1065. Q=  0.004 lam=     0.0     freq=  1049. Q=  0.000 lam=     0.0
 101     freq=  1066. Q=  0.070 lam=     2.6     freq=  1063. Q=  0.220 lam=    25.7
 102     freq=  1083. Q=  0.256 lam=    35.4     freq=  1070. Q=  0.208 lam=    23.2
 103     freq=  1088. Q=  0.035 lam=     0.7     freq=  1087. Q=  0.000 lam=     0.0
 104     freq=  1088. Q=  0.000 lam=     0.0     freq=  1088. Q=  0.080 lam=     3.5
 105     freq=  1096. Q=  0.106 lam=     6.1     freq=  1091. Q=  0.093 lam=     4.7
 106     freq=  1097. Q= -0.032 lam=     0.5     freq=  1102. Q= -0.048 lam=     1.3
 107     freq=  1106. Q= -0.114 lam=     7.2     freq=  1112. Q= -0.010 lam=     0.1
 108     freq=  1119. Q= -0.016 lam=     0.1     freq=  1119. Q= -0.016 lam=     0.1
 109     freq=  1129. Q=  0.129 lam=     9.4     freq=  1126. Q=  0.082 lam=     3.8
 110     freq=  1136. Q= -0.095 lam=     5.2     freq=  1133. Q= -0.013 lam=     0.1
 111     freq=  1137. Q=  0.186 lam=    19.8     freq=  1135. Q=  0.016 lam=     0.1
 112     freq=  1149. Q=  0.034 lam=     0.7     freq=  1152. Q=  0.007 lam=     0.0
 113     freq=  1150. Q=  0.031 lam=     0.5     freq=  1156. Q=  0.082 lam=     3.9
 114     freq=  1153. Q=  0.050 lam=     1.4     freq=  1158. Q=  0.035 lam=     0.7
 115     freq=  1165. Q=  0.121 lam=     8.6     freq=  1177. Q=  0.100 lam=     5.9
 116     freq=  1188. Q= -0.149 lam=    13.1     freq=  1187. Q= -0.013 lam=     0.1
 117     freq=  1196. Q=  0.007 lam=     0.0     freq=  1194. Q=  0.007 lam=     0.0
 118     freq=  1208. Q= -0.236 lam=    33.6     freq=  1202. Q= -0.080 lam=     3.8
 119     freq=  1218. Q=  0.105 lam=     6.7     freq=  1213. Q=  0.035 lam=     0.8
 120     freq=  1224. Q= -0.007 lam=     0.0     freq=  1214. Q= -0.008 lam=     0.0
 121     freq=  1224. Q= -0.031 lam=     0.6     freq=  1219. Q= -0.022 lam=     0.3
 122     freq=  1231. Q= -0.001 lam=     0.0     freq=  1224. Q= -0.020 lam=     0.2
 123     freq=  1241. Q= -0.271 lam=    45.7     freq=  1232. Q= -0.032 lam=     0.6
 124     freq=  1243. Q= -0.196 lam=    23.9     freq=  1244. Q= -0.006 lam=     0.0
 125     freq=  1249. Q= -0.122 lam=     9.3     freq=  1249. Q= -0.148 lam=    13.8
 126     freq=  1258. Q=  0.051 lam=     1.7     freq=  1260. Q=  0.056 lam=     2.0
 127     freq=  1265. Q= -0.010 lam=     0.1     freq=  1275. Q= -0.004 lam=     0.0
 128     freq=  1272. Q= -0.024 lam=     0.4     freq=  1277. Q= -0.075 lam=     3.6
 129     freq=  1279. Q= -0.499 lam=   159.3     freq=  1283. Q= -0.023 lam=     0.3
 130     freq=  1292. Q=  0.002 lam=     0.0     freq=  1289. Q=  0.011 lam=     0.1
 131     freq=  1298. Q=  0.033 lam=     0.7     freq=  1299. Q=  0.184 lam=    21.9
 132     freq=  1304. Q= -0.263 lam=    45.3     freq=  1305. Q= -0.192 lam=    24.1
 133     freq=  1315. Q=  0.057 lam=     2.1     freq=  1307. Q=  0.014 lam=     0.1
 134     freq=  1316. Q= -0.003 lam=     0.0     freq=  1320. Q= -0.008 lam=     0.0
 135     freq=  1324. Q=  0.009 lam=     0.0     freq=  1321. Q=  0.185 lam=    22.7
 136     freq=  1326. Q= -0.015 lam=     0.1     freq=  1327. Q= -0.173 lam=    19.9
 137     freq=  1333. Q=  0.033 lam=     0.7     freq=  1331. Q=  0.210 lam=    29.5
 138     freq=  1341. Q= -0.195 lam=    25.6     freq=  1339. Q= -0.140 lam=    13.2
 139     freq=  1351. Q=  0.754 lam=   383.8     freq=  1341. Q=  0.286 lam=    54.8
 140     freq=  1357. Q=  0.118 lam=     9.5     freq=  1352. Q=  0.012 lam=     0.1
 141     freq=  1359. Q= -0.030 lam=     0.6     freq=  1354. Q= -0.056 lam=     2.1
 142     freq=  1364. Q=  0.215 lam=    31.6     freq=  1369. Q=  0.037 lam=     0.9
 143     freq=  1369. Q=  0.006 lam=     0.0     freq=  1372. Q=  0.007 lam=     0.0
 144     freq=  1374. Q=  0.266 lam=    48.7     freq=  1374. Q=  0.130 lam=    11.7
 145     freq=  1375. Q= -0.004 lam=     0.0     freq=  1377. Q= -0.152 lam=    16.0
 146     freq=  1377. Q= -0.011 lam=     0.1     freq=  1379. Q= -0.005 lam=     0.0
 147     freq=  1380. Q=  0.196 lam=    26.5     freq=  1382. Q=  0.086 lam=     5.1
 148     freq=  1382. Q=  0.124 lam=    10.5     freq=  1388. Q=  0.016 lam=     0.2
 149     freq=  1387. Q=  0.239 lam=    39.6     freq=  1389. Q=  0.065 lam=     3.0
 150     freq=  1390. Q=  0.005 lam=     0.0     freq=  1390. Q=  0.125 lam=    10.9
 151     freq=  1396. Q=  0.263 lam=    48.2     freq=  1393. Q=  0.002 lam=     0.0
 152     freq=  1405. Q= -0.243 lam=    41.5     freq=  1419. Q= -0.360 lam=    92.1
 153     freq=  1433. Q=  0.409 lam=   119.9     freq=  1435. Q=  0.015 lam=     0.2
 154     freq=  1440. Q=  0.078 lam=     4.3     freq=  1440. Q=  0.132 lam=    12.6
 155     freq=  1442. Q=  0.155 lam=    17.3     freq=  1445. Q=  0.248 lam=    44.5
 156     freq=  1459. Q=  0.145 lam=    15.4     freq=  1469. Q=  0.008 lam=     0.0
 157     freq=  1486. Q=  0.025 lam=     0.5     freq=  1488. Q=  0.002 lam=     0.0
 158     freq=  1488. Q=  0.003 lam=     0.0     freq=  1489. Q=  0.035 lam=     0.9
 159     freq=  1489. Q=  0.090 lam=     6.0     freq=  1490. Q=  0.062 lam=     2.8
 160     freq=  1489. Q=  0.005 lam=     0.0     freq=  1491. Q=  0.119 lam=    10.6
 161     freq=  1490. Q= -0.029 lam=     0.6     freq=  1495. Q= -0.056 lam=     2.3
 162     freq=  1495. Q=  0.014 lam=     0.1     freq=  1496. Q=  0.003 lam=     0.0
 163     freq=  1495. Q= -0.019 lam=     0.3     freq=  1496. Q= -0.027 lam=     0.5
 164     freq=  1501. Q= -0.169 lam=    21.6     freq=  1502. Q= -0.011 lam=     0.1
 165     freq=  1505. Q= -0.001 lam=     0.0     freq=  1505. Q= -0.002 lam=     0.0
 166     freq=  1506. Q=  0.020 lam=     0.3     freq=  1506. Q=  0.070 lam=     3.7
 167     freq=  1520. Q=  0.018 lam=     0.3     freq=  1524. Q=  0.006 lam=     0.0
 168     freq=  1534. Q= -0.043 lam=     1.4     freq=  1538. Q= -0.024 lam=     0.5
 169     freq=  1555. Q=  0.041 lam=     1.3     freq=  1555. Q=  0.195 lam=    29.6
 170     freq=  1561. Q=  0.272 lam=    57.9     freq=  1576. Q=  0.115 lam=    10.5
 171     freq=  1578. Q= -0.041 lam=     1.3     freq=  1583. Q= -0.109 lam=     9.4
 172     freq=  1585. Q=  0.231 lam=    42.1     freq=  1600. Q=  0.187 lam=    28.1
 173     freq=  1614. Q=  0.476 lam=   182.5     freq=  1619. Q=  0.221 lam=    39.6
 174     freq=  1636. Q= -0.075 lam=     4.6     freq=  1640. Q= -0.131 lam=    14.0
 175     freq=  2915. Q=  0.059 lam=     5.2     freq=  3011. Q=  0.003 lam=     0.0
 176     freq=  2920. Q= -0.304 lam=   134.9     freq=  3011. Q= -0.005 lam=     0.0
 177     freq=  3004. Q= -0.012 lam=     0.2     freq=  3023. Q= -0.002 lam=     0.0
 178     freq=  3004. Q=  0.027 lam=     1.1     freq=  3023. Q=  0.008 lam=     0.1
 179     freq=  3009. Q= -0.008 lam=     0.1     freq=  3032. Q= -0.006 lam=     0.1
 180     freq=  3009. Q= -0.010 lam=     0.1     freq=  3032. Q= -0.006 lam=     0.1
 181     freq=  3015. Q=  0.020 lam=     0.6     freq=  3041. Q=  0.004 lam=     0.0
 182     freq=  3015. Q=  0.002 lam=     0.0     freq=  3049. Q=  0.070 lam=     7.4
 183     freq=  3019. Q=  0.011 lam=     0.2     freq=  3061. Q=  0.030 lam=     1.4
 184     freq=  3021. Q=  0.009 lam=     0.1     freq=  3062. Q=  0.052 lam=     4.1
 185     freq=  3029. Q= -0.039 lam=     2.3     freq=  3075. Q= -0.011 lam=     0.2
 186     freq=  3029. Q= -0.021 lam=     0.7     freq=  3075. Q= -0.016 lam=     0.4
 187     freq=  3053. Q= -0.001 lam=     0.0     freq=  3078. Q= -0.023 lam=     0.8
 188     freq=  3053. Q= -0.036 lam=     1.9     freq=  3078. Q= -0.030 lam=     1.4
 189     freq=  3056. Q=  0.001 lam=     0.0     freq=  3080. Q=  0.026 lam=     1.0
 190     freq=  3056. Q=  0.004 lam=     0.0     freq=  3081. Q=  0.031 lam=     1.5
 191     freq=  3065. Q= -0.026 lam=     1.0     freq=  3104. Q= -0.058 lam=     5.2
 192     freq=  3066. Q=  0.006 lam=     0.1     freq=  3105. Q=  0.001 lam=     0.0
 193     freq=  3094. Q= -0.008 lam=     0.1     freq=  3109. Q= -0.009 lam=     0.1
 194     freq=  3095. Q=  0.028 lam=     1.2     freq=  3109. Q=  0.012 lam=     0.2
 195     freq=  3159. Q=  0.018 lam=     0.5     freq=  3135. Q=  0.014 lam=     0.3
 196     freq=  3160. Q= -0.004 lam=     0.0     freq=  3140. Q= -0.003 lam=     0.0
 197     freq=  3161. Q= -0.011 lam=     0.2     freq=  3141. Q= -0.011 lam=     0.2
 198     freq=  3165. Q=  0.006 lam=     0.1     freq=  3147. Q=  0.005 lam=     0.0
 199     freq=  3167. Q= -0.007 lam=     0.1     freq=  3158. Q= -0.006 lam=     0.1
 200     freq=  3171. Q= -0.004 lam=     0.0     freq=  3161. Q= -0.000 lam=     0.0
 201     freq=  3179. Q=  0.012 lam=     0.2     freq=  3163. Q=  0.015 lam=     0.4
 202     freq=  3181. Q= -0.044 lam=     3.1     freq=  3166. Q= -0.001 lam=     0.0
 203     freq=  3185. Q=  0.017 lam=     0.5     freq=  3171. Q=  0.017 lam=     0.5
 204     freq=  3187. Q= -0.021 lam=     0.7     freq=  3187. Q= -0.016 lam=     0.4
 205     freq=  3192. Q= -0.028 lam=     1.2     freq=  3193. Q= -0.031 lam=     1.5
 206     freq=  3196. Q=  0.018 lam=     0.5     freq=  3195. Q=  0.103 lam=    16.9
 207     freq=  3204. Q=  0.007 lam=     0.1     freq=  3208. Q=  0.001 lam=     0.0

 total reorg energy (cm**-1, kcal/mol)=    17099.    13999.     48.89     40.03
 Nber of molecules processed=           2
