 Enter ifcurve (0=recti, 1=orth curvi, 2=apprx curvi, -1 = skip
 And atom ordering flag, 0= never changes, 1= use the first order thenceforth,
  2= deduce it (does read on fail), 3= always read it
 Reading file: 
 ./TT-PDI_6_C0S2.log                                                            
                                          
  Entering Gaussian System, Link 0=g16                                          
  
 Gaussian format, type: g94, g98, g03= F F F
  #P Geom=AllCheck Guess=TCheck SCRF=Check GenChk RB3LYP TD(FC,Read)/6-3    
 energy type= TD      
 Original G94 input coords:
  6  1.086884  1.054936  0.682803
  6  2.290193  0.254139  0.174650
  6  3.511171  1.122608 -0.145352
  7  2.638174 -0.870302  1.101288
  6  2.502909 -2.177569  0.597196
  8  2.119434 -2.386602 -0.543532
  6  2.844656 -3.291052  1.506099
  6  2.724162 -4.607425  1.043861
  6  3.035360 -5.669657  1.867988
  6  3.485268 -5.472958  3.202848
  6  3.814079 -6.572176  4.074731
  6  3.710281 -7.927714  3.657552
  6  4.027934 -8.971284  4.502044
  6  4.466320 -8.720228  5.807924
  6  4.797359 -9.864700  6.680290
  8  4.700908-11.019481  6.307833
  7  5.236763 -9.553476  7.983699
  6  5.570032-10.656633  8.857948
  6  6.902286-10.956598  9.119765
  6  7.220229-12.015390  9.961056
  6  6.216986-12.797153 10.552421
  6  6.559417-13.928690 11.446774
  6  7.620341-13.838732 12.359178
  6  7.944616-14.898940 13.194125
  6  7.216840-16.098897 13.159064
  6  7.553708-17.231316 14.025443
  6  7.359953-18.569019 13.782151
  6  7.809093-19.380708 14.855594
 16  7.864929-21.096358 15.165001
  6  8.610583-20.813112 16.722347
  6  8.808563-19.490607 16.991926
  6  8.350440-18.673739 15.920620
 16  8.297945-16.960707 15.609514
  6  6.147056-16.186119 12.252713
  6  5.831515-15.127826 11.413355
  6  4.880663-12.476578 10.271713
  6  4.557914-11.415604  9.434960
  6  5.376469 -8.248565  8.498887
  8  5.762859 -8.059136  9.637457
  6  5.030737 -7.140933  7.585095
  6  5.149055 -5.824101  8.045929
  6  4.836142 -4.763458  7.221221
  6  4.386645 -4.963372  5.886878
  6  4.057864 -3.864184  5.014866
  6  4.161268 -2.507658  5.430037
  6  3.843417 -1.464678  4.584190
  6  3.405168 -1.718022  3.278790
  6  3.073030 -0.576668  2.399341
  8  3.175279  0.575989  2.793321
  6  3.287108 -3.047650  2.823077
  6  3.612653 -4.137064  3.687151
  6  4.259838 -6.300249  5.403145
  6  4.586521 -7.390224  6.267768
  1  0.779825  1.763979 -0.090874
  1  1.325946  1.610361  1.588766
  1  0.239705  0.394107  0.883823
  1  1.993476 -0.261384 -0.736034
  1  3.849071  1.679948  0.727340
  1  3.244931  1.833527 -0.932318
  1  4.335803  0.508589 -0.516536
  1  2.382431 -4.765249  0.029137
  1  2.930338 -6.671740  1.477015
  1  3.375442 -8.159199  2.656420
  1  3.946671-10.001033  4.178513
  1  7.686538-10.365864  8.662523
  1  8.261660-12.255432 10.139728
  1  8.189462-12.918867 12.428263
  1  8.782118-14.799223 13.875262
  1  6.942982-18.945169 12.858478
  1  8.856027-21.658883 17.345865
  1  9.257220-19.126733 17.905644
  1  5.548512-17.088770 12.217414
  1  5.014312-15.237136 10.709620
  1  4.084113-13.046780 10.734852
  1  3.521877-11.173112  9.232726
  1  5.491097 -5.665687  9.060600
  1  4.939397 -3.760610  7.610538
  1  4.496148 -2.274546  6.430808
  1  3.924475 -0.434622  4.906448
 nber atoms=          79
  Total Energy, E(TD-HF/TD-DFT) =  -2937.83548930                               
  
          32          49 "  -2937.83548930"
After scan for Atom:   Atom  AN      X      Y      Z        X      Y      Z        X      Y      Z   
After scan for Atom:   Atom  AN      X      Y      Z        X      Y      Z        X      Y      Z   
After scan for Atom:   Atom  AN      X      Y      Z        X      Y      Z        X      Y      Z   
After scan for Atom:   Atom  AN      X      Y      Z        X      Y      Z        X      Y      Z   
After scan for Atom:   Atom  AN      X      Y      Z        X      Y      Z        X      Y      Z   
After scan for Atom:   Atom  AN      X      Y      Z        X      Y      Z        X      Y      Z   
After scan for Atom:   Atom  AN      X      Y      Z        X      Y      Z        X      Y      Z   
After scan for Atom:   Atom  AN      X      Y      Z        X      Y      Z        X      Y      Z   
After scan for Atom:   Atom  AN      X      Y      Z        X      Y      Z        X      Y      Z   
After scan for Atom:   Atom  AN      X      Y      Z        X      Y      Z        X      Y      Z   
After scan for Atom:   Atom  AN      X      Y      Z        X      Y      Z        X      Y      Z   
After scan for Atom:   Atom  AN      X      Y      Z        X      Y      Z        X      Y      Z   
After scan for Atom:   Atom  AN      X      Y      Z        X      Y      Z        X      Y      Z   
After scan for Atom:   Atom  AN      X      Y      Z        X      Y      Z        X      Y      Z   
After scan for Atom:   Atom  AN      X      Y      Z        X      Y      Z        X      Y      Z   
After scan for Atom:   Atom  AN      X      Y      Z        X      Y      Z        X      Y      Z   
After scan for Atom:   Atom  AN      X      Y      Z        X      Y      Z        X      Y      Z   
After scan for Atom:   Atom  AN      X      Y      Z        X      Y      Z        X      Y      Z   
After scan for Atom:   Atom  AN      X      Y      Z        X      Y      Z        X      Y      Z   
After scan for Atom:   Atom  AN      X      Y      Z        X      Y      Z        X      Y      Z   
After scan for Atom:   Atom  AN      X      Y      Z        X      Y      Z        X      Y      Z   
After scan for Atom:   Atom  AN      X      Y      Z        X      Y      Z        X      Y      Z   
After scan for Atom:   Atom  AN      X      Y      Z        X      Y      Z        X      Y      Z   
After scan for Atom:   Atom  AN      X      Y      Z        X      Y      Z        X      Y      Z   
After scan for Atom:   Atom  AN      X      Y      Z        X      Y      Z        X      Y      Z   
After scan for Atom:   Atom  AN      X      Y      Z        X      Y      Z        X      Y      Z   
After scan for Atom:   Atom  AN      X      Y      Z        X      Y      Z        X      Y      Z   
After scan for Atom:   Atom  AN      X      Y      Z        X      Y      Z        X      Y      Z   
After scan for Atom:   Atom  AN      X      Y      Z        X      Y      Z        X      Y      Z   
After scan for Atom:   Atom  AN      X      Y      Z        X      Y      Z        X      Y      Z   
After scan for Atom:   Atom  AN      X      Y      Z        X      Y      Z        X      Y      Z   
After scan for Atom:   Atom  AN      X      Y      Z        X      Y      Z        X      Y      Z   
After scan for Atom:   Atom  AN      X      Y      Z        X      Y      Z        X      Y      Z   
After scan for Atom:   Atom  AN      X      Y      Z        X      Y      Z        X      Y      Z   
After scan for Atom:   Atom  AN      X      Y      Z        X      Y      Z        X      Y      Z   
After scan for Atom:   Atom  AN      X      Y      Z        X      Y      Z        X      Y      Z   
After scan for Atom:   Atom  AN      X      Y      Z        X      Y      Z        X      Y      Z   
After scan for Atom:   Atom  AN      X      Y      Z        X      Y      Z        X      Y      Z   
After scan for Atom:   Atom  AN      X      Y      Z        X      Y      Z        X      Y      Z   
After scan for Atom:   Atom  AN      X      Y      Z        X      Y      Z        X      Y      Z   
After scan for Atom:   Atom  AN      X      Y      Z        X      Y      Z        X      Y      Z   
After scan for Atom:   Atom  AN      X      Y      Z        X      Y      Z        X      Y      Z   
After scan for Atom:   Atom  AN      X      Y      Z        X      Y      Z        X      Y      Z   
After scan for Atom:   Atom  AN      X      Y      Z        X      Y      Z        X      Y      Z   
After scan for Atom:   Atom  AN      X      Y      Z        X      Y      Z        X      Y      Z   
After scan for Atom:   Atom  AN      X      Y      Z        X      Y      Z        X      Y      Z   
After scan for Atom:   Atom  AN      X      Y      Z        X      Y      Z        X      Y      Z   
After scan for Atom:   Atom  AN      X      Y      Z        X      Y      Z        X      Y      Z   
After scan for Atom:   Atom  AN      X      Y      Z        X      Y      Z        X      Y      Z   
After scan for Atom:   Atom  AN      X      Y      Z        X      Y      Z        X      Y      Z   
After scan for Atom:   Atom  AN      X      Y      Z        X      Y      Z        X      Y      Z   
After scan for Atom:   Atom  AN      X      Y      Z        X      Y      Z        X      Y      Z   
After scan for Atom:   Atom  AN      X      Y      Z        X      Y      Z        X      Y      Z   
After scan for Atom:   Atom  AN      X      Y      Z        X      Y      Z        X      Y      Z   
After scan for Atom:   Atom  AN      X      Y      Z        X      Y      Z        X      Y      Z   
After scan for Atom:   Atom  AN      X      Y      Z        X      Y      Z        X      Y      Z   
After scan for Atom:   Atom  AN      X      Y      Z        X      Y      Z        X      Y      Z   
After scan for Atom:   Atom  AN      X      Y      Z        X      Y      Z        X      Y      Z   
After scan for Atom:   Atom  AN      X      Y      Z        X      Y      Z        X      Y      Z   
After scan for Atom:   Atom  AN      X      Y      Z        X      Y      Z        X      Y      Z   
After scan for Atom:   Atom  AN      X      Y      Z        X      Y      Z        X      Y      Z   
After scan for Atom:   Atom  AN      X      Y      Z        X      Y      Z        X      Y      Z   
After scan for Atom:   Atom  AN      X      Y      Z        X      Y      Z        X      Y      Z   
After scan for Atom:   Atom  AN      X      Y      Z        X      Y      Z        X      Y      Z   
After scan for Atom:   Atom  AN      X      Y      Z        X      Y      Z        X      Y      Z   
After scan for Atom:   Atom  AN      X      Y      Z        X      Y      Z        X      Y      Z   
After scan for Atom:   Atom  AN      X      Y      Z        X      Y      Z        X      Y      Z   
After scan for Atom:   Atom  AN      X      Y      Z        X      Y      Z        X      Y      Z   
After scan for Atom:   Atom  AN      X      Y      Z        X      Y      Z        X      Y      Z   
After scan for Atom:   Atom  AN      X      Y      Z        X      Y      Z        X      Y      Z   
After scan for Atom:   Atom  AN      X      Y      Z        X      Y      Z        X      Y      Z   
After scan for Atom:   Atom  AN      X      Y      Z        X      Y      Z        X      Y      Z   
After scan for Atom:   Atom  AN      X      Y      Z        X      Y      Z        X      Y      Z   
After scan for Atom:   Atom  AN      X      Y      Z        X      Y      Z        X      Y      Z   
After scan for Atom:   Atom  AN      X      Y      Z        X      Y      Z        X      Y      Z   
After scan for Atom:   Atom  AN      X      Y      Z        X      Y      Z        X      Y      Z   
After scan for Atom:   Atom  AN      X      Y      Z        X      Y      Z        X      Y      Z   
 g94    frequencies=
     0.0    0.0    0.0    0.0    0.0    0.0    6.7    8.2    9.4   22.2
    28.9   31.5   34.3   46.2   54.7   59.4   72.3   76.3   79.9   89.3
    89.8   91.5  102.0  120.8  130.8  167.9  175.9  184.6  188.0  199.8
   202.3  204.4  213.6  222.4  234.9  235.6  255.3  256.6  276.7  294.6
   301.2  302.3  313.2  325.3  352.2  380.3  389.9  392.7  400.6  411.3
   416.1  417.4  423.4  432.0  436.0  438.5  442.2  447.0  451.6  460.5
   468.8  476.2  479.7  486.4  500.9  505.8  506.3  519.6  531.0  546.6
   558.0  573.3  574.3  578.8  581.9  597.8  605.1  615.5  622.5  634.9
   638.2  649.2  652.6  658.3  678.0  680.6  701.0  705.8  706.3  710.2
   723.9  740.7  751.4  753.0  759.4  759.6  761.5  765.0  771.2  800.2
   807.6  812.4  814.9  819.9  823.1  828.5  831.0  832.5  837.5  839.0
   843.9  846.5  860.7  869.2  876.1  900.4  905.5  924.1  933.9  945.5
   956.8  967.0  973.2  974.5  975.1  976.2  977.8  979.2  983.4  987.7
   988.3 1021.8 1036.5 1051.5 1061.2 1083.7 1094.9 1109.2 1134.1 1135.6
  1141.4 1155.6 1157.6 1163.6 1165.1 1175.4 1179.0 1185.6 1195.8 1203.7
  1204.0 1210.3 1214.1 1224.0 1232.6 1242.1 1246.3 1251.5 1262.5 1292.1
  1299.2 1307.0 1316.2 1317.0 1318.5 1333.9 1339.9 1350.4 1358.3 1362.4
  1365.9 1378.8 1380.1 1382.2 1391.5 1400.3 1403.6 1416.3 1428.5 1430.4
  1439.5 1444.4 1449.1 1458.2 1460.8 1466.1 1485.0 1492.1 1497.7 1504.3
  1505.2 1510.7 1522.5 1527.1 1544.1 1546.7 1554.7 1562.3 1570.2 1580.7
  1585.6 1599.0 1599.6 1616.1 1622.6 1644.6 1651.9 1685.4 1705.4 1724.7
  1741.5 3034.2 3038.3 3092.1 3095.3 3112.3 3132.5 3142.8 3168.1 3169.9
  3177.0 3177.6 3184.8 3187.8 3194.3 3196.3 3197.7 3198.1 3204.5 3204.7
  3212.6 3212.7 3212.7 3213.8 3223.8 3224.0 3244.8
 g94    symmetries=
                                                 A      A      A      A
       A      A      A      A      A      A      A      A      A      A
       A      A      A      A      A      A      A      A      A      A
       A      A      A      A      A      A      A      A      A      A
       A      A      A      A      A      A      A      A      A      A
       A      A      A      A      A      A      A      A      A      A
       A      A      A      A      A      A      A      A      A      A
       A      A      A      A      A      A      A      A      A      A
       A      A      A      A      A      A      A      A      A      A
       A      A      A      A      A      A      A      A      A      A
       A      A      A      A      A      A      A      A      A      A
       A      A      A      A      A      A      A      A      A      A
       A      A      A      A      A      A      A      A      A      A
       A      A      A      A      A      A      A      A      A      A
       A      A      A      A      A      A      A      A      A      A
       A      A      A      A      A      A      A      A      A      A
       A      A      A      A      A      A      A      A      A      A
       A      A      A      A      A      A      A      A      A      A
       A      A      A      A      A      A      A      A      A      A
       A      A      A      A      A      A      A      A      A      A
       A      A      A      A      A      A      A      A      A      A
       A      A      A      A      A      A      A      A      A      A
       A      A      A      A      A      A      A      A      A      A
       A      A      A      A      A      A      A
 atomic masses:
 12.0000 12.0000 12.0000 14.0031 12.0000 15.9949 12.0000 12.0000 12.0000 12.0000
 12.0000 12.0000 12.0000 12.0000 12.0000 15.9949 14.0031 12.0000 12.0000 12.0000
 12.0000 12.0000 12.0000 12.0000 12.0000 12.0000 12.0000 12.0000 31.9721 12.0000
 12.0000 12.0000 31.9721 12.0000 12.0000 12.0000 12.0000 12.0000 15.9949 12.0000
 12.0000 12.0000 12.0000 12.0000 12.0000 12.0000 12.0000 12.0000 15.9949 12.0000
 12.0000 12.0000 12.0000  1.0078  1.0078  1.0078  1.0078  1.0078  1.0078  1.0078
  1.0078  1.0078  1.0078  1.0078  1.0078  1.0078  1.0078  1.0078  1.0078  1.0078
  1.0078  1.0078  1.0078  1.0078  1.0078  1.0078  1.0078  1.0078  1.0078
 looking for force constants in 
 ./TT-PDI_6_C0S2.fchk                                                           
  
 Cartesian Force Constants                  R   N=       28203                  
  
 n3=         237       28203
 g94-fc frequencies=
    -5.6   -1.0   -0.3   -0.0   -0.0    0.0    6.7    8.4    9.4   22.2
    28.9   31.5   34.3   46.2   54.7   59.4   72.3   76.3   79.9   89.3
    89.8   91.5  102.0  120.8  130.8  167.9  175.9  184.6  188.0  199.8
   202.3  204.4  213.6  222.4  234.9  235.6  255.3  256.6  276.7  294.6
   301.2  302.3  313.2  325.3  352.2  380.3  389.9  392.8  400.6  411.3
   416.1  417.4  423.4  432.0  436.0  438.5  442.2  447.0  451.6  460.5
   468.8  476.2  479.7  486.4  501.0  505.8  506.4  519.6  531.0  546.6
   558.0  573.3  574.3  578.8  581.9  597.8  605.1  615.6  622.5  634.9
   638.2  649.2  652.6  658.3  678.0  680.6  701.0  705.9  706.3  710.2
   723.9  740.7  751.4  753.0  759.4  759.6  761.5  765.0  771.2  800.2
   807.7  812.4  814.9  819.9  823.1  828.5  831.0  832.5  837.5  839.0
   843.9  846.6  860.7  869.2  876.1  900.4  905.6  924.1  933.9  945.5
   956.8  967.1  973.3  974.5  975.2  976.3  977.8  979.2  983.4  987.7
   988.3 1021.8 1036.5 1051.5 1061.2 1083.7 1094.9 1109.2 1134.1 1135.6
  1141.4 1155.7 1157.7 1163.6 1165.1 1175.4 1179.0 1185.6 1195.8 1203.7
  1204.1 1210.4 1214.1 1224.0 1232.7 1242.2 1246.3 1251.5 1262.5 1292.1
  1299.3 1307.0 1316.3 1317.0 1318.5 1333.9 1339.9 1350.4 1358.3 1362.5
  1365.9 1378.8 1380.1 1382.3 1391.6 1400.3 1403.7 1416.4 1428.6 1430.5
  1439.5 1444.4 1449.1 1458.2 1460.9 1466.2 1485.0 1492.1 1497.7 1504.3
  1505.3 1510.8 1522.5 1527.1 1544.1 1546.7 1554.7 1562.3 1570.3 1580.7
  1585.7 1599.1 1599.6 1616.2 1622.7 1644.6 1652.0 1685.4 1705.5 1724.7
  1741.5 3034.2 3038.3 3092.2 3095.3 3112.4 3132.5 3142.9 3168.2 3170.0
  3177.0 3177.7 3184.9 3187.9 3194.4 3196.4 3197.8 3198.1 3204.6 3204.8
  3212.6 3212.7 3212.8 3213.8 3223.8 3224.1 3244.9
 at 99999: n3=         237
 symm operator            1 :  F  nop=           0
 symm operator            2 :  F  nop=           0
 symm operator            3 :  F  nop=           0
 symm operator            4 :  F  nop=           0
 symm operator            5 :  F  nop=           0
 symm operator            6 :  F  nop=           0
 symm operator            7 :  F  nop=           0
 The point group of the molecule is  C1
 Symmetry rotation matrix:
   1.00000   0.00000   0.00000
   0.00000   1.00000   0.00000
   0.00000   0.00000   1.00000

 Projecting out zero-frequency components
 generating redundant internal coords
         300        3600          79
 search for int coords
   1 str   2   1   1.532
   2 str   3   2   1.532
   3 str   4   2   1.498
   4 str   5   4   1.408
   5 str   6   5   1.221
   6 str   7   5   1.477
   7 str   8   7   1.400
   8 str   9   8   1.380
   9 str  10   9   1.422
  10 str  11  10   1.441
  11 str  12  11   1.422
  12 str  13  12   1.380
  13 str  14  13   1.400
  14 str  15  14   1.477
  15 str  16  15   1.217
  16 str  17  15   1.410
  17 str  18  17   1.446
  18 str  19  18   1.390
  19 str  20  19   1.389
  20 str  21  20   1.403
  21 str  22  21   1.482
  22 str  23  22   1.402
  23 str  24  23   1.388
  24 str  25  24   1.404
  25 str  26  25   1.465
  26 str  27  26   1.373
  27 str  28  27   1.419
  28 str  29  28   1.744
  29 str  30  29   1.750
  30 str  31  30   1.364
  31 str  32  28   1.388
  32 str  32  31   1.423
  33 str  33  26   1.771
  34 str  33  32   1.742
  35 str  34  25   1.405
  36 str  35  22   1.403
  37 str  35  34   1.387
  38 str  36  21   1.403
  39 str  37  18   1.390
  40 str  37  36   1.389
  41 str  38  17   1.410
  42 str  39  38   1.217
  43 str  40  38   1.477
  44 str  41  40   1.400
  45 str  42  41   1.380
  46 str  43  42   1.422
  47 str  44  43   1.441
  48 str  45  44   1.422
  49 str  46  45   1.380
  50 str  47  46   1.400
  51 str  48   4   1.400
  52 str  48  47   1.479
  53 str  49  48   1.222
  54 str  50   7   1.410
  55 str  50  47   1.411
  56 str  51  10   1.427
  57 str  51  44   1.427
  58 str  51  50   1.428
  59 str  52  11   1.427
  60 str  52  43   1.427
  61 str  53  14   1.412
  62 str  53  40   1.412
  63 str  53  52   1.429
  64 str  54   1   1.093
  65 str  55   1   1.089
  66 str  56   1   1.093
  67 str  57   2   1.088
  68 str  58   3   1.089
  69 str  59   3   1.093
  70 str  60   3   1.093
  71 str  61   8   1.082
  72 str  62   9   1.081
  73 str  63  12   1.081
  74 str  64  13   1.082
  75 str  65  19   1.083
  76 str  66  20   1.084
  77 str  67  23   1.084
  78 str  68  24   1.084
  79 str  69  27   1.081
  80 str  70  30   1.079
  81 str  71  31   1.081
  82 str  72  34   1.084
  83 str  73  35   1.084
  84 str  74  36   1.084
  85 str  75  37   1.083
  86 str  76  41   1.082
  87 str  77  42   1.081
  88 str  78  45   1.081
  89 str  79  46   1.082
 nber stretches=          89
  90 ben   1   2   3
  91 prop tor   1   2   3  58
  92 prop tor   1   2   3  59
  93 prop tor   1   2   3  60
  94 ben   1   2   4
  95 prop tor   1   2   4   5
  96 prop tor   1   2   4  48
  97 ben   1   2  57
  98 ben   2   1  54
  99 ben   2   1  55
 100 ben   2   1  56
 101 ben   2   3  58
 102 ben   2   3  59
 103 ben   2   3  60
 104 ben   2   4   5
 105 prop tor   2   4   5   6
 106 prop tor   2   4   5   7
 107 ben   2   4  48
 108 prop tor   2   4  48  47
 109 prop tor   2   4  48  49
 110 ben   3   2   4
 111 prop tor   3   2   4   5
 112 prop tor   3   2   4  48
 113 ben   3   2  57
 114 prop tor   4   2   3  58
 115 prop tor   4   2   3  59
 116 prop tor   4   2   3  60
 117 ben   4   2  57
 118 ben   4   5   6
 119 ben   4   5   7
 120 prop tor   4   5   7   8
 121 prop tor   4   5   7  50
 122 ben   4  48  47
 123 ben   4  48  49
 124 ben   5   4  48
 125 prop tor   5   4  48  47
 126 prop tor   5   4  48  49
 127 ben   5   7   8
 128 prop tor   5   7   8   9
 129 prop tor   5   7   8  61
 130 ben   5   7  50
 131 prop tor   5   7  50  47
 132 prop tor   5   7  50  51
 133 ben   6   5   7
 134 prop tor   6   5   7   8
 135 prop tor   6   5   7  50
 136 ben   7   8   9
 137 prop tor   7   8   9  10
 138 prop tor   7   8   9  62
 139 ben   7   8  61
 140 ben   7  50  47
 141 ben   7  50  51
 142 prop tor   7  50  51  10
 143 prop tor   7  50  51  44
 144 ben   8   7  50
 145 prop tor   8   7  50  47
 146 prop tor   8   7  50  51
 147 ben   8   9  10
 148 prop tor   8   9  10  11
 149 prop tor   8   9  10  51
 150 ben   8   9  62
 151 ben   9   8  61
 152 ben   9  10  11
 153 prop tor   9  10  11  12
 154 prop tor   9  10  11  52
 155 ben   9  10  51
 156 prop tor   9  10  51  44
 157 prop tor   9  10  51  50
 158 ben  10   9  62
 159 ben  10  11  12
 160 prop tor  10  11  12  13
 161 prop tor  10  11  12  63
 162 ben  10  11  52
 163 prop tor  10  11  52  43
 164 prop tor  10  11  52  53
 165 ben  10  51  44
 166 ben  10  51  50
 167 ben  11  10  51
 168 prop tor  11  10  51  44
 169 prop tor  11  10  51  50
 170 ben  11  12  13
 171 prop tor  11  12  13  14
 172 prop tor  11  12  13  64
 173 ben  11  12  63
 174 ben  11  52  43
 175 ben  11  52  53
 176 prop tor  11  52  53  14
 177 prop tor  11  52  53  40
 178 ben  12  11  52
 179 prop tor  12  11  52  43
 180 prop tor  12  11  52  53
 181 ben  12  13  14
 182 prop tor  12  13  14  15
 183 prop tor  12  13  14  53
 184 ben  12  13  64
 185 ben  13  12  63
 186 ben  13  14  15
 187 prop tor  13  14  15  16
 188 prop tor  13  14  15  17
 189 ben  13  14  53
 190 prop tor  13  14  53  40
 191 prop tor  13  14  53  52
 192 ben  14  13  64
 193 ben  14  15  16
 194 ben  14  15  17
 195 prop tor  14  15  17  18
 196 prop tor  14  15  17  38
 197 ben  14  53  40
 198 ben  14  53  52
 199 ben  15  14  53
 200 prop tor  15  14  53  40
 201 prop tor  15  14  53  52
 202 ben  15  17  18
 203 prop tor  15  17  18  19
 204 prop tor  15  17  18  37
 205 ben  15  17  38
 206 prop tor  15  17  38  39
 207 prop tor  15  17  38  40
 208 ben  16  15  17
 209 prop tor  16  15  17  18
 210 prop tor  16  15  17  38
 211 ben  17  18  19
 212 prop tor  17  18  19  20
 213 prop tor  17  18  19  65
 214 ben  17  18  37
 215 prop tor  17  18  37  36
 216 prop tor  17  18  37  75
 217 ben  17  38  39
 218 ben  17  38  40
 219 prop tor  17  38  40  41
 220 prop tor  17  38  40  53
 221 ben  18  17  38
 222 prop tor  18  17  38  39
 223 prop tor  18  17  38  40
 224 ben  18  19  20
 225 prop tor  18  19  20  21
 226 prop tor  18  19  20  66
 227 ben  18  19  65
 228 ben  18  37  36
 229 ben  18  37  75
 230 ben  19  18  37
 231 prop tor  19  18  37  36
 232 prop tor  19  18  37  75
 233 ben  19  20  21
 234 prop tor  19  20  21  22
 235 prop tor  19  20  21  36
 236 ben  19  20  66
 237 ben  20  19  65
 238 ben  20  21  22
 239 prop tor  20  21  22  23
 240 prop tor  20  21  22  35
 241 ben  20  21  36
 242 prop tor  20  21  36  37
 243 prop tor  20  21  36  74
 244 ben  21  20  66
 245 ben  21  22  23
 246 prop tor  21  22  23  24
 247 prop tor  21  22  23  67
 248 ben  21  22  35
 249 prop tor  21  22  35  34
 250 prop tor  21  22  35  73
 251 ben  21  36  37
 252 prop tor  21  36  37  18
 253 prop tor  21  36  37  75
 254 ben  21  36  74
 255 ben  22  21  36
 256 prop tor  22  21  36  37
 257 prop tor  22  21  36  74
 258 ben  22  23  24
 259 prop tor  22  23  24  25
 260 prop tor  22  23  24  68
 261 ben  22  23  67
 262 ben  22  35  34
 263 ben  22  35  73
 264 ben  23  22  35
 265 prop tor  23  22  35  34
 266 prop tor  23  22  35  73
 267 ben  23  24  25
 268 prop tor  23  24  25  26
 269 prop tor  23  24  25  34
 270 ben  23  24  68
 271 ben  24  23  67
 272 ben  24  25  26
 273 prop tor  24  25  26  27
 274 prop tor  24  25  26  33
 275 ben  24  25  34
 276 prop tor  24  25  34  35
 277 prop tor  24  25  34  72
 278 ben  25  24  68
 279 ben  25  26  27
 280 prop tor  25  26  27  28
 281 prop tor  25  26  27  69
 282 ben  25  26  33
 283 prop tor  25  26  33  32
 284 ben  25  34  35
 285 prop tor  25  34  35  22
 286 prop tor  25  34  35  73
 287 ben  25  34  72
 288 ben  26  25  34
 289 prop tor  26  25  34  35
 290 prop tor  26  25  34  72
 291 ben  26  27  28
 292 prop tor  26  27  28  29
 293 prop tor  26  27  28  32
 294 ben  26  27  69
 295 ben  26  33  32
 296 ben  27  26  33
 297 prop tor  27  26  33  32
 298 ben  27  28  29
 299 prop tor  27  28  29  30
 300 ben  27  28  32
 301 prop tor  27  28  32  31
 302 prop tor  27  28  32  33
 303 ben  28  27  69
 304 ben  28  29  30
 305 prop tor  28  29  30  31
 306 prop tor  28  29  30  70
 307 ben  28  32  31
 308 ben  28  32  33
 309 prop tor  28  32  33  26
 310 ben  29  28  32
 311 prop tor  29  28  32  31
 312 prop tor  29  28  32  33
 313 ben  29  30  31
 314 prop tor  29  30  31  32
 315 prop tor  29  30  31  71
 316 ben  29  30  70
 317 ben  30  31  32
 318 prop tor  30  31  32  28
 319 prop tor  30  31  32  33
 320 ben  30  31  71
 321 ben  31  30  70
 322 ben  31  32  33
 323 prop tor  31  32  33  26
 324 prop tor  32  28  29  30
 325 ben  32  31  71
 326 prop tor  33  26  27  28
 327 prop tor  33  26  27  69
 328 prop tor  34  25  26  27
 329 prop tor  34  25  26  33
 330 ben  34  35  73
 331 prop tor  35  22  23  24
 332 prop tor  35  22  23  67
 333 ben  35  34  72
 334 prop tor  36  21  22  23
 335 prop tor  36  21  22  35
 336 ben  36  37  75
 337 prop tor  37  18  19  20
 338 prop tor  37  18  19  65
 339 ben  37  36  74
 340 prop tor  38  17  18  19
 341 prop tor  38  17  18  37
 342 ben  38  40  41
 343 prop tor  38  40  41  42
 344 prop tor  38  40  41  76
 345 ben  38  40  53
 346 prop tor  38  40  53  14
 347 prop tor  38  40  53  52
 348 ben  39  38  40
 349 prop tor  39  38  40  41
 350 prop tor  39  38  40  53
 351 ben  40  41  42
 352 prop tor  40  41  42  43
 353 prop tor  40  41  42  77
 354 ben  40  41  76
 355 ben  40  53  52
 356 ben  41  40  53
 357 prop tor  41  40  53  14
 358 prop tor  41  40  53  52
 359 ben  41  42  43
 360 prop tor  41  42  43  44
 361 prop tor  41  42  43  52
 362 ben  41  42  77
 363 ben  42  41  76
 364 ben  42  43  44
 365 prop tor  42  43  44  45
 366 prop tor  42  43  44  51
 367 ben  42  43  52
 368 prop tor  42  43  52  11
 369 prop tor  42  43  52  53
 370 ben  43  42  77
 371 ben  43  44  45
 372 prop tor  43  44  45  46
 373 prop tor  43  44  45  78
 374 ben  43  44  51
 375 prop tor  43  44  51  10
 376 prop tor  43  44  51  50
 377 ben  43  52  53
 378 prop tor  43  52  53  14
 379 prop tor  43  52  53  40
 380 ben  44  43  52
 381 prop tor  44  43  52  11
 382 prop tor  44  43  52  53
 383 ben  44  45  46
 384 prop tor  44  45  46  47
 385 prop tor  44  45  46  79
 386 ben  44  45  78
 387 ben  44  51  50
 388 ben  45  44  51
 389 prop tor  45  44  51  10
 390 prop tor  45  44  51  50
 391 ben  45  46  47
 392 prop tor  45  46  47  48
 393 prop tor  45  46  47  50
 394 ben  45  46  79
 395 ben  46  45  78
 396 ben  46  47  48
 397 prop tor  46  47  48   4
 398 prop tor  46  47  48  49
 399 ben  46  47  50
 400 prop tor  46  47  50   7
 401 prop tor  46  47  50  51
 402 ben  47  46  79
 403 ben  47  48  49
 404 ben  47  50  51
 405 prop tor  47  50  51  10
 406 prop tor  47  50  51  44
 407 prop tor  48   4   5   6
 408 prop tor  48   4   5   7
 409 ben  48  47  50
 410 prop tor  48  47  50   7
 411 prop tor  48  47  50  51
 412 prop tor  50   7   8   9
 413 prop tor  50   7   8  61
 414 prop tor  50  47  48   4
 415 prop tor  50  47  48  49
 416 prop tor  51  10  11  12
 417 prop tor  51  10  11  52
 418 prop tor  51  44  45  46
 419 prop tor  51  44  45  78
 420 prop tor  52  11  12  13
 421 prop tor  52  11  12  63
 422 prop tor  52  43  44  45
 423 prop tor  52  43  44  51
 424 prop tor  53  14  15  16
 425 prop tor  53  14  15  17
 426 prop tor  53  40  41  42
 427 prop tor  53  40  41  76
 428 prop tor  54   1   2   3
 429 prop tor  54   1   2   4
 430 prop tor  54   1   2  57
 431 ben  54   1  55
 432 ben  54   1  56
 433 prop tor  55   1   2   3
 434 prop tor  55   1   2   4
 435 prop tor  55   1   2  57
 436 ben  55   1  56
 437 prop tor  56   1   2   3
 438 prop tor  56   1   2   4
 439 prop tor  56   1   2  57
 440 prop tor  57   2   3  58
 441 prop tor  57   2   3  59
 442 prop tor  57   2   3  60
 443 prop tor  57   2   4   5
 444 prop tor  57   2   4  48
 445 ben  58   3  59
 446 ben  58   3  60
 447 ben  59   3  60
 448 prop tor  61   8   9  10
 449 prop tor  61   8   9  62
 450 prop tor  62   9  10  11
 451 prop tor  62   9  10  51
 452 prop tor  63  12  13  14
 453 prop tor  63  12  13  64
 454 prop tor  64  13  14  15
 455 prop tor  64  13  14  53
 456 prop tor  65  19  20  21
 457 prop tor  65  19  20  66
 458 prop tor  66  20  21  22
 459 prop tor  66  20  21  36
 460 prop tor  67  23  24  25
 461 prop tor  67  23  24  68
 462 prop tor  68  24  25  26
 463 prop tor  68  24  25  34
 464 prop tor  69  27  28  29
 465 prop tor  69  27  28  32
 466 prop tor  70  30  31  32
 467 prop tor  70  30  31  71
 468 prop tor  71  31  32  28
 469 prop tor  71  31  32  33
 470 prop tor  72  34  35  22
 471 prop tor  72  34  35  73
 472 prop tor  74  36  37  18
 473 prop tor  74  36  37  75
 474 prop tor  76  41  42  43
 475 prop tor  76  41  42  77
 476 prop tor  77  42  43  44
 477 prop tor  77  42  43  52
 478 prop tor  78  45  46  47
 479 prop tor  78  45  46  79
 480 prop tor  79  46  47  48
 481 prop tor  79  46  47  50
 nber bend=             152
 nber lin bend=           0
 nber prop tor=         240
 nber impr tor=           0
 nber tot redund int=         481
 Eigenvalues of G in red int coords
    Gval -0.00000000 -0.00000000 -0.00000000 -0.00000000 -0.00000000 -0.00000000 -0.00000000 -0.00000000
    Gval -0.00000000 -0.00000000 -0.00000000 -0.00000000 -0.00000000 -0.00000000 -0.00000000 -0.00000000
    Gval -0.00000000 -0.00000000 -0.00000000 -0.00000000 -0.00000000 -0.00000000 -0.00000000 -0.00000000
    Gval -0.00000000 -0.00000000 -0.00000000 -0.00000000 -0.00000000 -0.00000000 -0.00000000 -0.00000000
    Gval -0.00000000 -0.00000000 -0.00000000 -0.00000000 -0.00000000 -0.00000000 -0.00000000 -0.00000000
    Gval -0.00000000 -0.00000000 -0.00000000 -0.00000000 -0.00000000 -0.00000000 -0.00000000 -0.00000000
    Gval -0.00000000 -0.00000000 -0.00000000 -0.00000000 -0.00000000 -0.00000000 -0.00000000 -0.00000000
    Gval -0.00000000 -0.00000000 -0.00000000 -0.00000000 -0.00000000 -0.00000000 -0.00000000 -0.00000000
    Gval -0.00000000 -0.00000000 -0.00000000 -0.00000000 -0.00000000 -0.00000000 -0.00000000 -0.00000000
    Gval -0.00000000 -0.00000000 -0.00000000 -0.00000000 -0.00000000 -0.00000000 -0.00000000 -0.00000000
    Gval -0.00000000 -0.00000000 -0.00000000 -0.00000000 -0.00000000 -0.00000000 -0.00000000 -0.00000000
    Gval -0.00000000 -0.00000000 -0.00000000 -0.00000000 -0.00000000 -0.00000000 -0.00000000 -0.00000000
    Gval -0.00000000 -0.00000000 -0.00000000 -0.00000000 -0.00000000 -0.00000000 -0.00000000 -0.00000000
    Gval -0.00000000 -0.00000000 -0.00000000 -0.00000000 -0.00000000 -0.00000000 -0.00000000 -0.00000000
    Gval -0.00000000 -0.00000000 -0.00000000 -0.00000000 -0.00000000 -0.00000000 -0.00000000 -0.00000000
    Gval -0.00000000 -0.00000000 -0.00000000 -0.00000000 -0.00000000 -0.00000000 -0.00000000 -0.00000000
    Gval  0.00000000  0.00000000  0.00000000  0.00000000  0.00000000  0.00000000  0.00000000  0.00000000
    Gval  0.00000000  0.00000000  0.00000000  0.00000000  0.00000000  0.00000000  0.00000000  0.00000000
    Gval  0.00000000  0.00000000  0.00000000  0.00000000  0.00000000  0.00000000  0.00000000  0.00000000
    Gval  0.00000000  0.00000000  0.00000000  0.00000000  0.00000000  0.00000000  0.00000000  0.00000000
    Gval  0.00000000  0.00000000  0.00000000  0.00000000  0.00000000  0.00000000  0.00000000  0.00000000
    Gval  0.00000000  0.00000000  0.00000000  0.00000000  0.00000000  0.00000000  0.00000000  0.00000000
    Gval  0.00000000  0.00000000  0.00000000  0.00000000  0.00000000  0.00000000  0.00000000  0.00000000
    Gval  0.00000000  0.00000000  0.00000000  0.00000000  0.00000000  0.00000000  0.00000000  0.00000000
    Gval  0.00000000  0.00000000  0.00000000  0.00000000  0.00000000  0.00000000  0.00000000  0.00000000
    Gval  0.00000000  0.00000000  0.00000000  0.00000000  0.00000000  0.00000000  0.00000000  0.00000000
    Gval  0.00000000  0.00000000  0.00000000  0.00000000  0.00000000  0.00000000  0.00000000  0.00000000
    Gval  0.00000000  0.00000000  0.00000000  0.00000000  0.00000000  0.00000000  0.00000000  0.00000000
    Gval  0.00000000  0.00000000  0.00000000  0.00000000  0.00000000  0.00000000  0.00000000  0.00000000
    Gval  0.00000000  0.00000000  0.00000000  0.00000000  0.00000000  0.00000000  0.00000000  0.00000000
    Gval  0.00000000  0.00000000  0.00000000  0.00000000  0.00000000  0.00000000  0.00000000  0.00000000
    Gval  0.00000000  0.00000000  0.00000007  0.00000011  0.00000060  0.00000065  0.00000135  0.00000184
    Gval  0.00000259  0.00000284  0.00000421  0.00000460  0.00000566  0.00000666  0.00000923  0.00000989
    Gval  0.00001105  0.00001185  0.00001272  0.00001562  0.00001609  0.00001626  0.00001653  0.00001799
    Gval  0.00001832  0.00002001  0.00002122  0.00002176  0.00002403  0.00002459  0.00002547  0.00002573
    Gval  0.00002734  0.00002998  0.00003029  0.00003317  0.00003527  0.00003760  0.00003990  0.00003994
    Gval  0.00004199  0.00004668  0.00004793  0.00004884  0.00005003  0.00005109  0.00005231  0.00005372
    Gval  0.00005492  0.00005562  0.00005968  0.00006165  0.00006219  0.00006648  0.00006792  0.00007015
    Gval  0.00007188  0.00007355  0.00007591  0.00008138  0.00008247  0.00008502  0.00008668  0.00008772
    Gval  0.00008986  0.00009098  0.00009342  0.00009501  0.00010186  0.00010769  0.00010784  0.00011444
    Gval  0.00011771  0.00011997  0.00012245  0.00012262  0.00012426  0.00013277  0.00013484  0.00013684
    Gval  0.00013745  0.00014090  0.00014836  0.00015702  0.00015889  0.00015976  0.00016132  0.00017283
    Gval  0.00018132  0.00018674  0.00019872  0.00020093  0.00022191  0.00022482  0.00022849  0.00023010
    Gval  0.00025059  0.00027107  0.00027786  0.00028561  0.00028598  0.00028843  0.00029500  0.00030193
    Gval  0.00030373  0.00031475  0.00031911  0.00034142  0.00035959  0.00036820  0.00037459  0.00037985
    Gval  0.00038166  0.00038765  0.00038948  0.00039299  0.00039389  0.00040306  0.00042305  0.00042874
    Gval  0.00043264  0.00043641  0.00044108  0.00044185  0.00044868  0.00046191  0.00046477  0.00046876
    Gval  0.00048151  0.00049355  0.00050811  0.00053379  0.00053699  0.00053717  0.00054431  0.00055408
    Gval  0.00055596  0.00055601  0.00057517  0.00058864  0.00059660  0.00059676  0.00059850  0.00059924
    Gval  0.00059957  0.00059973  0.00059985  0.00060030  0.00060090  0.00060219  0.00062154  0.00062479
    Gval  0.00062574  0.00062988  0.00063566  0.00064071  0.00064235  0.00064423  0.00064505  0.00064682
    Gval  0.00064906  0.00065151  0.00067051  0.00069397  0.00069771  0.00076875  0.00079763  0.00081327
    Gval  0.00093081  0.00098138  0.00098927  0.00107505  0.00107643  0.00108137  0.00109321  0.00109414
    Gval  0.00109483  0.00109533  0.00110666  0.00110999  0.00114202  0.00114294  0.00114504  0.00115287
    Gval  0.00115930  0.00116539  0.00116551  0.00116585  0.00116607  0.00116837  0.00117113  0.00117172
    Gval  0.00117213  0.00118674  0.00120699  0.00126112  0.00129281  0.00129531  0.00137364  0.00148174
    Gval  0.00155926  0.00165409  0.00171513  0.00177788  0.00183106  0.00191900  0.00208643  0.00228006
    Gval  0.00233584  0.00233918  0.00235468  0.00237327  0.00252130  0.00252551  0.00255966  0.00258586
    Gval  0.00278946  0.00292183  0.00302347  0.00304209  0.00308128  0.00309606  0.00351365  0.00361512
    Gval  0.00366261  0.00367523  0.00367704  0.00371348  0.00372191  0.00372364  0.00375400  0.00394507
    Gval  0.00397406
  7.412059488328047E-008  7.412059488328047E-008
  1.149926011376242E-007  7.412059488328047E-008
  6.034303533587613E-007  7.412059488328047E-008
  6.520126037715517E-007  7.412059488328047E-008
  1.351934570134800E-006  7.412059488328047E-008
  1.840559611589546E-006  7.412059488328047E-008
  2.587251486234359E-006  7.412059488328047E-008
  2.839309169970828E-006  7.412059488328047E-008
  4.213396032914525E-006  7.412059488328047E-008
  4.604705209680818E-006  7.412059488328047E-008
  5.663538034334227E-006  7.412059488328047E-008
  6.664000347122672E-006  7.412059488328047E-008
  9.227720008250361E-006  7.412059488328047E-008
  9.894060867810347E-006  7.412059488328047E-008
  1.104916648860348E-005  7.412059488328047E-008
  1.185140883384322E-005  7.412059488328047E-008
  1.271693371609329E-005  7.412059488328047E-008
  1.562061051615821E-005  7.412059488328047E-008
  1.608873814522325E-005  7.412059488328047E-008
  1.626435584131660E-005  7.412059488328047E-008
  1.653124922441710E-005  7.412059488328047E-008
  1.799171359444509E-005  7.412059488328047E-008
  1.831775529691580E-005  7.412059488328047E-008
  2.000937489165968E-005  7.412059488328047E-008
  2.121564357609235E-005  7.412059488328047E-008
  2.176414795870262E-005  7.412059488328047E-008
  2.402628573398103E-005  7.412059488328047E-008
  2.458503907721252E-005  7.412059488328047E-008
  2.546733311171525E-005  7.412059488328047E-008
  2.573286095270743E-005  7.412059488328047E-008
  2.734233526979897E-005  7.412059488328047E-008
  2.998282249934502E-005  7.412059488328047E-008
  3.029152307491162E-005  7.412059488328047E-008
  3.317223276475988E-005  7.412059488328047E-008
  3.527084733492064E-005  7.412059488328047E-008
  3.760243423449001E-005  7.412059488328047E-008
  3.989864870053779E-005  7.412059488328047E-008
  3.994117175758191E-005  7.412059488328047E-008
  4.198690265455864E-005  7.412059488328047E-008
  4.668138693114919E-005  7.412059488328047E-008
  4.792799300890024E-005  7.412059488328047E-008
  4.883756307374128E-005  7.412059488328047E-008
  5.002716760329186E-005  7.412059488328047E-008
  5.109033437336178E-005  7.412059488328047E-008
  5.230555831045564E-005  7.412059488328047E-008
  5.372074010571685E-005  7.412059488328047E-008
  5.492008818485841E-005  7.412059488328047E-008
  5.562398415084229E-005  7.412059488328047E-008
  5.968011346681094E-005  7.412059488328047E-008
  6.165438212006290E-005  7.412059488328047E-008
  6.218715140510928E-005  7.412059488328047E-008
  6.647627400904224E-005  7.412059488328047E-008
  6.791646391325897E-005  7.412059488328047E-008
  7.014849103020644E-005  7.412059488328047E-008
  7.187508656632325E-005  7.412059488328047E-008
  7.354830403617790E-005  7.412059488328047E-008
  7.591174777838056E-005  7.412059488328047E-008
  8.137542450333179E-005  7.412059488328047E-008
  8.246706871218957E-005  7.412059488328047E-008
  8.501505108079961E-005  7.412059488328047E-008
  8.668338861066307E-005  7.412059488328047E-008
  8.772210042039131E-005  7.412059488328047E-008
  8.985912872002719E-005  7.412059488328047E-008
  9.097888549713072E-005  7.412059488328047E-008
  9.341762560461392E-005  7.412059488328047E-008
  9.500547613851925E-005  7.412059488328047E-008
  1.018571250830600E-004  7.412059488328047E-008
  1.076918134574653E-004  7.412059488328047E-008
  1.078396009716074E-004  7.412059488328047E-008
  1.144401359325913E-004  7.412059488328047E-008
  1.177060804799230E-004  7.412059488328047E-008
  1.199724568953817E-004  7.412059488328047E-008
  1.224529201848551E-004  7.412059488328047E-008
  1.226198111603480E-004  7.412059488328047E-008
  1.242646648751574E-004  7.412059488328047E-008
  1.327727921243103E-004  7.412059488328047E-008
  1.348393169382786E-004  7.412059488328047E-008
  1.368442909193476E-004  7.412059488328047E-008
  1.374460769392895E-004  7.412059488328047E-008
  1.408956646363582E-004  7.412059488328047E-008
  1.483605038543361E-004  7.412059488328047E-008
  1.570185449112306E-004  7.412059488328047E-008
  1.588947916562709E-004  7.412059488328047E-008
  1.597553610605947E-004  7.412059488328047E-008
  1.613151178259403E-004  7.412059488328047E-008
  1.728331491149664E-004  7.412059488328047E-008
  1.813158717314505E-004  7.412059488328047E-008
  1.867412490636028E-004  7.412059488328047E-008
  1.987244979653456E-004  7.412059488328047E-008
  2.009251804657108E-004  7.412059488328047E-008
  2.219110711090140E-004  7.412059488328047E-008
  2.248211213490269E-004  7.412059488328047E-008
  2.284860808118934E-004  7.412059488328047E-008
  2.301007300316058E-004  7.412059488328047E-008
  2.505878616755372E-004  7.412059488328047E-008
  2.710740305231964E-004  7.412059488328047E-008
  2.778625784059860E-004  7.412059488328047E-008
  2.856063375494521E-004  7.412059488328047E-008
  2.859828763661118E-004  7.412059488328047E-008
  2.884293660092346E-004  7.412059488328047E-008
  2.950049504193526E-004  7.412059488328047E-008
  3.019331370394507E-004  7.412059488328047E-008
  3.037287363106125E-004  7.412059488328047E-008
  3.147453152565608E-004  7.412059488328047E-008
  3.191121502316396E-004  7.412059488328047E-008
  3.414195140383981E-004  7.412059488328047E-008
  3.595890856285879E-004  7.412059488328047E-008
  3.682031820406051E-004  7.412059488328047E-008
  3.745934737659954E-004  7.412059488328047E-008
  3.798508222529350E-004  7.412059488328047E-008
  3.816576208624119E-004  7.412059488328047E-008
  3.876456253637018E-004  7.412059488328047E-008
  3.894839035135693E-004  7.412059488328047E-008
  3.929936221417152E-004  7.412059488328047E-008
  3.938907197991492E-004  7.412059488328047E-008
  4.030587158908197E-004  7.412059488328047E-008
  4.230482485325934E-004  7.412059488328047E-008
  4.287440094532231E-004  7.412059488328047E-008
  4.326369663136118E-004  7.412059488328047E-008
  4.364134757068273E-004  7.412059488328047E-008
  4.410845455228892E-004  7.412059488328047E-008
  4.418516916133217E-004  7.412059488328047E-008
  4.486833609413725E-004  7.412059488328047E-008
  4.619143301139745E-004  7.412059488328047E-008
  4.647742687390440E-004  7.412059488328047E-008
  4.687582165983921E-004  7.412059488328047E-008
  4.815107125936784E-004  7.412059488328047E-008
  4.935480852079229E-004  7.412059488328047E-008
  5.081149810306189E-004  7.412059488328047E-008
  5.337908639016092E-004  7.412059488328047E-008
  5.369860779812997E-004  7.412059488328047E-008
  5.371672674144467E-004  7.412059488328047E-008
  5.443128739925032E-004  7.412059488328047E-008
  5.540816836327606E-004  7.412059488328047E-008
  5.559565391977800E-004  7.412059488328047E-008
  5.560107561940748E-004  7.412059488328047E-008
  5.751707046163455E-004  7.412059488328047E-008
  5.886389105331951E-004  7.412059488328047E-008
  5.966036985988820E-004  7.412059488328047E-008
  5.967603697473994E-004  7.412059488328047E-008
  5.984999980074908E-004  7.412059488328047E-008
  5.992394654272645E-004  7.412059488328047E-008
  5.995736825594802E-004  7.412059488328047E-008
  5.997260431047194E-004  7.412059488328047E-008
  5.998501406613620E-004  7.412059488328047E-008
  6.003032820172598E-004  7.412059488328047E-008
  6.008972913619005E-004  7.412059488328047E-008
  6.021868663860631E-004  7.412059488328047E-008
  6.215413961623885E-004  7.412059488328047E-008
  6.247900686176505E-004  7.412059488328047E-008
  6.257417623670543E-004  7.412059488328047E-008
  6.298814925456569E-004  7.412059488328047E-008
  6.356647858834873E-004  7.412059488328047E-008
  6.407132590594471E-004  7.412059488328047E-008
  6.423543514257540E-004  7.412059488328047E-008
  6.442268268577732E-004  7.412059488328047E-008
  6.450467016728663E-004  7.412059488328047E-008
  6.468151323456783E-004  7.412059488328047E-008
  6.490578917743686E-004  7.412059488328047E-008
  6.515099677443121E-004  7.412059488328047E-008
  6.705091994438382E-004  7.412059488328047E-008
  6.939688306936524E-004  7.412059488328047E-008
  6.977074561155316E-004  7.412059488328047E-008
  7.687465744091309E-004  7.412059488328047E-008
  7.976331152312869E-004  7.412059488328047E-008
  8.132677896336366E-004  7.412059488328047E-008
  9.308085679274291E-004  7.412059488328047E-008
  9.813761917182211E-004  7.412059488328047E-008
  9.892692805882721E-004  7.412059488328047E-008
  1.075045017387253E-003  7.412059488328047E-008
  1.076432848690417E-003  7.412059488328047E-008
  1.081366288235344E-003  7.412059488328047E-008
  1.093206289981151E-003  7.412059488328047E-008
  1.094139910699973E-003  7.412059488328047E-008
  1.094828911935116E-003  7.412059488328047E-008
  1.095330712871036E-003  7.412059488328047E-008
  1.106660295060109E-003  7.412059488328047E-008
  1.109987114758234E-003  7.412059488328047E-008
  1.142016290690176E-003  7.412059488328047E-008
  1.142943260512174E-003  7.412059488328047E-008
  1.145036332580005E-003  7.412059488328047E-008
  1.152872052849650E-003  7.412059488328047E-008
  1.159295267047893E-003  7.412059488328047E-008
  1.165388604190157E-003  7.412059488328047E-008
  1.165508212724975E-003  7.412059488328047E-008
  1.165850740365281E-003  7.412059488328047E-008
  1.166072903234506E-003  7.412059488328047E-008
  1.168368184050670E-003  7.412059488328047E-008
  1.171133730636319E-003  7.412059488328047E-008
  1.171720213222160E-003  7.412059488328047E-008
  1.172127312106115E-003  7.412059488328047E-008
  1.186735589474215E-003  7.412059488328047E-008
  1.206987626730945E-003  7.412059488328047E-008
  1.261119568649967E-003  7.412059488328047E-008
  1.292811345303166E-003  7.412059488328047E-008
  1.295311469330960E-003  7.412059488328047E-008
  1.373642419879522E-003  7.412059488328047E-008
  1.481744635144638E-003  7.412059488328047E-008
  1.559261259507602E-003  7.412059488328047E-008
  1.654089664512973E-003  7.412059488328047E-008
  1.715132041234401E-003  7.412059488328047E-008
  1.777881457175662E-003  7.412059488328047E-008
  1.831063873209963E-003  7.412059488328047E-008
  1.919000654430611E-003  7.412059488328047E-008
  2.086426714288297E-003  7.412059488328047E-008
  2.280055813548367E-003  7.412059488328047E-008
  2.335835549408793E-003  7.412059488328047E-008
  2.339179042660839E-003  7.412059488328047E-008
  2.354682288956114E-003  7.412059488328047E-008
  2.373271886772498E-003  7.412059488328047E-008
  2.521304881610171E-003  7.412059488328047E-008
  2.525507617128622E-003  7.412059488328047E-008
  2.559662625904014E-003  7.412059488328047E-008
  2.585857850487647E-003  7.412059488328047E-008
  2.789461378229656E-003  7.412059488328047E-008
  2.921831041016669E-003  7.412059488328047E-008
  3.023469799601252E-003  7.412059488328047E-008
  3.042093404036509E-003  7.412059488328047E-008
  3.081283661385640E-003  7.412059488328047E-008
  3.096064508195767E-003  7.412059488328047E-008
  3.513647894027042E-003  7.412059488328047E-008
  3.615119266943573E-003  7.412059488328047E-008
  3.662613142424370E-003  7.412059488328047E-008
  3.675232633311337E-003  7.412059488328047E-008
  3.677036529279185E-003  7.412059488328047E-008
  3.713483936601814E-003  7.412059488328047E-008
  3.721914618425705E-003  7.412059488328047E-008
  3.723639183504377E-003  7.412059488328047E-008
  3.754001838506523E-003  7.412059488328047E-008
  3.945074741504627E-003  7.412059488328047E-008
  3.974055770435637E-003  7.412059488328047E-008
 cut=1d-8, nber non-redundant internal coords=         231
 Check on Eigenvals of non-red overlap matrix:
  0.00000007  0.00000011  0.00000060  0.00000065  0.00000135  0.00000184  0.00000259  0.00000284
  0.00000421  0.00000460  0.00000566  0.00000666  0.00000923  0.00000989  0.00001105  0.00001185
  0.00001272  0.00001562  0.00001609  0.00001626  0.00001653  0.00001799  0.00001832  0.00002001
  0.00002122  0.00002176  0.00002403  0.00002459  0.00002547  0.00002573  0.00002734  0.00002998
  0.00003029  0.00003317  0.00003527  0.00003760  0.00003990  0.00003994  0.00004199  0.00004668
  0.00004793  0.00004884  0.00005003  0.00005109  0.00005231  0.00005372  0.00005492  0.00005562
  0.00005968  0.00006165  0.00006219  0.00006648  0.00006792  0.00007015  0.00007188  0.00007355
  0.00007591  0.00008138  0.00008247  0.00008502  0.00008668  0.00008772  0.00008986  0.00009098
  0.00009342  0.00009501  0.00010186  0.00010769  0.00010784  0.00011444  0.00011771  0.00011997
  0.00012245  0.00012262  0.00012426  0.00013277  0.00013484  0.00013684  0.00013745  0.00014090
  0.00014836  0.00015702  0.00015889  0.00015976  0.00016132  0.00017283  0.00018132  0.00018674
  0.00019872  0.00020093  0.00022191  0.00022482  0.00022849  0.00023010  0.00025059  0.00027107
  0.00027786  0.00028561  0.00028598  0.00028843  0.00029500  0.00030193  0.00030373  0.00031475
  0.00031911  0.00034142  0.00035959  0.00036820  0.00037459  0.00037985  0.00038166  0.00038765
  0.00038948  0.00039299  0.00039389  0.00040306  0.00042305  0.00042874  0.00043264  0.00043641
  0.00044108  0.00044185  0.00044868  0.00046191  0.00046477  0.00046876  0.00048151  0.00049355
  0.00050811  0.00053379  0.00053699  0.00053717  0.00054431  0.00055408  0.00055596  0.00055601
  0.00057517  0.00058864  0.00059660  0.00059676  0.00059850  0.00059924  0.00059957  0.00059973
  0.00059985  0.00060030  0.00060090  0.00060219  0.00062154  0.00062479  0.00062574  0.00062988
  0.00063566  0.00064071  0.00064235  0.00064423  0.00064505  0.00064682  0.00064906  0.00065151
  0.00067051  0.00069397  0.00069771  0.00076875  0.00079763  0.00081327  0.00093081  0.00098138
  0.00098927  0.00107505  0.00107643  0.00108137  0.00109321  0.00109414  0.00109483  0.00109533
  0.00110666  0.00110999  0.00114202  0.00114294  0.00114504  0.00115287  0.00115930  0.00116539
  0.00116551  0.00116585  0.00116607  0.00116837  0.00117113  0.00117172  0.00117213  0.00118674
  0.00120699  0.00126112  0.00129281  0.00129531  0.00137364  0.00148174  0.00155926  0.00165409
  0.00171513  0.00177788  0.00183106  0.00191900  0.00208643  0.00228006  0.00233584  0.00233918
  0.00235468  0.00237327  0.00252130  0.00252551  0.00255966  0.00258586  0.00278946  0.00292183
  0.00302347  0.00304209  0.00308128  0.00309606  0.00351365  0.00361512  0.00366261  0.00367523
  0.00367704  0.00371348  0.00372191  0.00372364  0.00375400  0.00394507  0.00397406
 Checking for correct frequencies
 recalc frequencies=
    -0.0   -0.0   -0.0    0.0    0.0    0.0    6.7    8.2    9.4   22.2
    28.9   31.5   34.3   46.2   54.7   59.4   72.3   76.3   79.9   89.3
    89.8   91.5  102.0  120.8  130.8  167.9  175.9  184.6  188.0  199.8
   202.3  204.4  213.6  222.4  234.9  235.6  255.3  256.6  276.7  294.6
   301.2  302.3  313.2  325.3  352.2  380.3  389.9  392.8  400.6  411.3
   416.1  417.4  423.4  432.0  436.0  438.5  442.2  447.0  451.6  460.5
   468.8  476.2  479.7  486.4  501.0  505.8  506.4  519.6  531.0  546.6
   558.0  573.3  574.3  578.8  581.9  597.8  605.1  615.6  622.5  634.9
   638.2  649.2  652.6  658.3  678.0  680.6  701.0  705.9  706.3  710.2
   723.9  740.7  751.4  753.0  759.4  759.6  761.5  765.0  771.2  800.2
   807.7  812.4  814.9  819.9  823.1  828.5  831.0  832.5  837.5  839.0
   843.9  846.6  860.7  869.2  876.1  900.4  905.6  924.1  933.9  945.5
   956.8  967.1  973.3  974.5  975.2  976.3  977.8  979.2  983.4  987.7
   988.3 1021.8 1036.5 1051.5 1061.2 1083.7 1094.9 1109.2 1134.1 1135.6
  1141.4 1155.7 1157.7 1163.6 1165.1 1175.4 1179.0 1185.6 1195.8 1203.7
  1204.1 1210.4 1214.1 1224.0 1232.7 1242.2 1246.3 1251.5 1262.5 1292.1
  1299.3 1307.0 1316.3 1317.0 1318.5 1333.9 1339.9 1350.4 1358.3 1362.5
  1365.9 1378.8 1380.1 1382.3 1391.6 1400.3 1403.7 1416.4 1428.6 1430.5
  1439.5 1444.4 1449.1 1458.2 1460.9 1466.2 1485.0 1492.1 1497.7 1504.3
  1505.3 1510.8 1522.5 1527.1 1544.1 1546.7 1554.7 1562.3 1570.3 1580.7
  1585.7 1599.1 1599.6 1616.2 1622.7 1644.6 1652.0 1685.4 1705.5 1724.7
  1741.5 3034.2 3038.3 3092.2 3095.3 3112.4 3132.5 3142.9 3168.2 3170.0
  3177.0 3177.7 3184.9 3187.9 3194.4 3196.4 3197.8 3198.1 3204.6 3204.8
  3212.6 3212.7 3212.8 3213.8 3223.8 3224.1 3244.9
 recalc symmetries=
                                                                       
                                                                       
                                                                       
                                                                       
                                                                       
                                                                       
                                                                       
                                                                       
                                                                       
                                                                       
                                                                       
                                                                       
                                                                       
                                                                       
                                                                       
                                                                       
                                                                       
                                                                       
                                                                       
                                                                       
                                                                       
                                                                       
                                                                       
                                                  
 recalc freqs check OK
 Zero-point lengths:
 10.0000 10.0000 10.0000 10.0000 10.0000 10.0000 95.9642 86.5627 80.7724 52.5794
 46.0759 44.1902 42.3338 36.4578 33.5220 32.1643 29.1502 28.3888 27.7395 26.2292
 26.1591 25.9173 24.5467 22.5595 21.6752 19.1331 18.6918 18.2444 18.0784 17.5398
 17.4305 17.3418 16.9618 16.6219 16.1740 16.1521 15.5166 15.4769 14.9043 14.4437
 14.2835 14.2582 14.0090 13.7442 13.2097 12.7130 12.5545 12.5093 12.3866 12.2241
 12.1532 12.1342 12.0480 11.9274 11.8731 11.8382 11.7891 11.7253 11.6656 11.5525
 11.4495 11.3609 11.3189 11.2410 11.0763 11.0232 11.0171 10.8758 10.7585 10.6036
 10.4948 10.3540 10.3451 10.3044 10.2770 10.1397 10.0781  9.9922  9.9365  9.8386
  9.8135  9.7295  9.7045  9.6621  9.5211  9.5025  9.3633  9.3312  9.3280  9.3023
  9.2141  9.1090  9.0437  9.0343  8.9960  8.9951  8.9839  8.9632  8.9269  8.7639
  8.7233  8.6976  8.6844  8.6579  8.6409  8.6129  8.5997  8.5921  8.5664  8.5587
  8.5338  8.5206  8.4501  8.4089  8.3755  8.2618  8.2383  8.1552  8.1124  8.0625
  8.0146  7.9721  7.9466  7.9417  7.9388  7.9343  7.9281  7.9225  7.9055  7.8884
  7.8859  7.7555  7.7003  7.6453  7.6102  7.5306  7.4922  7.4438  7.3615  7.3567
  7.3380  7.2926  7.2863  7.2676  7.2630  7.2310  7.2201  7.1999  7.1691  7.1455
  7.1445  7.1259  7.1149  7.0861  7.0611  7.0341  7.0223  7.0076  6.9771  6.8967
  6.8777  6.8574  6.8332  6.8312  6.8274  6.7879  6.7727  6.7463  6.7267  6.7164
  6.7078  6.6764  6.6733  6.6681  6.6457  6.6249  6.6170  6.5873  6.5591  6.5547
  6.5341  6.5231  6.5124  6.4921  6.4862  6.4745  6.4332  6.4179  6.4059  6.3918
  6.3898  6.3782  6.3535  6.3440  6.3089  6.3037  6.2873  6.2721  6.2562  6.2355
  6.2257  6.1996  6.1985  6.1667  6.1543  6.1131  6.0995  6.0387  6.0031  5.9695
  5.9407  4.5006  4.4976  4.4583  4.4560  4.4437  4.4294  4.4221  4.4045  4.4032
  4.3983  4.3978  4.3929  4.3908  4.3863  4.3850  4.3840  4.3838  4.3793  4.3792
  4.3739  4.3738  4.3738  4.3730  4.3663  4.3661  4.3521
 highest evec of mol 1
  0.0000 -0.0000  0.0000
  0.0000  0.0000  0.0000
  0.0000 -0.0000  0.0000
 -0.0000  0.0000 -0.0000
  0.0000 -0.0000  0.0000
 -0.0000  0.0000 -0.0000
 -0.0000  0.0000 -0.0000
  0.0000  0.0000  0.0000
 -0.0000  0.0000  0.0000
  0.0000  0.0000 -0.0000
 -0.0000  0.0000 -0.0000
 -0.0000 -0.0000 -0.0000
 -0.0000 -0.0000 -0.0000
 -0.0000  0.0000 -0.0000
  0.0000 -0.0000  0.0000
 -0.0000  0.0000 -0.0000
 -0.0000  0.0000 -0.0000
  0.0000 -0.0000  0.0000
 -0.0000 -0.0000  0.0000
 -0.0000  0.0000 -0.0000
  0.0000 -0.0000  0.0000
  0.0000  0.0000 -0.0000
 -0.0001 -0.0001 -0.0000
 -0.0002 -0.0000 -0.0002
  0.0000  0.0001  0.0000
 -0.0000 -0.0004 -0.0000
  0.0010  0.0010  0.0021
 -0.0008  0.0027 -0.0021
 -0.0009 -0.0008 -0.0019
  0.0592 -0.2313  0.1535
  0.0378  0.0451  0.0753
 -0.0026  0.0039 -0.0059
  0.0001 -0.0004  0.0002
  0.0001  0.0001  0.0000
  0.0001  0.0000  0.0001
  0.0000  0.0000 -0.0000
  0.0001 -0.0000  0.0000
  0.0000 -0.0000  0.0000
 -0.0000  0.0000 -0.0000
 -0.0000  0.0000  0.0000
  0.0000  0.0000  0.0000
 -0.0000  0.0000  0.0000
  0.0000  0.0000 -0.0000
 -0.0000 -0.0000  0.0000
 -0.0000 -0.0000 -0.0000
  0.0000 -0.0000 -0.0000
  0.0000  0.0000 -0.0000
  0.0000 -0.0000  0.0000
  0.0000  0.0000  0.0000
 -0.0000 -0.0000  0.0000
  0.0000 -0.0000 -0.0000
 -0.0000  0.0000 -0.0000
  0.0000  0.0000 -0.0000
 -0.0000  0.0000 -0.0000
 -0.0000 -0.0000 -0.0000
  0.0000  0.0000 -0.0000
 -0.0000 -0.0000 -0.0000
 -0.0000 -0.0000 -0.0000
 -0.0000  0.0000 -0.0000
 -0.0000  0.0000  0.0000
 -0.0000 -0.0000 -0.0000
 -0.0000 -0.0000 -0.0000
  0.0000  0.0000  0.0000
  0.0000  0.0000  0.0000
  0.0001  0.0001 -0.0001
  0.0001 -0.0000  0.0000
  0.0002  0.0003  0.0000
  0.0006  0.0001  0.0004
 -0.0027 -0.0024 -0.0059
 -0.2068  0.7196 -0.5261
 -0.1117 -0.0932 -0.2272
 -0.0003 -0.0004  0.0000
 -0.0002 -0.0000 -0.0002
 -0.0001 -0.0000  0.0000
 -0.0002  0.0000 -0.0000
 -0.0000 -0.0000 -0.0000
 -0.0000  0.0000 -0.0000
  0.0000  0.0000  0.0000
  0.0000  0.0000  0.0000
 generating redundant internal coords
         300        3600          79
 Adding extra bonds for z output only
           6           6           6           7           6           8
           6           6           6           6           6           6
           6           6           6           8           7           6
           6           6           6           6           6           6
           6           6           6           6          16           6
           6           6          16           6           6           6
           6           6           8           6           6           6
           6           6           6           6           6           6
           8           6           6           6           6           1
           1           1           1           1           1           1
           1           1           1           1           1           1
           1           1           1           1           1           1
           1           1           1           1           1           1
           1
 search for int coords
   1 str   2   1   1.532
   2 str   3   2   1.532
   3 str   4   2   1.498
   4 str   5   4   1.408
   5 str   6   5   1.221
   6 str   7   5   1.477
   7 str   8   7   1.400
   8 str   9   8   1.380
   9 str  10   9   1.422
  10 str  11  10   1.441
  11 str  12  11   1.422
  12 str  13  12   1.380
  13 str  14  13   1.400
  14 str  15  14   1.477
  15 str  16  15   1.217
  16 str  17  15   1.410
  17 str  18  17   1.446
  18 str  19  18   1.390
  19 str  20  19   1.389
  20 str  21  20   1.403
  21 str  22  21   1.482
  22 str  23  22   1.402
  23 str  24  23   1.388
  24 str  25  24   1.404
  25 str  26  25   1.465
  26 str  27  26   1.373
  27 str  28  27   1.419
  28 str  29  28   1.744
  29 str  30  29   1.750
  30 str  31  30   1.364
  31 str  32  28   1.388
  32 str  32  31   1.423
  33 str  33  26   1.771
  34 str  33  32   1.742
  35 str  34  25   1.405
  36 str  35  22   1.403
  37 str  35  34   1.387
  38 str  36  21   1.403
  39 str  37  18   1.390
  40 str  37  36   1.389
  41 str  38  17   1.410
  42 str  39  38   1.217
  43 str  40  38   1.477
  44 str  41  40   1.400
  45 str  42  41   1.380
  46 str  43  42   1.422
  47 str  44  43   1.441
  48 str  45  44   1.422
  49 str  46  45   1.380
  50 str  47  46   1.400
  51 str  48   4   1.400
  52 str  48  47   1.479
  53 str  49  48   1.222
  54 str  50   7   1.410
  55 str  50  47   1.411
  56 str  51  10   1.427
  57 str  51  44   1.427
  58 str  51  50   1.428
  59 str  52  11   1.427
  60 str  52  43   1.427
  61 str  53  14   1.412
  62 str  53  40   1.412
  63 str  53  52   1.429
  64 str  54   1   1.093
  65 str  55   1   1.089
  66 str  56   1   1.093
  67 str  57   2   1.088
  68 str  58   3   1.089
  69 str  59   3   1.093
  70 str  60   3   1.093
  71 str  61   8   1.082
  72 str  62   9   1.081
  73 str  63  12   1.081
  74 str  64  13   1.082
  75 str  65  19   1.083
  76 str  66  20   1.084
  77 str  67  23   1.084
  78 str  68  24   1.084
  79 str  69  27   1.081
  80 str  70  30   1.079
  81 str  71  31   1.081
  82 str  72  34   1.084
  83 str  73  35   1.084
  84 str  74  36   1.084
  85 str  75  37   1.083
  86 str  76  41   1.082
  87 str  77  42   1.081
  88 str  78  45   1.081
  89 str  79  46   1.082
 nber stretches=          89
  90 ben   1   2   3
  91 prop tor   1   2   3  58
  92 prop tor   1   2   3  59
  93 prop tor   1   2   3  60
  94 ben   1   2   4
  95 prop tor   1   2   4   5
  96 prop tor   1   2   4  48
  97 ben   1   2  57
  98 ben   2   1  54
  99 ben   2   1  55
 100 ben   2   1  56
 101 ben   2   3  58
 102 ben   2   3  59
 103 ben   2   3  60
 104 ben   2   4   5
 105 prop tor   2   4   5   6
 106 prop tor   2   4   5   7
 107 ben   2   4  48
 108 prop tor   2   4  48  47
 109 prop tor   2   4  48  49
 110 ben   3   2   4
 111 prop tor   3   2   4   5
 112 prop tor   3   2   4  48
 113 ben   3   2  57
 114 prop tor   4   2   3  58
 115 prop tor   4   2   3  59
 116 prop tor   4   2   3  60
 117 ben   4   2  57
 118 ben   4   5   6
 119 ben   4   5   7
 120 prop tor   4   5   7   8
 121 prop tor   4   5   7  50
 122 ben   4  48  47
 123 ben   4  48  49
 124 ben   5   4  48
 125 prop tor   5   4  48  47
 126 prop tor   5   4  48  49
 127 ben   5   7   8
 128 prop tor   5   7   8   9
 129 prop tor   5   7   8  61
 130 ben   5   7  50
 131 prop tor   5   7  50  47
 132 prop tor   5   7  50  51
 133 ben   6   5   7
 134 prop tor   6   5   7   8
 135 prop tor   6   5   7  50
 136 ben   7   8   9
 137 prop tor   7   8   9  10
 138 prop tor   7   8   9  62
 139 ben   7   8  61
 140 ben   7  50  47
 141 ben   7  50  51
 142 prop tor   7  50  51  10
 143 prop tor   7  50  51  44
 144 ben   8   7  50
 145 prop tor   8   7  50  47
 146 prop tor   8   7  50  51
 147 ben   8   9  10
 148 prop tor   8   9  10  11
 149 prop tor   8   9  10  51
 150 ben   8   9  62
 151 ben   9   8  61
 152 ben   9  10  11
 153 prop tor   9  10  11  12
 154 prop tor   9  10  11  52
 155 ben   9  10  51
 156 prop tor   9  10  51  44
 157 prop tor   9  10  51  50
 158 ben  10   9  62
 159 ben  10  11  12
 160 prop tor  10  11  12  13
 161 prop tor  10  11  12  63
 162 ben  10  11  52
 163 prop tor  10  11  52  43
 164 prop tor  10  11  52  53
 165 ben  10  51  44
 166 ben  10  51  50
 167 ben  11  10  51
 168 prop tor  11  10  51  44
 169 prop tor  11  10  51  50
 170 ben  11  12  13
 171 prop tor  11  12  13  14
 172 prop tor  11  12  13  64
 173 ben  11  12  63
 174 ben  11  52  43
 175 ben  11  52  53
 176 prop tor  11  52  53  14
 177 prop tor  11  52  53  40
 178 ben  12  11  52
 179 prop tor  12  11  52  43
 180 prop tor  12  11  52  53
 181 ben  12  13  14
 182 prop tor  12  13  14  15
 183 prop tor  12  13  14  53
 184 ben  12  13  64
 185 ben  13  12  63
 186 ben  13  14  15
 187 prop tor  13  14  15  16
 188 prop tor  13  14  15  17
 189 ben  13  14  53
 190 prop tor  13  14  53  40
 191 prop tor  13  14  53  52
 192 ben  14  13  64
 193 ben  14  15  16
 194 ben  14  15  17
 195 prop tor  14  15  17  18
 196 prop tor  14  15  17  38
 197 ben  14  53  40
 198 ben  14  53  52
 199 ben  15  14  53
 200 prop tor  15  14  53  40
 201 prop tor  15  14  53  52
 202 ben  15  17  18
 203 prop tor  15  17  18  19
 204 prop tor  15  17  18  37
 205 ben  15  17  38
 206 prop tor  15  17  38  39
 207 prop tor  15  17  38  40
 208 ben  16  15  17
 209 prop tor  16  15  17  18
 210 prop tor  16  15  17  38
 211 ben  17  18  19
 212 prop tor  17  18  19  20
 213 prop tor  17  18  19  65
 214 ben  17  18  37
 215 prop tor  17  18  37  36
 216 prop tor  17  18  37  75
 217 ben  17  38  39
 218 ben  17  38  40
 219 prop tor  17  38  40  41
 220 prop tor  17  38  40  53
 221 ben  18  17  38
 222 prop tor  18  17  38  39
 223 prop tor  18  17  38  40
 224 ben  18  19  20
 225 prop tor  18  19  20  21
 226 prop tor  18  19  20  66
 227 ben  18  19  65
 228 ben  18  37  36
 229 ben  18  37  75
 230 ben  19  18  37
 231 prop tor  19  18  37  36
 232 prop tor  19  18  37  75
 233 ben  19  20  21
 234 prop tor  19  20  21  22
 235 prop tor  19  20  21  36
 236 ben  19  20  66
 237 ben  20  19  65
 238 ben  20  21  22
 239 prop tor  20  21  22  23
 240 prop tor  20  21  22  35
 241 ben  20  21  36
 242 prop tor  20  21  36  37
 243 prop tor  20  21  36  74
 244 ben  21  20  66
 245 ben  21  22  23
 246 prop tor  21  22  23  24
 247 prop tor  21  22  23  67
 248 ben  21  22  35
 249 prop tor  21  22  35  34
 250 prop tor  21  22  35  73
 251 ben  21  36  37
 252 prop tor  21  36  37  18
 253 prop tor  21  36  37  75
 254 ben  21  36  74
 255 ben  22  21  36
 256 prop tor  22  21  36  37
 257 prop tor  22  21  36  74
 258 ben  22  23  24
 259 prop tor  22  23  24  25
 260 prop tor  22  23  24  68
 261 ben  22  23  67
 262 ben  22  35  34
 263 ben  22  35  73
 264 ben  23  22  35
 265 prop tor  23  22  35  34
 266 prop tor  23  22  35  73
 267 ben  23  24  25
 268 prop tor  23  24  25  26
 269 prop tor  23  24  25  34
 270 ben  23  24  68
 271 ben  24  23  67
 272 ben  24  25  26
 273 prop tor  24  25  26  27
 274 prop tor  24  25  26  33
 275 ben  24  25  34
 276 prop tor  24  25  34  35
 277 prop tor  24  25  34  72
 278 ben  25  24  68
 279 ben  25  26  27
 280 prop tor  25  26  27  28
 281 prop tor  25  26  27  69
 282 ben  25  26  33
 283 prop tor  25  26  33  32
 284 ben  25  34  35
 285 prop tor  25  34  35  22
 286 prop tor  25  34  35  73
 287 ben  25  34  72
 288 ben  26  25  34
 289 prop tor  26  25  34  35
 290 prop tor  26  25  34  72
 291 ben  26  27  28
 292 prop tor  26  27  28  29
 293 prop tor  26  27  28  32
 294 ben  26  27  69
 295 ben  26  33  32
 296 ben  27  26  33
 297 prop tor  27  26  33  32
 298 ben  27  28  29
 299 prop tor  27  28  29  30
 300 ben  27  28  32
 301 prop tor  27  28  32  31
 302 prop tor  27  28  32  33
 303 ben  28  27  69
 304 ben  28  29  30
 305 prop tor  28  29  30  31
 306 prop tor  28  29  30  70
 307 ben  28  32  31
 308 ben  28  32  33
 309 prop tor  28  32  33  26
 310 ben  29  28  32
 311 prop tor  29  28  32  31
 312 prop tor  29  28  32  33
 313 ben  29  30  31
 314 prop tor  29  30  31  32
 315 prop tor  29  30  31  71
 316 ben  29  30  70
 317 ben  30  31  32
 318 prop tor  30  31  32  28
 319 prop tor  30  31  32  33
 320 ben  30  31  71
 321 ben  31  30  70
 322 ben  31  32  33
 323 prop tor  31  32  33  26
 324 prop tor  32  28  29  30
 325 ben  32  31  71
 326 prop tor  33  26  27  28
 327 prop tor  33  26  27  69
 328 prop tor  34  25  26  27
 329 prop tor  34  25  26  33
 330 ben  34  35  73
 331 prop tor  35  22  23  24
 332 prop tor  35  22  23  67
 333 ben  35  34  72
 334 prop tor  36  21  22  23
 335 prop tor  36  21  22  35
 336 ben  36  37  75
 337 prop tor  37  18  19  20
 338 prop tor  37  18  19  65
 339 ben  37  36  74
 340 prop tor  38  17  18  19
 341 prop tor  38  17  18  37
 342 ben  38  40  41
 343 prop tor  38  40  41  42
 344 prop tor  38  40  41  76
 345 ben  38  40  53
 346 prop tor  38  40  53  14
 347 prop tor  38  40  53  52
 348 ben  39  38  40
 349 prop tor  39  38  40  41
 350 prop tor  39  38  40  53
 351 ben  40  41  42
 352 prop tor  40  41  42  43
 353 prop tor  40  41  42  77
 354 ben  40  41  76
 355 ben  40  53  52
 356 ben  41  40  53
 357 prop tor  41  40  53  14
 358 prop tor  41  40  53  52
 359 ben  41  42  43
 360 prop tor  41  42  43  44
 361 prop tor  41  42  43  52
 362 ben  41  42  77
 363 ben  42  41  76
 364 ben  42  43  44
 365 prop tor  42  43  44  45
 366 prop tor  42  43  44  51
 367 ben  42  43  52
 368 prop tor  42  43  52  11
 369 prop tor  42  43  52  53
 370 ben  43  42  77
 371 ben  43  44  45
 372 prop tor  43  44  45  46
 373 prop tor  43  44  45  78
 374 ben  43  44  51
 375 prop tor  43  44  51  10
 376 prop tor  43  44  51  50
 377 ben  43  52  53
 378 prop tor  43  52  53  14
 379 prop tor  43  52  53  40
 380 ben  44  43  52
 381 prop tor  44  43  52  11
 382 prop tor  44  43  52  53
 383 ben  44  45  46
 384 prop tor  44  45  46  47
 385 prop tor  44  45  46  79
 386 ben  44  45  78
 387 ben  44  51  50
 388 ben  45  44  51
 389 prop tor  45  44  51  10
 390 prop tor  45  44  51  50
 391 ben  45  46  47
 392 prop tor  45  46  47  48
 393 prop tor  45  46  47  50
 394 ben  45  46  79
 395 ben  46  45  78
 396 ben  46  47  48
 397 prop tor  46  47  48   4
 398 prop tor  46  47  48  49
 399 ben  46  47  50
 400 prop tor  46  47  50   7
 401 prop tor  46  47  50  51
 402 ben  47  46  79
 403 ben  47  48  49
 404 ben  47  50  51
 405 prop tor  47  50  51  10
 406 prop tor  47  50  51  44
 407 prop tor  48   4   5   6
 408 prop tor  48   4   5   7
 409 ben  48  47  50
 410 prop tor  48  47  50   7
 411 prop tor  48  47  50  51
 412 prop tor  50   7   8   9
 413 prop tor  50   7   8  61
 414 prop tor  50  47  48   4
 415 prop tor  50  47  48  49
 416 prop tor  51  10  11  12
 417 prop tor  51  10  11  52
 418 prop tor  51  44  45  46
 419 prop tor  51  44  45  78
 420 prop tor  52  11  12  13
 421 prop tor  52  11  12  63
 422 prop tor  52  43  44  45
 423 prop tor  52  43  44  51
 424 prop tor  53  14  15  16
 425 prop tor  53  14  15  17
 426 prop tor  53  40  41  42
 427 prop tor  53  40  41  76
 428 prop tor  54   1   2   3
 429 prop tor  54   1   2   4
 430 prop tor  54   1   2  57
 431 ben  54   1  55
 432 ben  54   1  56
 433 prop tor  55   1   2   3
 434 prop tor  55   1   2   4
 435 prop tor  55   1   2  57
 436 ben  55   1  56
 437 prop tor  56   1   2   3
 438 prop tor  56   1   2   4
 439 prop tor  56   1   2  57
 440 prop tor  57   2   3  58
 441 prop tor  57   2   3  59
 442 prop tor  57   2   3  60
 443 prop tor  57   2   4   5
 444 prop tor  57   2   4  48
 445 ben  58   3  59
 446 ben  58   3  60
 447 ben  59   3  60
 448 prop tor  61   8   9  10
 449 prop tor  61   8   9  62
 450 prop tor  62   9  10  11
 451 prop tor  62   9  10  51
 452 prop tor  63  12  13  14
 453 prop tor  63  12  13  64
 454 prop tor  64  13  14  15
 455 prop tor  64  13  14  53
 456 prop tor  65  19  20  21
 457 prop tor  65  19  20  66
 458 prop tor  66  20  21  22
 459 prop tor  66  20  21  36
 460 prop tor  67  23  24  25
 461 prop tor  67  23  24  68
 462 prop tor  68  24  25  26
 463 prop tor  68  24  25  34
 464 prop tor  69  27  28  29
 465 prop tor  69  27  28  32
 466 prop tor  70  30  31  32
 467 prop tor  70  30  31  71
 468 prop tor  71  31  32  28
 469 prop tor  71  31  32  33
 470 prop tor  72  34  35  22
 471 prop tor  72  34  35  73
 472 prop tor  74  36  37  18
 473 prop tor  74  36  37  75
 474 prop tor  76  41  42  43
 475 prop tor  76  41  42  77
 476 prop tor  77  42  43  44
 477 prop tor  77  42  43  52
 478 prop tor  78  45  46  47
 479 prop tor  78  45  46  79
 480 prop tor  79  46  47  48
 481 prop tor  79  46  47  50
 nber bend=             152
 nber lin bend=           0
 nber prop tor=         240
 nber impr tor=           0
 nber tot redund int=         481
 Reading file: 
 ./TT-PDI_6_C0S1.log                                                            
                                          
  Entering Gaussian System, Link 0=g16                                          
  
 Gaussian format, type: g94, g98, g03= F F F
  #P Geom=AllCheck Guess=TCheck SCRF=Check GenChk RB3LYP TD(FC,Read)/6-3    
 energy type= TD      
 Original G94 input coords:
  6  1.039642 -0.474096  0.753458
  6  2.518833 -0.211854  0.447659
  6  2.934953 -0.665191 -0.956478
  7  2.898963  1.205257  0.710848
  6  3.845247  1.429525  1.736425
  8  4.320061  0.492528  2.368766
  6  4.221838  2.822657  1.999132
  6  5.152567  3.102075  3.002406
  6  5.529062  4.402515  3.275560
  6  4.996059  5.499399  2.560297
  6  5.382115  6.866000  2.837281
  6  6.320055  7.192979  3.847294
  6  6.682686  8.494539  4.102971
  6  6.131911  9.554725  3.366664
  6  6.552036 10.908519  3.670009
  8  7.362706 11.213822  4.534854
  7  5.939884 11.943339  2.884498
  6  6.319745 13.286656  3.156277
  6  5.345358 14.270273  3.373377
  6  5.716010 15.573103  3.648870
  6  7.073319 15.950653  3.695856
  6  7.463418 17.329692  3.974558
  6  6.620374 18.204397  4.707389
  6  6.987731 19.500320  4.973728
  6  8.225777 20.024267  4.519462
  6  8.613811 21.373726  4.789226
  6  9.795381 22.021845  4.388762
  6  9.847447 23.339418  4.827212
 16 10.999196 24.645147  4.674859
  6  9.951769 25.679057  5.598782
  6  8.782143 25.082829  6.011340
  6  8.721663 23.748716  5.571876
 16  7.570584 22.459178  5.728663
  6  9.070896 19.152088  3.781965
  6  8.702079 17.854797  3.525016
  6  8.041540 14.952648  3.464482
  6  7.673666 13.644639  3.210942
  6  4.973156 11.724103  1.845299
  8  4.520823 12.684688  1.236208
  6  4.618961 10.340824  1.595334
  6  3.687042 10.052912  0.586344
  6  3.314808  8.756816  0.316938
  6  3.850434  7.662692  1.039886
  6  3.463021  6.295981  0.764507
  6  2.525178  5.962852 -0.239452
  6  2.163426  4.654186 -0.493378
  6  2.718026  3.603905  0.240900
  6  2.310479  2.225150 -0.055896
  8  1.493299  1.958244 -0.931690
  6  3.659604  3.883379  1.255335
  6  4.042985  5.238190  1.529138
  6  4.803841  7.927474  2.072606
  6  5.188155  9.285945  2.347234
  1  0.842546 -1.548204  0.684415
  1  0.389095  0.048923  0.053758
  1  0.796364 -0.154005  1.770150
  1  3.115019 -0.765103  1.170253
  1  2.363045 -0.150650 -1.727515
  1  2.767423 -1.742343 -1.051490
  1  3.999396 -0.476524 -1.119830
  1  5.569030  2.271586  3.558218
  1  6.252503  4.570854  4.060828
  1  6.768775  6.408104  4.439003
  1  7.401170  8.729875  4.877914
  1  4.301502 14.005186  3.309806
  1  4.938046 16.313080  3.789710
  1  5.680630 17.835595  5.094185
  1  6.316659 20.125141  5.551245
  1 10.565108 21.539078  3.806251
  1 10.262815 26.694697  5.792260
  1  8.026912 25.590126  6.593276
  1 10.019834 19.507805  3.403110
  1  9.360328 17.230082  2.937344
  1  9.096263 15.191129  3.522074
  1  8.428203 12.886980  3.067510
  1  3.269180 10.879639  0.025939
  1  2.594604  8.581137 -0.469159
  1  2.069906  6.743346 -0.832685
  1  1.443621  4.412697 -1.265230
 nber atoms=          79
  Total Energy, E(TD-HF/TD-DFT) =  -2937.86749761                               
  
          32          49 "  -2937.86749761"
After scan for Atom:   Atom  AN      X      Y      Z        X      Y      Z        X      Y      Z   
After scan for Atom:   Atom  AN      X      Y      Z        X      Y      Z        X      Y      Z   
After scan for Atom:   Atom  AN      X      Y      Z        X      Y      Z        X      Y      Z   
After scan for Atom:   Atom  AN      X      Y      Z        X      Y      Z        X      Y      Z   
After scan for Atom:   Atom  AN      X      Y      Z        X      Y      Z        X      Y      Z   
After scan for Atom:   Atom  AN      X      Y      Z        X      Y      Z        X      Y      Z   
After scan for Atom:   Atom  AN      X      Y      Z        X      Y      Z        X      Y      Z   
After scan for Atom:   Atom  AN      X      Y      Z        X      Y      Z        X      Y      Z   
After scan for Atom:   Atom  AN      X      Y      Z        X      Y      Z        X      Y      Z   
After scan for Atom:   Atom  AN      X      Y      Z        X      Y      Z        X      Y      Z   
After scan for Atom:   Atom  AN      X      Y      Z        X      Y      Z        X      Y      Z   
After scan for Atom:   Atom  AN      X      Y      Z        X      Y      Z        X      Y      Z   
After scan for Atom:   Atom  AN      X      Y      Z        X      Y      Z        X      Y      Z   
After scan for Atom:   Atom  AN      X      Y      Z        X      Y      Z        X      Y      Z   
After scan for Atom:   Atom  AN      X      Y      Z        X      Y      Z        X      Y      Z   
After scan for Atom:   Atom  AN      X      Y      Z        X      Y      Z        X      Y      Z   
After scan for Atom:   Atom  AN      X      Y      Z        X      Y      Z        X      Y      Z   
After scan for Atom:   Atom  AN      X      Y      Z        X      Y      Z        X      Y      Z   
After scan for Atom:   Atom  AN      X      Y      Z        X      Y      Z        X      Y      Z   
After scan for Atom:   Atom  AN      X      Y      Z        X      Y      Z        X      Y      Z   
After scan for Atom:   Atom  AN      X      Y      Z        X      Y      Z        X      Y      Z   
After scan for Atom:   Atom  AN      X      Y      Z        X      Y      Z        X      Y      Z   
After scan for Atom:   Atom  AN      X      Y      Z        X      Y      Z        X      Y      Z   
After scan for Atom:   Atom  AN      X      Y      Z        X      Y      Z        X      Y      Z   
After scan for Atom:   Atom  AN      X      Y      Z        X      Y      Z        X      Y      Z   
After scan for Atom:   Atom  AN      X      Y      Z        X      Y      Z        X      Y      Z   
After scan for Atom:   Atom  AN      X      Y      Z        X      Y      Z        X      Y      Z   
After scan for Atom:   Atom  AN      X      Y      Z        X      Y      Z        X      Y      Z   
After scan for Atom:   Atom  AN      X      Y      Z        X      Y      Z        X      Y      Z   
After scan for Atom:   Atom  AN      X      Y      Z        X      Y      Z        X      Y      Z   
After scan for Atom:   Atom  AN      X      Y      Z        X      Y      Z        X      Y      Z   
After scan for Atom:   Atom  AN      X      Y      Z        X      Y      Z        X      Y      Z   
After scan for Atom:   Atom  AN      X      Y      Z        X      Y      Z        X      Y      Z   
After scan for Atom:   Atom  AN      X      Y      Z        X      Y      Z        X      Y      Z   
After scan for Atom:   Atom  AN      X      Y      Z        X      Y      Z        X      Y      Z   
After scan for Atom:   Atom  AN      X      Y      Z        X      Y      Z        X      Y      Z   
After scan for Atom:   Atom  AN      X      Y      Z        X      Y      Z        X      Y      Z   
After scan for Atom:   Atom  AN      X      Y      Z        X      Y      Z        X      Y      Z   
After scan for Atom:   Atom  AN      X      Y      Z        X      Y      Z        X      Y      Z   
[...]
   5     freq=     0. Q= -0.000 lam=     0.0     freq=     0. Q= -0.000 lam=     0.0
   6     freq=     0. Q= -0.000 lam=     0.0     freq=     0. Q= -0.000 lam=     0.0
   7     freq=     7. Q= -5.531 lam=   102.1     freq=     6. Q= -0.674 lam=     1.5
   8     freq=     8. Q= 13.155 lam=   709.7     freq=    10. Q=  2.312 lam=    25.5
   9     freq=     9. Q= -1.346 lam=     8.5     freq=    13. Q=-14.351 lam=  1383.9
  10     freq=    22. Q= -1.619 lam=    29.1     freq=    24. Q= -4.619 lam=   257.5
  11     freq=    29. Q= -0.023 lam=     0.0     freq=    26. Q= -0.869 lam=    10.0
  12     freq=    31. Q= -6.591 lam=   683.5     freq=    34. Q= -4.443 lam=   339.9
  13     freq=    34. Q=  5.525 lam=   523.4     freq=    42. Q= 17.893 lam=  6658.4
  14     freq=    46. Q=  0.128 lam=     0.4     freq=    45. Q=  0.528 lam=     6.2
  15     freq=    55. Q=  0.403 lam=     4.4     freq=    57. Q=  1.257 lam=    45.4
  16     freq=    59. Q= -0.092 lam=     0.3     freq=    64. Q= -0.384 lam=     4.7
  17     freq=    72. Q= -0.308 lam=     3.4     freq=    78. Q= -6.113 lam=  1454.1
  18     freq=    76. Q=  0.143 lam=     0.8     freq=    79. Q=  1.263 lam=    63.1
  19     freq=    80. Q= -0.293 lam=     3.4     freq=    89. Q= -6.144 lam=  1678.1
  20     freq=    89. Q=  2.468 lam=   272.2     freq=    91. Q=  0.874 lam=    34.7
  21     freq=    90. Q= -0.898 lam=    36.2     freq=    99. Q= -3.633 lam=   652.1
  22     freq=    91. Q=  0.126 lam=     0.7     freq=   103. Q= 15.040 lam= 11617.0
  23     freq=   102. Q=  0.018 lam=     0.0     freq=   108. Q=  1.263 lam=    86.3
  24     freq=   121. Q=  0.040 lam=     0.1     freq=   120. Q=  0.072 lam=     0.3
  25     freq=   131. Q= -0.058 lam=     0.2     freq=   149. Q= -0.114 lam=     1.0
  26     freq=   168. Q= -0.022 lam=     0.0     freq=   169. Q= -0.089 lam=     0.7
  27     freq=   176. Q= -0.104 lam=     0.9     freq=   171. Q= -0.137 lam=     1.6
  28     freq=   185. Q= -0.094 lam=     0.8     freq=   192. Q= -0.110 lam=     1.2
  29     freq=   188. Q=  0.518 lam=    25.3     freq=   197. Q=  0.023 lam=     0.1
  30     freq=   200. Q= -0.380 lam=    14.4     freq=   199. Q= -0.356 lam=    12.6
  31     freq=   202. Q= -0.123 lam=     1.5     freq=   202. Q= -0.064 lam=     0.4
  32     freq=   204. Q=  0.261 lam=     7.0     freq=   211. Q=  0.143 lam=     2.2
  33     freq=   214. Q=  0.112 lam=     1.3     freq=   218. Q=  0.060 lam=     0.4
  34     freq=   222. Q=  0.096 lam=     1.0     freq=   234. Q=  0.309 lam=    11.1
  35     freq=   235. Q=  0.019 lam=     0.0     freq=   235. Q=  0.053 lam=     0.3
  36     freq=   236. Q= -0.008 lam=     0.0     freq=   241. Q= -0.055 lam=     0.4
  37     freq=   255. Q=  0.313 lam=    12.5     freq=   261. Q=  3.098 lam=  1251.4
  38     freq=   257. Q= -0.034 lam=     0.1     freq=   264. Q= -0.473 lam=    29.5
  39     freq=   277. Q=  0.074 lam=     0.8     freq=   283. Q=  0.503 lam=    35.7
  40     freq=   295. Q= -0.170 lam=     4.3     freq=   292. Q= -0.199 lam=     5.8
  41     freq=   301. Q=  0.731 lam=    80.6     freq=   300. Q=  0.015 lam=     0.0
  42     freq=   302. Q=  0.101 lam=     1.6     freq=   306. Q=  2.452 lam=   919.8
  43     freq=   313. Q= -0.168 lam=     4.4     freq=   313. Q= -1.902 lam=   566.3
  44     freq=   325. Q= -0.012 lam=     0.0     freq=   342. Q= -0.147 lam=     3.7
  45     freq=   352. Q=  0.039 lam=     0.3     freq=   359. Q=  0.168 lam=     5.1
  46     freq=   380. Q=  0.097 lam=     1.8     freq=   369. Q=  0.210 lam=     8.1
  47     freq=   390. Q= -0.264 lam=    13.6     freq=   383. Q= -0.451 lam=    39.0
  48     freq=   393. Q=  0.755 lam=   111.8     freq=   394. Q=  0.945 lam=   176.0
  49     freq=   401. Q=  0.553 lam=    61.2     freq=   395. Q=  0.209 lam=     8.6
  50     freq=   411. Q= -0.586 lam=    70.5     freq=   398. Q= -2.130 lam=   902.9
  51     freq=   416. Q= -0.304 lam=    19.2     freq=   409. Q= -1.407 lam=   405.1
  52     freq=   417. Q=  0.016 lam=     0.1     freq=   418. Q=  0.290 lam=    17.5
  53     freq=   423. Q= -0.024 lam=     0.1     freq=   419. Q= -3.271 lam=  2243.4
  54     freq=   432. Q=  0.339 lam=    24.9     freq=   431. Q=  0.400 lam=    34.5
  55     freq=   436. Q=  0.050 lam=     0.5     freq=   436. Q=  0.301 lam=    19.7
  56     freq=   439. Q=  0.142 lam=     4.4     freq=   443. Q=  0.088 lam=     1.7
  57     freq=   442. Q=  0.109 lam=     2.6     freq=   446. Q=  0.087 lam=     1.7
  58     freq=   447. Q= -0.024 lam=     0.1     freq=   454. Q= -0.030 lam=     0.2
  59     freq=   452. Q=  0.086 lam=     1.7     freq=   457. Q=  0.672 lam=   103.1
  60     freq=   460. Q=  0.445 lam=    45.7     freq=   462. Q=  0.043 lam=     0.4
  61     freq=   469. Q=  0.035 lam=     0.3     freq=   468. Q=  0.908 lam=   192.9
  62     freq=   476. Q= -0.023 lam=     0.1     freq=   472. Q= -0.092 lam=     2.0
  63     freq=   480. Q= -0.160 lam=     6.1     freq=   476. Q= -0.719 lam=   123.1
  64     freq=   486. Q= -0.010 lam=     0.0     freq=   501. Q= -0.656 lam=   107.7
  65     freq=   501. Q= -0.018 lam=     0.1     freq=   504. Q= -0.020 lam=     0.1
  66     freq=   506. Q= -0.161 lam=     6.6     freq=   506. Q= -0.083 lam=     1.7
  67     freq=   506. Q=  0.021 lam=     0.1     freq=   514. Q=  0.021 lam=     0.1
  68     freq=   520. Q= -0.094 lam=     2.3     freq=   516. Q= -0.275 lam=    19.4
  69     freq=   531. Q=  0.082 lam=     1.8     freq=   517. Q=  0.079 lam=     1.6
  70     freq=   547. Q=  0.161 lam=     7.1     freq=   544. Q=  0.224 lam=    13.6
  71     freq=   558. Q= -0.052 lam=     0.7     freq=   552. Q= -0.048 lam=     0.6
  72     freq=   573. Q=  0.001 lam=     0.0     freq=   572. Q=  0.046 lam=     0.6
  73     freq=   574. Q= -0.019 lam=     0.1     freq=   580. Q= -0.006 lam=     0.0
  74     freq=   579. Q=  0.122 lam=     4.3     freq=   582. Q=  0.158 lam=     7.2
  75     freq=   582. Q= -0.070 lam=     1.4     freq=   592. Q= -0.002 lam=     0.0
  76     freq=   598. Q= -0.229 lam=    15.7     freq=   601. Q= -0.371 lam=    41.3
  77     freq=   605. Q=  0.033 lam=     0.3     freq=   624. Q=  0.033 lam=     0.3
  78     freq=   616. Q= -0.012 lam=     0.0     freq=   625. Q= -0.009 lam=     0.0
  79     freq=   622. Q= -0.059 lam=     1.1     freq=   627. Q= -0.046 lam=     0.7
  80     freq=   635. Q=  0.008 lam=     0.0     freq=   628. Q=  0.012 lam=     0.0
  81     freq=   638. Q= -0.075 lam=     1.8     freq=   643. Q= -0.006 lam=     0.0
  82     freq=   649. Q= -0.147 lam=     7.0     freq=   649. Q= -0.022 lam=     0.2
  83     freq=   653. Q=  0.018 lam=     0.1     freq=   658. Q=  0.004 lam=     0.0
  84     freq=   658. Q=  0.092 lam=     2.8     freq=   667. Q=  0.038 lam=     0.5
  85     freq=   678. Q=  0.012 lam=     0.1     freq=   677. Q=  0.226 lam=    17.3
  86     freq=   681. Q= -0.316 lam=    34.0     freq=   710. Q= -0.117 lam=     4.9
  87     freq=   701. Q= -0.031 lam=     0.3     freq=   714. Q= -0.034 lam=     0.4
  88     freq=   706. Q= -0.045 lam=     0.7     freq=   728. Q= -0.159 lam=     9.2
  89     freq=   706. Q=  0.104 lam=     3.8     freq=   732. Q=  0.021 lam=     0.2
  90     freq=   710. Q= -0.016 lam=     0.1     freq=   745. Q= -0.022 lam=     0.2
  91     freq=   724. Q=  0.172 lam=    10.7     freq=   748. Q=  0.041 lam=     0.6
  92     freq=   741. Q=  0.035 lam=     0.4     freq=   748. Q=  0.002 lam=     0.0
  93     freq=   751. Q= -0.131 lam=     6.5     freq=   751. Q= -0.007 lam=     0.0
  94     freq=   753. Q= -0.042 lam=     0.7     freq=   758. Q= -0.111 lam=     4.6
  95     freq=   759. Q= -0.010 lam=     0.0     freq=   764. Q= -0.016 lam=     0.1
  96     freq=   760. Q=  0.014 lam=     0.1     freq=   765. Q=  0.097 lam=     3.6
  97     freq=   761. Q= -0.008 lam=     0.0     freq=   769. Q= -0.124 lam=     5.9
  98     freq=   765. Q=  0.201 lam=    15.5     freq=   785. Q=  0.002 lam=     0.0
  99     freq=   771. Q=  0.009 lam=     0.0     freq=   803. Q=  0.012 lam=     0.1
 100     freq=   800. Q=  0.024 lam=     0.2     freq=   809. Q=  0.010 lam=     0.0
 101     freq=   808. Q= -0.056 lam=     1.3     freq=   813. Q= -0.009 lam=     0.0
 102     freq=   812. Q=  0.012 lam=     0.1     freq=   814. Q=  0.070 lam=     2.0
 103     freq=   815. Q= -0.000 lam=     0.0     freq=   816. Q= -0.017 lam=     0.1
 104     freq=   820. Q= -0.221 lam=    20.0     freq=   817. Q= -0.081 lam=     2.7
 105     freq=   823. Q=  0.032 lam=     0.4     freq=   821. Q=  0.071 lam=     2.1
 106     freq=   828. Q= -0.001 lam=     0.0     freq=   823. Q= -0.057 lam=     1.3
 107     freq=   831. Q=  0.052 lam=     1.1     freq=   824. Q=  0.058 lam=     1.4
 108     freq=   832. Q=  0.013 lam=     0.1     freq=   830. Q=  0.056 lam=     1.3
 109     freq=   838. Q= -0.225 lam=    21.2     freq=   835. Q= -0.023 lam=     0.2
 110     freq=   839. Q=  0.284 lam=    33.9     freq=   839. Q=  0.085 lam=     3.1
 111     freq=   844. Q= -0.027 lam=     0.3     freq=   843. Q= -0.025 lam=     0.3
 112     freq=   847. Q=  0.162 lam=    11.1     freq=   846. Q=  0.095 lam=     3.8
 113     freq=   861. Q= -0.458 lam=    90.3     freq=   863. Q= -0.081 lam=     2.8
 114     freq=   869. Q=  0.039 lam=     0.6     freq=   871. Q=  0.015 lam=     0.1
 115     freq=   876. Q=  0.004 lam=     0.0     freq=   898. Q=  0.066 lam=     1.9
 116     freq=   900. Q=  0.204 lam=    18.8     freq=   901. Q=  0.013 lam=     0.1
 117     freq=   906. Q=  0.101 lam=     4.7     freq=   908. Q=  0.042 lam=     0.8
 118     freq=   924. Q=  0.140 lam=     9.1     freq=   931. Q=  0.108 lam=     5.4
 119     freq=   934. Q= -0.043 lam=     0.9     freq=   943. Q= -0.005 lam=     0.0
 120     freq=   945. Q= -0.000 lam=     0.0     freq=   955. Q= -0.003 lam=     0.0
 121     freq=   957. Q= -0.001 lam=     0.0     freq=   966. Q= -0.011 lam=     0.1
 122     freq=   967. Q= -0.002 lam=     0.0     freq=   970. Q= -0.043 lam=     0.9
 123     freq=   973. Q= -0.162 lam=    12.8     freq=   973. Q= -0.005 lam=     0.0
 124     freq=   974. Q= -0.002 lam=     0.0     freq=   974. Q= -0.047 lam=     1.1
 125     freq=   975. Q=  0.094 lam=     4.3     freq=   974. Q=  0.014 lam=     0.1
 126     freq=   976. Q=  0.001 lam=     0.0     freq=   978. Q=  0.231 lam=    26.1
 127     freq=   978. Q=  0.046 lam=     1.0     freq=   982. Q=  0.028 lam=     0.4
 128     freq=   979. Q= -0.007 lam=     0.0     freq=   985. Q= -0.001 lam=     0.0
 129     freq=   983. Q=  0.189 lam=    17.5     freq=   987. Q=  0.026 lam=     0.3
 130     freq=   988. Q=  0.003 lam=     0.0     freq=   990. Q=  0.012 lam=     0.1
 131     freq=   988. Q= -0.002 lam=     0.0     freq=   994. Q= -0.042 lam=     0.9
 132     freq=  1022. Q=  0.153 lam=    12.0     freq=  1010. Q=  0.130 lam=     8.5
 133     freq=  1036. Q= -0.082 lam=     3.5     freq=  1025. Q= -0.382 lam=    74.8
 134     freq=  1051. Q=  0.009 lam=     0.0     freq=  1037. Q=  0.600 lam=   187.0
 135     freq=  1061. Q= -0.025 lam=     0.3     freq=  1066. Q= -0.025 lam=     0.3
 136     freq=  1084. Q=  0.142 lam=    10.9     freq=  1082. Q=  0.115 lam=     7.2
 137     freq=  1095. Q= -0.016 lam=     0.1     freq=  1084. Q= -0.000 lam=     0.0
 138     freq=  1109. Q=  0.076 lam=     3.2     freq=  1093. Q=  0.055 lam=     1.7
 139     freq=  1134. Q=  0.000 lam=     0.0     freq=  1107. Q=  0.056 lam=     1.7
 140     freq=  1136. Q= -0.008 lam=     0.0     freq=  1145. Q= -0.003 lam=     0.0
 141     freq=  1141. Q= -0.041 lam=     0.9     freq=  1146. Q= -0.181 lam=    18.7
 142     freq=  1156. Q=  0.001 lam=     0.0     freq=  1155. Q=  0.003 lam=     0.0
 143     freq=  1158. Q=  0.147 lam=    12.5     freq=  1158. Q=  0.279 lam=    44.9
 144     freq=  1164. Q=  0.026 lam=     0.4     freq=  1161. Q=  0.034 lam=     0.7
 145     freq=  1165. Q=  0.143 lam=    11.9     freq=  1164. Q=  0.042 lam=     1.0
 146     freq=  1175. Q=  0.001 lam=     0.0     freq=  1174. Q=  0.039 lam=     0.9
 147     freq=  1179. Q=  0.060 lam=     2.1     freq=  1186. Q=  0.153 lam=    13.9
 148     freq=  1186. Q=  0.006 lam=     0.0     freq=  1187. Q=  0.121 lam=     8.7
 149     freq=  1196. Q= -0.007 lam=     0.0     freq=  1196. Q= -1.075 lam=   690.5
 150     freq=  1204. Q= -0.044 lam=     1.2     freq=  1198. Q= -0.109 lam=     7.1
 151     freq=  1204. Q=  0.000 lam=     0.0     freq=  1203. Q=  0.025 lam=     0.4
 152     freq=  1210. Q= -0.056 lam=     1.9     freq=  1217. Q= -0.866 lam=   456.6
 153     freq=  1214. Q= -0.249 lam=    37.5     freq=  1226. Q= -0.054 lam=     1.8
 154     freq=  1224. Q= -0.086 lam=     4.5     freq=  1231. Q= -0.431 lam=   114.3
 155     freq=  1233. Q=  0.027 lam=     0.5     freq=  1235. Q=  0.043 lam=     1.2
 156     freq=  1242. Q=  0.000 lam=     0.0     freq=  1245. Q=  0.024 lam=     0.4
 157     freq=  1246. Q= -0.093 lam=     5.4     freq=  1247. Q= -0.486 lam=   147.0
 158     freq=  1252. Q= -0.004 lam=     0.0     freq=  1258. Q= -0.003 lam=     0.0
 159     freq=  1263. Q=  0.129 lam=    10.6     freq=  1279. Q=  0.160 lam=    16.3
 160     freq=  1292. Q= -0.022 lam=     0.3     freq=  1298. Q= -0.128 lam=    10.7
 161     freq=  1299. Q=  0.171 lam=    19.0     freq=  1301. Q=  0.823 lam=   441.1
 162     freq=  1307. Q= -0.131 lam=    11.2     freq=  1303. Q= -0.603 lam=   236.7
 163     freq=  1316. Q= -0.004 lam=     0.0     freq=  1315. Q= -0.029 lam=     0.6
 164     freq=  1317. Q=  0.104 lam=     7.1     freq=  1321. Q=  0.184 lam=    22.4
 165     freq=  1318. Q= -0.017 lam=     0.2     freq=  1337. Q= -0.445 lam=   132.5
 166     freq=  1334. Q= -0.026 lam=     0.5     freq=  1337. Q= -0.116 lam=     9.0
 167     freq=  1340. Q= -0.038 lam=     1.0     freq=  1347. Q= -0.020 lam=     0.3
 168     freq=  1350. Q= -0.128 lam=    11.0     freq=  1351. Q= -0.070 lam=     3.3
 169     freq=  1358. Q= -0.087 lam=     5.2     freq=  1358. Q= -0.001 lam=     0.0
 170     freq=  1362. Q= -0.294 lam=    58.8     freq=  1361. Q= -0.342 lam=    79.7
 171     freq=  1366. Q=  0.013 lam=     0.1     freq=  1364. Q=  0.327 lam=    72.8
 172     freq=  1379. Q=  0.115 lam=     9.1     freq=  1372. Q=  0.390 lam=   104.5
 173     freq=  1380. Q= -0.381 lam=   100.2     freq=  1384. Q= -0.001 lam=     0.0
 174     freq=  1382. Q= -0.001 lam=     0.0     freq=  1392. Q= -0.007 lam=     0.0
 175     freq=  1392. Q=  0.060 lam=     2.5     freq=  1393. Q=  0.059 lam=     2.4
 176     freq=  1400. Q=  0.000 lam=     0.0     freq=  1397. Q=  0.002 lam=     0.0
 177     freq=  1404. Q= -0.006 lam=     0.0     freq=  1410. Q= -0.021 lam=     0.3
 178     freq=  1416. Q= -0.043 lam=     1.3     freq=  1423. Q= -0.018 lam=     0.2
 179     freq=  1429. Q= -0.006 lam=     0.0     freq=  1424. Q= -0.182 lam=    23.6
 180     freq=  1430. Q=  0.064 lam=     2.9     freq=  1437. Q=  0.296 lam=    62.9
 181     freq=  1439. Q= -0.143 lam=    14.6     freq=  1440. Q= -0.089 lam=     5.7
 182     freq=  1444. Q=  0.013 lam=     0.1     freq=  1450. Q=  0.080 lam=     4.7
 183     freq=  1449. Q=  0.080 lam=     4.6     freq=  1451. Q=  0.006 lam=     0.0
 184     freq=  1458. Q= -0.337 lam=    82.6     freq=  1462. Q= -0.176 lam=    22.7
 185     freq=  1461. Q= -0.044 lam=     1.4     freq=  1470. Q= -0.008 lam=     0.1
 186     freq=  1466. Q=  0.002 lam=     0.0     freq=  1475. Q=  0.004 lam=     0.0
 187     freq=  1485. Q= -0.000 lam=     0.0     freq=  1483. Q= -0.111 lam=     9.1
 188     freq=  1492. Q= -0.054 lam=     2.2     freq=  1483. Q= -0.083 lam=     5.1
 189     freq=  1498. Q=  0.030 lam=     0.7     freq=  1484. Q=  0.003 lam=     0.0
 190     freq=  1504. Q=  0.190 lam=    27.1     freq=  1490. Q=  0.379 lam=   107.1
 191     freq=  1505. Q= -0.002 lam=     0.0     freq=  1495. Q= -0.004 lam=     0.0
 192     freq=  1511. Q= -0.002 lam=     0.0     freq=  1507. Q= -0.001 lam=     0.0
 193     freq=  1522. Q= -0.014 lam=     0.1     freq=  1524. Q= -0.003 lam=     0.0
 194     freq=  1527. Q=  0.185 lam=    26.1     freq=  1527. Q=  0.113 lam=     9.8
 195     freq=  1544. Q= -0.150 lam=    17.5     freq=  1533. Q= -0.018 lam=     0.3
 196     freq=  1547. Q=  0.078 lam=     4.7     freq=  1534. Q=  0.026 lam=     0.5
 197     freq=  1555. Q= -0.221 lam=    37.8     freq=  1551. Q= -0.106 lam=     8.8
 198     freq=  1562. Q=  0.266 lam=    55.2     freq=  1561. Q=  0.281 lam=    61.4
 199     freq=  1570. Q=  0.000 lam=     0.0     freq=  1573. Q=  0.209 lam=    34.2
 200     freq=  1581. Q=  0.009 lam=     0.1     freq=  1578. Q=  0.002 lam=     0.0
 201     freq=  1586. Q=  0.097 lam=     7.5     freq=  1579. Q=  0.001 lam=     0.0
 202     freq=  1599. Q=  0.005 lam=     0.0     freq=  1592. Q=  0.003 lam=     0.0
 203     freq=  1600. Q=  0.055 lam=     2.4     freq=  1612. Q=  0.008 lam=     0.1
 204     freq=  1616. Q=  0.010 lam=     0.1     freq=  1619. Q=  0.277 lam=    62.0
 205     freq=  1623. Q= -0.016 lam=     0.2     freq=  1621. Q= -0.633 lam=   325.1
 206     freq=  1645. Q= -0.322 lam=    85.5     freq=  1630. Q= -0.075 lam=     4.5
 207     freq=  1652. Q= -0.138 lam=    15.8     freq=  1639. Q= -0.086 lam=     6.1
 208     freq=  1685. Q= -0.002 lam=     0.0     freq=  1678. Q= -0.004 lam=     0.0
 209     freq=  1705. Q= -0.000 lam=     0.0     freq=  1694. Q= -0.001 lam=     0.0
 210     freq=  1725. Q=  0.121 lam=    12.6     freq=  1713. Q=  0.070 lam=     4.2
 211     freq=  1741. Q= -0.158 lam=    21.8     freq=  1733. Q= -0.687 lam=   408.5
 212     freq=  3034. Q= -0.000 lam=     0.0     freq=  3027. Q= -0.000 lam=     0.0
 213     freq=  3038. Q= -0.010 lam=     0.2     freq=  3032. Q= -0.006 lam=     0.1
 214     freq=  3092. Q=  0.000 lam=     0.0     freq=  3085. Q=  0.000 lam=     0.0
 215     freq=  3095. Q= -0.008 lam=     0.1     freq=  3088. Q= -0.005 lam=     0.0
 216     freq=  3112. Q=  0.004 lam=     0.0     freq=  3108. Q=  0.003 lam=     0.0
 217     freq=  3132. Q= -0.000 lam=     0.0     freq=  3131. Q= -0.000 lam=     0.0
 218     freq=  3143. Q=  0.006 lam=     0.1     freq=  3141. Q=  0.004 lam=     0.0
 219     freq=  3168. Q=  0.009 lam=     0.1     freq=  3180. Q=  0.008 lam=     0.1
 220     freq=  3170. Q=  0.008 lam=     0.1     freq=  3186. Q=  0.044 lam=     3.1
 221     freq=  3177. Q=  0.004 lam=     0.0     freq=  3186. Q=  0.053 lam=     4.5
 222     freq=  3178. Q= -0.003 lam=     0.0     freq=  3189. Q= -0.004 lam=     0.0
 223     freq=  3185. Q=  0.013 lam=     0.3     freq=  3189. Q=  0.002 lam=     0.0
 224     freq=  3188. Q=  0.029 lam=     1.3     freq=  3196. Q=  0.003 lam=     0.0
 225     freq=  3194. Q= -0.001 lam=     0.0     freq=  3196. Q= -0.004 lam=     0.0
 226     freq=  3196. Q=  0.010 lam=     0.1     freq=  3199. Q=  0.019 lam=     0.6
 227     freq=  3198. Q= -0.002 lam=     0.0     freq=  3206. Q= -0.003 lam=     0.0
 228     freq=  3198. Q=  0.000 lam=     0.0     freq=  3206. Q=  0.003 lam=     0.0
 229     freq=  3205. Q=  0.001 lam=     0.0     freq=  3217. Q=  0.004 lam=     0.0
 230     freq=  3205. Q=  0.005 lam=     0.0     freq=  3218. Q=  0.003 lam=     0.0
 231     freq=  3213. Q= -0.001 lam=     0.0     freq=  3219. Q= -0.000 lam=     0.0
 232     freq=  3213. Q=  0.000 lam=     0.0     freq=  3219. Q=  0.001 lam=     0.0
 233     freq=  3213. Q=  0.012 lam=     0.2     freq=  3230. Q=  0.007 lam=     0.1
 234     freq=  3214. Q= -0.013 lam=     0.3     freq=  3240. Q= -0.006 lam=     0.1
 235     freq=  3224. Q=  0.002 lam=     0.0     freq=  3242. Q=  0.382 lam=   236.9
 236     freq=  3224. Q= -0.007 lam=     0.1     freq=  3242. Q= -0.143 lam=    33.1
 237     freq=  3245. Q= -0.002 lam=     0.0     freq=  3249. Q= -0.001 lam=     0.0

 total reorg energy (cm**-1, kcal/mol)=     4050.    36117.     11.58    103.26
 Nber of molecules processed=           2
