 Enter ifcurve (0=recti, 1=orth curvi, 2=apprx curvi, -1 = skip
 And atom ordering flag, 0= never changes, 1= use the first order thenceforth,
  2= deduce it (does read on fail), 3= always read it
 Reading file: 
 ./TT-BT_1_C0S0.log                                                             
                                          
  Entering Gaussian System, Link 0=g16                                          
  
 Gaussian format, type: g94, g98, g03= F F F
  #P Geom=AllCheck Guess=TCheck SCRF=Check GenChk RB3LYP/6-311G(d,p) Fre    
 energy type= B3LYP   
 Original G94 input coords:
  6  1.124034  0.063293  0.062774
  6  0.283229 -0.992856  0.062594
  6 -1.159140 -0.926391  0.062883
  7 -1.907707 -1.989814  0.062808
  6 -3.248362 -1.674927  0.063131
  6 -4.296496 -2.606086  0.063140
  6 -5.604968 -2.148770  0.063485
  6 -5.887456 -0.773715  0.063822
  6 -4.864762  0.168092  0.063819
  6 -3.549262 -0.291911  0.063473
 16 -2.057016  0.624232  0.063371
  6  2.565335 -0.004010  0.062481
  6  3.402661 -1.100230  0.061903
  6  4.764989 -0.726979  0.061771
 16  6.279016 -1.594981  0.061127
  6  7.165752 -0.087354  0.061503
  6  6.361802  1.015113  0.062115
  6  4.988139  0.647802  0.062259
 16  3.481200  1.511801  0.062918
  1  0.700822  1.064744  0.063183
  1  0.660044 -2.010049  0.062219
  1 -4.060645 -3.663139  0.062879
  1 -6.422533 -2.860233  0.063497
  1 -6.918223 -0.438632  0.064089
  1 -5.088679  1.227908  0.064082
  1  3.044695 -2.120130  0.061570
  1  8.244529 -0.116468  0.061260
  1  6.735833  2.029171  0.062435
 nber atoms=          28
  SCF Done:  E(RB3LYP) =  -1826.54297761     A.U. after    1 cycles             
  
          23          40 "  -1826.54297761"
After scan for Atom:   Atom  AN      X      Y      Z        X      Y      Z        X      Y      Z   
After scan for Atom:   Atom  AN      X      Y      Z        X      Y      Z        X      Y      Z   
After scan for Atom:   Atom  AN      X      Y      Z        X      Y      Z        X      Y      Z   
After scan for Atom:   Atom  AN      X      Y      Z        X      Y      Z        X      Y      Z   
After scan for Atom:   Atom  AN      X      Y      Z        X      Y      Z        X      Y      Z   
After scan for Atom:   Atom  AN      X      Y      Z        X      Y      Z        X      Y      Z   
After scan for Atom:   Atom  AN      X      Y      Z        X      Y      Z        X      Y      Z   
After scan for Atom:   Atom  AN      X      Y      Z        X      Y      Z        X      Y      Z   
After scan for Atom:   Atom  AN      X      Y      Z        X      Y      Z        X      Y      Z   
After scan for Atom:   Atom  AN      X      Y      Z        X      Y      Z        X      Y      Z   
After scan for Atom:   Atom  AN      X      Y      Z        X      Y      Z        X      Y      Z   
After scan for Atom:   Atom  AN      X      Y      Z        X      Y      Z        X      Y      Z   
After scan for Atom:   Atom  AN      X      Y      Z        X      Y      Z        X      Y      Z   
After scan for Atom:   Atom  AN      X      Y      Z        X      Y      Z        X      Y      Z   
After scan for Atom:   Atom  AN      X      Y      Z        X      Y      Z        X      Y      Z   
After scan for Atom:   Atom  AN      X      Y      Z        X      Y      Z        X      Y      Z   
After scan for Atom:   Atom  AN      X      Y      Z        X      Y      Z        X      Y      Z   
After scan for Atom:   Atom  AN      X      Y      Z        X      Y      Z        X      Y      Z   
After scan for Atom:   Atom  AN      X      Y      Z        X      Y      Z        X      Y      Z   
After scan for Atom:   Atom  AN      X      Y      Z        X      Y      Z        X      Y      Z   
After scan for Atom:   Atom  AN      X      Y      Z        X      Y      Z        X      Y      Z   
After scan for Atom:   Atom  AN      X      Y      Z        X      Y      Z        X      Y      Z   
After scan for Atom:   Atom  AN      X      Y      Z        X      Y      Z        X      Y      Z   
After scan for Atom:   Atom  AN      X      Y      Z        X      Y      Z        X      Y      Z   
After scan for Atom:   Atom  AN      X      Y      Z        X      Y      Z        X      Y      Z   
After scan for Atom:   Atom  AN      X      Y      Z        X      Y      Z        X      Y      Z   
 g94    frequencies=
     0.0    0.0    0.0    0.0    0.0    0.0   17.3   31.0   41.4   69.5
   123.5  164.2  176.3  194.8  198.0  205.9  289.9  318.3  344.6  382.7
   438.7  443.3  456.5  465.9  497.5  509.3  516.1  559.7  577.3  619.2
   620.6  622.7  649.6  678.7  705.2  715.1  737.1  762.7  774.5  795.4
   828.6  853.3  860.3  867.8  879.2  887.1  925.9  952.3  975.2  990.6
  1037.6 1073.6 1100.3 1129.4 1143.4 1176.8 1183.5 1213.7 1234.8 1265.2
  1290.4 1311.5 1344.8 1351.9 1359.2 1387.2 1455.2 1461.5 1487.7 1498.8
  1522.5 1548.9 1595.5 1629.8 1663.1 3138.7 3168.6 3173.6 3180.5 3191.1
  3198.5 3214.9 3215.9 3244.6
 g94    symmetries=
                                                 A      A      A      A
       A      A      A      A      A      A      A      A      A      A
       A      A      A      A      A      A      A      A      A      A
       A      A      A      A      A      A      A      A      A      A
       A      A      A      A      A      A      A      A      A      A
       A      A      A      A      A      A      A      A      A      A
       A      A      A      A      A      A      A      A      A      A
       A      A      A      A      A      A      A      A      A      A
       A      A      A      A
 atomic masses:
 12.0000 12.0000 12.0000 14.0031 12.0000 12.0000 12.0000 12.0000 12.0000 12.0000
 31.9721 12.0000 12.0000 12.0000 31.9721 12.0000 12.0000 12.0000 31.9721  1.0078
  1.0078  1.0078  1.0078  1.0078  1.0078  1.0078  1.0078  1.0078
 looking for force constants in 
 ./TT-BT_1_C0S0.fchk                                                            
  
 Cartesian Force Constants                  R   N=        3570                  
  
 n3=          84        3570
 g94-fc frequencies=
    -0.0   -0.0    0.0    1.5    1.6    3.9   17.4   31.0   41.4   69.5
   123.5  164.2  176.3  194.8  198.0  205.9  289.9  318.4  344.6  382.7
   438.7  443.4  456.5  465.9  497.5  509.3  516.1  559.7  577.3  619.2
   620.6  622.7  649.7  678.8  705.2  715.2  737.1  762.7  774.5  795.4
   828.6  853.3  860.3  867.9  879.2  887.1  925.9  952.3  975.2  990.6
  1037.6 1073.6 1100.4 1129.4 1143.4 1176.8 1183.5 1213.7 1234.8 1265.2
  1290.5 1311.5 1344.8 1352.0 1359.2 1387.2 1455.3 1461.5 1487.7 1498.8
  1522.5 1548.9 1595.5 1629.8 1663.1 3138.8 3168.7 3173.7 3180.5 3191.2
  3198.5 3215.0 3216.0 3244.7
 at 99999: n3=          84
 symm operator            1 :  F  nop=           0
 symm operator            2 :  F  nop=           0
 symm operator            3 :  F  nop=           0
 symm operator            4 :  F  nop=           0
 symm operator            5 :  F  nop=           0
 symm operator            6 :  F  nop=           0
 symm operator            7 :  F  nop=           0
 The point group of the molecule is  C1
 Symmetry rotation matrix:
   1.00000   0.00000   0.00000
   0.00000   1.00000   0.00000
   0.00000   0.00000   1.00000

 Projecting out zero-frequency components
 generating redundant internal coords
         300        3600          28
 search for int coords
   1 str   2   1   1.350
   2 str   3   2   1.444
   3 str   4   3   1.300
   4 str   5   4   1.377
   5 str   6   5   1.402
   6 str   7   6   1.386
   7 str   8   7   1.404
   8 str   9   8   1.390
   9 str  10   5   1.415
  10 str  10   9   1.394
  11 str  11   3   1.792
  12 str  11  10   1.751
  13 str  12   1   1.443
  14 str  13  12   1.379
  15 str  14  13   1.413
  16 str  15  14   1.745
  17 str  16  15   1.749
  18 str  17  16   1.364
  19 str  18  14   1.393
  20 str  18  17   1.422
  21 str  19  12   1.771
  22 str  19  18   1.737
  23 str  20   1   1.087
  24 str  21   2   1.085
  25 str  22   6   1.083
  26 str  23   7   1.084
  27 str  24   8   1.084
  28 str  25   9   1.083
  29 str  26  13   1.081
  30 str  27  16   1.079
  31 str  28  17   1.081
 nber stretches=          31
  32 ben   1   2   3
  33 prop tor   1   2   3   4
  34 prop tor   1   2   3  11
  35 ben   1   2  21
  36 ben   1  12  13
  37 prop tor   1  12  13  14
  38 prop tor   1  12  13  26
  39 ben   1  12  19
  40 prop tor   1  12  19  18
  41 ben   2   1  12
  42 prop tor   2   1  12  13
  43 prop tor   2   1  12  19
  44 ben   2   1  20
  45 ben   2   3   4
  46 prop tor   2   3   4   5
  47 ben   2   3  11
  48 prop tor   2   3  11  10
  49 ben   3   2  21
  50 ben   3   4   5
  51 prop tor   3   4   5   6
  52 prop tor   3   4   5  10
  53 ben   3  11  10
  54 ben   4   3  11
  55 prop tor   4   3  11  10
  56 ben   4   5   6
  57 prop tor   4   5   6   7
  58 prop tor   4   5   6  22
  59 ben   4   5  10
  60 prop tor   4   5  10   9
  61 prop tor   4   5  10  11
  62 ben   5   6   7
  63 prop tor   5   6   7   8
  64 prop tor   5   6   7  23
  65 ben   5   6  22
  66 ben   5  10   9
  67 ben   5  10  11
  68 prop tor   5  10  11   3
  69 ben   6   5  10
  70 prop tor   6   5  10   9
  71 prop tor   6   5  10  11
  72 ben   6   7   8
  73 prop tor   6   7   8   9
  74 prop tor   6   7   8  24
  75 ben   6   7  23
  76 ben   7   6  22
  77 ben   7   8   9
  78 prop tor   7   8   9  10
  79 prop tor   7   8   9  25
  80 ben   7   8  24
  81 ben   8   7  23
  82 ben   8   9  10
  83 prop tor   8   9  10   5
  84 prop tor   8   9  10  11
  85 ben   8   9  25
  86 ben   9   8  24
  87 ben   9  10  11
  88 prop tor   9  10  11   3
  89 prop tor  10   5   6   7
  90 prop tor  10   5   6  22
  91 ben  10   9  25
  92 prop tor  11   3   4   5
  93 prop tor  12   1   2   3
  94 prop tor  12   1   2  21
  95 ben  12   1  20
  96 ben  12  13  14
  97 prop tor  12  13  14  15
  98 prop tor  12  13  14  18
  99 ben  12  13  26
 100 ben  12  19  18
 101 ben  13  12  19
 102 prop tor  13  12  19  18
 103 ben  13  14  15
 104 prop tor  13  14  15  16
 105 ben  13  14  18
 106 prop tor  13  14  18  17
 107 prop tor  13  14  18  19
 108 ben  14  13  26
 109 ben  14  15  16
 110 prop tor  14  15  16  17
 111 prop tor  14  15  16  27
 112 ben  14  18  17
 113 ben  14  18  19
 114 prop tor  14  18  19  12
 115 ben  15  14  18
 116 prop tor  15  14  18  17
 117 prop tor  15  14  18  19
 118 ben  15  16  17
 119 prop tor  15  16  17  18
 120 prop tor  15  16  17  28
 121 ben  15  16  27
 122 ben  16  17  18
 123 prop tor  16  17  18  14
 124 prop tor  16  17  18  19
 125 ben  16  17  28
 126 ben  17  16  27
 127 ben  17  18  19
 128 prop tor  17  18  19  12
 129 prop tor  18  14  15  16
 130 ben  18  17  28
 131 prop tor  19  12  13  14
 132 prop tor  19  12  13  26
 133 prop tor  20   1   2   3
 134 prop tor  20   1   2  21
 135 prop tor  20   1  12  13
 136 prop tor  20   1  12  19
 137 prop tor  21   2   3   4
 138 prop tor  21   2   3  11
 139 prop tor  22   6   7   8
 140 prop tor  22   6   7  23
 141 prop tor  23   7   8   9
 142 prop tor  23   7   8  24
 143 prop tor  24   8   9  10
 144 prop tor  24   8   9  25
 145 prop tor  25   9  10   5
 146 prop tor  25   9  10  11
 147 prop tor  26  13  14  15
 148 prop tor  26  13  14  18
 149 prop tor  27  16  17  18
 150 prop tor  27  16  17  28
 151 prop tor  28  17  18  14
 152 prop tor  28  17  18  19
 nber bend=              49
 nber lin bend=           0
 nber prop tor=          72
 nber impr tor=           0
 nber tot redund int=         152
 Eigenvalues of G in red int coords
    Gval -0.00000000 -0.00000000 -0.00000000 -0.00000000 -0.00000000 -0.00000000 -0.00000000 -0.00000000
    Gval -0.00000000 -0.00000000 -0.00000000 -0.00000000 -0.00000000 -0.00000000 -0.00000000 -0.00000000
    Gval -0.00000000 -0.00000000 -0.00000000 -0.00000000 -0.00000000 -0.00000000 -0.00000000 -0.00000000
    Gval -0.00000000 -0.00000000 -0.00000000 -0.00000000 -0.00000000 -0.00000000 -0.00000000 -0.00000000
    Gval -0.00000000 -0.00000000 -0.00000000 -0.00000000  0.00000000  0.00000000  0.00000000  0.00000000
    Gval  0.00000000  0.00000000  0.00000000  0.00000000  0.00000000  0.00000000  0.00000000  0.00000000
    Gval  0.00000000  0.00000000  0.00000000  0.00000000  0.00000000  0.00000000  0.00000000  0.00000000
    Gval  0.00000000  0.00000000  0.00000000  0.00000000  0.00000000  0.00000000  0.00000000  0.00000000
    Gval  0.00000000  0.00000000  0.00000000  0.00000000  0.00000000  0.00000000  0.00000000  0.00000000
    Gval  0.00000000  0.00000000  0.00000064  0.00000194  0.00000323  0.00000510  0.00000803  0.00001567
    Gval  0.00001985  0.00002218  0.00002389  0.00002859  0.00003321  0.00003538  0.00004134  0.00004677
    Gval  0.00004954  0.00005217  0.00006083  0.00006148  0.00007656  0.00008452  0.00008684  0.00009250
    Gval  0.00009942  0.00011338  0.00012124  0.00012604  0.00012631  0.00013959  0.00015573  0.00015686
    Gval  0.00019217  0.00020640  0.00021848  0.00025184  0.00026369  0.00030363  0.00031457  0.00032214
    Gval  0.00032607  0.00036061  0.00039036  0.00039972  0.00041162  0.00046433  0.00059315  0.00059632
    Gval  0.00059660  0.00059752  0.00061828  0.00062063  0.00062475  0.00063088  0.00065361  0.00065530
    Gval  0.00065981  0.00078692  0.00089329  0.00105444  0.00106349  0.00108136  0.00112099  0.00112255
    Gval  0.00114256  0.00116317  0.00116407  0.00117164  0.00118668  0.00129302  0.00163446  0.00180143
    Gval  0.00208317  0.00270063  0.00276341  0.00319937  0.00356975  0.00357433  0.00397209  0.00402219
  6.356909794603242E-007  6.356909794603242E-007
  1.943074370724138E-006  6.356909794603242E-007
  3.229780490628040E-006  6.356909794603242E-007
  5.096846714888147E-006  6.356909794603242E-007
  8.032630308543896E-006  6.356909794603242E-007
  1.567072051738553E-005  6.356909794603242E-007
  1.984568342245085E-005  6.356909794603242E-007
  2.218376789939839E-005  6.356909794603242E-007
  2.389209635330132E-005  6.356909794603242E-007
  2.859199559868454E-005  6.356909794603242E-007
  3.320795326847769E-005  6.356909794603242E-007
  3.537702521144908E-005  6.356909794603242E-007
  4.134195441735596E-005  6.356909794603242E-007
  4.677124923973829E-005  6.356909794603242E-007
  4.953888447444830E-005  6.356909794603242E-007
  5.216992046160468E-005  6.356909794603242E-007
  6.083307773502685E-005  6.356909794603242E-007
  6.148145073820406E-005  6.356909794603242E-007
  7.655859923235438E-005  6.356909794603242E-007
  8.452291580882628E-005  6.356909794603242E-007
  8.684465138571289E-005  6.356909794603242E-007
  9.249812079627590E-005  6.356909794603242E-007
  9.941813264685531E-005  6.356909794603242E-007
  1.133772466051491E-004  6.356909794603242E-007
  1.212398122955849E-004  6.356909794603242E-007
  1.260417475167820E-004  6.356909794603242E-007
  1.263106669650329E-004  6.356909794603242E-007
  1.395865822434278E-004  6.356909794603242E-007
  1.557268569335791E-004  6.356909794603242E-007
  1.568563652781004E-004  6.356909794603242E-007
  1.921660974577269E-004  6.356909794603242E-007
  2.063993882853235E-004  6.356909794603242E-007
  2.184771922903637E-004  6.356909794603242E-007
  2.518448388727994E-004  6.356909794603242E-007
  2.636858565156276E-004  6.356909794603242E-007
  3.036286233658915E-004  6.356909794603242E-007
  3.145690453160308E-004  6.356909794603242E-007
  3.221369190164000E-004  6.356909794603242E-007
  3.260660963318355E-004  6.356909794603242E-007
  3.606061440927050E-004  6.356909794603242E-007
  3.903590255392377E-004  6.356909794603242E-007
  3.997225552180644E-004  6.356909794603242E-007
  4.116199065489479E-004  6.356909794603242E-007
  4.643287743979766E-004  6.356909794603242E-007
  5.931537649089999E-004  6.356909794603242E-007
  5.963161409719419E-004  6.356909794603242E-007
  5.966010367362448E-004  6.356909794603242E-007
  5.975164357594322E-004  6.356909794603242E-007
  6.182751805519801E-004  6.356909794603242E-007
  6.206314434101556E-004  6.356909794603242E-007
  6.247529615250765E-004  6.356909794603242E-007
  6.308849612689287E-004  6.356909794603242E-007
  6.536087647635597E-004  6.356909794603242E-007
  6.553039960804965E-004  6.356909794603242E-007
  6.598105236052302E-004  6.356909794603242E-007
  7.869242686731364E-004  6.356909794603242E-007
  8.932893282974791E-004  6.356909794603242E-007
  1.054435139402846E-003  6.356909794603242E-007
  1.063491731433791E-003  6.356909794603242E-007
  1.081361091036481E-003  6.356909794603242E-007
  1.120986940319228E-003  6.356909794603242E-007
  1.122549493657937E-003  6.356909794603242E-007
  1.142559448574713E-003  6.356909794603242E-007
  1.163172214157824E-003  6.356909794603242E-007
  1.164072619988647E-003  6.356909794603242E-007
  1.171643350453975E-003  6.356909794603242E-007
  1.186683313573651E-003  6.356909794603242E-007
  1.293017357270746E-003  6.356909794603242E-007
  1.634462325677670E-003  6.356909794603242E-007
  1.801425585153340E-003  6.356909794603242E-007
  2.083167271920032E-003  6.356909794603242E-007
  2.700626541341433E-003  6.356909794603242E-007
  2.763406662139625E-003  6.356909794603242E-007
  3.199369102710786E-003  6.356909794603242E-007
  3.569751006552403E-003  6.356909794603242E-007
  3.574329484452247E-003  6.356909794603242E-007
  3.972091769909336E-003  6.356909794603242E-007
  4.022194288790925E-003  6.356909794603242E-007
 cut=1d-8, nber non-redundant internal coords=          78
 Check on Eigenvals of non-red overlap matrix:
  0.00000064  0.00000194  0.00000323  0.00000510  0.00000803  0.00001567  0.00001985  0.00002218
  0.00002389  0.00002859  0.00003321  0.00003538  0.00004134  0.00004677  0.00004954  0.00005217
  0.00006083  0.00006148  0.00007656  0.00008452  0.00008684  0.00009250  0.00009942  0.00011338
  0.00012124  0.00012604  0.00012631  0.00013959  0.00015573  0.00015686  0.00019217  0.00020640
  0.00021848  0.00025184  0.00026369  0.00030363  0.00031457  0.00032214  0.00032607  0.00036061
  0.00039036  0.00039972  0.00041162  0.00046433  0.00059315  0.00059632  0.00059660  0.00059752
  0.00061828  0.00062063  0.00062475  0.00063088  0.00065361  0.00065530  0.00065981  0.00078692
  0.00089329  0.00105444  0.00106349  0.00108136  0.00112099  0.00112255  0.00114256  0.00116317
  0.00116407  0.00117164  0.00118668  0.00129302  0.00163446  0.00180143  0.00208317  0.00270063
  0.00276341  0.00319937  0.00356975  0.00357433  0.00397209  0.00402219
 Checking for correct frequencies
 recalc frequencies=
    -0.0   -0.0   -0.0    0.0    0.0    0.0   17.3   31.0   41.4   69.5
   123.5  164.2  176.3  194.8  198.0  205.9  289.9  318.4  344.6  382.7
   438.7  443.4  456.5  465.9  497.5  509.3  516.1  559.7  577.3  619.2
   620.6  622.7  649.7  678.8  705.2  715.2  737.1  762.7  774.5  795.4
   828.6  853.3  860.3  867.9  879.2  887.1  925.9  952.3  975.2  990.6
  1037.6 1073.6 1100.4 1129.4 1143.4 1176.8 1183.5 1213.7 1234.8 1265.2
  1290.5 1311.5 1344.8 1352.0 1359.2 1387.2 1455.3 1461.5 1487.7 1498.8
  1522.5 1548.9 1595.5 1629.8 1663.1 3138.8 3168.7 3173.7 3180.5 3191.2
  3198.5 3215.0 3216.0 3244.7
 recalc symmetries=
                                                                       
                                                                       
                                                                       
                                                                       
                                                                       
                                                                       
                                                                       
                                                                       
                             
 recalc freqs check OK
 Zero-point lengths:
 10.0000 10.0000 10.0000 10.0000 10.0000 10.0000 59.5247 44.5077 38.5360 29.7287
 22.3066 19.3487 18.6724 17.7629 17.6180 17.2782 14.5603 13.8944 13.3549 12.6720
 11.8359 11.7739 11.6026 11.4859 11.1148 10.9848 10.9129 10.4791 10.3176  9.9626
  9.9512  9.9346  9.7264  9.5157  9.3358  9.2704  9.1313  8.9765  8.9081  8.7900
  8.6123  8.4867  8.4521  8.4153  8.3609  8.3233  8.1473  8.0336  7.9386  7.8767
  7.6963  7.5661  7.4735  7.3767  7.3316  7.2268  7.2062  7.1160  7.0549  6.9697
  6.9012  6.8455  6.7602  6.7423  6.7243  6.6562  6.4986  6.4847  6.4274  6.4036
  6.3535  6.2991  6.2065  6.1408  6.0790  4.4250  4.4041  4.4006  4.3959  4.3885
  4.3835  4.3723  4.3716  4.3522
 highest evec of mol 1
 -0.0001  0.0000 -0.0000
  0.0000 -0.0001 -0.0000
 -0.0001  0.0000  0.0000
 -0.0000 -0.0000 -0.0000
  0.0000 -0.0000 -0.0000
 -0.0000 -0.0001 -0.0000
 -0.0000 -0.0001 -0.0000
 -0.0000  0.0000  0.0000
 -0.0000  0.0001  0.0000
  0.0000  0.0000 -0.0000
 -0.0000 -0.0000  0.0000
 -0.0002  0.0003  0.0000
 -0.0008 -0.0025 -0.0000
  0.0035  0.0002 -0.0000
  0.0008  0.0022  0.0000
 -0.2813  0.0224  0.0001
 -0.0216 -0.0991 -0.0000
  0.0074  0.0024 -0.0000
 -0.0004  0.0001  0.0000
  0.0002 -0.0003 -0.0000
 -0.0000  0.0002  0.0000
 -0.0001  0.0002  0.0000
  0.0002  0.0002 -0.0000
  0.0001 -0.0000 -0.0000
  0.0001 -0.0002 -0.0000
  0.0024  0.0068  0.0000
  0.9084 -0.0283 -0.0002
  0.0979  0.2726  0.0001
 generating redundant internal coords
         300        3600          28
 Adding extra bonds for z output only
           6           6           6           7           6           6
           6           6           6           6          16           6
           6           6          16           6           6           6
          16           1           1           1           1           1
           1           1           1           1
 search for int coords
   1 str   2   1   1.350
   2 str   3   2   1.444
   3 str   4   3   1.300
   4 str   5   4   1.377
   5 str   6   5   1.402
   6 str   7   6   1.386
   7 str   8   7   1.404
   8 str   9   8   1.390
   9 str  10   5   1.415
  10 str  10   9   1.394
  11 str  11   3   1.792
  12 str  11  10   1.751
  13 str  12   1   1.443
  14 str  13  12   1.379
  15 str  14  13   1.413
  16 str  15  14   1.745
  17 str  16  15   1.749
  18 str  17  16   1.364
  19 str  18  14   1.393
  20 str  18  17   1.422
  21 str  19  12   1.771
  22 str  19  18   1.737
  23 str  20   1   1.087
  24 str  21   2   1.085
  25 str  22   6   1.083
  26 str  23   7   1.084
  27 str  24   8   1.084
  28 str  25   9   1.083
  29 str  26  13   1.081
  30 str  27  16   1.079
  31 str  28  17   1.081
 nber stretches=          31
  32 ben   1   2   3
  33 prop tor   1   2   3   4
  34 prop tor   1   2   3  11
  35 ben   1   2  21
  36 ben   1  12  13
  37 prop tor   1  12  13  14
  38 prop tor   1  12  13  26
  39 ben   1  12  19
  40 prop tor   1  12  19  18
  41 ben   2   1  12
  42 prop tor   2   1  12  13
  43 prop tor   2   1  12  19
  44 ben   2   1  20
  45 ben   2   3   4
  46 prop tor   2   3   4   5
  47 ben   2   3  11
  48 prop tor   2   3  11  10
  49 ben   3   2  21
  50 ben   3   4   5
  51 prop tor   3   4   5   6
  52 prop tor   3   4   5  10
  53 ben   3  11  10
  54 ben   4   3  11
  55 prop tor   4   3  11  10
  56 ben   4   5   6
  57 prop tor   4   5   6   7
  58 prop tor   4   5   6  22
  59 ben   4   5  10
  60 prop tor   4   5  10   9
  61 prop tor   4   5  10  11
  62 ben   5   6   7
  63 prop tor   5   6   7   8
  64 prop tor   5   6   7  23
  65 ben   5   6  22
  66 ben   5  10   9
  67 ben   5  10  11
  68 prop tor   5  10  11   3
  69 ben   6   5  10
  70 prop tor   6   5  10   9
  71 prop tor   6   5  10  11
  72 ben   6   7   8
  73 prop tor   6   7   8   9
  74 prop tor   6   7   8  24
  75 ben   6   7  23
  76 ben   7   6  22
  77 ben   7   8   9
  78 prop tor   7   8   9  10
  79 prop tor   7   8   9  25
  80 ben   7   8  24
  81 ben   8   7  23
  82 ben   8   9  10
  83 prop tor   8   9  10   5
  84 prop tor   8   9  10  11
  85 ben   8   9  25
  86 ben   9   8  24
  87 ben   9  10  11
  88 prop tor   9  10  11   3
  89 prop tor  10   5   6   7
  90 prop tor  10   5   6  22
  91 ben  10   9  25
  92 prop tor  11   3   4   5
  93 prop tor  12   1   2   3
  94 prop tor  12   1   2  21
  95 ben  12   1  20
  96 ben  12  13  14
  97 prop tor  12  13  14  15
  98 prop tor  12  13  14  18
  99 ben  12  13  26
 100 ben  12  19  18
 101 ben  13  12  19
 102 prop tor  13  12  19  18
 103 ben  13  14  15
 104 prop tor  13  14  15  16
 105 ben  13  14  18
 106 prop tor  13  14  18  17
 107 prop tor  13  14  18  19
 108 ben  14  13  26
 109 ben  14  15  16
 110 prop tor  14  15  16  17
 111 prop tor  14  15  16  27
 112 ben  14  18  17
 113 ben  14  18  19
 114 prop tor  14  18  19  12
 115 ben  15  14  18
 116 prop tor  15  14  18  17
 117 prop tor  15  14  18  19
 118 ben  15  16  17
 119 prop tor  15  16  17  18
 120 prop tor  15  16  17  28
 121 ben  15  16  27
 122 ben  16  17  18
 123 prop tor  16  17  18  14
 124 prop tor  16  17  18  19
 125 ben  16  17  28
 126 ben  17  16  27
 127 ben  17  18  19
 128 prop tor  17  18  19  12
 129 prop tor  18  14  15  16
 130 ben  18  17  28
 131 prop tor  19  12  13  14
 132 prop tor  19  12  13  26
 133 prop tor  20   1   2   3
 134 prop tor  20   1   2  21
 135 prop tor  20   1  12  13
 136 prop tor  20   1  12  19
 137 prop tor  21   2   3   4
 138 prop tor  21   2   3  11
 139 prop tor  22   6   7   8
 140 prop tor  22   6   7  23
 141 prop tor  23   7   8   9
 142 prop tor  23   7   8  24
 143 prop tor  24   8   9  10
 144 prop tor  24   8   9  25
 145 prop tor  25   9  10   5
 146 prop tor  25   9  10  11
 147 prop tor  26  13  14  15
 148 prop tor  26  13  14  18
 149 prop tor  27  16  17  18
 150 prop tor  27  16  17  28
 151 prop tor  28  17  18  14
 152 prop tor  28  17  18  19
 nber bend=              49
 nber lin bend=           0
 nber prop tor=          72
 nber impr tor=           0
 nber tot redund int=         152
 Reading file: 
 ./TT-BT_1_C-1S0.log                                                            
                                          
  Entering Gaussian System, Link 0=g16                                          
  
 Gaussian format, type: g94, g98, g03= F F F
  #P Geom=AllCheck Guess=TCheck SCRF=Check GenChk UB3LYP/6-311G(d,p) Fre    
 energy type= B3LYP   
 Original G94 input coords:
  6  1.085120  0.174824 -0.015850
  6  0.221517 -0.920454 -0.015989
  6 -1.178428 -0.882341 -0.015716
  7 -1.983146 -1.941108 -0.015858
  6 -3.298648 -1.600578 -0.015517
  6 -4.378767 -2.506015 -0.015560
  6 -5.685333 -2.030813 -0.015180
  6 -5.957747 -0.657642 -0.014750
  6 -4.904078  0.264076 -0.014696
  6 -3.598805 -0.205689 -0.015074
 16 -2.092913  0.703954 -0.015115
  6  2.491020  0.113561 -0.016139
  6  3.362453 -0.988307 -0.016628
  6  4.713734 -0.607790 -0.016774
 16  6.236244 -1.484396 -0.017321
  6  7.149630  0.024744 -0.017077
  6  6.327290  1.121965 -0.016581
  6  4.958852  0.767166 -0.016418
 16  3.437302  1.644932 -0.015868
  1  0.645145  1.168843 -0.015484
  1  0.627334 -1.927258 -0.016342
  1 -4.163398 -3.568617 -0.015894
  1 -6.509105 -2.738628 -0.015218
  1 -6.983263 -0.303925 -0.014458
  1 -5.108717  1.329617 -0.014365
  1  3.007288 -2.008681 -0.016863
  1  8.227503 -0.007711 -0.017309
  1  6.699585  2.138663 -0.016356
 nber atoms=          28
  SCF Done:  E(UB3LYP) =  -1826.58838510     A.U. after    1 cycles             
  
          23          40 "  -1826.58838510"
After scan for Atom:   Atom  AN      X      Y      Z        X      Y      Z        X      Y      Z   
After scan for Atom:   Atom  AN      X      Y      Z        X      Y      Z        X      Y      Z   
After scan for Atom:   Atom  AN      X      Y      Z        X      Y      Z        X      Y      Z   
After scan for Atom:   Atom  AN      X      Y      Z        X      Y      Z        X      Y      Z   
After scan for Atom:   Atom  AN      X      Y      Z        X      Y      Z        X      Y      Z   
After scan for Atom:   Atom  AN      X      Y      Z        X      Y      Z        X      Y      Z   
After scan for Atom:   Atom  AN      X      Y      Z        X      Y      Z        X      Y      Z   
After scan for Atom:   Atom  AN      X      Y      Z        X      Y      Z        X      Y      Z   
After scan for Atom:   Atom  AN      X      Y      Z        X      Y      Z        X      Y      Z   
After scan for Atom:   Atom  AN      X      Y      Z        X      Y      Z        X      Y      Z   
After scan for Atom:   Atom  AN      X      Y      Z        X      Y      Z        X      Y      Z   
After scan for Atom:   Atom  AN      X      Y      Z        X      Y      Z        X      Y      Z   
After scan for Atom:   Atom  AN      X      Y      Z        X      Y      Z        X      Y      Z   
After scan for Atom:   Atom  AN      X      Y      Z        X      Y      Z        X      Y      Z   
After scan for Atom:   Atom  AN      X      Y      Z        X      Y      Z        X      Y      Z   
After scan for Atom:   Atom  AN      X      Y      Z        X      Y      Z        X      Y      Z   
After scan for Atom:   Atom  AN      X      Y      Z        X      Y      Z        X      Y      Z   
After scan for Atom:   Atom  AN      X      Y      Z        X      Y      Z        X      Y      Z   
After scan for Atom:   Atom  AN      X      Y      Z        X      Y      Z        X      Y      Z   
After scan for Atom:   Atom  AN      X      Y      Z        X      Y      Z        X      Y      Z   
After scan for Atom:   Atom  AN      X      Y      Z        X      Y      Z        X      Y      Z   
After scan for Atom:   Atom  AN      X      Y      Z        X      Y      Z        X      Y      Z   
After scan for Atom:   Atom  AN      X      Y      Z        X      Y      Z        X      Y      Z   
After scan for Atom:   Atom  AN      X      Y      Z        X      Y      Z        X      Y      Z   
After scan for Atom:   Atom  AN      X      Y      Z        X      Y      Z        X      Y      Z   
After scan for Atom:   Atom  AN      X      Y      Z        X      Y      Z        X      Y      Z   
 g94    frequencies=
     0.0    0.0    0.0    0.0    0.0    0.0   24.5   32.0   41.6   79.3
   121.3  152.8  183.4  190.6  200.8  225.4  270.4  312.3  317.2  380.7
   432.6  437.0  444.8  447.2  489.5  499.3  502.7  536.2  553.5  554.6
   586.2  601.4  627.7  630.8  661.1  706.8  719.1  720.0  742.7  744.1
   762.0  770.6  837.1  838.1  845.0  846.7  884.4  895.9  909.2  942.6
  1034.4 1063.7 1082.6 1105.9 1128.9 1155.2 1167.2 1209.7 1212.8 1257.5
  1259.7 1285.9 1330.1 1341.3 1360.0 1397.5 1434.2 1451.5 1463.1 1477.6
  1495.1 1500.3 1575.9 1594.6 1616.7 3129.6 3137.3 3152.0 3155.0 3168.3
  3176.8 3188.1 3212.4 3241.6
 g94    symmetries=
                                                 A      A      A      A
       A      A      A      A      A      A      A      A      A      A
       A      A      A      A      A      A      A      A      A      A
       A      A      A      A      A      A      A      A      A      A
       A      A      A      A      A      A      A      A      A      A
       A      A      A      A      A      A      A      A      A      A
       A      A      A      A      A      A      A      A      A      A
       A      A      A      A      A      A      A      A      A      A
       A      A      A      A
 atomic masses:
 12.0000 12.0000 12.0000 14.0031 12.0000 12.0000 12.0000 12.0000 12.0000 12.0000
 31.9721 12.0000 12.0000 12.0000 31.9721 12.0000 12.0000 12.0000 31.9721  1.0078
  1.0078  1.0078  1.0078  1.0078  1.0078  1.0078  1.0078  1.0078
 looking for force constants in 
 ./TT-BT_1_C-1S0.fchk                                                           
  
 Cartesian Force Constants                  R   N=        3570                  
  
 n3=          84        3570
 g94-fc frequencies=
    -0.0    0.0    0.0    0.7    0.9    4.0   24.5   32.0   41.6   79.3
   121.3  152.8  183.4  190.6  200.8  225.4  270.5  312.3  317.2  380.7
   432.6  437.0  444.8  447.2  489.5  499.3  502.7  536.2  553.5  554.6
   586.3  601.4  627.7  630.9  661.2  706.8  719.1  720.1  742.7  744.1
   762.0  770.6  837.2  838.1  845.0  846.7  884.4  895.9  909.2  942.6
  1034.4 1063.7 1082.6 1106.0 1128.9 1155.3 1167.2 1209.7 1212.8 1257.6
  1259.7 1285.9 1330.1 1341.3 1360.1 1397.5 1434.2 1451.6 1463.2 1477.7
  1495.1 1500.3 1575.9 1594.6 1616.7 3129.7 3137.4 3152.1 3155.1 3168.3
  3176.9 3188.2 3212.5 3241.7
 at 99999: n3=          84
 symm operator            1 :  F  nop=           0
 symm operator            2 :  F  nop=           0
 symm operator            3 :  F  nop=           0
 symm operator            4 :  F  nop=           0
 symm operator            5 :  F  nop=           0
 symm operator            6 :  F  nop=           0
 symm operator            7 :  F  nop=           0
 The point group of the molecule is  C1
 Symmetry rotation matrix:
   1.00000   0.00000   0.00000
   0.00000   1.00000   0.00000
   0.00000   0.00000   1.00000

 Projecting out zero-frequency components
 generating redundant internal coords
         300        3600          28
 search for int coords
   1 str   2   1   1.395
   2 str   3   2   1.400
   3 str   4   3   1.330
   4 str   5   4   1.359
   5 str   6   5   1.409
   6 str   7   6   1.390
   7 str   8   7   1.400
   8 str   9   8   1.400
   9 str  10   5   1.427
  10 str  10   9   1.387
  11 str  11   3   1.831
  12 str  11  10   1.759
  13 str  12   1   1.407
  14 str  13  12   1.405
  15 str  14  13   1.404
  16 str  15  14   1.757
  17 str  16  15   1.764
  18 str  17  16   1.371
  19 str  18  14   1.397
  20 str  18  17   1.414
  21 str  19  12   1.800
  22 str  19  18   1.757
  23 str  20   1   1.087
  24 str  21   2   1.086
  25 str  22   6   1.084
  26 str  23   7   1.086
  27 str  24   8   1.085
  28 str  25   9   1.085
  29 str  26  13   1.080
  30 str  27  16   1.078
  31 str  28  17   1.083
 nber stretches=          31
  32 ben   1   2   3
  33 prop tor   1   2   3   4
  34 prop tor   1   2   3  11
  35 ben   1   2  21
  36 ben   1  12  13
  37 prop tor   1  12  13  14
  38 prop tor   1  12  13  26
  39 ben   1  12  19
  40 prop tor   1  12  19  18
  41 ben   2   1  12
  42 prop tor   2   1  12  13
  43 prop tor   2   1  12  19
  44 ben   2   1  20
  45 ben   2   3   4
  46 prop tor   2   3   4   5
  47 ben   2   3  11
  48 prop tor   2   3  11  10
  49 ben   3   2  21
  50 ben   3   4   5
  51 prop tor   3   4   5   6
  52 prop tor   3   4   5  10
  53 ben   3  11  10
  54 ben   4   3  11
  55 prop tor   4   3  11  10
  56 ben   4   5   6
  57 prop tor   4   5   6   7
  58 prop tor   4   5   6  22
  59 ben   4   5  10
  60 prop tor   4   5  10   9
  61 prop tor   4   5  10  11
  62 ben   5   6   7
  63 prop tor   5   6   7   8
  64 prop tor   5   6   7  23
  65 ben   5   6  22
  66 ben   5  10   9
  67 ben   5  10  11
  68 prop tor   5  10  11   3
  69 ben   6   5  10
  70 prop tor   6   5  10   9
  71 prop tor   6   5  10  11
  72 ben   6   7   8
  73 prop tor   6   7   8   9
  74 prop tor   6   7   8  24
  75 ben   6   7  23
  76 ben   7   6  22
  77 ben   7   8   9
  78 prop tor   7   8   9  10
  79 prop tor   7   8   9  25
  80 ben   7   8  24
  81 ben   8   7  23
  82 ben   8   9  10
  83 prop tor   8   9  10   5
  84 prop tor   8   9  10  11
  85 ben   8   9  25
  86 ben   9   8  24
  87 ben   9  10  11
  88 prop tor   9  10  11   3
  89 prop tor  10   5   6   7
  90 prop tor  10   5   6  22
  91 ben  10   9  25
  92 prop tor  11   3   4   5
  93 prop tor  12   1   2   3
  94 prop tor  12   1   2  21
  95 ben  12   1  20
  96 ben  12  13  14
  97 prop tor  12  13  14  15
  98 prop tor  12  13  14  18
  99 ben  12  13  26
 100 ben  12  19  18
 101 ben  13  12  19
 102 prop tor  13  12  19  18
 103 ben  13  14  15
 104 prop tor  13  14  15  16
 105 ben  13  14  18
 106 prop tor  13  14  18  17
 107 prop tor  13  14  18  19
 108 ben  14  13  26
 109 ben  14  15  16
 110 prop tor  14  15  16  17
 111 prop tor  14  15  16  27
 112 ben  14  18  17
 113 ben  14  18  19
 114 prop tor  14  18  19  12
 115 ben  15  14  18
 116 prop tor  15  14  18  17
 117 prop tor  15  14  18  19
 118 ben  15  16  17
 119 prop tor  15  16  17  18
 120 prop tor  15  16  17  28
 121 ben  15  16  27
 122 ben  16  17  18
 123 prop tor  16  17  18  14
 124 prop tor  16  17  18  19
 125 ben  16  17  28
 126 ben  17  16  27
 127 ben  17  18  19
 128 prop tor  17  18  19  12
 129 prop tor  18  14  15  16
 130 ben  18  17  28
 131 prop tor  19  12  13  14
 132 prop tor  19  12  13  26
 133 prop tor  20   1   2   3
 134 prop tor  20   1   2  21
 135 prop tor  20   1  12  13
 136 prop tor  20   1  12  19
 137 prop tor  21   2   3   4
 138 prop tor  21   2   3  11
 139 prop tor  22   6   7   8
 140 prop tor  22   6   7  23
 141 prop tor  23   7   8   9
 142 prop tor  23   7   8  24
 143 prop tor  24   8   9  10
 144 prop tor  24   8   9  25
 145 prop tor  25   9  10   5
 146 prop tor  25   9  10  11
 147 prop tor  26  13  14  15
 148 prop tor  26  13  14  18
 149 prop tor  27  16  17  18
 150 prop tor  27  16  17  28
 151 prop tor  28  17  18  14
 152 prop tor  28  17  18  19
 nber bend=              49
 nber lin bend=           0
 nber prop tor=          72
 nber impr tor=           0
 nber tot redund int=         152
 Eigenvalues of G in red int coords
    Gval -0.00000000 -0.00000000 -0.00000000 -0.00000000 -0.00000000 -0.00000000 -0.00000000 -0.00000000
    Gval -0.00000000 -0.00000000 -0.00000000 -0.00000000 -0.00000000 -0.00000000 -0.00000000 -0.00000000
    Gval -0.00000000 -0.00000000 -0.00000000 -0.00000000 -0.00000000 -0.00000000 -0.00000000 -0.00000000
    Gval -0.00000000 -0.00000000 -0.00000000 -0.00000000 -0.00000000 -0.00000000 -0.00000000 -0.00000000
    Gval -0.00000000 -0.00000000 -0.00000000 -0.00000000 -0.00000000 -0.00000000 -0.00000000 -0.00000000
    Gval -0.00000000 -0.00000000 -0.00000000  0.00000000  0.00000000  0.00000000  0.00000000  0.00000000
    Gval  0.00000000  0.00000000  0.00000000  0.00000000  0.00000000  0.00000000  0.00000000  0.00000000
    Gval  0.00000000  0.00000000  0.00000000  0.00000000  0.00000000  0.00000000  0.00000000  0.00000000
    Gval  0.00000000  0.00000000  0.00000000  0.00000000  0.00000000  0.00000000  0.00000000  0.00000000
    Gval  0.00000000  0.00000000  0.00000063  0.00000191  0.00000325  0.00000515  0.00000805  0.00001563
    Gval  0.00001977  0.00002221  0.00002406  0.00002838  0.00003312  0.00003541  0.00004097  0.00004676
    Gval  0.00004939  0.00005219  0.00006110  0.00006134  0.00007623  0.00008419  0.00008645  0.00009257
    Gval  0.00009882  0.00011291  0.00011989  0.00012466  0.00012596  0.00013945  0.00015508  0.00015567
    Gval  0.00019037  0.00020805  0.00021569  0.00025041  0.00026175  0.00030281  0.00031298  0.00031843
    Gval  0.00032513  0.00036181  0.00039003  0.00039944  0.00041419  0.00045205  0.00059316  0.00059660
    Gval  0.00059667  0.00059745  0.00061832  0.00062039  0.00062469  0.00063189  0.00065411  0.00065544
    Gval  0.00066659  0.00078771  0.00089061  0.00105143  0.00106705  0.00108119  0.00111907  0.00114034
    Gval  0.00114377  0.00115813  0.00115834  0.00116852  0.00118424  0.00130058  0.00162662  0.00179676
    Gval  0.00210569  0.00268567  0.00276644  0.00317709  0.00353452  0.00355759  0.00395303  0.00401170
  6.303792078120456E-007  6.303792078120456E-007
  1.907080655257441E-006  6.303792078120456E-007
  3.245551037222549E-006  6.303792078120456E-007
  5.149838661422499E-006  6.303792078120456E-007
  8.046667431990491E-006  6.303792078120456E-007
  1.562758639374177E-005  6.303792078120456E-007
  1.977120452762717E-005  6.303792078120456E-007
  2.220521693600868E-005  6.303792078120456E-007
  2.405755800790455E-005  6.303792078120456E-007
  2.837876612454827E-005  6.303792078120456E-007
  3.312079150770249E-005  6.303792078120456E-007
  3.541499466430365E-005  6.303792078120456E-007
  4.097091235833955E-005  6.303792078120456E-007
  4.676147840043671E-005  6.303792078120456E-007
  4.939277863204850E-005  6.303792078120456E-007
  5.218725960111486E-005  6.303792078120456E-007
  6.110307789063360E-005  6.303792078120456E-007
  6.133942402351319E-005  6.303792078120456E-007
  7.622607207887569E-005  6.303792078120456E-007
  8.418622532906926E-005  6.303792078120456E-007
  8.644620603178375E-005  6.303792078120456E-007
  9.256809123921548E-005  6.303792078120456E-007
  9.881523613788523E-005  6.303792078120456E-007
  1.129070390344095E-004  6.303792078120456E-007
  1.198861907810947E-004  6.303792078120456E-007
  1.246609019085415E-004  6.303792078120456E-007
  1.259630610916337E-004  6.303792078120456E-007
  1.394527467553676E-004  6.303792078120456E-007
  1.550801335505759E-004  6.303792078120456E-007
  1.556668642817781E-004  6.303792078120456E-007
  1.903714299533079E-004  6.303792078120456E-007
  2.080502199900500E-004  6.303792078120456E-007
  2.156921836172278E-004  6.303792078120456E-007
  2.504108337003192E-004  6.303792078120456E-007
  2.617539028148092E-004  6.303792078120456E-007
  3.028145040959194E-004  6.303792078120456E-007
  3.129847821281751E-004  6.303792078120456E-007
  3.184303057010164E-004  6.303792078120456E-007
  3.251260508605837E-004  6.303792078120456E-007
  3.618071160863042E-004  6.303792078120456E-007
  3.900286452909450E-004  6.303792078120456E-007
  3.994366853874436E-004  6.303792078120456E-007
  4.141949854741847E-004  6.303792078120456E-007
  4.520512131134536E-004  6.303792078120456E-007
  5.931623478672273E-004  6.303792078120456E-007
  5.965952549964140E-004  6.303792078120456E-007
  5.966658985209260E-004  6.303792078120456E-007
  5.974501811068580E-004  6.303792078120456E-007
  6.183202774347191E-004  6.303792078120456E-007
  6.203891769082560E-004  6.303792078120456E-007
  6.246887520649276E-004  6.303792078120456E-007
  6.318910701894303E-004  6.303792078120456E-007
  6.541116440596076E-004  6.303792078120456E-007
  6.554403126382059E-004  6.303792078120456E-007
  6.665899715691516E-004  6.303792078120456E-007
  7.877112050796556E-004  6.303792078120456E-007
  8.906092122837165E-004  6.303792078120456E-007
  1.051433730207952E-003  6.303792078120456E-007
  1.067054093147166E-003  6.303792078120456E-007
  1.081189016769138E-003  6.303792078120456E-007
  1.119072557382300E-003  6.303792078120456E-007
  1.140344948265938E-003  6.303792078120456E-007
  1.143773805485368E-003  6.303792078120456E-007
  1.158126840612579E-003  6.303792078120456E-007
  1.158335299755695E-003  6.303792078120456E-007
  1.168521168447323E-003  6.303792078120456E-007
  1.184243577599573E-003  6.303792078120456E-007
  1.300579044493076E-003  6.303792078120456E-007
  1.626618391340804E-003  6.303792078120456E-007
  1.796755988189114E-003  6.303792078120456E-007
  2.105692716344020E-003  6.303792078120456E-007
  2.685666215519872E-003  6.303792078120456E-007
  2.766440278783831E-003  6.303792078120456E-007
  3.177090719640221E-003  6.303792078120456E-007
  3.534521846505653E-003  6.303792078120456E-007
  3.557591252845831E-003  6.303792078120456E-007
  3.953031944535075E-003  6.303792078120456E-007
  4.011700585073084E-003  6.303792078120456E-007
 cut=1d-8, nber non-redundant internal coords=          78
 Check on Eigenvals of non-red overlap matrix:
  0.00000063  0.00000191  0.00000325  0.00000515  0.00000805  0.00001563  0.00001977  0.00002221
  0.00002406  0.00002838  0.00003312  0.00003541  0.00004097  0.00004676  0.00004939  0.00005219
  0.00006110  0.00006134  0.00007623  0.00008419  0.00008645  0.00009257  0.00009882  0.00011291
  0.00011989  0.00012466  0.00012596  0.00013945  0.00015508  0.00015567  0.00019037  0.00020805
  0.00021569  0.00025041  0.00026175  0.00030281  0.00031298  0.00031843  0.00032513  0.00036181
  0.00039003  0.00039944  0.00041419  0.00045205  0.00059316  0.00059660  0.00059667  0.00059745
  0.00061832  0.00062039  0.00062469  0.00063189  0.00065411  0.00065544  0.00066659  0.00078771
  0.00089061  0.00105143  0.00106705  0.00108119  0.00111907  0.00114034  0.00114377  0.00115813
  0.00115834  0.00116852  0.00118424  0.00130058  0.00162662  0.00179676  0.00210569  0.00268567
  0.00276644  0.00317709  0.00353452  0.00355759  0.00395303  0.00401170
 Checking for correct frequencies
 recalc frequencies=
    -0.0   -0.0   -0.0    0.0    0.0    0.0   24.5   32.0   41.6   79.3
   121.3  152.8  183.4  190.6  200.8  225.4  270.5  312.3  317.2  380.7
   432.6  437.0  444.8  447.2  489.5  499.3  502.7  536.2  553.5  554.6
   586.3  601.4  627.7  630.9  661.2  706.8  719.1  720.1  742.7  744.1
   762.0  770.6  837.2  838.1  845.0  846.7  884.4  895.9  909.2  942.6
  1034.4 1063.7 1082.6 1106.0 1128.9 1155.3 1167.2 1209.7 1212.8 1257.6
  1259.7 1285.9 1330.1 1341.3 1360.1 1397.5 1434.2 1451.6 1463.2 1477.7
  1495.1 1500.3 1575.9 1594.6 1616.7 3129.7 3137.4 3152.1 3155.1 3168.3
  3176.9 3188.2 3212.5 3241.7
 recalc symmetries=
                                                                       
                                                                       
                                                                       
                                                                       
                                                                       
                                                                       
                                                                       
                                                                       
                             
 recalc freqs check OK
 Zero-point lengths:
 10.0000 10.0000 10.0000 10.0000 10.0000 10.0000 50.1297 43.8374 38.4536 27.8399
 22.5076 20.0545 18.3061 17.9566 17.4953 16.5142 15.0746 14.0278 13.9190 12.7051
 11.9195 11.8597 11.7542 11.7228 11.2046 11.0947 11.0568 10.7064 10.5373 10.5269
 10.2389 10.1091  9.8950  9.8703  9.6415  9.3249  9.2451  9.2387  9.0969  9.0882
  8.9809  8.9305  8.5682  8.5635  8.5283  8.5196  8.3363  8.2827  8.2217  8.0746
  7.7081  7.6011  7.5345  7.4546  7.3785  7.2938  7.2563  7.1279  7.1187  6.9909
  6.9849  6.9134  6.7976  6.7690  6.7223  6.6316  6.5461  6.5069  6.4811  6.4492
  6.4115  6.4004  6.2449  6.2082  6.1656  4.4315  4.4260  4.4157  4.4136  4.4043
  4.3984  4.3906  4.3740  4.3542
 highest evec of mol 2
 -0.0003  0.0006  0.0000
 -0.0003  0.0001  0.0000
  0.0003  0.0001 -0.0000
 -0.0002 -0.0001  0.0000
  0.0002 -0.0001 -0.0000
 -0.0001  0.0001  0.0000
  0.0001  0.0001  0.0000
 -0.0000 -0.0001 -0.0000
  0.0001 -0.0001 -0.0000
 -0.0001  0.0000  0.0000
  0.0000  0.0000  0.0000
  0.0005 -0.0003 -0.0000
 -0.0014 -0.0019 -0.0000
 -0.0020  0.0012  0.0000
 -0.0005 -0.0019 -0.0000
  0.2872 -0.0220 -0.0001
  0.0111  0.0646  0.0000
 -0.0069 -0.0030  0.0000
  0.0003 -0.0000 -0.0000
  0.0005 -0.0013 -0.0000
  0.0002 -0.0006 -0.0000
  0.0001 -0.0003 -0.0000
 -0.0004 -0.0003 -0.0000
 -0.0002  0.0001  0.0000
 -0.0001  0.0004  0.0000
  0.0020  0.0059  0.0000
 -0.9392  0.0328  0.0002
 -0.0564 -0.1621 -0.0000
 Enter nber and list of atoms to keep of mol #2
 keep list:          28           1           2           3           4
           5           6           7           8           9          10
          11          12          13          14          15          16
          17          18          19          20          21          22
          23          24          25          26          27          28
 reordering atoms
           1  0.334713081917740     
           2 -0.623874953693617     
           3  -2.01472229438123     
           4  -2.91138092331423     
           5  -4.19093513883293     
           6  -5.34809237181260     
           7  -6.60663759595262     
           8  -6.75447788488707     
           9  -5.62219958757994     
          10  -4.36445325185428     
          11  -2.78286948733065     
          12   1.72940974338575     
          13   2.49823714342091     
          14   3.87825920482678     
          15   5.31578101370769     
          16   6.36116327599780     
          17   5.64081217422440     
          18   4.24601507238734     
          19   2.80955367715331     
          20 -1.410136820543600E-002
          21 -0.310229721248130     
          22  -5.22914084294842     
          23  -7.49071678966751     
          24  -7.74403500764668     
          25  -5.73020031602162     
          26   2.05276268754219     
          27   7.43175196615564     
          28   6.10301671166034     
           1           1
           2           2
           3           3
           4           4
           5           5
           6           6
           7           7
           8           8
           9           9
          10          10
          11          11
          12          12
          13          13
          14          14
          15          15
          16          16
          17          17
          18          18
          19          19
          20          20
          21          21
          22          22
          23          23
          24          24
          25          25
          26          26
          27          27
          28          28
 initial cartes coords mol 1
   6   0.00002   0.46405   0.32357
   6   0.00000  -0.51501  -0.60586
   6  -0.00001  -0.32342  -2.03699
   7   0.00010  -1.31774  -2.87516
   6   0.00007  -0.88751  -4.18337
   6   0.00017  -1.72403  -5.30848
   6   0.00012  -1.15470  -6.57225
   6  -0.00003   0.23970  -6.73414
   6  -0.00012   1.08904  -5.63344
   6  -0.00007   0.51643  -4.36291
  16  -0.00017   1.29939  -2.79668
   6   0.00003   0.27171   1.75357
   6  -0.00005  -0.89315   2.49243
   6  -0.00004  -0.63973   3.88205
  16  -0.00012  -1.63606   5.31489
   6  -0.00004  -0.21122   6.32932
   6   0.00008   0.95696   5.62425
   6   0.00007   0.71045   4.22386
  16   0.00017   1.70217   2.79773
   1   0.00004   1.49850  -0.01098
   1   0.00002  -1.56111  -0.31889
   1   0.00028  -2.79758  -5.16541
   1   0.00019  -1.79240  -7.44856
   1  -0.00006   0.66312  -7.73187
   1  -0.00023   2.16431  -5.76439
   1  -0.00014  -1.87807   2.04716
   1  -0.00006  -0.33400   7.40149
   1   0.00016   1.93466   6.08502
 initial cartes coords mol 2
   6   0.00000   0.47343   0.33471
   6   0.00001  -0.53976  -0.62387
   6   0.00001  -0.37592  -2.01472
   7   0.00001  -1.35804  -2.91138
   6   0.00000  -0.90061  -4.19094
   6   0.00001  -1.70526  -5.34809
   6   0.00001  -1.11450  -6.60664
   6  -0.00001   0.27761  -6.75448
   6  -0.00001   1.10085  -5.62220
   6  -0.00001   0.51562  -4.36445
  16  -0.00002   1.28617  -2.78287
   6   0.00000   0.28600   1.72941
   6  -0.00001  -0.88976   2.49824
   6  -0.00000  -0.63228   3.87826
  16  -0.00001  -1.64224   5.31578
   6  -0.00002  -0.22134   6.36116
   6   0.00001   0.94538   5.64081
   6   0.00001   0.71506   4.24602
  16   0.00002   1.72609   2.80955
   1   0.00000   1.50298  -0.01410
   1   0.00002  -1.57897  -0.31023
   1   0.00002  -2.78292  -5.22914
   1   0.00001  -1.74538  -7.49072
   1  -0.00001   0.72210  -7.74404
   1  -0.00002   2.18047  -5.73020
   1  -0.00002  -1.87406   2.05276
   1  -0.00004  -0.35058   7.43175
   1   0.00001   1.92448   6.10302
 loop 1 0
 mod cartes coords mol 2
   6   0.00000   0.47343   0.33471
   6   0.00001  -0.53976  -0.62387
   6   0.00001  -0.37592  -2.01472
   7   0.00001  -1.35804  -2.91138
   6   0.00000  -0.90061  -4.19094
   6   0.00001  -1.70526  -5.34809
   6   0.00001  -1.11450  -6.60664
   6  -0.00001   0.27761  -6.75448
   6  -0.00001   1.10085  -5.62220
   6  -0.00001   0.51562  -4.36445
  16  -0.00002   1.28617  -2.78287
   6   0.00000   0.28600   1.72941
   6  -0.00001  -0.88976   2.49824
   6  -0.00000  -0.63228   3.87826
  16  -0.00001  -1.64224   5.31578
   6  -0.00002  -0.22134   6.36116
   6   0.00001   0.94538   5.64081
   6   0.00001   0.71506   4.24602
  16   0.00002   1.72609   2.80955
   1   0.00000   1.50298  -0.01410
   1   0.00002  -1.57897  -0.31023
   1   0.00002  -2.78292  -5.22914
   1   0.00001  -1.74538  -7.49072
   1  -0.00001   0.72210  -7.74404
   1  -0.00002   2.18047  -5.73020
   1  -0.00002  -1.87406   2.05276
   1  -0.00004  -0.35058   7.43175
   1   0.00001   1.92448   6.10302
 read in order, maxerr=  0.07 for atom  22
 final axis swaps:           1           1           1
 final xyz swap pattern=           1
 reorder list:
   1   2   3   4   5   6   7   8   9  10  11  12  13  14  15  16  17  18  19  20
  21  22  23  24  25  26  27  28
 axis signs=           1           1           1
  6     0.000005  0.473431  0.334713     0.000020  0.464048  0.323572
  6     0.000012 -0.539758 -0.623875     0.000004 -0.515013 -0.605859
  6     0.000007 -0.375922 -2.014722    -0.000006 -0.323418 -2.036990
  7     0.000012 -1.358043 -2.911381     0.000104 -1.317744 -2.875165
  6     0.000004 -0.900608 -4.190935     0.000071 -0.887509 -4.183372
  6     0.000012 -1.705257 -5.348092     0.000166 -1.724031 -5.308482
  6     0.000007 -1.114498 -6.606638     0.000116 -1.154704 -6.572248
  6    -0.000006  0.277605 -6.754478    -0.000027  0.239702 -6.734136
  6    -0.000012  1.100848 -5.622200    -0.000124  1.089044 -5.633444
  6    -0.000007  0.515620 -4.364453    -0.000074  0.516428 -4.362911
 16    -0.000019  1.286175 -2.782869    -0.000171  1.299386 -2.796675
  6     0.000002  0.286003  1.729410     0.000026  0.271711  1.753567
  6    -0.000007 -0.889758  2.498237    -0.000051 -0.893146  2.492431
  6    -0.000003 -0.632284  3.878259    -0.000035 -0.639733  3.882048
 16    -0.000009 -1.642237  5.315781    -0.000118 -1.636060  5.314890
  6    -0.000020 -0.221339  6.361163    -0.000038 -0.211222  6.329324
  6     0.000007  0.945380  5.640812     0.000077  0.956958  5.624253
  6     0.000009  0.715063  4.246015     0.000070  0.710447  4.223860
 16     0.000018  1.726085  2.809554     0.000170  1.702170  2.797731
  1     0.000004  1.502985 -0.014101     0.000037  1.498497 -0.010984
  1     0.000023 -1.578974 -0.310230     0.000017 -1.561112 -0.318893
  1     0.000022 -2.782920 -5.229141     0.000278 -2.797585 -5.165412
  1     0.000013 -1.745376 -7.490717     0.000191 -1.792404 -7.448564
  1    -0.000010  0.722100 -7.744035    -0.000063  0.663119 -7.731873
  1    -0.000024  2.180473 -5.730200    -0.000233  2.164312 -5.764386
  1    -0.000019 -1.874063  2.052763    -0.000137 -1.878069  2.047163
  1    -0.000036 -0.350580  7.431752    -0.000064 -0.334001  7.401487
  1     0.000014  1.924484  6.103017     0.000156  1.934663  6.085018
 generating redundant internal coords
         300        3600          28
 Adding extra bonds for z output only
           6           6           6           7           6           6
           6           6           6           6          16           6
           6           6          16           6           6           6
          16           1           1           1           1           1
           1           1           1           1
 search for int coords
   1 str   2   1   1.395
   2 str   3   2   1.400
   3 str   4   3   1.330
   4 str   5   4   1.359
   5 str   6   5   1.409
   6 str   7   6   1.390
   7 str   8   7   1.400
   8 str   9   8   1.400
   9 str  10   5   1.427
  10 str  10   9   1.387
  11 str  11   3   1.831
  12 str  11  10   1.759
  13 str  12   1   1.407
  14 str  13  12   1.405
  15 str  14  13   1.404
  16 str  15  14   1.757
  17 str  16  15   1.764
  18 str  17  16   1.371
  19 str  18  14   1.397
  20 str  18  17   1.414
  21 str  19  12   1.800
  22 str  19  18   1.757
  23 str  20   1   1.087
  24 str  21   2   1.086
  25 str  22   6   1.084
  26 str  23   7   1.086
  27 str  24   8   1.085
  28 str  25   9   1.085
  29 str  26  13   1.080
  30 str  27  16   1.078
  31 str  28  17   1.083
 nber stretches=          31
  32 ben   1   2   3
  33 prop tor   1   2   3   4
  34 prop tor   1   2   3  11
  35 ben   1   2  21
  36 ben   1  12  13
  37 prop tor   1  12  13  14
  38 prop tor   1  12  13  26
  39 ben   1  12  19
  40 prop tor   1  12  19  18
  41 ben   2   1  12
  42 prop tor   2   1  12  13
  43 prop tor   2   1  12  19
  44 ben   2   1  20
  45 ben   2   3   4
  46 prop tor   2   3   4   5
  47 ben   2   3  11
  48 prop tor   2   3  11  10
  49 ben   3   2  21
  50 ben   3   4   5
  51 prop tor   3   4   5   6
  52 prop tor   3   4   5  10
  53 ben   3  11  10
  54 ben   4   3  11
  55 prop tor   4   3  11  10
  56 ben   4   5   6
  57 prop tor   4   5   6   7
  58 prop tor   4   5   6  22
  59 ben   4   5  10
  60 prop tor   4   5  10   9
  61 prop tor   4   5  10  11
  62 ben   5   6   7
  63 prop tor   5   6   7   8
  64 prop tor   5   6   7  23
  65 ben   5   6  22
  66 ben   5  10   9
  67 ben   5  10  11
  68 prop tor   5  10  11   3
  69 ben   6   5  10
  70 prop tor   6   5  10   9
  71 prop tor   6   5  10  11
  72 ben   6   7   8
  73 prop tor   6   7   8   9
  74 prop tor   6   7   8  24
  75 ben   6   7  23
  76 ben   7   6  22
  77 ben   7   8   9
  78 prop tor   7   8   9  10
  79 prop tor   7   8   9  25
  80 ben   7   8  24
  81 ben   8   7  23
  82 ben   8   9  10
  83 prop tor   8   9  10   5
  84 prop tor   8   9  10  11
  85 ben   8   9  25
  86 ben   9   8  24
  87 ben   9  10  11
  88 prop tor   9  10  11   3
  89 prop tor  10   5   6   7
  90 prop tor  10   5   6  22
  91 ben  10   9  25
  92 prop tor  11   3   4   5
  93 prop tor  12   1   2   3
  94 prop tor  12   1   2  21
  95 ben  12   1  20
  96 ben  12  13  14
  97 prop tor  12  13  14  15
  98 prop tor  12  13  14  18
  99 ben  12  13  26
 100 ben  12  19  18
 101 ben  13  12  19
 102 prop tor  13  12  19  18
 103 ben  13  14  15
 104 prop tor  13  14  15  16
 105 ben  13  14  18
 106 prop tor  13  14  18  17
 107 prop tor  13  14  18  19
 108 ben  14  13  26
 109 ben  14  15  16
 110 prop tor  14  15  16  17
 111 prop tor  14  15  16  27
 112 ben  14  18  17
 113 ben  14  18  19
 114 prop tor  14  18  19  12
 115 ben  15  14  18
 116 prop tor  15  14  18  17
 117 prop tor  15  14  18  19
 118 ben  15  16  17
 119 prop tor  15  16  17  18
 120 prop tor  15  16  17  28
 121 ben  15  16  27
 122 ben  16  17  18
 123 prop tor  16  17  18  14
 124 prop tor  16  17  18  19
 125 ben  16  17  28
 126 ben  17  16  27
 127 ben  17  18  19
 128 prop tor  17  18  19  12
 129 prop tor  18  14  15  16
 130 ben  18  17  28
 131 prop tor  19  12  13  14
 132 prop tor  19  12  13  26
 133 prop tor  20   1   2   3
 134 prop tor  20   1   2  21
 135 prop tor  20   1  12  13
 136 prop tor  20   1  12  19
 137 prop tor  21   2   3   4
 138 prop tor  21   2   3  11
 139 prop tor  22   6   7   8
 140 prop tor  22   6   7  23
 141 prop tor  23   7   8   9
 142 prop tor  23   7   8  24
 143 prop tor  24   8   9  10
 144 prop tor  24   8   9  25
 145 prop tor  25   9  10   5
 146 prop tor  25   9  10  11
 147 prop tor  26  13  14  15
 148 prop tor  26  13  14  18
 149 prop tor  27  16  17  18
 150 prop tor  27  16  17  28
 151 prop tor  28  17  18  14
 152 prop tor  28  17  18  19
 nber bend=              49
 nber lin bend=           0
 nber prop tor=          72
 nber impr tor=           0
 nber tot redund int=         152
 generating redundant internal coords
         300        3600          28
 search for int coords
   1 str   2   1   1.350
   2 str   3   2   1.444
   3 str   4   3   1.300
   4 str   5   4   1.377
   5 str   6   5   1.402
   6 str   7   6   1.386
   7 str   8   7   1.404
   8 str   9   8   1.390
   9 str  10   5   1.415
  10 str  10   9   1.394
  11 str  11   3   1.792
  12 str  11  10   1.751
  13 str  12   1   1.443
  14 str  13  12   1.379
  15 str  14  13   1.413
  16 str  15  14   1.745
  17 str  16  15   1.749
  18 str  17  16   1.364
  19 str  18  14   1.393
  20 str  18  17   1.422
  21 str  19  12   1.771
  22 str  19  18   1.737
  23 str  20   1   1.087
  24 str  21   2   1.085
  25 str  22   6   1.083
  26 str  23   7   1.084
  27 str  24   8   1.084
  28 str  25   9   1.083
  29 str  26  13   1.081
  30 str  27  16   1.079
  31 str  28  17   1.081
 nber stretches=          31
  32 ben   1   2   3
  33 prop tor   1   2   3   4
  34 prop tor   1   2   3  11
  35 ben   1   2  21
  36 ben   1  12  13
  37 prop tor   1  12  13  14
  38 prop tor   1  12  13  26
  39 ben   1  12  19
  40 prop tor   1  12  19  18
  41 ben   2   1  12
  42 prop tor   2   1  12  13
  43 prop tor   2   1  12  19
  44 ben   2   1  20
  45 ben   2   3   4
  46 prop tor   2   3   4   5
  47 ben   2   3  11
  48 prop tor   2   3  11  10
  49 ben   3   2  21
  50 ben   3   4   5
  51 prop tor   3   4   5   6
  52 prop tor   3   4   5  10
  53 ben   3  11  10
  54 ben   4   3  11
  55 prop tor   4   3  11  10
  56 ben   4   5   6
  57 prop tor   4   5   6   7
  58 prop tor   4   5   6  22
  59 ben   4   5  10
  60 prop tor   4   5  10   9
  61 prop tor   4   5  10  11
  62 ben   5   6   7
  63 prop tor   5   6   7   8
  64 prop tor   5   6   7  23
  65 ben   5   6  22
  66 ben   5  10   9
  67 ben   5  10  11
  68 prop tor   5  10  11   3
  69 ben   6   5  10
  70 prop tor   6   5  10   9
  71 prop tor   6   5  10  11
  72 ben   6   7   8
  73 prop tor   6   7   8   9
  74 prop tor   6   7   8  24
  75 ben   6   7  23
  76 ben   7   6  22
  77 ben   7   8   9
  78 prop tor   7   8   9  10
  79 prop tor   7   8   9  25
  80 ben   7   8  24
  81 ben   8   7  23
  82 ben   8   9  10
  83 prop tor   8   9  10   5
  84 prop tor   8   9  10  11
  85 ben   8   9  25
  86 ben   9   8  24
  87 ben   9  10  11
  88 prop tor   9  10  11   3
  89 prop tor  10   5   6   7
  90 prop tor  10   5   6  22
  91 ben  10   9  25
  92 prop tor  11   3   4   5
  93 prop tor  12   1   2   3
  94 prop tor  12   1   2  21
  95 ben  12   1  20
  96 ben  12  13  14
  97 prop tor  12  13  14  15
  98 prop tor  12  13  14  18
  99 ben  12  13  26
 100 ben  12  19  18
 101 ben  13  12  19
 102 prop tor  13  12  19  18
 103 ben  13  14  15
 104 prop tor  13  14  15  16
 105 ben  13  14  18
 106 prop tor  13  14  18  17
 107 prop tor  13  14  18  19
 108 ben  14  13  26
 109 ben  14  15  16
 110 prop tor  14  15  16  17
 111 prop tor  14  15  16  27
 112 ben  14  18  17
 113 ben  14  18  19
 114 prop tor  14  18  19  12
 115 ben  15  14  18
 116 prop tor  15  14  18  17
 117 prop tor  15  14  18  19
 118 ben  15  16  17
 119 prop tor  15  16  17  18
 120 prop tor  15  16  17  28
 121 ben  15  16  27
 122 ben  16  17  18
 123 prop tor  16  17  18  14
 124 prop tor  16  17  18  19
 125 ben  16  17  28
 126 ben  17  16  27
 127 ben  17  18  19
 128 prop tor  17  18  19  12
 129 prop tor  18  14  15  16
 130 ben  18  17  28
 131 prop tor  19  12  13  14
 132 prop tor  19  12  13  26
 133 prop tor  20   1   2   3
 134 prop tor  20   1   2  21
 135 prop tor  20   1  12  13
 136 prop tor  20   1  12  19
 137 prop tor  21   2   3   4
 138 prop tor  21   2   3  11
 139 prop tor  22   6   7   8
 140 prop tor  22   6   7  23
 141 prop tor  23   7   8   9
 142 prop tor  23   7   8  24
 143 prop tor  24   8   9  10
 144 prop tor  24   8   9  25
 145 prop tor  25   9  10   5
 146 prop tor  25   9  10  11
 147 prop tor  26  13  14  15
 148 prop tor  26  13  14  18
 149 prop tor  27  16  17  18
 150 prop tor  27  16  17  28
 151 prop tor  28  17  18  14
 152 prop tor  28  17  18  19
 nber bend=              49
 nber lin bend=           0
 nber prop tor=          72
 nber impr tor=           0
 nber tot redund int=         152
 Eigenvalues of G in red int coords
    Gval -0.00000000 -0.00000000 -0.00000000 -0.00000000 -0.00000000 -0.00000000 -0.00000000 -0.00000000
    Gval -0.00000000 -0.00000000 -0.00000000 -0.00000000 -0.00000000 -0.00000000 -0.00000000 -0.00000000
    Gval -0.00000000 -0.00000000 -0.00000000 -0.00000000 -0.00000000 -0.00000000 -0.00000000 -0.00000000
    Gval -0.00000000 -0.00000000 -0.00000000 -0.00000000 -0.00000000 -0.00000000 -0.00000000 -0.00000000
    Gval -0.00000000 -0.00000000 -0.00000000 -0.00000000 -0.00000000 -0.00000000  0.00000000  0.00000000
    Gval  0.00000000  0.00000000  0.00000000  0.00000000  0.00000000  0.00000000  0.00000000  0.00000000
    Gval  0.00000000  0.00000000  0.00000000  0.00000000  0.00000000  0.00000000  0.00000000  0.00000000
    Gval  0.00000000  0.00000000  0.00000000  0.00000000  0.00000000  0.00000000  0.00000000  0.00000000
    Gval  0.00000000  0.00000000  0.00000000  0.00000000  0.00000000  0.00000000  0.00000000  0.00000000
    Gval  0.00000000  0.00000000  0.00000064  0.00000194  0.00000323  0.00000510  0.00000803  0.00001567
    Gval  0.00001985  0.00002218  0.00002389  0.00002859  0.00003321  0.00003538  0.00004134  0.00004677
    Gval  0.00004954  0.00005217  0.00006083  0.00006148  0.00007656  0.00008452  0.00008684  0.00009250
    Gval  0.00009942  0.00011338  0.00012124  0.00012604  0.00012631  0.00013959  0.00015573  0.00015686
    Gval  0.00019217  0.00020640  0.00021848  0.00025184  0.00026369  0.00030363  0.00031457  0.00032214
    Gval  0.00032607  0.00036061  0.00039036  0.00039972  0.00041162  0.00046433  0.00059315  0.00059632
    Gval  0.00059660  0.00059752  0.00061828  0.00062063  0.00062475  0.00063088  0.00065361  0.00065530
    Gval  0.00065981  0.00078692  0.00089329  0.00105444  0.00106349  0.00108136  0.00112099  0.00112255
    Gval  0.00114256  0.00116317  0.00116407  0.00117164  0.00118668  0.00129302  0.00163446  0.00180143
    Gval  0.00208317  0.00270063  0.00276341  0.00319937  0.00356975  0.00357433  0.00397209  0.00402219
  6.356909794602913E-007  6.356909794602913E-007
  1.943074370724118E-006  6.356909794602913E-007
  3.229780490627729E-006  6.356909794602913E-007
  5.096846714887843E-006  6.356909794602913E-007
  8.032630308543706E-006  6.356909794602913E-007
  1.567072051738534E-005  6.356909794602913E-007
  1.984568342245084E-005  6.356909794602913E-007
  2.218376789939807E-005  6.356909794602913E-007
  2.389209635330126E-005  6.356909794602913E-007
  2.859199559868455E-005  6.356909794602913E-007
  3.320795326847751E-005  6.356909794602913E-007
  3.537702521144901E-005  6.356909794602913E-007
  4.134195441735582E-005  6.356909794602913E-007
  4.677124923973814E-005  6.356909794602913E-007
  4.953888447444825E-005  6.356909794602913E-007
  5.216992046160457E-005  6.356909794602913E-007
  6.083307773502682E-005  6.356909794602913E-007
  6.148145073820384E-005  6.356909794602913E-007
  7.655859923235415E-005  6.356909794602913E-007
  8.452291580882614E-005  6.356909794602913E-007
  8.684465138571269E-005  6.356909794602913E-007
  9.249812079627577E-005  6.356909794602913E-007
  9.941813264685519E-005  6.356909794602913E-007
  1.133772466051490E-004  6.356909794602913E-007
  1.212398122955847E-004  6.356909794602913E-007
  1.260417475167821E-004  6.356909794602913E-007
  1.263106669650329E-004  6.356909794602913E-007
  1.395865822434280E-004  6.356909794602913E-007
  1.557268569335790E-004  6.356909794602913E-007
  1.568563652781003E-004  6.356909794602913E-007
  1.921660974577266E-004  6.356909794602913E-007
  2.063993882853230E-004  6.356909794602913E-007
  2.184771922903633E-004  6.356909794602913E-007
  2.518448388727980E-004  6.356909794602913E-007
  2.636858565156272E-004  6.356909794602913E-007
  3.036286233658908E-004  6.356909794602913E-007
  3.145690453160305E-004  6.356909794602913E-007
  3.221369190164004E-004  6.356909794602913E-007
  3.260660963318351E-004  6.356909794602913E-007
  3.606061440927043E-004  6.356909794602913E-007
  3.903590255392371E-004  6.356909794602913E-007
  3.997225552180637E-004  6.356909794602913E-007
  4.116199065489470E-004  6.356909794602913E-007
  4.643287743979760E-004  6.356909794602913E-007
  5.931537649090002E-004  6.356909794602913E-007
  5.963161409719408E-004  6.356909794602913E-007
  5.966010367362441E-004  6.356909794602913E-007
  5.975164357594321E-004  6.356909794602913E-007
  6.182751805519796E-004  6.356909794602913E-007
  6.206314434101548E-004  6.356909794602913E-007
  6.247529615250759E-004  6.356909794602913E-007
  6.308849612689296E-004  6.356909794602913E-007
  6.536087647635590E-004  6.356909794602913E-007
  6.553039960804957E-004  6.356909794602913E-007
  6.598105236052302E-004  6.356909794602913E-007
  7.869242686731348E-004  6.356909794602913E-007
  8.932893282974774E-004  6.356909794602913E-007
  1.054435139402843E-003  6.356909794602913E-007
  1.063491731433788E-003  6.356909794602913E-007
  1.081361091036480E-003  6.356909794602913E-007
  1.120986940319227E-003  6.356909794602913E-007
  1.122549493657934E-003  6.356909794602913E-007
  1.142559448574710E-003  6.356909794602913E-007
  1.163172214157822E-003  6.356909794602913E-007
  1.164072619988645E-003  6.356909794602913E-007
  1.171643350453976E-003  6.356909794602913E-007
  1.186683313573647E-003  6.356909794602913E-007
  1.293017357270743E-003  6.356909794602913E-007
  1.634462325677665E-003  6.356909794602913E-007
  1.801425585153339E-003  6.356909794602913E-007
  2.083167271920034E-003  6.356909794602913E-007
  2.700626541341431E-003  6.356909794602913E-007
  2.763406662139626E-003  6.356909794602913E-007
  3.199369102710785E-003  6.356909794602913E-007
  3.569751006552397E-003  6.356909794602913E-007
  3.574329484452238E-003  6.356909794602913E-007
  3.972091769909337E-003  6.356909794602913E-007
  4.022194288790922E-003  6.356909794602913E-007
 cut=1d-8, nber non-redundant internal coords=          78
 Check on Eigenvals of non-red overlap matrix:
  0.00000064  0.00000194  0.00000323  0.00000510  0.00000803  0.00001567  0.00001985  0.00002218
  0.00002389  0.00002859  0.00003321  0.00003538  0.00004134  0.00004677  0.00004954  0.00005217
  0.00006083  0.00006148  0.00007656  0.00008452  0.00008684  0.00009250  0.00009942  0.00011338
  0.00012124  0.00012604  0.00012631  0.00013959  0.00015573  0.00015686  0.00019217  0.00020640
  0.00021848  0.00025184  0.00026369  0.00030363  0.00031457  0.00032214  0.00032607  0.00036061
  0.00039036  0.00039972  0.00041162  0.00046433  0.00059315  0.00059632  0.00059660  0.00059752
  0.00061828  0.00062063  0.00062475  0.00063088  0.00065361  0.00065530  0.00065981  0.00078692
  0.00089329  0.00105444  0.00106349  0.00108136  0.00112099  0.00112255  0.00114256  0.00116317
  0.00116407  0.00117164  0.00118668  0.00129302  0.00163446  0.00180143  0.00208317  0.00270063
  0.00276341  0.00319937  0.00356975  0.00357433  0.00397209  0.00402219
 generating redundant internal coords
         300        3600          28
 search for int coords
   1 str   2   1   1.395
   2 str   3   2   1.400
   3 str   4   3   1.330
   4 str   5   4   1.359
   5 str   6   5   1.409
   6 str   7   6   1.390
   7 str   8   7   1.400
   8 str   9   8   1.400
   9 str  10   5   1.427
  10 str  10   9   1.387
  11 str  11   3   1.831
  12 str  11  10   1.759
  13 str  12   1   1.407
  14 str  13  12   1.405
  15 str  14  13   1.404
  16 str  15  14   1.757
  17 str  16  15   1.764
  18 str  17  16   1.371
  19 str  18  14   1.397
  20 str  18  17   1.414
  21 str  19  12   1.800
  22 str  19  18   1.757
  23 str  20   1   1.087
  24 str  21   2   1.086
  25 str  22   6   1.084
  26 str  23   7   1.086
  27 str  24   8   1.085
  28 str  25   9   1.085
  29 str  26  13   1.080
  30 str  27  16   1.078
  31 str  28  17   1.083
 nber stretches=          31
  32 ben   1   2   3
  33 prop tor   1   2   3   4
  34 prop tor   1   2   3  11
  35 ben   1   2  21
  36 ben   1  12  13
  37 prop tor   1  12  13  14
  38 prop tor   1  12  13  26
  39 ben   1  12  19
  40 prop tor   1  12  19  18
  41 ben   2   1  12
  42 prop tor   2   1  12  13
  43 prop tor   2   1  12  19
  44 ben   2   1  20
  45 ben   2   3   4
  46 prop tor   2   3   4   5
  47 ben   2   3  11
  48 prop tor   2   3  11  10
  49 ben   3   2  21
  50 ben   3   4   5
  51 prop tor   3   4   5   6
  52 prop tor   3   4   5  10
  53 ben   3  11  10
  54 ben   4   3  11
  55 prop tor   4   3  11  10
  56 ben   4   5   6
  57 prop tor   4   5   6   7
  58 prop tor   4   5   6  22
  59 ben   4   5  10
  60 prop tor   4   5  10   9
  61 prop tor   4   5  10  11
  62 ben   5   6   7
  63 prop tor   5   6   7   8
  64 prop tor   5   6   7  23
  65 ben   5   6  22
  66 ben   5  10   9
  67 ben   5  10  11
  68 prop tor   5  10  11   3
  69 ben   6   5  10
  70 prop tor   6   5  10   9
  71 prop tor   6   5  10  11
  72 ben   6   7   8
  73 prop tor   6   7   8   9
  74 prop tor   6   7   8  24
  75 ben   6   7  23
  76 ben   7   6  22
  77 ben   7   8   9
  78 prop tor   7   8   9  10
  79 prop tor   7   8   9  25
  80 ben   7   8  24
  81 ben   8   7  23
  82 ben   8   9  10
  83 prop tor   8   9  10   5
  84 prop tor   8   9  10  11
  85 ben   8   9  25
  86 ben   9   8  24
  87 ben   9  10  11
  88 prop tor   9  10  11   3
  89 prop tor  10   5   6   7
  90 prop tor  10   5   6  22
  91 ben  10   9  25
  92 prop tor  11   3   4   5
  93 prop tor  12   1   2   3
  94 prop tor  12   1   2  21
  95 ben  12   1  20
  96 ben  12  13  14
  97 prop tor  12  13  14  15
  98 prop tor  12  13  14  18
  99 ben  12  13  26
 100 ben  12  19  18
 101 ben  13  12  19
 102 prop tor  13  12  19  18
 103 ben  13  14  15
 104 prop tor  13  14  15  16
 105 ben  13  14  18
 106 prop tor  13  14  18  17
 107 prop tor  13  14  18  19
 108 ben  14  13  26
 109 ben  14  15  16
 110 prop tor  14  15  16  17
 111 prop tor  14  15  16  27
 112 ben  14  18  17
 113 ben  14  18  19
 114 prop tor  14  18  19  12
 115 ben  15  14  18
 116 prop tor  15  14  18  17
 117 prop tor  15  14  18  19
 118 ben  15  16  17
 119 prop tor  15  16  17  18
 120 prop tor  15  16  17  28
 121 ben  15  16  27
 122 ben  16  17  18
 123 prop tor  16  17  18  14
 124 prop tor  16  17  18  19
 125 ben  16  17  28
 126 ben  17  16  27
 127 ben  17  18  19
 128 prop tor  17  18  19  12
 129 prop tor  18  14  15  16
 130 ben  18  17  28
 131 prop tor  19  12  13  14
 132 prop tor  19  12  13  26
 133 prop tor  20   1   2   3
 134 prop tor  20   1   2  21
 135 prop tor  20   1  12  13
 136 prop tor  20   1  12  19
 137 prop tor  21   2   3   4
 138 prop tor  21   2   3  11
 139 prop tor  22   6   7   8
 140 prop tor  22   6   7  23
 141 prop tor  23   7   8   9
 142 prop tor  23   7   8  24
 143 prop tor  24   8   9  10
 144 prop tor  24   8   9  25
 145 prop tor  25   9  10   5
 146 prop tor  25   9  10  11
 147 prop tor  26  13  14  15
 148 prop tor  26  13  14  18
 149 prop tor  27  16  17  18
 150 prop tor  27  16  17  28
 151 prop tor  28  17  18  14
 152 prop tor  28  17  18  19
 nber bend=              49
 nber lin bend=           0
 nber prop tor=          72
 nber impr tor=           0
 nber tot redund int=         152
 Eigenvalues of G in red int coords
    Gval -0.00000000 -0.00000000 -0.00000000 -0.00000000 -0.00000000 -0.00000000 -0.00000000 -0.00000000
    Gval -0.00000000 -0.00000000 -0.00000000 -0.00000000 -0.00000000 -0.00000000 -0.00000000 -0.00000000
    Gval -0.00000000 -0.00000000 -0.00000000 -0.00000000 -0.00000000 -0.00000000 -0.00000000 -0.00000000
    Gval -0.00000000 -0.00000000 -0.00000000 -0.00000000 -0.00000000 -0.00000000 -0.00000000 -0.00000000
    Gval -0.00000000 -0.00000000 -0.00000000 -0.00000000 -0.00000000 -0.00000000 -0.00000000  0.00000000
    Gval  0.00000000  0.00000000  0.00000000  0.00000000  0.00000000  0.00000000  0.00000000  0.00000000
    Gval  0.00000000  0.00000000  0.00000000  0.00000000  0.00000000  0.00000000  0.00000000  0.00000000
    Gval  0.00000000  0.00000000  0.00000000  0.00000000  0.00000000  0.00000000  0.00000000  0.00000000
    Gval  0.00000000  0.00000000  0.00000000  0.00000000  0.00000000  0.00000000  0.00000000  0.00000000
    Gval  0.00000000  0.00000000  0.00000063  0.00000191  0.00000325  0.00000515  0.00000805  0.00001563
    Gval  0.00001977  0.00002221  0.00002406  0.00002838  0.00003312  0.00003541  0.00004097  0.00004676
    Gval  0.00004939  0.00005219  0.00006110  0.00006134  0.00007623  0.00008419  0.00008645  0.00009257
    Gval  0.00009882  0.00011291  0.00011989  0.00012466  0.00012596  0.00013945  0.00015508  0.00015567
    Gval  0.00019037  0.00020805  0.00021569  0.00025041  0.00026175  0.00030281  0.00031298  0.00031843
    Gval  0.00032513  0.00036181  0.00039003  0.00039944  0.00041419  0.00045205  0.00059316  0.00059660
    Gval  0.00059667  0.00059745  0.00061832  0.00062039  0.00062469  0.00063189  0.00065411  0.00065544
    Gval  0.00066659  0.00078771  0.00089061  0.00105143  0.00106705  0.00108119  0.00111907  0.00114034
    Gval  0.00114377  0.00115813  0.00115834  0.00116852  0.00118424  0.00130058  0.00162662  0.00179676
    Gval  0.00210569  0.00268567  0.00276644  0.00317709  0.00353452  0.00355759  0.00395303  0.00401170
  6.303792078121151E-007  6.303792078121151E-007
  1.907080655257522E-006  6.303792078121151E-007
  3.245551037223104E-006  6.303792078121151E-007
  5.149838661422536E-006  6.303792078121151E-007
  8.046667431991436E-006  6.303792078121151E-007
  1.562758639374177E-005  6.303792078121151E-007
  1.977120452762723E-005  6.303792078121151E-007
  2.220521693600867E-005  6.303792078121151E-007
  2.405755800790449E-005  6.303792078121151E-007
  2.837876612454827E-005  6.303792078121151E-007
  3.312079150770268E-005  6.303792078121151E-007
  3.541499466430368E-005  6.303792078121151E-007
  4.097091235833957E-005  6.303792078121151E-007
  4.676147840043693E-005  6.303792078121151E-007
  4.939277863204854E-005  6.303792078121151E-007
  5.218725960111506E-005  6.303792078121151E-007
  6.110307789063365E-005  6.303792078121151E-007
  6.133942402351323E-005  6.303792078121151E-007
  7.622607207887581E-005  6.303792078121151E-007
  8.418622532906930E-005  6.303792078121151E-007
  8.644620603178331E-005  6.303792078121151E-007
  9.256809123921543E-005  6.303792078121151E-007
  9.881523613788509E-005  6.303792078121151E-007
  1.129070390344095E-004  6.303792078121151E-007
  1.198861907810947E-004  6.303792078121151E-007
  1.246609019085417E-004  6.303792078121151E-007
  1.259630610916339E-004  6.303792078121151E-007
  1.394527467553675E-004  6.303792078121151E-007
  1.550801335505763E-004  6.303792078121151E-007
  1.556668642817783E-004  6.303792078121151E-007
  1.903714299533082E-004  6.303792078121151E-007
  2.080502199900502E-004  6.303792078121151E-007
  2.156921836172281E-004  6.303792078121151E-007
  2.504108337003191E-004  6.303792078121151E-007
  2.617539028148092E-004  6.303792078121151E-007
  3.028145040959199E-004  6.303792078121151E-007
  3.129847821281754E-004  6.303792078121151E-007
  3.184303057010162E-004  6.303792078121151E-007
  3.251260508605839E-004  6.303792078121151E-007
  3.618071160863039E-004  6.303792078121151E-007
  3.900286452909451E-004  6.303792078121151E-007
  3.994366853874432E-004  6.303792078121151E-007
  4.141949854741850E-004  6.303792078121151E-007
  4.520512131134542E-004  6.303792078121151E-007
  5.931623478672283E-004  6.303792078121151E-007
  5.965952549964128E-004  6.303792078121151E-007
  5.966658985209259E-004  6.303792078121151E-007
  5.974501811068585E-004  6.303792078121151E-007
  6.183202774347179E-004  6.303792078121151E-007
  6.203891769082536E-004  6.303792078121151E-007
  6.246887520649278E-004  6.303792078121151E-007
  6.318910701894299E-004  6.303792078121151E-007
  6.541116440596065E-004  6.303792078121151E-007
  6.554403126382046E-004  6.303792078121151E-007
  6.665899715691503E-004  6.303792078121151E-007
  7.877112050796536E-004  6.303792078121151E-007
  8.906092122837176E-004  6.303792078121151E-007
  1.051433730207950E-003  6.303792078121151E-007
  1.067054093147167E-003  6.303792078121151E-007
  1.081189016769142E-003  6.303792078121151E-007
  1.119072557382300E-003  6.303792078121151E-007
  1.140344948265940E-003  6.303792078121151E-007
  1.143773805485371E-003  6.303792078121151E-007
  1.158126840612576E-003  6.303792078121151E-007
  1.158335299755695E-003  6.303792078121151E-007
  1.168521168447323E-003  6.303792078121151E-007
  1.184243577599571E-003  6.303792078121151E-007
  1.300579044493079E-003  6.303792078121151E-007
  1.626618391340805E-003  6.303792078121151E-007
  1.796755988189118E-003  6.303792078121151E-007
  2.105692716344011E-003  6.303792078121151E-007
  2.685666215519883E-003  6.303792078121151E-007
  2.766440278783830E-003  6.303792078121151E-007
  3.177090719640225E-003  6.303792078121151E-007
  3.534521846505655E-003  6.303792078121151E-007
  3.557591252845827E-003  6.303792078121151E-007
[...]
 nber times 1st assigned=          70           0
 nber times 1st assigned=          71           0
 nber times 1st assigned=          72           0
 nber times 1st assigned=          73           0
 nber times 1st assigned=          74           0
 nber times 1st assigned=          75           0
 nber times 1st assigned=          76           0
 nber times 1st assigned=          77           0
 nber times 1st assigned=          78           0
 nber times 1st assigned=          79           0
 nber times 1st assigned=          80           0
 nber times 1st assigned=          81           0
 nber times 1st assigned=          82           0
 nber times 1st assigned=          83           0
 nber times 1st assigned=          84           0
 Dushinsky matrix written to .out file
 modes represented=   78.0214020595419     

 Dushinsky matrix, ncs 1 in terms of ncs 2

   mode   freq    coeff     %      %tot     of    at

   7        17. -0.8464    71.6   106.9   7        24.
                 0.5243    27.5           8        32.
   8        31.  0.5226    27.3   104.3   7        24.
                 0.8503    72.3           8        32.
   9        41.  1.0000   100.0    99.3   9        42.
  10        70.  0.9631    92.7   102.0  10        79.
  11       124.  0.9999   100.0    97.3  11       121.
  12       164.  0.3857    14.9    99.9  12       153.
                 0.5171    26.7          13       183.
                 0.6104    37.3          16       225.
  13       176. -0.9010    81.2    98.8  12       153.
  14       195. -0.7857    61.7    99.3  13       183.
                 0.5665    32.1          16       225.
  15       198. -0.9993    99.9   104.0  15       201.
  16       206.  0.9429    88.9    98.5  14       191.
  17       290. -0.4106    16.9   102.2  16       225.
                -0.7618    58.0          17       270.
                -0.4445    19.8          18       312.
  18       318. -0.9991    99.8   100.5  19       317.
  19       345. -0.5029    25.3   102.3  17       270.
                 0.8552    73.1          18       312.
  20       383. -0.9985    99.7    99.2  20       381.
  21       439. -0.9945    98.9   101.1  21       433.
  22       443. -0.9595    92.1   101.5  22       437.
  23       457.  0.9624    92.6   100.3  24       447.
  24       466. -0.9812    96.3    98.9  23       445.
  25       497. -0.9160    83.9    98.9  25       490.
                -0.3905    15.2          26       499.
  26       509. -0.3851    14.8    99.5  25       490.
                 0.9117    83.1          26       499.
  27       516.  0.9232    85.2    98.6  27       503.
  28       560. -0.6521    42.5   100.8  28       536.
                -0.6950    48.3          29       554.
  29       577.  0.9390    88.2    98.5  30       555.
  30       619. -0.5314    28.2   100.3  28       536.
                 0.3552    12.6          29       554.
                -0.5363    28.8          31       586.
                 0.5067    25.7          34       631.
  31       621. -0.9491    90.1    99.1  32       601.
  32       623. -0.3845    14.8   100.3  29       554.
                -0.7781    60.5          31       586.
                -0.4261    18.2          34       631.
  33       650. -0.9289    86.3   101.5  33       628.
  34       679.  0.9569    91.6    99.4  35       661.
  35       705. -0.4092    16.7   101.3  28       536.
                 0.4357    19.0          29       554.
                -0.7287    53.1          34       631.
  36       715. -0.9965    99.3    99.7  36       707.
  37       737.  0.9211    84.8    99.8  38       720.
                 0.3237    10.5          39       743.
  38       763.  0.9914    98.3   100.0  40       744.
  39       774.  0.9223    85.1    99.8  39       743.
  40       795. -0.9919    98.4    99.5  42       771.
  41       829. -0.9466    89.6    99.4  37       719.
  42       853. -0.9944    98.9    98.9  45       845.
  43       860. -0.9378    87.9    99.7  41       762.
  44       868.  0.9377    87.9    99.3  43       837.
  45       879.  0.9631    92.8    99.6  44       838.
  46       887.  0.9935    98.7    99.1  47       884.
  47       926. -0.9950    99.0   100.2  49       909.
  48       952. -0.9415    88.6    99.4  48       896.
  49       975.  0.9424    88.8    99.1  46       847.
  50       991. -0.9705    94.2    99.6  50       943.
  51      1038. -0.9985    99.7   100.0  51      1034.
  52      1074.  0.9939    98.8    99.8  52      1064.
  53      1100. -0.9885    97.7    99.6  53      1083.
  54      1129. -0.9655    93.2    99.4  54      1106.
  55      1143. -0.9751    95.1    99.9  55      1129.
  56      1177. -0.9734    94.8    99.7  56      1155.
  57      1184. -0.9750    95.1    99.7  57      1167.
  58      1214. -0.7752    60.1    99.9  58      1210.
                -0.5861    34.4          59      1213.
  59      1235. -0.5177    26.8    98.4  58      1210.
                 0.7332    53.8          59      1213.
  60      1265. -0.9249    85.6    99.9  61      1260.
  61      1290.  0.5440    29.6    99.7  60      1258.
                 0.7857    61.7          62      1286.
  62      1312.  0.5823    33.9    99.4  60      1258.
                -0.4790    22.9          62      1286.
                -0.3250    10.6          63      1330.
                -0.3583    12.8          64      1341.
                -0.3535    12.5          65      1360.
  63      1345.  0.3814    14.5   100.0  63      1330.
                 0.6376    40.7          64      1341.
                -0.5705    32.5          65      1360.
  64      1352. -0.4990    24.9    99.7  60      1258.
                -0.3926    15.4          64      1341.
                -0.6046    36.6          65      1360.
  65      1359. -0.8180    66.9   100.1  63      1330.
                 0.5161    26.6          64      1341.
  66      1387.  0.9614    92.4    99.7  66      1397.
  67      1455.  0.8783    77.1    99.9  67      1434.
                 0.3579    12.8          69      1463.
  68      1462. -0.3920    15.4    99.8  67      1434.
                 0.8651    74.8          69      1463.
  69      1488.  0.9625    92.6    99.9  70      1478.
  70      1499. -0.7966    63.5   100.0  68      1452.
                -0.4695    22.0          71      1495.
  71      1522.  0.3776    14.3   100.0  68      1452.
                -0.8264    68.3          71      1495.
  72      1549. -0.9175    84.2   100.0  72      1500.
  73      1595. -0.8309    69.0    99.5  73      1576.
                 0.5383    29.0          74      1595.
  74      1630.  0.4403    19.4   100.2  73      1576.
                 0.6249    39.0          74      1595.
                -0.6072    36.9          75      1617.
  75      1663. -0.4592    21.1   100.4  74      1595.
                -0.7696    59.2          75      1617.
  76      3139. -0.9984    99.7   100.0  76      3130.
  77      3169.  0.9501    90.3   100.0  77      3137.
  78      3174. -0.9985    99.7   100.0  79      3155.
  79      3180.  0.9461    89.5   100.0  78      3152.
  80      3191. -0.9830    96.6   100.0  80      3168.
  81      3198.  0.9939    98.8   100.0  81      3177.
  82      3215. -0.9918    98.4   100.0  82      3188.
  83      3216.  0.9998   100.0   100.0  83      3212.
  84      3245. -0.9918    98.4   100.0  84      3242.
 nber times 1st assigned=           1           0
 nber times 1st assigned=           2           0
 nber times 1st assigned=           3           0
 nber times 1st assigned=           4           0
 nber times 1st assigned=           5           0
 nber times 1st assigned=           6           0
 nber times 1st assigned=           7           0
 nber times 1st assigned=           8           0
 nber times 1st assigned=           9           0
 nber times 1st assigned=          10           0
 nber times 1st assigned=          11           0
 nber times 1st assigned=          12           0
 nber times 1st assigned=          13           0
 nber times 1st assigned=          14           0
 nber times 1st assigned=          15           0
 nber times 1st assigned=          16           0
 nber times 1st assigned=          17           0
 nber times 1st assigned=          18           0
 nber times 1st assigned=          19           0
 nber times 1st assigned=          20           0
 nber times 1st assigned=          21           0
 nber times 1st assigned=          22           0
 nber times 1st assigned=          23           0
 nber times 1st assigned=          24           0
 nber times 1st assigned=          25           0
 nber times 1st assigned=          26           0
 nber times 1st assigned=          27           0
 nber times 1st assigned=          28           0
 nber times 1st assigned=          29           0
 nber times 1st assigned=          30           0
 nber times 1st assigned=          31           0
 nber times 1st assigned=          32           0
 nber times 1st assigned=          33           0
 nber times 1st assigned=          34           0
 nber times 1st assigned=          35           0
 nber times 1st assigned=          36           0
 nber times 1st assigned=          37           0
 nber times 1st assigned=          38           0
 nber times 1st assigned=          39           0
 nber times 1st assigned=          40           0
 nber times 1st assigned=          41           0
 nber times 1st assigned=          42           0
 nber times 1st assigned=          43           0
 nber times 1st assigned=          44           0
 nber times 1st assigned=          45           0
 nber times 1st assigned=          46           0
 nber times 1st assigned=          47           0
 nber times 1st assigned=          48           0
 nber times 1st assigned=          49           0
 nber times 1st assigned=          50           0
 nber times 1st assigned=          51           0
 nber times 1st assigned=          52           0
 nber times 1st assigned=          53           0
 nber times 1st assigned=          54           0
 nber times 1st assigned=          55           0
 nber times 1st assigned=          56           0
 nber times 1st assigned=          57           0
 nber times 1st assigned=          58           0
 nber times 1st assigned=          59           0
 nber times 1st assigned=          60           0
 nber times 1st assigned=          61           0
 nber times 1st assigned=          62           0
 nber times 1st assigned=          63           0
 nber times 1st assigned=          64           0
 nber times 1st assigned=          65           0
 nber times 1st assigned=          66           0
 nber times 1st assigned=          67           0
 nber times 1st assigned=          68           0
 nber times 1st assigned=          69           0
 nber times 1st assigned=          70           0
 nber times 1st assigned=          71           0
 nber times 1st assigned=          72           0
 nber times 1st assigned=          73           0
 nber times 1st assigned=          74           0
 nber times 1st assigned=          75           0
 nber times 1st assigned=          76           0
 nber times 1st assigned=          77           0
 nber times 1st assigned=          78           0
 nber times 1st assigned=          79           0
 nber times 1st assigned=          80           0
 nber times 1st assigned=          81           0
 nber times 1st assigned=          82           0
 nber times 1st assigned=          83           0
 nber times 1st assigned=          84           0
 modes represented=   78.0214020595419     
 p1=
    0.   -0.   -0.    0.   -0.    0.    0.   -0.    7.   -0.    7.    0.   -0.    0.   15.   -0.   -0.   -0.   -0.   -2.
   -0.    0.    2.    0.   -1.    3.    0.   -0.    2.   -0.    1.   -0.    3.   -4.   -0.    1.   -0.   -3.    0.   -0.
   -0.   -1.    0.    0.   -0.   -0.   -1.   -0.    0.   -0.    1.   -1.    1.   -1.   -1.    0.    0.    0.    3.   -0.
   -2.   -3.    0.   -0.    1.   -1.   -2.   -1.    1.    2.   -3.    0.   -0.    2.   -4.   -0.    0.   -0.   -0.   -0.
   -0.   -0.   -0.   -0.
 p2=
    0.   -0.   -0.   -0.    0.   -0.    0.   -0.   -8.    0.   -7.   -0.   -0.    0.   15.   -0.   -0.    0.   -0.   -3.
   -0.   -1.   -0.   -2.    0.   -4.   -0.   -0.    0.   -3.   -0.    1.    4.   -0.    3.    1.    0.    0.   -0.    3.
    0.   -0.    0.   -0.   -1.   -0.    1.   -0.   -1.    0.    1.    1.    1.   -0.   -0.    1.    0.    0.   -1.    3.
    1.    0.    0.   -2.   -1.    1.    0.    3.    1.   -2.   -2.    1.   -3.   -4.   -2.    0.   -0.   -0.    0.   -0.
    0.   -0.    0.   -0.

 Displacement: in terms of nc of 1 THEN of nc of 2

   1     freq=    -0. Q=  0.000 lam=    -0.0     freq=    -0. Q=  0.000 lam=    -0.0
   2     freq=    -0. Q= -0.000 lam=    -0.0     freq=    -0. Q= -0.000 lam=    -0.0
   3     freq=    -0. Q= -0.000 lam=    -0.0     freq=    -0. Q= -0.000 lam=    -0.0
   4     freq=     0. Q=  0.000 lam=     0.0     freq=     0. Q=  0.000 lam=     0.0
   5     freq=     0. Q= -0.000 lam=     0.0     freq=     0. Q= -0.000 lam=     0.0
   6     freq=     0. Q=  0.000 lam=     0.0     freq=     0. Q=  0.000 lam=     0.0
   7     freq=    17. Q=  0.001 lam=     0.0     freq=    24. Q=  0.001 lam=     0.0
   8     freq=    31. Q= -0.000 lam=     0.0     freq=    32. Q= -0.001 lam=     0.0
   9     freq=    41. Q=  0.194 lam=     0.8     freq=    42. Q=  0.200 lam=     0.8
  10     freq=    70. Q= -0.000 lam=     0.0     freq=    79. Q= -0.000 lam=     0.0
  11     freq=   124. Q=  0.316 lam=     6.2     freq=   121. Q=  0.291 lam=     5.1
  12     freq=   164. Q=  0.000 lam=     0.0     freq=   153. Q=  0.000 lam=     0.0
  13     freq=   176. Q= -0.000 lam=     0.0     freq=   183. Q= -0.000 lam=     0.0
  14     freq=   195. Q=  0.000 lam=     0.0     freq=   191. Q=  0.000 lam=     0.0
  15     freq=   198. Q=  0.855 lam=    72.4     freq=   201. Q=  0.852 lam=    72.9
  16     freq=   206. Q= -0.000 lam=     0.0     freq=   225. Q= -0.000 lam=     0.0
  17     freq=   290. Q= -0.000 lam=     0.0     freq=   270. Q= -0.000 lam=     0.0
  18     freq=   318. Q= -0.027 lam=     0.1     freq=   312. Q= -0.000 lam=     0.0
  19     freq=   345. Q= -0.000 lam=     0.0     freq=   317. Q= -0.028 lam=     0.1
  20     freq=   383. Q= -0.196 lam=     7.4     freq=   381. Q= -0.205 lam=     8.0
  21     freq=   439. Q= -0.000 lam=     0.0     freq=   433. Q= -0.000 lam=     0.0
  22     freq=   443. Q=  0.013 lam=     0.0     freq=   437. Q=  0.086 lam=     1.6
  23     freq=   457. Q=  0.206 lam=     9.7     freq=   445. Q=  0.000 lam=     0.0
  24     freq=   466. Q=  0.000 lam=     0.0     freq=   447. Q=  0.148 lam=     4.9
  25     freq=   497. Q= -0.112 lam=     3.1     freq=   490. Q= -0.024 lam=     0.1
  26     freq=   509. Q=  0.283 lam=    20.4     freq=   499. Q=  0.347 lam=    30.0
  27     freq=   516. Q=  0.000 lam=     0.0     freq=   503. Q=  0.000 lam=     0.0
  28     freq=   560. Q= -0.000 lam=     0.0     freq=   536. Q= -0.000 lam=     0.0
  29     freq=   577. Q=  0.226 lam=    14.8     freq=   554. Q=  0.000 lam=     0.0
  30     freq=   619. Q= -0.000 lam=     0.0     freq=   555. Q= -0.264 lam=    19.3
  31     freq=   621. Q=  0.055 lam=     0.9     freq=   586. Q=  0.000 lam=     0.0
  32     freq=   623. Q= -0.000 lam=     0.0     freq=   601. Q= -0.098 lam=     2.9
  33     freq=   650. Q=  0.294 lam=    28.1     freq=   628. Q=  0.355 lam=    39.5
  34     freq=   679. Q= -0.440 lam=    65.7     freq=   631. Q= -0.000 lam=     0.0
  35     freq=   705. Q= -0.000 lam=     0.0     freq=   661. Q= -0.341 lam=    38.5
  36     freq=   715. Q=  0.151 lam=     8.2     freq=   707. Q=  0.106 lam=     4.0
  37     freq=   737. Q= -0.000 lam=     0.0     freq=   719. Q= -0.000 lam=     0.0
  38     freq=   763. Q= -0.347 lam=    46.0     freq=   720. Q= -0.000 lam=     0.0
  39     freq=   774. Q=  0.000 lam=     0.0     freq=   743. Q=  0.000 lam=     0.0
  40     freq=   795. Q= -0.002 lam=     0.0     freq=   744. Q= -0.338 lam=    42.6
  41     freq=   829. Q= -0.000 lam=     0.0     freq=   762. Q= -0.000 lam=     0.0
  42     freq=   853. Q= -0.126 lam=     6.8     freq=   771. Q= -0.052 lam=     1.0
  43     freq=   860. Q=  0.000 lam=     0.0     freq=   837. Q=  0.000 lam=     0.0
  44     freq=   868. Q=  0.000 lam=     0.0     freq=   838. Q=  0.000 lam=     0.0
  45     freq=   879. Q= -0.000 lam=     0.0     freq=   845. Q= -0.128 lam=     6.9
  46     freq=   887. Q= -0.060 lam=     1.6     freq=   847. Q= -0.000 lam=     0.0
  47     freq=   926. Q= -0.175 lam=    14.2     freq=   884. Q= -0.060 lam=     1.6
  48     freq=   952. Q= -0.000 lam=     0.0     freq=   896. Q= -0.000 lam=     0.0
  49     freq=   975. Q=  0.000 lam=     0.0     freq=   909. Q=  0.163 lam=    12.1
  50     freq=   991. Q= -0.000 lam=     0.0     freq=   943. Q= -0.000 lam=     0.0
  51     freq=  1038. Q=  0.079 lam=     3.3     freq=  1034. Q=  0.073 lam=     2.8
  52     freq=  1074. Q= -0.130 lam=     9.0     freq=  1064. Q= -0.070 lam=     2.6
  53     freq=  1100. Q=  0.192 lam=    20.2     freq=  1083. Q=  0.103 lam=     5.8
  54     freq=  1129. Q= -0.171 lam=    16.5     freq=  1106. Q= -0.005 lam=     0.0
  55     freq=  1143. Q= -0.080 lam=     3.6     freq=  1129. Q= -0.056 lam=     1.8
  56     freq=  1177. Q=  0.026 lam=     0.4     freq=  1155. Q=  0.075 lam=     3.2
  57     freq=  1184. Q=  0.055 lam=     1.8     freq=  1167. Q=  0.051 lam=     1.5
  58     freq=  1214. Q=  0.051 lam=     1.6     freq=  1210. Q=  0.055 lam=     1.8
  59     freq=  1235. Q=  0.398 lam=    97.7     freq=  1213. Q=  0.112 lam=     7.5
  60     freq=  1265. Q= -0.046 lam=     1.4     freq=  1258. Q= -0.417 lam=   109.1
  61     freq=  1290. Q= -0.289 lam=    54.0     freq=  1260. Q= -0.102 lam=     6.5
  62     freq=  1312. Q= -0.403 lam=   106.5     freq=  1286. Q= -0.040 lam=     1.0
  63     freq=  1345. Q=  0.043 lam=     1.3     freq=  1330. Q=  0.044 lam=     1.3
  64     freq=  1352. Q= -0.073 lam=     3.6     freq=  1341. Q= -0.269 lam=    48.6
  65     freq=  1359. Q=  0.189 lam=    24.3     freq=  1360. Q=  0.212 lam=    30.4
  66     freq=  1387. Q= -0.124 lam=    10.7     freq=  1397. Q= -0.176 lam=    21.7
  67     freq=  1455. Q= -0.341 lam=    84.8     freq=  1434. Q= -0.071 lam=     3.6
  68     freq=  1462. Q= -0.158 lam=    18.3     freq=  1452. Q= -0.479 lam=   166.9
  69     freq=  1488. Q=  0.199 lam=    29.4     freq=  1463. Q=  0.182 lam=    24.2
  70     freq=  1499. Q=  0.326 lam=    79.6     freq=  1478. Q=  0.238 lam=    41.9
  71     freq=  1522. Q= -0.543 lam=   224.1     freq=  1495. Q= -0.247 lam=    45.6
  72     freq=  1549. Q=  0.021 lam=     0.3     freq=  1500. Q=  0.090 lam=     6.1
  73     freq=  1595. Q= -0.041 lam=     1.4     freq=  1576. Q= -0.450 lam=   159.6
  74     freq=  1630. Q=  0.296 lam=    71.3     freq=  1595. Q=  0.641 lam=   327.4
  75     freq=  1663. Q= -0.595 lam=   294.5     freq=  1617. Q= -0.339 lam=    93.1
  76     freq=  3139. Q= -0.011 lam=     0.2     freq=  3130. Q= -0.001 lam=     0.0
  77     freq=  3169. Q=  0.011 lam=     0.2     freq=  3137. Q=  0.014 lam=     0.3
  78     freq=  3174. Q= -0.005 lam=     0.0     freq=  3152. Q= -0.001 lam=     0.0
  79     freq=  3180. Q= -0.003 lam=     0.0     freq=  3155. Q= -0.003 lam=     0.0
  80     freq=  3191. Q= -0.013 lam=     0.3     freq=  3168. Q= -0.012 lam=     0.2
  81     freq=  3198. Q= -0.020 lam=     0.6     freq=  3177. Q= -0.018 lam=     0.5
  82     freq=  3215. Q= -0.022 lam=     0.8     freq=  3188. Q= -0.020 lam=     0.6
  83     freq=  3216. Q= -0.013 lam=     0.3     freq=  3212. Q= -0.010 lam=     0.1
  84     freq=  3245. Q= -0.009 lam=     0.1     freq=  3242. Q= -0.011 lam=     0.2

 total reorg energy (cm**-1, kcal/mol)=     1468.     1408.      4.20      4.03
 Nber of molecules processed=           2
