 Enter ifcurve (0=recti, 1=orth curvi, 2=apprx curvi, -1 = skip
 And atom ordering flag, 0= never changes, 1= use the first order thenceforth,
  2= deduce it (does read on fail), 3= always read it
 Reading file: 
 ./Circulene_1_C0S0.log                                                         
                                          
  Entering Gaussian System, Link 0=g16                                          
  
 Gaussian format, type: g94, g98, g03= F F F
  #P Geom=AllCheck Guess=TCheck SCRF=Check GenChk RB3LYP/6-311G(d,p) Fre    
 energy type= B3LYP   
 Original G94 input coords:
  6  3.529138 -1.246946  0.000000
  6  2.844456 -2.432851  0.000000
  6  1.422468 -2.463787  0.000000
  6  0.684682 -3.679797  0.000000
  6 -0.684682 -3.679797  0.000000
  6 -1.422468 -2.463787  0.000000
  6 -2.844456 -2.432851  0.000000
  6 -3.529138 -1.246946  0.000000
  6 -2.844936  0.000000  0.000000
  6 -3.529138  1.246946  0.000000
  6 -2.844456  2.432851  0.000000
  6 -1.422468  2.463787  0.000000
  6 -0.684682  3.679797  0.000000
  6  0.684682  3.679797  0.000000
  6  1.422468  2.463787  0.000000
  6  2.844456  2.432851  0.000000
  6  3.529138  1.246946  0.000000
  6  2.844936  0.000000  0.000000
  6  1.425694  0.000000  0.000000
  6  0.712847 -1.234687  0.000000
  6 -0.712847 -1.234687  0.000000
  6 -1.425694  0.000000  0.000000
  6 -0.712847  1.234687  0.000000
  6  0.712847  1.234687  0.000000
  1  4.614185 -1.244826  0.000000
  1  3.385143 -3.373589  0.000000
  1  1.229042 -4.618415  0.000000
  1 -1.229042 -4.618415  0.000000
  1 -3.385143 -3.373589  0.000000
  1 -4.614185 -1.244826  0.000000
  1 -4.614185  1.244826  0.000000
  1 -3.385143  3.373589  0.000000
  1 -1.229042  4.618415  0.000000
  1  1.229042  4.618415  0.000000
  1  3.385143  3.373589  0.000000
  1  4.614185  1.244826  0.000000
 nber atoms=          36
 Original standard coords:
  6  1.246946  3.529138  0.000000
  6  2.432851  2.844456  0.000000
  6  2.463787  1.422468  0.000000
  6  3.679797  0.684682  0.000000
  6  3.679797 -0.684682  0.000000
  6  2.463787 -1.422468  0.000000
  6  2.432851 -2.844456  0.000000
  6  1.246946 -3.529138  0.000000
  6  0.000000 -2.844936  0.000000
  6 -1.246946 -3.529138  0.000000
  6 -2.432851 -2.844456  0.000000
  6 -2.463787 -1.422468  0.000000
  6 -3.679797 -0.684682  0.000000
  6 -3.679797  0.684682  0.000000
  6 -2.463787  1.422468  0.000000
  6 -2.432851  2.844456  0.000000
  6 -1.246946  3.529138  0.000000
  6  0.000000  2.844936  0.000000
  6  0.000000  1.425694  0.000000
  6  1.234687  0.712847  0.000000
  6  1.234687 -0.712847  0.000000
  6  0.000000 -1.425694  0.000000
  6 -1.234687 -0.712847  0.000000
  6 -1.234687  0.712847  0.000000
  1  1.244826  4.614185  0.000000
  1  3.373589  3.385143  0.000000
  1  4.618415  1.229042  0.000000
  1  4.618415 -1.229042  0.000000
  1  3.373589 -3.385143  0.000000
  1  1.244826 -4.614185  0.000000
  1 -1.244826 -4.614185  0.000000
  1 -3.373589 -3.385143  0.000000
  1 -4.618415 -1.229042  0.000000
  1 -4.618415  1.229042  0.000000
  1 -3.373589  3.385143  0.000000
  1 -1.244826  4.614185  0.000000
  SCF Done:  E(RB3LYP) =  -922.093081032     A.U. after    1 cycles             
  
          23          40 "  -922.093081032"
After scan for Atom:   Atom  AN      X      Y      Z        X      Y      Z        X      Y      Z   
After scan for Atom:   Atom  AN      X      Y      Z        X      Y      Z        X      Y      Z   
After scan for Atom:   Atom  AN      X      Y      Z        X      Y      Z        X      Y      Z   
After scan for Atom:   Atom  AN      X      Y      Z        X      Y      Z        X      Y      Z   
After scan for Atom:   Atom  AN      X      Y      Z        X      Y      Z        X      Y      Z   
After scan for Atom:   Atom  AN      X      Y      Z        X      Y      Z        X      Y      Z   
After scan for Atom:   Atom  AN      X      Y      Z        X      Y      Z        X      Y      Z   
After scan for Atom:   Atom  AN      X      Y      Z        X      Y      Z        X      Y      Z   
After scan for Atom:   Atom  AN      X      Y      Z        X      Y      Z        X      Y      Z   
After scan for Atom:   Atom  AN      X      Y      Z        X      Y      Z        X      Y      Z   
After scan for Atom:   Atom  AN      X      Y      Z        X      Y      Z        X      Y      Z   
After scan for Atom:   Atom  AN      X      Y      Z        X      Y      Z        X      Y      Z   
After scan for Atom:   Atom  AN      X      Y      Z        X      Y      Z        X      Y      Z   
After scan for Atom:   Atom  AN      X      Y      Z        X      Y      Z        X      Y      Z   
After scan for Atom:   Atom  AN      X      Y      Z        X      Y      Z        X      Y      Z   
After scan for Atom:   Atom  AN      X      Y      Z        X      Y      Z        X      Y      Z   
After scan for Atom:   Atom  AN      X      Y      Z        X      Y      Z        X      Y      Z   
After scan for Atom:   Atom  AN      X      Y      Z        X      Y      Z        X      Y      Z   
After scan for Atom:   Atom  AN      X      Y      Z        X      Y      Z        X      Y      Z   
After scan for Atom:   Atom  AN      X      Y      Z        X      Y      Z        X      Y      Z   
After scan for Atom:   Atom  AN      X      Y      Z        X      Y      Z        X      Y      Z   
After scan for Atom:   Atom  AN      X      Y      Z        X      Y      Z        X      Y      Z   
After scan for Atom:   Atom  AN      X      Y      Z        X      Y      Z        X      Y      Z   
After scan for Atom:   Atom  AN      X      Y      Z        X      Y      Z        X      Y      Z   
After scan for Atom:   Atom  AN      X      Y      Z        X      Y      Z        X      Y      Z   
After scan for Atom:   Atom  AN      X      Y      Z        X      Y      Z        X      Y      Z   
After scan for Atom:   Atom  AN      X      Y      Z        X      Y      Z        X      Y      Z   
After scan for Atom:   Atom  AN      X      Y      Z        X      Y      Z        X      Y      Z   
After scan for Atom:   Atom  AN      X      Y      Z        X      Y      Z        X      Y      Z   
After scan for Atom:   Atom  AN      X      Y      Z        X      Y      Z        X      Y      Z   
After scan for Atom:   Atom  AN      X      Y      Z        X      Y      Z        X      Y      Z   
After scan for Atom:   Atom  AN      X      Y      Z        X      Y      Z        X      Y      Z   
After scan for Atom:   Atom  AN      X      Y      Z        X      Y      Z        X      Y      Z   
After scan for Atom:   Atom  AN      X      Y      Z        X      Y      Z        X      Y      Z   
 g94    frequencies=
     0.0    0.0    0.0    0.0    0.0    0.0   87.8   87.8  126.3  164.5
   226.7  297.0  297.0  302.3  302.3  370.0  370.0  385.0  385.0  456.9
   456.9  481.1  484.9  498.1  498.1  530.1  553.2  553.2  565.0  565.3
   624.3  646.0  671.8  671.8  680.7  690.6  690.6  772.7  772.7  775.7
   783.6  785.1  785.1  818.1  818.1  823.9  823.9  854.2  854.2  873.9
   941.9  959.8  966.4  966.4  977.0  977.0  983.3 1009.6 1009.6 1049.4
  1159.0 1159.0 1159.2 1181.8 1181.8 1184.3 1212.6 1237.4 1237.4 1244.2
  1249.2 1249.2 1258.2 1338.2 1338.2 1371.7 1373.4 1423.1 1423.1 1424.9
  1424.9 1444.8 1465.1 1465.1 1481.2 1481.2 1518.5 1533.4 1533.4 1573.2
  1583.5 1639.0 1653.7 1653.7 1653.8 1653.8 3154.9 3155.8 3155.8 3157.5
  3157.5 3158.4 3172.6 3173.6 3173.6 3175.4 3175.4 3176.8
 g94    symmetries=
                                                E2     E2     A2     B1
      B2     E1     E1     E2     E2     E2     E2     E1     E1     E1
      E1     B2     A1     E2     E2     A1     E2     E2     B1     A2
      B2     A2     E1     E1     B1     E2     E2     E2     E2     B1
      B2     E1     E1     E2     E2     E1     E1     E1     E1     A2
      A2     A1     E1     E1     E2     E2     B2     E2     E2     A1
      E1     E1     B2     E2     E2     B1     B2     E1     E1     A1
      E2     E2     A2     E1     E1     A1     B2     E2     E2     E1
      E1     B1     E2     E2     E2     E2     B2     E1     E1     A2
      B1     A1     E1     E1     E2     E2     A2     E1     E1     E2
      E2     B1     B2     E2     E2     E1     E1     A1
 atomic masses:
 12.0000 12.0000 12.0000 12.0000 12.0000 12.0000 12.0000 12.0000 12.0000 12.0000
 12.0000 12.0000 12.0000 12.0000 12.0000 12.0000 12.0000 12.0000 12.0000 12.0000
 12.0000 12.0000 12.0000 12.0000  1.0078  1.0078  1.0078  1.0078  1.0078  1.0078
  1.0078  1.0078  1.0078  1.0078  1.0078  1.0078
 looking for force constants in 
 ./Circulene_1_C0S0.fchk                                                        
  
 Cartesian Force Constants                  R   N=        5886                  
  
 n3=         108        5886
 g94-fc frequencies=
    -4.7   -3.7   -3.7   -0.0   -0.0    0.0   87.8   87.8  126.3  164.5
   226.7  297.0  297.0  302.3  302.3  370.0  370.0  385.0  385.0  457.0
   457.0  481.2  484.9  498.1  498.1  530.1  553.2  553.2  565.0  565.4
   624.3  646.0  671.8  671.8  680.7  690.6  690.6  772.8  772.8  775.8
   783.7  785.1  785.1  818.1  818.1  823.9  823.9  854.3  854.3  873.9
   941.9  959.8  966.4  966.4  977.0  977.0  983.3 1009.7 1009.7 1049.4
  1159.0 1159.0 1159.2 1181.8 1181.8 1184.3 1212.7 1237.4 1237.4 1244.2
  1249.3 1249.3 1258.3 1338.3 1338.3 1371.8 1373.4 1423.2 1423.2 1424.9
  1424.9 1444.8 1465.1 1465.1 1481.3 1481.3 1518.5 1533.5 1533.5 1573.2
  1583.6 1639.0 1653.8 1653.8 1653.9 1653.9 3155.0 3155.9 3155.9 3157.6
  3157.6 3158.4 3172.6 3173.7 3173.7 3175.5 3175.5 3176.8
 at 99999: n3=         108
 symm operator            1 :  T  nop=           1
 symm operator            2 :  T  nop=           2
 symm operator            3 :  T  nop=           3
 symm operator            4 :  T  nop=           4
 symm operator            5 :  T  nop=           5
 symm operator            6 :  T  nop=           6
 symm operator            7 :  T  nop=           7
 The point group of the molecule is D2H
 enforcing symm op           1  jsymt=          -1          -1           1
 enforcing symm op           2  jsymt=          -1           1          -1
 enforcing symm op           3  jsymt=           1          -1          -1
 enforcing symm op           4  jsymt=          -1          -1          -1
 enforcing symm op           5  jsymt=           1           1          -1
 enforcing symm op           6  jsymt=           1          -1           1
 enforcing symm op           7  jsymt=          -1           1           1
 cartesian coord symmetries:
 Ag :   18 Au :    8 B1g:   18 B1u:   10 B2g:    8 B2u:   18 B3g:   10 B3u:   18
 Symmetry rotation matrix:
   1.00000   0.00000   0.00000
   0.00000   1.00000   0.00000
   0.00000   0.00000   1.00000

 Projecting out zero-frequency components
 generating redundant internal coords
         300        3600          36
 search for int coords
   1 str   2   1   1.369
   2 str   3   2   1.422
   3 str   4   3   1.422
   4 str   5   4   1.369
   5 str   6   5   1.422
   6 str   7   6   1.422
   7 str   8   7   1.369
   8 str   9   8   1.422
   9 str  10   9   1.422
  10 str  11  10   1.369
  11 str  12  11   1.422
  12 str  13  12   1.422
  13 str  14  13   1.369
  14 str  15  14   1.422
  15 str  16  15   1.422
  16 str  17  16   1.369
  17 str  18   1   1.422
  18 str  18  17   1.422
  19 str  19  18   1.419
  20 str  20   3   1.419
  21 str  20  19   1.426
  22 str  21   6   1.419
  23 str  21  20   1.426
  24 str  22   9   1.419
  25 str  22  21   1.426
  26 str  23  12   1.419
  27 str  23  22   1.426
  28 str  24  15   1.419
  29 str  24  19   1.426
  30 str  24  23   1.426
  31 str  25   1   1.085
  32 str  26   2   1.085
  33 str  27   4   1.085
  34 str  28   5   1.085
  35 str  29   7   1.085
  36 str  30   8   1.085
  37 str  31  10   1.085
  38 str  32  11   1.085
  39 str  33  13   1.085
  40 str  34  14   1.085
  41 str  35  16   1.085
  42 str  36  17   1.085
 nber stretches=          42
  43 ben   1   2   3
  44 prop tor   1   2   3   4
  45 prop tor   1   2   3  20
  46 ben   1   2  26
  47 ben   1  18  17
  48 ben   1  18  19
  49 prop tor   1  18  19  20
  50 prop tor   1  18  19  24
  51 ben   2   1  18
  52 prop tor   2   1  18  17
  53 prop tor   2   1  18  19
  54 ben   2   1  25
  55 ben   2   3   4
  56 prop tor   2   3   4   5
  57 prop tor   2   3   4  27
  58 ben   2   3  20
  59 prop tor   2   3  20  19
  60 prop tor   2   3  20  21
  61 ben   3   2  26
  62 ben   3   4   5
  63 prop tor   3   4   5   6
  64 prop tor   3   4   5  28
  65 ben   3   4  27
  66 ben   3  20  19
  67 ben   3  20  21
  68 prop tor   3  20  21   6
  69 prop tor   3  20  21  22
  70 ben   4   3  20
  71 prop tor   4   3  20  19
  72 prop tor   4   3  20  21
  73 ben   4   5   6
  74 prop tor   4   5   6   7
  75 prop tor   4   5   6  21
  76 ben   4   5  28
  77 ben   5   4  27
  78 ben   5   6   7
  79 prop tor   5   6   7   8
  80 prop tor   5   6   7  29
  81 ben   5   6  21
  82 prop tor   5   6  21  20
  83 prop tor   5   6  21  22
  84 ben   6   5  28
  85 ben   6   7   8
  86 prop tor   6   7   8   9
  87 prop tor   6   7   8  30
  88 ben   6   7  29
  89 ben   6  21  20
  90 ben   6  21  22
  91 prop tor   6  21  22   9
  92 prop tor   6  21  22  23
  93 ben   7   6  21
  94 prop tor   7   6  21  20
  95 prop tor   7   6  21  22
  96 ben   7   8   9
  97 prop tor   7   8   9  10
  98 prop tor   7   8   9  22
  99 ben   7   8  30
 100 ben   8   7  29
 101 ben   8   9  10
 102 prop tor   8   9  10  11
 103 prop tor   8   9  10  31
 104 ben   8   9  22
 105 prop tor   8   9  22  21
 106 prop tor   8   9  22  23
 107 ben   9   8  30
 108 ben   9  10  11
 109 prop tor   9  10  11  12
 110 prop tor   9  10  11  32
 111 ben   9  10  31
 112 ben   9  22  21
 113 ben   9  22  23
 114 prop tor   9  22  23  12
 115 prop tor   9  22  23  24
 116 ben  10   9  22
 117 prop tor  10   9  22  21
 118 prop tor  10   9  22  23
 119 ben  10  11  12
 120 prop tor  10  11  12  13
 121 prop tor  10  11  12  23
 122 ben  10  11  32
 123 ben  11  10  31
 124 ben  11  12  13
 125 prop tor  11  12  13  14
 126 prop tor  11  12  13  33
 127 ben  11  12  23
 128 prop tor  11  12  23  22
 129 prop tor  11  12  23  24
 130 ben  12  11  32
 131 ben  12  13  14
 132 prop tor  12  13  14  15
 133 prop tor  12  13  14  34
 134 ben  12  13  33
 135 ben  12  23  22
 136 ben  12  23  24
 137 prop tor  12  23  24  15
 138 prop tor  12  23  24  19
 139 ben  13  12  23
 140 prop tor  13  12  23  22
 141 prop tor  13  12  23  24
 142 ben  13  14  15
 143 prop tor  13  14  15  16
 144 prop tor  13  14  15  24
 145 ben  13  14  34
 146 ben  14  13  33
 147 ben  14  15  16
 148 prop tor  14  15  16  17
 149 prop tor  14  15  16  35
 150 ben  14  15  24
 151 prop tor  14  15  24  19
 152 prop tor  14  15  24  23
 153 ben  15  14  34
 154 ben  15  16  17
 155 prop tor  15  16  17  18
 156 prop tor  15  16  17  36
 157 ben  15  16  35
 158 ben  15  24  19
 159 ben  15  24  23
 160 ben  16  15  24
 161 prop tor  16  15  24  19
 162 prop tor  16  15  24  23
 163 ben  16  17  18
 164 prop tor  16  17  18   1
 165 prop tor  16  17  18  19
 166 ben  16  17  36
 167 ben  17  16  35
 168 ben  17  18  19
 169 prop tor  17  18  19  20
 170 prop tor  17  18  19  24
 171 prop tor  18   1   2   3
 172 prop tor  18   1   2  26
 173 ben  18   1  25
 174 ben  18  17  36
 175 ben  18  19  20
 176 prop tor  18  19  20   3
 177 prop tor  18  19  20  21
 178 ben  18  19  24
 179 prop tor  18  19  24  15
 180 prop tor  18  19  24  23
 181 ben  19  20  21
 182 prop tor  19  20  21   6
 183 prop tor  19  20  21  22
 184 ben  19  24  23
 185 prop tor  20   3   4   5
 186 prop tor  20   3   4  27
 187 ben  20  19  24
 188 prop tor  20  19  24  15
 189 prop tor  20  19  24  23
 190 ben  20  21  22
 191 prop tor  20  21  22   9
 192 prop tor  20  21  22  23
 193 prop tor  21   6   7   8
 194 prop tor  21   6   7  29
 195 ben  21  22  23
 196 prop tor  21  22  23  12
 197 prop tor  21  22  23  24
 198 prop tor  22   9  10  11
 199 prop tor  22   9  10  31
 200 ben  22  23  24
 201 prop tor  22  23  24  15
 202 prop tor  22  23  24  19
 203 prop tor  23  12  13  14
 204 prop tor  23  12  13  33
 205 prop tor  24  15  16  17
 206 prop tor  24  15  16  35
 207 prop tor  24  19  20   3
 208 prop tor  24  19  20  21
 209 prop tor  25   1   2   3
 210 prop tor  25   1   2  26
 211 prop tor  25   1  18  17
 212 prop tor  25   1  18  19
 213 prop tor  26   2   3   4
 214 prop tor  26   2   3  20
 215 prop tor  27   4   5   6
 216 prop tor  27   4   5  28
 217 prop tor  28   5   6   7
 218 prop tor  28   5   6  21
 219 prop tor  29   7   8   9
 220 prop tor  29   7   8  30
 221 prop tor  30   8   9  10
 222 prop tor  30   8   9  22
 223 prop tor  31  10  11  12
 224 prop tor  31  10  11  32
 225 prop tor  32  11  12  13
 226 prop tor  32  11  12  23
 227 prop tor  33  13  14  15
 228 prop tor  33  13  14  34
 229 prop tor  34  14  15  16
 230 prop tor  34  14  15  24
 231 prop tor  35  16  17  18
 232 prop tor  35  16  17  36
 233 prop tor  36  17  18   1
 234 prop tor  36  17  18  19
 nber bend=              72
 nber lin bend=           0
 nber prop tor=         120
 nber impr tor=           0
 nber tot redund int=         234
 Eigenvalues of G in red int coords
    Gval -0.00000000 -0.00000000 -0.00000000 -0.00000000 -0.00000000 -0.00000000 -0.00000000 -0.00000000
    Gval -0.00000000 -0.00000000 -0.00000000 -0.00000000 -0.00000000 -0.00000000 -0.00000000 -0.00000000
    Gval -0.00000000 -0.00000000 -0.00000000 -0.00000000 -0.00000000 -0.00000000 -0.00000000 -0.00000000
    Gval -0.00000000 -0.00000000 -0.00000000 -0.00000000 -0.00000000 -0.00000000 -0.00000000 -0.00000000
    Gval -0.00000000 -0.00000000 -0.00000000 -0.00000000 -0.00000000 -0.00000000 -0.00000000 -0.00000000
    Gval -0.00000000 -0.00000000 -0.00000000 -0.00000000 -0.00000000 -0.00000000 -0.00000000 -0.00000000
    Gval -0.00000000 -0.00000000 -0.00000000 -0.00000000 -0.00000000 -0.00000000 -0.00000000 -0.00000000
    Gval -0.00000000 -0.00000000 -0.00000000 -0.00000000 -0.00000000 -0.00000000 -0.00000000 -0.00000000
    Gval -0.00000000 -0.00000000  0.00000000  0.00000000  0.00000000  0.00000000  0.00000000  0.00000000
    Gval  0.00000000  0.00000000  0.00000000  0.00000000  0.00000000  0.00000000  0.00000000  0.00000000
    Gval  0.00000000  0.00000000  0.00000000  0.00000000  0.00000000  0.00000000  0.00000000  0.00000000
    Gval  0.00000000  0.00000000  0.00000000  0.00000000  0.00000000  0.00000000  0.00000000  0.00000000
    Gval  0.00000000  0.00000000  0.00000000  0.00000000  0.00000000  0.00000000  0.00000000  0.00000000
    Gval  0.00000000  0.00000000  0.00000000  0.00000000  0.00000000  0.00000000  0.00000000  0.00000000
    Gval  0.00000000  0.00000000  0.00000000  0.00000000  0.00000000  0.00000000  0.00000000  0.00000000
    Gval  0.00000000  0.00000000  0.00000000  0.00000000  0.00000000  0.00000000  0.00000000  0.00000000
    Gval  0.00000000  0.00000000  0.00000000  0.00000000  0.00001095  0.00001412  0.00001412  0.00001480
    Gval  0.00001480  0.00003250  0.00003250  0.00003655  0.00003713  0.00003939  0.00003939  0.00004882
    Gval  0.00004882  0.00006130  0.00006616  0.00007256  0.00007256  0.00007666  0.00008052  0.00008392
    Gval  0.00008393  0.00008393  0.00009387  0.00009387  0.00012050  0.00012215  0.00012227  0.00012227
    Gval  0.00014689  0.00015032  0.00015032  0.00018606  0.00018606  0.00022279  0.00022424  0.00024727
    Gval  0.00024727  0.00029275  0.00033126  0.00033126  0.00034494  0.00034494  0.00035761  0.00037422
    Gval  0.00037422  0.00039224  0.00039317  0.00039317  0.00040753  0.00043714  0.00043714  0.00046484
    Gval  0.00048541  0.00048541  0.00059577  0.00059705  0.00059705  0.00059962  0.00059962  0.00060163
    Gval  0.00062765  0.00063537  0.00063537  0.00065054  0.00065054  0.00065938  0.00069333  0.00069333
    Gval  0.00086420  0.00095091  0.00095091  0.00107562  0.00108007  0.00108125  0.00108125  0.00109160
    Gval  0.00109160  0.00109657  0.00115861  0.00115952  0.00115952  0.00116108  0.00116108  0.00116180
    Gval  0.00133805  0.00149031  0.00149031  0.00207876  0.00210798  0.00210798  0.00235204  0.00235204
    Gval  0.00249458  0.00249458  0.00261044  0.00284104  0.00353330  0.00362195  0.00362195  0.00375977
    Gval  0.00375977  0.00381702
  1.094796456843363E-005  1.094796456843363E-005
  1.411775492292741E-005  1.094796456843363E-005
  1.411775873454337E-005  1.094796456843363E-005
  1.479840843980587E-005  1.094796456843363E-005
  1.479841016825160E-005  1.094796456843363E-005
  3.250029890448101E-005  1.094796456843363E-005
  3.250029930002308E-005  1.094796456843363E-005
  3.654724727170569E-005  1.094796456843363E-005
  3.713173003961748E-005  1.094796456843363E-005
  3.939345705204563E-005  1.094796456843363E-005
  3.939346863776804E-005  1.094796456843363E-005
  4.881580615043199E-005  1.094796456843363E-005
  4.881581145782204E-005  1.094796456843363E-005
  6.130142591761826E-005  1.094796456843363E-005
  6.615544266385446E-005  1.094796456843363E-005
  7.255702140571440E-005  1.094796456843363E-005
  7.255702246120355E-005  1.094796456843363E-005
  7.666042007822309E-005  1.094796456843363E-005
  8.052397232168698E-005  1.094796456843363E-005
  8.392089589223752E-005  1.094796456843363E-005
  8.392662037957904E-005  1.094796456843363E-005
  8.392663031771956E-005  1.094796456843363E-005
  9.386510154791569E-005  1.094796456843363E-005
  9.386510701547093E-005  1.094796456843363E-005
  1.205019077692840E-004  1.094796456843363E-005
  1.221510622039801E-004  1.094796456843363E-005
  1.222667290494928E-004  1.094796456843363E-005
  1.222667708130485E-004  1.094796456843363E-005
  1.468897737678581E-004  1.094796456843363E-005
  1.503174564797361E-004  1.094796456843363E-005
  1.503174614196859E-004  1.094796456843363E-005
  1.860562687344142E-004  1.094796456843363E-005
  1.860563044382633E-004  1.094796456843363E-005
  2.227904185874327E-004  1.094796456843363E-005
  2.242381019051069E-004  1.094796456843363E-005
  2.472676011100683E-004  1.094796456843363E-005
  2.472676359616321E-004  1.094796456843363E-005
  2.927495146468915E-004  1.094796456843363E-005
  3.312577236066930E-004  1.094796456843363E-005
  3.312577590267113E-004  1.094796456843363E-005
  3.449354741723580E-004  1.094796456843363E-005
  3.449355724790129E-004  1.094796456843363E-005
  3.576065310106243E-004  1.094796456843363E-005
  3.742219622789353E-004  1.094796456843363E-005
  3.742223079956014E-004  1.094796456843363E-005
  3.922399769717632E-004  1.094796456843363E-005
  3.931684227857258E-004  1.094796456843363E-005
  3.931684722739129E-004  1.094796456843363E-005
  4.075250574444780E-004  1.094796456843363E-005
  4.371381765078908E-004  1.094796456843363E-005
  4.371382737735259E-004  1.094796456843363E-005
  4.648378483052033E-004  1.094796456843363E-005
  4.854081083655686E-004  1.094796456843363E-005
  4.854081191479654E-004  1.094796456843363E-005
  5.957723806530134E-004  1.094796456843363E-005
  5.970536067501291E-004  1.094796456843363E-005
  5.970536101389380E-004  1.094796456843363E-005
  5.996233401033506E-004  1.094796456843363E-005
  5.996233429277346E-004  1.094796456843363E-005
  6.016286183651252E-004  1.094796456843363E-005
  6.276511811881180E-004  1.094796456843363E-005
  6.353707630420411E-004  1.094796456843363E-005
  6.353707744032140E-004  1.094796456843363E-005
  6.505362903442602E-004  1.094796456843363E-005
  6.505363107291629E-004  1.094796456843363E-005
  6.593805323346747E-004  1.094796456843363E-005
  6.933312841310690E-004  1.094796456843363E-005
  6.933313116852428E-004  1.094796456843363E-005
  8.642045074681443E-004  1.094796456843363E-005
  9.509092634532947E-004  1.094796456843363E-005
  9.509093172936601E-004  1.094796456843363E-005
  1.075619600522823E-003  1.094796456843363E-005
  1.080067308100575E-003  1.094796456843363E-005
  1.081253123624010E-003  1.094796456843363E-005
  1.081253449608798E-003  1.094796456843363E-005
  1.091598430078392E-003  1.094796456843363E-005
  1.091598908781499E-003  1.094796456843363E-005
  1.096572124835909E-003  1.094796456843363E-005
  1.158606748201039E-003  1.094796456843363E-005
  1.159519875798609E-003  1.094796456843363E-005
  1.159520203714810E-003  1.094796456843363E-005
  1.161082376744899E-003  1.094796456843363E-005
  1.161082600405685E-003  1.094796456843363E-005
  1.161798592811608E-003  1.094796456843363E-005
  1.338046326082511E-003  1.094796456843363E-005
  1.490312511037985E-003  1.094796456843363E-005
  1.490312517351806E-003  1.094796456843363E-005
  2.078756303680238E-003  1.094796456843363E-005
  2.107978512454346E-003  1.094796456843363E-005
  2.107979026159552E-003  1.094796456843363E-005
  2.352037545504342E-003  1.094796456843363E-005
  2.352038444398445E-003  1.094796456843363E-005
  2.494577527490102E-003  1.094796456843363E-005
  2.494579849569831E-003  1.094796456843363E-005
  2.610444562031723E-003  1.094796456843363E-005
  2.841039403935226E-003  1.094796456843363E-005
  3.533302193233062E-003  1.094796456843363E-005
  3.621952603296170E-003  1.094796456843363E-005
  3.621953740119803E-003  1.094796456843363E-005
  3.759774486802186E-003  1.094796456843363E-005
  3.759774878438460E-003  1.094796456843363E-005
  3.817018709543581E-003  1.094796456843363E-005
 cut=1d-8, nber non-redundant internal coords=         102
 Check on Eigenvals of non-red overlap matrix:
  0.00001095  0.00001412  0.00001412  0.00001480  0.00001480  0.00003250  0.00003250  0.00003655
  0.00003713  0.00003939  0.00003939  0.00004882  0.00004882  0.00006130  0.00006616  0.00007256
  0.00007256  0.00007666  0.00008052  0.00008392  0.00008393  0.00008393  0.00009387  0.00009387
  0.00012050  0.00012215  0.00012227  0.00012227  0.00014689  0.00015032  0.00015032  0.00018606
  0.00018606  0.00022279  0.00022424  0.00024727  0.00024727  0.00029275  0.00033126  0.00033126
  0.00034494  0.00034494  0.00035761  0.00037422  0.00037422  0.00039224  0.00039317  0.00039317
  0.00040753  0.00043714  0.00043714  0.00046484  0.00048541  0.00048541  0.00059577  0.00059705
  0.00059705  0.00059962  0.00059962  0.00060163  0.00062765  0.00063537  0.00063537  0.00065054
  0.00065054  0.00065938  0.00069333  0.00069333  0.00086420  0.00095091  0.00095091  0.00107562
  0.00108007  0.00108125  0.00108125  0.00109160  0.00109160  0.00109657  0.00115861  0.00115952
  0.00115952  0.00116108  0.00116108  0.00116180  0.00133805  0.00149031  0.00149031  0.00207876
  0.00210798  0.00210798  0.00235204  0.00235204  0.00249458  0.00249458  0.00261044  0.00284104
  0.00353330  0.00362195  0.00362195  0.00375977  0.00375977  0.00381702
 Checking for correct frequencies
 recalc frequencies=
    -0.0   -0.0    0.0    0.0    0.0    0.0   87.8   87.8  126.3  164.5
   226.7  297.0  297.0  302.3  302.3  370.0  370.0  385.0  385.0  457.0
   457.0  481.2  484.9  498.1  498.1  530.1  553.2  553.2  565.0  565.4
   624.3  646.0  671.8  671.8  680.7  690.6  690.6  772.8  772.8  775.8
   783.7  785.1  785.1  818.1  818.1  823.9  823.9  854.3  854.3  873.9
   941.9  959.8  966.4  966.4  977.0  977.0  983.3 1009.7 1009.7 1049.4
  1159.0 1159.0 1159.2 1181.8 1181.8 1184.3 1212.7 1237.4 1237.4 1244.2
  1249.3 1249.3 1258.3 1338.3 1338.3 1371.8 1373.4 1423.2 1423.2 1424.9
  1424.9 1444.8 1465.1 1465.1 1481.3 1481.3 1518.5 1533.5 1533.5 1573.2
  1583.6 1639.0 1653.8 1653.8 1653.9 1653.9 3155.0 3155.9 3155.9 3157.6
  3157.6 3158.4 3172.6 3173.7 3173.7 3175.5 3175.5 3176.8
 recalc symmetries=
     B2u    B3g    B2g    B1u    B3u    B1g    Au     B1u    B1u    B2g
     B3g    B3g    B2g    B1u    Au     Ag     B1g    B2u    B3u    B2g
     B3g    B3u    Ag     B1g    Ag     Au     B1u    Au     B2u    B1u
     B3g    B1g    B2g    B3g    B2u    B1g    Ag     B1u    Au     B2g
     B3g    B2u    B3u    B1u    Au     B2u    B3u    B2g    B3g    B1u
     B1g    Au     B3g    B2g    Au     B1u    B3g    Ag     B1g    Ag 
     B2u    B3u    B3u    B1g    Ag     B2u    B3u    B2u    B3u    Ag 
     B1g    Ag     B1g    B2u    B3u    Ag     B3u    B1g    Ag     B2u
     B3u    B2u    B1g    Ag     B1g    Ag     B3u    B2u    B3u    B1g
     B2u    Ag     B2u    B3u    Ag     B1g    B1g    B2u    B3u    B1g
     Ag     B2u    B3u    Ag     B1g    B3u    B2u    Ag 
 recalc freqs check OK
 Zero-point lengths:
 10.0000 10.0000 10.0000 10.0000 10.0000 10.0000 26.4611 26.4610 22.0617 19.3287
 16.4640 14.3862 14.3862 14.2586 14.2586 12.8888 12.8888 12.6339 12.6339 11.5974
 11.5974 11.3019 11.2586 11.1076 11.1076 10.7677 10.5401 10.5401 10.4293 10.4264
  9.9219  9.7539  9.5646  9.5646  9.5022  9.4336  9.4336  8.9182  8.9182  8.9009
  8.8559  8.8475  8.8475  8.6675  8.6675  8.6367  8.6367  8.4821  8.4821  8.3860
  8.0779  8.0020  7.9746  7.9746  7.9312  7.9312  7.9058  7.8020  7.8020  7.6529
  7.2819  7.2819  7.2815  7.2114  7.2114  7.2037  7.1191  7.0476  7.0476  7.0284
  7.0141  7.0141  6.9889  6.7768  6.7768  6.6936  6.6896  6.5715  6.5715  6.5675
  6.5675  6.5222  6.4767  6.4767  6.4414  6.4414  6.3619  6.3308  6.3308  6.2503
  6.2299  6.1235  6.0962  6.0962  6.0960  6.0960  4.4136  4.4130  4.4130  4.4118
  4.4118  4.4112  4.4013  4.4006  4.4006  4.3994  4.3994  4.3984
 highest evec of mol 1
 -0.0042  0.0848  0.0000
  0.0756  0.0388  0.0000
 -0.0016 -0.0009  0.0000
  0.0714  0.0460  0.0000
  0.0714 -0.0460  0.0000
 -0.0016  0.0009  0.0000
  0.0756 -0.0388  0.0000
 -0.0042 -0.0848  0.0000
  0.0000  0.0018  0.0000
  0.0042 -0.0848  0.0000
 -0.0756 -0.0388  0.0000
  0.0016  0.0009  0.0000
 -0.0714 -0.0460  0.0000
 -0.0714  0.0460  0.0000
  0.0016 -0.0009  0.0000
 -0.0756  0.0388  0.0000
  0.0042  0.0848  0.0000
  0.0000 -0.0018  0.0000
  0.0000 -0.0009  0.0000
 -0.0008 -0.0004  0.0000
 -0.0008  0.0004  0.0000
  0.0000  0.0009  0.0000
  0.0008  0.0004  0.0000
  0.0008 -0.0004  0.0000
  0.0005 -0.2759  0.0000
 -0.2392 -0.1375  0.0000
 -0.2387 -0.1384  0.0000
 -0.2387  0.1384  0.0000
 -0.2392  0.1375  0.0000
  0.0005  0.2759  0.0000
 -0.0005  0.2759  0.0000
  0.2392  0.1375  0.0000
  0.2387  0.1384  0.0000
  0.2387 -0.1384  0.0000
  0.2392 -0.1375  0.0000
 -0.0005 -0.2759  0.0000
 generating redundant internal coords
         300        3600          36
 Adding extra bonds for z output only
           6           6           6           6           6           6
           6           6           6           6           6           6
           6           6           6           6           6           6
           6           6           6           6           6           6
           1           1           1           1           1           1
           1           1           1           1           1           1
 search for int coords
   1 str   2   1   1.369
   2 str   3   2   1.422
   3 str   4   3   1.422
   4 str   5   4   1.369
   5 str   6   5   1.422
   6 str   7   6   1.422
   7 str   8   7   1.369
   8 str   9   8   1.422
   9 str  10   9   1.422
  10 str  11  10   1.369
  11 str  12  11   1.422
  12 str  13  12   1.422
  13 str  14  13   1.369
  14 str  15  14   1.422
  15 str  16  15   1.422
  16 str  17  16   1.369
  17 str  18   1   1.422
  18 str  18  17   1.422
  19 str  19  18   1.419
  20 str  20   3   1.419
  21 str  20  19   1.426
  22 str  21   6   1.419
  23 str  21  20   1.426
  24 str  22   9   1.419
  25 str  22  21   1.426
  26 str  23  12   1.419
  27 str  23  22   1.426
  28 str  24  15   1.419
  29 str  24  19   1.426
  30 str  24  23   1.426
  31 str  25   1   1.085
  32 str  26   2   1.085
  33 str  27   4   1.085
  34 str  28   5   1.085
  35 str  29   7   1.085
  36 str  30   8   1.085
  37 str  31  10   1.085
  38 str  32  11   1.085
  39 str  33  13   1.085
  40 str  34  14   1.085
  41 str  35  16   1.085
  42 str  36  17   1.085
 nber stretches=          42
  43 ben   1   2   3
  44 prop tor   1   2   3   4
  45 prop tor   1   2   3  20
  46 ben   1   2  26
  47 ben   1  18  17
  48 ben   1  18  19
  49 prop tor   1  18  19  20
  50 prop tor   1  18  19  24
  51 ben   2   1  18
  52 prop tor   2   1  18  17
  53 prop tor   2   1  18  19
  54 ben   2   1  25
  55 ben   2   3   4
  56 prop tor   2   3   4   5
  57 prop tor   2   3   4  27
  58 ben   2   3  20
  59 prop tor   2   3  20  19
  60 prop tor   2   3  20  21
  61 ben   3   2  26
  62 ben   3   4   5
  63 prop tor   3   4   5   6
  64 prop tor   3   4   5  28
  65 ben   3   4  27
  66 ben   3  20  19
  67 ben   3  20  21
  68 prop tor   3  20  21   6
  69 prop tor   3  20  21  22
  70 ben   4   3  20
  71 prop tor   4   3  20  19
  72 prop tor   4   3  20  21
  73 ben   4   5   6
  74 prop tor   4   5   6   7
  75 prop tor   4   5   6  21
  76 ben   4   5  28
  77 ben   5   4  27
  78 ben   5   6   7
  79 prop tor   5   6   7   8
  80 prop tor   5   6   7  29
  81 ben   5   6  21
  82 prop tor   5   6  21  20
  83 prop tor   5   6  21  22
  84 ben   6   5  28
  85 ben   6   7   8
  86 prop tor   6   7   8   9
  87 prop tor   6   7   8  30
  88 ben   6   7  29
  89 ben   6  21  20
  90 ben   6  21  22
  91 prop tor   6  21  22   9
  92 prop tor   6  21  22  23
  93 ben   7   6  21
  94 prop tor   7   6  21  20
  95 prop tor   7   6  21  22
  96 ben   7   8   9
  97 prop tor   7   8   9  10
  98 prop tor   7   8   9  22
  99 ben   7   8  30
 100 ben   8   7  29
 101 ben   8   9  10
 102 prop tor   8   9  10  11
 103 prop tor   8   9  10  31
 104 ben   8   9  22
 105 prop tor   8   9  22  21
 106 prop tor   8   9  22  23
 107 ben   9   8  30
 108 ben   9  10  11
 109 prop tor   9  10  11  12
 110 prop tor   9  10  11  32
 111 ben   9  10  31
 112 ben   9  22  21
 113 ben   9  22  23
 114 prop tor   9  22  23  12
 115 prop tor   9  22  23  24
 116 ben  10   9  22
 117 prop tor  10   9  22  21
 118 prop tor  10   9  22  23
 119 ben  10  11  12
 120 prop tor  10  11  12  13
 121 prop tor  10  11  12  23
 122 ben  10  11  32
 123 ben  11  10  31
 124 ben  11  12  13
 125 prop tor  11  12  13  14
 126 prop tor  11  12  13  33
 127 ben  11  12  23
 128 prop tor  11  12  23  22
 129 prop tor  11  12  23  24
 130 ben  12  11  32
 131 ben  12  13  14
 132 prop tor  12  13  14  15
 133 prop tor  12  13  14  34
 134 ben  12  13  33
 135 ben  12  23  22
 136 ben  12  23  24
 137 prop tor  12  23  24  15
 138 prop tor  12  23  24  19
 139 ben  13  12  23
 140 prop tor  13  12  23  22
 141 prop tor  13  12  23  24
 142 ben  13  14  15
 143 prop tor  13  14  15  16
 144 prop tor  13  14  15  24
 145 ben  13  14  34
 146 ben  14  13  33
 147 ben  14  15  16
 148 prop tor  14  15  16  17
 149 prop tor  14  15  16  35
 150 ben  14  15  24
 151 prop tor  14  15  24  19
 152 prop tor  14  15  24  23
 153 ben  15  14  34
 154 ben  15  16  17
 155 prop tor  15  16  17  18
 156 prop tor  15  16  17  36
 157 ben  15  16  35
 158 ben  15  24  19
 159 ben  15  24  23
 160 ben  16  15  24
 161 prop tor  16  15  24  19
 162 prop tor  16  15  24  23
 163 ben  16  17  18
 164 prop tor  16  17  18   1
 165 prop tor  16  17  18  19
 166 ben  16  17  36
 167 ben  17  16  35
 168 ben  17  18  19
 169 prop tor  17  18  19  20
 170 prop tor  17  18  19  24
 171 prop tor  18   1   2   3
 172 prop tor  18   1   2  26
 173 ben  18   1  25
 174 ben  18  17  36
 175 ben  18  19  20
 176 prop tor  18  19  20   3
 177 prop tor  18  19  20  21
 178 ben  18  19  24
 179 prop tor  18  19  24  15
 180 prop tor  18  19  24  23
 181 ben  19  20  21
 182 prop tor  19  20  21   6
 183 prop tor  19  20  21  22
 184 ben  19  24  23
 185 prop tor  20   3   4   5
 186 prop tor  20   3   4  27
 187 ben  20  19  24
 188 prop tor  20  19  24  15
 189 prop tor  20  19  24  23
 190 ben  20  21  22
 191 prop tor  20  21  22   9
 192 prop tor  20  21  22  23
 193 prop tor  21   6   7   8
 194 prop tor  21   6   7  29
 195 ben  21  22  23
 196 prop tor  21  22  23  12
 197 prop tor  21  22  23  24
 198 prop tor  22   9  10  11
 199 prop tor  22   9  10  31
 200 ben  22  23  24
 201 prop tor  22  23  24  15
 202 prop tor  22  23  24  19
 203 prop tor  23  12  13  14
 204 prop tor  23  12  13  33
 205 prop tor  24  15  16  17
 206 prop tor  24  15  16  35
 207 prop tor  24  19  20   3
 208 prop tor  24  19  20  21
 209 prop tor  25   1   2   3
 210 prop tor  25   1   2  26
 211 prop tor  25   1  18  17
 212 prop tor  25   1  18  19
 213 prop tor  26   2   3   4
 214 prop tor  26   2   3  20
 215 prop tor  27   4   5   6
 216 prop tor  27   4   5  28
 217 prop tor  28   5   6   7
 218 prop tor  28   5   6  21
 219 prop tor  29   7   8   9
 220 prop tor  29   7   8  30
 221 prop tor  30   8   9  10
 222 prop tor  30   8   9  22
 223 prop tor  31  10  11  12
 224 prop tor  31  10  11  32
 225 prop tor  32  11  12  13
 226 prop tor  32  11  12  23
 227 prop tor  33  13  14  15
 228 prop tor  33  13  14  34
 229 prop tor  34  14  15  16
 230 prop tor  34  14  15  24
 231 prop tor  35  16  17  18
 232 prop tor  35  16  17  36
 233 prop tor  36  17  18   1
 234 prop tor  36  17  18  19
 nber bend=              72
 nber lin bend=           0
 nber prop tor=         120
 nber impr tor=           0
 nber tot redund int=         234
 Reading file: 
 ./Circulene_1_C-1S0.log                                                        
                                          
  Entering Gaussian System, Link 0=g16                                          
  
 Gaussian format, type: g94, g98, g03= F F F
  #P Geom=AllCheck Guess=TCheck SCRF=Check GenChk UB3LYP/6-311G(d,p) Fre    
 energy type= B3LYP   
 Original G94 input coords:
  6  3.536484 -1.248299  0.000000
  6  2.836709 -2.445037  0.000000
  6  1.434141 -2.478940  0.000000
  6  0.680965 -3.700321  0.000000
  6 -0.680965 -3.700321  0.000000
  6 -1.434141 -2.478940  0.000000
  6 -2.836709 -2.445037  0.000000
  6 -3.536484 -1.248299  0.000000
  6 -2.857211  0.000000  0.000000
  6 -3.536484  1.248299  0.000000
  6 -2.836709  2.445037  0.000000
  6 -1.434141  2.478940  0.000000
  6 -0.680965  3.700321  0.000000
  6  0.680965  3.700321  0.000000
  6  1.434141  2.478940  0.000000
  6  2.836709  2.445037  0.000000
  6  3.536484  1.248299  0.000000
  6  2.857211  0.000000  0.000000
  6  1.425480  0.000000  0.000000
  6  0.710191 -1.236968  0.000000
  6 -0.710191 -1.236968  0.000000
  6 -1.425480  0.000000  0.000000
  6 -0.710191  1.236968  0.000000
  6  0.710191  1.236968  0.000000
  1  4.622344 -1.250217  0.000000
  1  3.379854 -3.387734  0.000000
  1  1.227156 -4.640570  0.000000
  1 -1.227156 -4.640570  0.000000
  1 -3.379854 -3.387734  0.000000
  1 -4.622344 -1.250217  0.000000
  1 -4.622344  1.250217  0.000000
  1 -3.379854  3.387734  0.000000
  1 -1.227156  4.640570  0.000000
  1  1.227156  4.640570  0.000000
  1  3.379854  3.387734  0.000000
  1  4.622344  1.250217  0.000000
 nber atoms=          36
 Original standard coords:
  6  0.000000  1.248299  3.536484
  6  0.000000  2.445037  2.836709
  6  0.000000  2.478940  1.434141
  6  0.000000  3.700321  0.680965
  6  0.000000  3.700321 -0.680965
  6  0.000000  2.478940 -1.434141
  6  0.000000  2.445037 -2.836709
  6  0.000000  1.248299 -3.536484
  6  0.000000  0.000000 -2.857211
  6  0.000000 -1.248299 -3.536484
  6  0.000000 -2.445037 -2.836709
  6  0.000000 -2.478940 -1.434141
  6  0.000000 -3.700321 -0.680965
  6  0.000000 -3.700321  0.680965
  6  0.000000 -2.478940  1.434141
  6  0.000000 -2.445037  2.836709
  6  0.000000 -1.248299  3.536484
  6  0.000000  0.000000  2.857211
  6  0.000000  0.000000  1.425480
  6  0.000000  1.236968  0.710191
  6  0.000000  1.236968 -0.710191
  6  0.000000  0.000000 -1.425480
  6  0.000000 -1.236968 -0.710191
  6  0.000000 -1.236968  0.710191
  1  0.000000  1.250217  4.622344
  1  0.000000  3.387734  3.379854
  1  0.000000  4.640570  1.227156
  1  0.000000  4.640570 -1.227156
  1  0.000000  3.387734 -3.379854
  1  0.000000  1.250217 -4.622344
  1  0.000000 -1.250217 -4.622344
  1  0.000000 -3.387734 -3.379854
  1  0.000000 -4.640570 -1.227156
  1  0.000000 -4.640570  1.227156
  1  0.000000 -3.387734  3.379854
  1  0.000000 -1.250217  4.622344
  SCF Done:  E(UB3LYP) =  -922.108159447     A.U. after    1 cycles             
  
          23          40 "  -922.108159447"
After scan for Atom:   Atom  AN      X      Y      Z        X      Y      Z        X      Y      Z   
After scan for Atom:   Atom  AN      X      Y      Z        X      Y      Z        X      Y      Z   
After scan for Atom:   Atom  AN      X      Y      Z        X      Y      Z        X      Y      Z   
After scan for Atom:   Atom  AN      X      Y      Z        X      Y      Z        X      Y      Z   
After scan for Atom:   Atom  AN      X      Y      Z        X      Y      Z        X      Y      Z   
After scan for Atom:   Atom  AN      X      Y      Z        X      Y      Z        X      Y      Z   
After scan for Atom:   Atom  AN      X      Y      Z        X      Y      Z        X      Y      Z   
After scan for Atom:   Atom  AN      X      Y      Z        X      Y      Z        X      Y      Z   
After scan for Atom:   Atom  AN      X      Y      Z        X      Y      Z        X      Y      Z   
After scan for Atom:   Atom  AN      X      Y      Z        X      Y      Z        X      Y      Z   
After scan for Atom:   Atom  AN      X      Y      Z        X      Y      Z        X      Y      Z   
After scan for Atom:   Atom  AN      X      Y      Z        X      Y      Z        X      Y      Z   
After scan for Atom:   Atom  AN      X      Y      Z        X      Y      Z        X      Y      Z   
After scan for Atom:   Atom  AN      X      Y      Z        X      Y      Z        X      Y      Z   
After scan for Atom:   Atom  AN      X      Y      Z        X      Y      Z        X      Y      Z   
After scan for Atom:   Atom  AN      X      Y      Z        X      Y      Z        X      Y      Z   
After scan for Atom:   Atom  AN      X      Y      Z        X      Y      Z        X      Y      Z   
After scan for Atom:   Atom  AN      X      Y      Z        X      Y      Z        X      Y      Z   
After scan for Atom:   Atom  AN      X      Y      Z        X      Y      Z        X      Y      Z   
After scan for Atom:   Atom  AN      X      Y      Z        X      Y      Z        X      Y      Z   
After scan for Atom:   Atom  AN      X      Y      Z        X      Y      Z        X      Y      Z   
After scan for Atom:   Atom  AN      X      Y      Z        X      Y      Z        X      Y      Z   
After scan for Atom:   Atom  AN      X      Y      Z        X      Y      Z        X      Y      Z   
After scan for Atom:   Atom  AN      X      Y      Z        X      Y      Z        X      Y      Z   
After scan for Atom:   Atom  AN      X      Y      Z        X      Y      Z        X      Y      Z   
After scan for Atom:   Atom  AN      X      Y      Z        X      Y      Z        X      Y      Z   
After scan for Atom:   Atom  AN      X      Y      Z        X      Y      Z        X      Y      Z   
After scan for Atom:   Atom  AN      X      Y      Z        X      Y      Z        X      Y      Z   
After scan for Atom:   Atom  AN      X      Y      Z        X      Y      Z        X      Y      Z   
After scan for Atom:   Atom  AN      X      Y      Z        X      Y      Z        X      Y      Z   
After scan for Atom:   Atom  AN      X      Y      Z        X      Y      Z        X      Y      Z   
After scan for Atom:   Atom  AN      X      Y      Z        X      Y      Z        X      Y      Z   
After scan for Atom:   Atom  AN      X      Y      Z        X      Y      Z        X      Y      Z   
After scan for Atom:   Atom  AN      X      Y      Z        X      Y      Z        X      Y      Z   
 g94    frequencies=
     0.0    0.0    0.0    0.0    0.0    0.0 -148.1   83.1   87.2  131.8
   152.8  228.1  274.3  280.2  297.0  303.6  365.1  378.2  385.1  420.3
   425.3  462.2  474.6  481.7  497.9  500.9  538.8  539.6  552.3  553.7
   564.4  614.3  639.6  643.8  662.5  677.3  688.1  692.9  725.9  729.8
   752.3  758.7  767.1  778.7  788.0  792.5  793.3  799.5  807.9  812.7
   814.8  880.5  884.7  887.0  892.6  932.9  933.2  933.8  997.7 1008.6
  1037.1 1131.3 1133.9 1146.0 1169.3 1174.1 1175.0 1219.9 1220.0 1222.0
  1241.0 1247.9 1256.8 1300.1 1316.8 1323.8 1354.8 1356.6 1357.7 1381.4
  1402.1 1410.9 1432.0 1449.7 1468.8 1473.8 1488.7 1497.0 1498.0 1529.5
  1534.4 1566.3 1604.6 1609.9 1615.8 1659.4 3116.7 3117.0 3118.4 3119.4
  3119.8 3122.0 3141.8 3142.6 3145.8 3146.1 3150.6 3151.9
 g94    symmetries=
                                                B3     B3     AU     B3
      B1     B2     B1     AU     B2     B3     AG     B1     B2     B3
      B1     B2     B2     AG     AG     AU     B3     AU     B3     B1
      B3     B2     B1     B3     B2     B1     AG     B3     B1     AU
      B3     AU     B2     B1     B2     B3     B1     B2     B3     B2
      B1     AU     B1     B2     B3     B3     AU     B2     AG     B3
      AG     B1     B2     B2     AG     B1     B3     B2     AG     B1
      B2     B3     AG     B3     B2     B1     B2     B1     AG     B2
      AG     B3     B1     B3     B2     AG     AG     B1     B3     B2
      B1     B3     B1     AG     B2     AG     B3     B1     B2     B3
      AG     B1     B2     AG     B3     B2     B1     AG
 atomic masses:
 12.0000 12.0000 12.0000 12.0000 12.0000 12.0000 12.0000 12.0000 12.0000 12.0000
 12.0000 12.0000 12.0000 12.0000 12.0000 12.0000 12.0000 12.0000 12.0000 12.0000
 12.0000 12.0000 12.0000 12.0000  1.0078  1.0078  1.0078  1.0078  1.0078  1.0078
  1.0078  1.0078  1.0078  1.0078  1.0078  1.0078
 looking for force constants in 
 ./Circulene_1_C-1S0.fchk                                                       
  
 Cartesian Force Constants                  R   N=        5886                  
  
 n3=         108        5886
 g94-fc frequencies=
  -148.1   -4.7   -4.7   -3.2    0.0    0.0    0.0   83.1   87.2  131.8
   152.8  228.1  274.3  280.2  297.0  303.7  365.1  378.2  385.1  420.3
   425.3  462.2  474.7  481.8  497.9  500.9  538.8  539.6  552.3  553.7
   564.4  614.3  639.6  643.8  662.5  677.3  688.1  692.9  726.0  729.9
   752.3  758.8  767.2  778.7  788.0  792.5  793.3  799.5  807.9  812.7
   814.9  880.5  884.7  887.0  892.6  932.9  933.2  933.9  997.7 1008.6
  1037.2 1131.3 1133.9 1146.1 1169.4 1174.2 1175.0 1220.0 1220.0 1222.0
  1241.0 1247.9 1256.9 1300.1 1316.8 1323.8 1354.8 1356.6 1357.7 1381.4
  1402.1 1410.9 1432.1 1449.7 1468.8 1473.8 1488.7 1497.1 1498.0 1529.5
  1534.4 1566.4 1604.7 1610.0 1615.9 1659.4 3116.8 3117.1 3118.5 3119.5
  3119.8 3122.0 3141.8 3142.6 3145.8 3146.1 3150.7 3152.0
 at 99999: n3=         108
 symm operator            1 :  T  nop=           1
 symm operator            2 :  T  nop=           2
 symm operator            3 :  T  nop=           3
 symm operator            4 :  T  nop=           4
 symm operator            5 :  T  nop=           5
 symm operator            6 :  T  nop=           6
 symm operator            7 :  T  nop=           7
 The point group of the molecule is D2H
 enforcing symm op           1  jsymt=          -1          -1           1
 enforcing symm op           2  jsymt=          -1           1          -1
 enforcing symm op           3  jsymt=           1          -1          -1
 enforcing symm op           4  jsymt=          -1          -1          -1
 enforcing symm op           5  jsymt=           1           1          -1
 enforcing symm op           6  jsymt=           1          -1           1
 enforcing symm op           7  jsymt=          -1           1           1
 cartesian coord symmetries:
 Ag :   18 Au :    8 B1g:    8 B1u:   18 B2g:   10 B2u:   18 B3g:   18 B3u:   10
 Symmetry rotation matrix:
   1.00000   0.00000   0.00000
   0.00000   1.00000   0.00000
   0.00000   0.00000   1.00000

 Projecting out zero-frequency components
 generating redundant internal coords
         300        3600          36
 search for int coords
   1 str   2   1   1.386
   2 str   3   2   1.403
   3 str   4   3   1.435
   4 str   5   4   1.362
   5 str   6   5   1.435
   6 str   7   6   1.403
   7 str   8   7   1.386
   8 str   9   8   1.421
   9 str  10   9   1.421
  10 str  11  10   1.386
  11 str  12  11   1.403
  12 str  13  12   1.435
  13 str  14  13   1.362
  14 str  15  14   1.435
  15 str  16  15   1.403
  16 str  17  16   1.386
  17 str  18   1   1.421
  18 str  18  17   1.421
  19 str  19  18   1.432
  20 str  20   3   1.438
  21 str  20  19   1.429
  22 str  21   6   1.438
  23 str  21  20   1.420
  24 str  22   9   1.432
  25 str  22  21   1.429
  26 str  23  12   1.438
  27 str  23  22   1.429
  28 str  24  15   1.438
  29 str  24  19   1.429
  30 str  24  23   1.420
  31 str  25   1   1.086
  32 str  26   2   1.088
  33 str  27   4   1.087
  34 str  28   5   1.087
  35 str  29   7   1.088
  36 str  30   8   1.086
  37 str  31  10   1.086
  38 str  32  11   1.088
  39 str  33  13   1.087
  40 str  34  14   1.087
  41 str  35  16   1.088
  42 str  36  17   1.086
 nber stretches=          42
  43 ben   1   2   3
  44 prop tor   1   2   3   4
  45 prop tor   1   2   3  20
  46 ben   1   2  26
  47 ben   1  18  17
  48 ben   1  18  19
  49 prop tor   1  18  19  20
  50 prop tor   1  18  19  24
  51 ben   2   1  18
  52 prop tor   2   1  18  17
  53 prop tor   2   1  18  19
  54 ben   2   1  25
  55 ben   2   3   4
  56 prop tor   2   3   4   5
  57 prop tor   2   3   4  27
  58 ben   2   3  20
  59 prop tor   2   3  20  19
  60 prop tor   2   3  20  21
  61 ben   3   2  26
  62 ben   3   4   5
  63 prop tor   3   4   5   6
  64 prop tor   3   4   5  28
  65 ben   3   4  27
  66 ben   3  20  19
  67 ben   3  20  21
  68 prop tor   3  20  21   6
  69 prop tor   3  20  21  22
  70 ben   4   3  20
  71 prop tor   4   3  20  19
  72 prop tor   4   3  20  21
  73 ben   4   5   6
  74 prop tor   4   5   6   7
  75 prop tor   4   5   6  21
  76 ben   4   5  28
  77 ben   5   4  27
  78 ben   5   6   7
  79 prop tor   5   6   7   8
  80 prop tor   5   6   7  29
  81 ben   5   6  21
  82 prop tor   5   6  21  20
  83 prop tor   5   6  21  22
  84 ben   6   5  28
  85 ben   6   7   8
  86 prop tor   6   7   8   9
  87 prop tor   6   7   8  30
  88 ben   6   7  29
  89 ben   6  21  20
  90 ben   6  21  22
  91 prop tor   6  21  22   9
  92 prop tor   6  21  22  23
  93 ben   7   6  21
  94 prop tor   7   6  21  20
  95 prop tor   7   6  21  22
  96 ben   7   8   9
  97 prop tor   7   8   9  10
  98 prop tor   7   8   9  22
  99 ben   7   8  30
 100 ben   8   7  29
 101 ben   8   9  10
 102 prop tor   8   9  10  11
 103 prop tor   8   9  10  31
 104 ben   8   9  22
 105 prop tor   8   9  22  21
 106 prop tor   8   9  22  23
 107 ben   9   8  30
 108 ben   9  10  11
 109 prop tor   9  10  11  12
 110 prop tor   9  10  11  32
 111 ben   9  10  31
 112 ben   9  22  21
 113 ben   9  22  23
 114 prop tor   9  22  23  12
 115 prop tor   9  22  23  24
 116 ben  10   9  22
 117 prop tor  10   9  22  21
 118 prop tor  10   9  22  23
 119 ben  10  11  12
 120 prop tor  10  11  12  13
 121 prop tor  10  11  12  23
 122 ben  10  11  32
 123 ben  11  10  31
 124 ben  11  12  13
 125 prop tor  11  12  13  14
 126 prop tor  11  12  13  33
 127 ben  11  12  23
 128 prop tor  11  12  23  22
 129 prop tor  11  12  23  24
 130 ben  12  11  32
 131 ben  12  13  14
 132 prop tor  12  13  14  15
 133 prop tor  12  13  14  34
 134 ben  12  13  33
 135 ben  12  23  22
 136 ben  12  23  24
 137 prop tor  12  23  24  15
 138 prop tor  12  23  24  19
 139 ben  13  12  23
 140 prop tor  13  12  23  22
 141 prop tor  13  12  23  24
 142 ben  13  14  15
 143 prop tor  13  14  15  16
 144 prop tor  13  14  15  24
 145 ben  13  14  34
 146 ben  14  13  33
 147 ben  14  15  16
 148 prop tor  14  15  16  17
 149 prop tor  14  15  16  35
 150 ben  14  15  24
 151 prop tor  14  15  24  19
 152 prop tor  14  15  24  23
 153 ben  15  14  34
 154 ben  15  16  17
 155 prop tor  15  16  17  18
 156 prop tor  15  16  17  36
 157 ben  15  16  35
 158 ben  15  24  19
 159 ben  15  24  23
 160 ben  16  15  24
 161 prop tor  16  15  24  19
 162 prop tor  16  15  24  23
 163 ben  16  17  18
 164 prop tor  16  17  18   1
 165 prop tor  16  17  18  19
 166 ben  16  17  36
 167 ben  17  16  35
 168 ben  17  18  19
 169 prop tor  17  18  19  20
 170 prop tor  17  18  19  24
 171 prop tor  18   1   2   3
 172 prop tor  18   1   2  26
 173 ben  18   1  25
 174 ben  18  17  36
 175 ben  18  19  20
 176 prop tor  18  19  20   3
 177 prop tor  18  19  20  21
 178 ben  18  19  24
 179 prop tor  18  19  24  15
 180 prop tor  18  19  24  23
 181 ben  19  20  21
 182 prop tor  19  20  21   6
 183 prop tor  19  20  21  22
 184 ben  19  24  23
 185 prop tor  20   3   4   5
 186 prop tor  20   3   4  27
 187 ben  20  19  24
 188 prop tor  20  19  24  15
 189 prop tor  20  19  24  23
 190 ben  20  21  22
 191 prop tor  20  21  22   9
 192 prop tor  20  21  22  23
 193 prop tor  21   6   7   8
 194 prop tor  21   6   7  29
 195 ben  21  22  23
 196 prop tor  21  22  23  12
 197 prop tor  21  22  23  24
 198 prop tor  22   9  10  11
 199 prop tor  22   9  10  31
 200 ben  22  23  24
 201 prop tor  22  23  24  15
 202 prop tor  22  23  24  19
 203 prop tor  23  12  13  14
 204 prop tor  23  12  13  33
 205 prop tor  24  15  16  17
 206 prop tor  24  15  16  35
 207 prop tor  24  19  20   3
 208 prop tor  24  19  20  21
 209 prop tor  25   1   2   3
 210 prop tor  25   1   2  26
 211 prop tor  25   1  18  17
 212 prop tor  25   1  18  19
 213 prop tor  26   2   3   4
 214 prop tor  26   2   3  20
 215 prop tor  27   4   5   6
 216 prop tor  27   4   5  28
 217 prop tor  28   5   6   7
 218 prop tor  28   5   6  21
 219 prop tor  29   7   8   9
 220 prop tor  29   7   8  30
 221 prop tor  30   8   9  10
 222 prop tor  30   8   9  22
 223 prop tor  31  10  11  12
 224 prop tor  31  10  11  32
 225 prop tor  32  11  12  13
 226 prop tor  32  11  12  23
 227 prop tor  33  13  14  15
 228 prop tor  33  13  14  34
 229 prop tor  34  14  15  16
 230 prop tor  34  14  15  24
 231 prop tor  35  16  17  18
 232 prop tor  35  16  17  36
 233 prop tor  36  17  18   1
 234 prop tor  36  17  18  19
 nber bend=              72
 nber lin bend=           0
 nber prop tor=         120
 nber impr tor=           0
 nber tot redund int=         234
 Eigenvalues of G in red int coords
    Gval -0.00000000 -0.00000000 -0.00000000 -0.00000000 -0.00000000 -0.00000000 -0.00000000 -0.00000000
    Gval -0.00000000 -0.00000000 -0.00000000 -0.00000000 -0.00000000 -0.00000000 -0.00000000 -0.00000000
    Gval -0.00000000 -0.00000000 -0.00000000 -0.00000000 -0.00000000 -0.00000000 -0.00000000 -0.00000000
    Gval -0.00000000 -0.00000000 -0.00000000 -0.00000000 -0.00000000 -0.00000000 -0.00000000 -0.00000000
    Gval -0.00000000 -0.00000000 -0.00000000 -0.00000000 -0.00000000 -0.00000000 -0.00000000 -0.00000000
    Gval -0.00000000 -0.00000000 -0.00000000 -0.00000000 -0.00000000 -0.00000000 -0.00000000 -0.00000000
    Gval -0.00000000 -0.00000000 -0.00000000 -0.00000000 -0.00000000 -0.00000000 -0.00000000 -0.00000000
    Gval -0.00000000 -0.00000000 -0.00000000 -0.00000000 -0.00000000 -0.00000000 -0.00000000 -0.00000000
    Gval -0.00000000 -0.00000000 -0.00000000 -0.00000000 -0.00000000 -0.00000000 -0.00000000  0.00000000
    Gval  0.00000000  0.00000000  0.00000000  0.00000000  0.00000000  0.00000000  0.00000000  0.00000000
    Gval  0.00000000  0.00000000  0.00000000  0.00000000  0.00000000  0.00000000  0.00000000  0.00000000
    Gval  0.00000000  0.00000000  0.00000000  0.00000000  0.00000000  0.00000000  0.00000000  0.00000000
    Gval  0.00000000  0.00000000  0.00000000  0.00000000  0.00000000  0.00000000  0.00000000  0.00000000
    Gval  0.00000000  0.00000000  0.00000000  0.00000000  0.00000000  0.00000000  0.00000000  0.00000000
    Gval  0.00000000  0.00000000  0.00000000  0.00000000  0.00000000  0.00000000  0.00000000  0.00000000
    Gval  0.00000000  0.00000000  0.00000000  0.00000000  0.00000000  0.00000000  0.00000000  0.00000000
    Gval  0.00000000  0.00000000  0.00000000  0.00000000  0.00001094  0.00001407  0.00001411  0.00001476
    Gval  0.00001479  0.00003237  0.00003261  0.00003648  0.00003718  0.00003904  0.00003947  0.00004866
    Gval  0.00004883  0.00006100  0.00006606  0.00007229  0.00007253  0.00007654  0.00008060  0.00008381
    Gval  0.00008386  0.00008429  0.00009377  0.00009391  0.00012043  0.00012132  0.00012231  0.00012232
    Gval  0.00014693  0.00014967  0.00015034  0.00018419  0.00018750  0.00022127  0.00022292  0.00024510
    Gval  0.00024700  0.00029380  0.00032981  0.00033466  0.00034465  0.00034542  0.00035366  0.00036992
    Gval  0.00037698  0.00039247  0.00039288  0.00039333  0.00040251  0.00043200  0.00043217  0.00046489
    Gval  0.00048045  0.00048401  0.00059574  0.00059694  0.00059706  0.00059950  0.00059970  0.00060166
    Gval  0.00062721  0.00063477  0.00063533  0.00065043  0.00065049  0.00065942  0.00068392  0.00070056
    Gval  0.00086546  0.00095264  0.00095600  0.00106457  0.00107145  0.00107590  0.00107882  0.00108728
    Gval  0.00108907  0.00109335  0.00115287  0.00115344  0.00115457  0.00115548  0.00115635  0.00115676
    Gval  0.00134258  0.00147207  0.00147228  0.00206663  0.00208735  0.00209274  0.00233154  0.00234439
    Gval  0.00248879  0.00249104  0.00260808  0.00281945  0.00350979  0.00359846  0.00360196  0.00373901
    Gval  0.00374043  0.00379735
  1.094266781101672E-005  1.094266781101672E-005
  1.406545420092095E-005  1.094266781101672E-005
  1.411485926557057E-005  1.094266781101672E-005
  1.475938134556036E-005  1.094266781101672E-005
  1.479376336759733E-005  1.094266781101672E-005
  3.236734384241668E-005  1.094266781101672E-005
  3.260810154414999E-005  1.094266781101672E-005
  3.647959583504537E-005  1.094266781101672E-005
  3.718142521186190E-005  1.094266781101672E-005
  3.903718484287016E-005  1.094266781101672E-005
  3.947011225184543E-005  1.094266781101672E-005
  4.866490153887341E-005  1.094266781101672E-005
  4.882945416499325E-005  1.094266781101672E-005
  6.100081934199959E-005  1.094266781101672E-005
  6.605603119227411E-005  1.094266781101672E-005
  7.229019510176181E-005  1.094266781101672E-005
  7.252770015958353E-005  1.094266781101672E-005
  7.654414440666923E-005  1.094266781101672E-005
  8.060130659087299E-005  1.094266781101672E-005
  8.380597679633665E-005  1.094266781101672E-005
  8.385704092797407E-005  1.094266781101672E-005
  8.428901113601199E-005  1.094266781101672E-005
  9.377045000799733E-005  1.094266781101672E-005
  9.390927697814948E-005  1.094266781101672E-005
  1.204257611529266E-004  1.094266781101672E-005
  1.213151529614301E-004  1.094266781101672E-005
  1.223107587135023E-004  1.094266781101672E-005
  1.223162214371602E-004  1.094266781101672E-005
  1.469257792566792E-004  1.094266781101672E-005
  1.496671616470501E-004  1.094266781101672E-005
  1.503389831629504E-004  1.094266781101672E-005
  1.841887102697703E-004  1.094266781101672E-005
  1.874990479707183E-004  1.094266781101672E-005
  2.212690190479360E-004  1.094266781101672E-005
  2.229183824701794E-004  1.094266781101672E-005
  2.451003109727967E-004  1.094266781101672E-005
  2.470041945203419E-004  1.094266781101672E-005
  2.938006069358221E-004  1.094266781101672E-005
  3.298072647031111E-004  1.094266781101672E-005
  3.346642197377614E-004  1.094266781101672E-005
  3.446506760747801E-004  1.094266781101672E-005
  3.454211121868492E-004  1.094266781101672E-005
  3.536553168368741E-004  1.094266781101672E-005
  3.699178891556028E-004  1.094266781101672E-005
  3.769783059400885E-004  1.094266781101672E-005
  3.924662803091679E-004  1.094266781101672E-005
  3.928758602170803E-004  1.094266781101672E-005
  3.933317284227860E-004  1.094266781101672E-005
  4.025098595843570E-004  1.094266781101672E-005
  4.319973592752111E-004  1.094266781101672E-005
  4.321651673212591E-004  1.094266781101672E-005
  4.648856354778435E-004  1.094266781101672E-005
  4.804469068992605E-004  1.094266781101672E-005
  4.840053076901949E-004  1.094266781101672E-005
  5.957360544995481E-004  1.094266781101672E-005
  5.969408457830169E-004  1.094266781101672E-005
  5.970558949418440E-004  1.094266781101672E-005
  5.995008041969730E-004  1.094266781101672E-005
  5.997033615079469E-004  1.094266781101672E-005
  6.016562180984493E-004  1.094266781101672E-005
  6.272109245986135E-004  1.094266781101672E-005
  6.347659544615814E-004  1.094266781101672E-005
  6.353285222113670E-004  1.094266781101672E-005
  6.504341760165982E-004  1.094266781101672E-005
  6.504897139330430E-004  1.094266781101672E-005
  6.594173249141772E-004  1.094266781101672E-005
  6.839186233154519E-004  1.094266781101672E-005
  7.005631974436264E-004  1.094266781101672E-005
  8.654623317636918E-004  1.094266781101672E-005
  9.526412860770431E-004  1.094266781101672E-005
  9.560034219686468E-004  1.094266781101672E-005
  1.064574333037981E-003  1.094266781101672E-005
  1.071448066740870E-003  1.094266781101672E-005
  1.075899125351137E-003  1.094266781101672E-005
  1.078820437843832E-003  1.094266781101672E-005
  1.087279385564994E-003  1.094266781101672E-005
  1.089074830381542E-003  1.094266781101672E-005
  1.093350032864533E-003  1.094266781101672E-005
  1.152873179453494E-003  1.094266781101672E-005
  1.153441970916654E-003  1.094266781101672E-005
  1.154571948331370E-003  1.094266781101672E-005
  1.155478824852206E-003  1.094266781101672E-005
  1.156352172472632E-003  1.094266781101672E-005
  1.156764493628756E-003  1.094266781101672E-005
  1.342578923545084E-003  1.094266781101672E-005
  1.472070575652831E-003  1.094266781101672E-005
  1.472278204072724E-003  1.094266781101672E-005
  2.066633080984248E-003  1.094266781101672E-005
  2.087350007647700E-003  1.094266781101672E-005
  2.092737120420804E-003  1.094266781101672E-005
  2.331542184433371E-003  1.094266781101672E-005
  2.344389383933838E-003  1.094266781101672E-005
  2.488793922343741E-003  1.094266781101672E-005
  2.491036126308255E-003  1.094266781101672E-005
  2.608084390832322E-003  1.094266781101672E-005
  2.819449068911082E-003  1.094266781101672E-005
  3.509786846337152E-003  1.094266781101672E-005
  3.598463812365486E-003  1.094266781101672E-005
  3.601964675766131E-003  1.094266781101672E-005
  3.739009370447548E-003  1.094266781101672E-005
  3.740430714111859E-003  1.094266781101672E-005
  3.797354105852137E-003  1.094266781101672E-005
 cut=1d-8, nber non-redundant internal coords=         102
 Check on Eigenvals of non-red overlap matrix:
  0.00001094  0.00001407  0.00001411  0.00001476  0.00001479  0.00003237  0.00003261  0.00003648
  0.00003718  0.00003904  0.00003947  0.00004866  0.00004883  0.00006100  0.00006606  0.00007229
  0.00007253  0.00007654  0.00008060  0.00008381  0.00008386  0.00008429  0.00009377  0.00009391
  0.00012043  0.00012132  0.00012231  0.00012232  0.00014693  0.00014967  0.00015034  0.00018419
  0.00018750  0.00022127  0.00022292  0.00024510  0.00024700  0.00029380  0.00032981  0.00033466
  0.00034465  0.00034542  0.00035366  0.00036992  0.00037698  0.00039247  0.00039288  0.00039333
  0.00040251  0.00043200  0.00043217  0.00046489  0.00048045  0.00048401  0.00059574  0.00059694
  0.00059706  0.00059950  0.00059970  0.00060166  0.00062721  0.00063477  0.00063533  0.00065043
  0.00065049  0.00065942  0.00068392  0.00070056  0.00086546  0.00095264  0.00095600  0.00106457
  0.00107145  0.00107590  0.00107882  0.00108728  0.00108907  0.00109335  0.00115287  0.00115344
  0.00115457  0.00115548  0.00115635  0.00115676  0.00134258  0.00147207  0.00147228  0.00206663
  0.00208735  0.00209274  0.00233154  0.00234439  0.00248879  0.00249104  0.00260808  0.00281945
  0.00350979  0.00359846  0.00360196  0.00373901  0.00374043  0.00379735
 Checking for correct frequencies
 recalc frequencies=
  -148.1   -0.0   -0.0    0.0    0.0    0.0    0.0   83.1   87.2  131.8
   152.8  228.1  274.3  280.2  297.0  303.7  365.1  378.2  385.1  420.3
   425.3  462.2  474.7  481.8  497.9  500.9  538.8  539.6  552.3  553.7
   564.4  614.3  639.6  643.8  662.5  677.3  688.1  692.9  726.0  729.9
   752.3  758.8  767.2  778.7  788.0  792.5  793.3  799.5  807.9  812.7
   814.9  880.5  884.7  887.0  892.6  932.9  933.2  933.9  997.7 1008.6
  1037.2 1131.3 1133.9 1146.1 1169.4 1174.2 1175.0 1220.0 1220.0 1222.0
  1241.0 1247.9 1256.9 1300.1 1316.8 1323.8 1354.8 1356.6 1357.7 1381.4
  1402.1 1410.9 1432.1 1449.7 1468.8 1473.8 1488.7 1497.1 1498.0 1529.5
  1534.4 1566.4 1604.7 1610.0 1615.9 1659.4 3116.8 3117.1 3118.5 3119.5
  3119.8 3122.0 3141.8 3142.6 3145.8 3146.1 3150.7 3152.0
 recalc symmetries=
     B3g    B1u    B3g    B1g    B3u    B2u    B2g    B3u    Au     B3u
     B1g    B2g    B1g    Au     B2g    B3u    Ag     B1u    B2u    B3g
     B1g    B2g    B2u    Ag     Ag     Au     B3u    Au     B3u    B1u
     B3g    B2g    B1g    B3g    B2g    B1u    Ag     B3g    B1g    Au 
     B3u    Au     B2u    B1u    B2g    B3u    B1g    B2u    B3u    B2g
     B1u    Au     B1g    B2g    B3u    B3g    Au     B2g    Ag     B3g
     Ag     B1u    B2u    B2u    Ag     B1u    B3g    B2u    Ag     B1u
     B2u    B3g    Ag     B3g    B2u    B1u    B2u    B1u    Ag     B2u
     Ag     B3g    B1u    B3g    B2u    Ag     Ag     B1u    B3g    B2u
     B1u    B3g    B1u    Ag     B2u    Ag     B3g    B1u    B2u    B3g
     Ag     B1u    B2u    Ag     B3g    B2u    B1u    Ag 
 recalc freqs check OK
 Zero-point lengths:
 20.3729 10.0000 10.0000 10.0000 10.0000 10.0000 10.0000 27.1972 26.5420 21.5916
 20.0565 16.4146 14.9687 14.8112 14.3846 14.2268 12.9740 12.7472 12.6336 12.0926
 12.0213 11.5317 11.3791 11.2949 11.1101 11.0764 10.6798 10.6720 10.5489 10.5358
 10.4348 10.0025  9.8027  9.7705  9.6314  9.5258  9.4505  9.4179  9.2011  9.1765
  9.0384  9.0000  8.9506  8.8842  8.8315  8.8061  8.8020  8.7676  8.7219  8.6960
  8.6847  8.3545  8.3348  8.3242  8.2978  8.1166  8.1154  8.1125  7.8488  7.8060
  7.6979  7.3706  7.3622  7.3231  7.2497  7.2349  7.2324  7.0978  7.0976  7.0917
  7.0373  7.0179  6.9928  6.8755  6.8317  6.8137  6.7353  6.7308  6.7281  6.6701
  6.6207  6.6000  6.5511  6.5111  6.4686  6.4577  6.4253  6.4073  6.4052  6.3389
  6.3288  6.2640  6.1888  6.1786  6.1672  6.0858  4.4406  4.4404  4.4394  4.4387
  4.4384  4.4369  4.4229  4.4223  4.4201  4.4198  4.4166  4.4158
 highest evec of mol 2
  0.0000 -0.0022  0.1293
  0.0000  0.0525  0.0259
  0.0000  0.0000 -0.0022
  0.0000  0.0242  0.0157
  0.0000  0.0242 -0.0157
  0.0000  0.0000  0.0022
  0.0000  0.0525 -0.0259
  0.0000 -0.0022 -0.1293
  0.0000  0.0000  0.0006
  0.0000  0.0022 -0.1293
  0.0000 -0.0525 -0.0259
  0.0000 -0.0000  0.0022
  0.0000 -0.0242 -0.0157
  0.0000 -0.0242  0.0157
  0.0000 -0.0000 -0.0022
  0.0000 -0.0525  0.0259
  0.0000  0.0022  0.1293
  0.0000  0.0000 -0.0006
  0.0000  0.0000 -0.0020
  0.0000 -0.0004 -0.0002
  0.0000 -0.0004  0.0002
  0.0000  0.0000  0.0020
  0.0000  0.0004  0.0002
  0.0000  0.0004 -0.0002
  0.0000 -0.0020 -0.4303
  0.0000 -0.1625 -0.0922
  0.0000 -0.0818 -0.0473
  0.0000 -0.0818  0.0473
  0.0000 -0.1625  0.0922
  0.0000 -0.0020  0.4303
  0.0000  0.0020  0.4303
  0.0000  0.1625  0.0922
  0.0000  0.0818  0.0473
  0.0000  0.0818 -0.0473
  0.0000  0.1625 -0.0922
  0.0000  0.0020 -0.4303
 Enter nber and list of atoms to keep of mol #2
 keep list:          36           1           2           3           4
           5           6           7           8           9          10
          11          12          13          14          15          16
          17          18          19          20          21          22
          23          24          25          26          27          28
          29          30          31          32          33          34
          35          36
 reordering atoms
           1  -1.24829900000000     
           2  -2.44503700000000     
           3  -2.47894000000000     
           4  -3.70032100000000     
           5  -3.70032100000000     
           6  -2.47894000000000     
           7  -2.44503700000000     
           8  -1.24829900000000     
           9  3.700743415417188E-017
          10   1.24829900000000     
          11   2.44503700000000     
          12   2.47894000000000     
          13   3.70032100000000     
          14   3.70032100000000     
          15   2.47894000000000     
          16   2.44503700000000     
          17   1.24829900000000     
          18  3.700743415417188E-017
          19  3.700743415417188E-017
          20  -1.23696800000000     
          21  -1.23696800000000     
          22  3.700743415417188E-017
          23   1.23696800000000     
          24   1.23696800000000     
          25  -1.25021700000000     
          26  -3.38773400000000     
          27  -4.64057000000000     
          28  -4.64057000000000     
          29  -3.38773400000000     
          30  -1.25021700000000     
          31   1.25021700000000     
          32   3.38773400000000     
          33   4.64057000000000     
          34   4.64057000000000     
          35   3.38773400000000     
          36   1.25021700000000     
           1           1
           2           2
           3           3
           4           4
           5           5
           6           6
           7           7
           8           8
           9           9
          10          10
          11          11
          12          12
          13          13
          14          14
          15          15
          16          16
          17          17
          18          18
          19          19
          20          20
          21          21
          22          22
          23          23
          24          24
          25          25
          26          26
          27          27
          28          28
          29          29
          30          30
          31          31
          32          32
          33          33
          34          34
          35          35
          36          36
 initial cartes coords mol 1
   6   0.00000   3.52914   1.24695
   6   0.00000   2.84446   2.43285
   6   0.00000   1.42247   2.46379
   6   0.00000   0.68468   3.67980
   6   0.00000  -0.68468   3.67980
   6   0.00000  -1.42247   2.46379
   6   0.00000  -2.84446   2.43285
   6   0.00000  -3.52914   1.24695
   6   0.00000  -2.84494   0.00000
   6   0.00000  -3.52914  -1.24695
   6   0.00000  -2.84446  -2.43285
   6   0.00000  -1.42247  -2.46379
   6   0.00000  -0.68468  -3.67980
   6   0.00000   0.68468  -3.67980
   6   0.00000   1.42247  -2.46379
   6   0.00000   2.84446  -2.43285
   6   0.00000   3.52914  -1.24695
   6   0.00000   2.84494   0.00000
   6   0.00000   1.42569   0.00000
   6   0.00000   0.71285   1.23469
   6   0.00000  -0.71285   1.23469
   6   0.00000  -1.42569   0.00000
   6   0.00000  -0.71285  -1.23469
   6   0.00000   0.71285  -1.23469
   1   0.00000   4.61418   1.24483
   1   0.00000   3.38514   3.37359
   1   0.00000   1.22904   4.61841
   1   0.00000  -1.22904   4.61841
   1   0.00000  -3.38514   3.37359
   1   0.00000  -4.61418   1.24483
   1   0.00000  -4.61418  -1.24483
   1   0.00000  -3.38514  -3.37359
   1   0.00000  -1.22904  -4.61841
   1   0.00000   1.22904  -4.61841
   1   0.00000   3.38514  -3.37359
   1   0.00000   4.61418  -1.24483
 initial cartes coords mol 2
   6   0.00000   3.53648  -1.24830
   6   0.00000   2.83671  -2.44504
   6   0.00000   1.43414  -2.47894
   6   0.00000   0.68097  -3.70032
   6   0.00000  -0.68097  -3.70032
   6   0.00000  -1.43414  -2.47894
   6   0.00000  -2.83671  -2.44504
   6   0.00000  -3.53648  -1.24830
   6   0.00000  -2.85721   0.00000
   6   0.00000  -3.53648   1.24830
   6   0.00000  -2.83671   2.44504
   6   0.00000  -1.43414   2.47894
   6   0.00000  -0.68097   3.70032
   6   0.00000   0.68097   3.70032
   6   0.00000   1.43414   2.47894
   6   0.00000   2.83671   2.44504
   6   0.00000   3.53648   1.24830
   6   0.00000   2.85721   0.00000
   6   0.00000   1.42548   0.00000
   6   0.00000   0.71019  -1.23697
   6   0.00000  -0.71019  -1.23697
   6   0.00000  -1.42548   0.00000
   6   0.00000  -0.71019   1.23697
   6   0.00000   0.71019   1.23697
   1   0.00000   4.62234  -1.25022
   1   0.00000   3.37985  -3.38773
   1   0.00000   1.22716  -4.64057
   1   0.00000  -1.22716  -4.64057
   1   0.00000  -3.37985  -3.38773
   1   0.00000  -4.62234  -1.25022
   1   0.00000  -4.62234   1.25022
   1   0.00000  -3.37985   3.38773
   1   0.00000  -1.22716   4.64057
   1   0.00000   1.22716   4.64057
   1   0.00000   3.37985   3.38773
   1   0.00000   4.62234   1.25022
 loop 1 0
 mod cartes coords mol 2
   6   0.00000   3.53648  -1.24830
   6   0.00000   2.83671  -2.44504
   6   0.00000   1.43414  -2.47894
   6   0.00000   0.68097  -3.70032
   6   0.00000  -0.68097  -3.70032
   6   0.00000  -1.43414  -2.47894
   6   0.00000  -2.83671  -2.44504
   6   0.00000  -3.53648  -1.24830
   6   0.00000  -2.85721   0.00000
   6   0.00000  -3.53648   1.24830
   6   0.00000  -2.83671   2.44504
   6   0.00000  -1.43414   2.47894
   6   0.00000  -0.68097   3.70032
   6   0.00000   0.68097   3.70032
   6   0.00000   1.43414   2.47894
   6   0.00000   2.83671   2.44504
   6   0.00000   3.53648   1.24830
   6   0.00000   2.85721   0.00000
   6   0.00000   1.42548   0.00000
   6   0.00000   0.71019  -1.23697
   6   0.00000  -0.71019  -1.23697
   6   0.00000  -1.42548   0.00000
   6   0.00000  -0.71019   1.23697
   6   0.00000   0.71019   1.23697
   1   0.00000   4.62234  -1.25022
   1   0.00000   3.37985  -3.38773
   1   0.00000   1.22716  -4.64057
   1   0.00000  -1.22716  -4.64057
   1   0.00000  -3.37985  -3.38773
   1   0.00000  -4.62234  -1.25022
   1   0.00000  -4.62234   1.25022
   1   0.00000  -3.37985   3.38773
   1   0.00000  -1.22716   4.64057
   1   0.00000   1.22716   4.64057
   1   0.00000   3.37985   3.38773
   1   0.00000   4.62234   1.25022
 read in order, maxerr=  9.26 for atom  27
 loop 1 1
 mod cartes coords mol 2
   6   0.00000   3.53648  -1.24830
   6   0.00000   2.83671  -2.44504
   6   0.00000   1.43414  -2.47894
   6   0.00000   0.68097  -3.70032
   6   0.00000  -0.68097  -3.70032
   6   0.00000  -1.43414  -2.47894
   6   0.00000  -2.83671  -2.44504
   6   0.00000  -3.53648  -1.24830
   6   0.00000  -2.85721   0.00000
   6   0.00000  -3.53648   1.24830
   6   0.00000  -2.83671   2.44504
   6   0.00000  -1.43414   2.47894
   6   0.00000  -0.68097   3.70032
   6   0.00000   0.68097   3.70032
   6   0.00000   1.43414   2.47894
   6   0.00000   2.83671   2.44504
   6   0.00000   3.53648   1.24830
   6   0.00000   2.85721   0.00000
   6   0.00000   1.42548   0.00000
   6   0.00000   0.71019  -1.23697
   6   0.00000  -0.71019  -1.23697
   6   0.00000  -1.42548   0.00000
   6   0.00000  -0.71019   1.23697
   6   0.00000   0.71019   1.23697
   1   0.00000   4.62234  -1.25022
   1   0.00000   3.37985  -3.38773
   1   0.00000   1.22716  -4.64057
   1   0.00000  -1.22716  -4.64057
   1   0.00000  -3.37985  -3.38773
   1   0.00000  -4.62234  -1.25022
   1   0.00000  -4.62234   1.25022
   1   0.00000  -3.37985   3.38773
   1   0.00000  -1.22716   4.64057
   1   0.00000   1.22716   4.64057
   1   0.00000   3.37985   3.38773
   1   0.00000   4.62234   1.25022
 read in order, maxerr=  9.26 for atom  27
 loop 1 2
 mod cartes coords mol 2
   6   0.00000  -3.53648  -1.24830
   6   0.00000  -2.83671  -2.44504
   6   0.00000  -1.43414  -2.47894
   6   0.00000  -0.68097  -3.70032
   6   0.00000   0.68097  -3.70032
   6   0.00000   1.43414  -2.47894
   6   0.00000   2.83671  -2.44504
   6   0.00000   3.53648  -1.24830
   6   0.00000   2.85721   0.00000
   6   0.00000   3.53648   1.24830
   6   0.00000   2.83671   2.44504
   6   0.00000   1.43414   2.47894
   6   0.00000   0.68097   3.70032
   6   0.00000  -0.68097   3.70032
   6   0.00000  -1.43414   2.47894
   6   0.00000  -2.83671   2.44504
   6   0.00000  -3.53648   1.24830
   6   0.00000  -2.85721   0.00000
   6   0.00000  -1.42548   0.00000
   6   0.00000  -0.71019  -1.23697
   6   0.00000   0.71019  -1.23697
   6   0.00000   1.42548   0.00000
   6   0.00000   0.71019   1.23697
   6   0.00000  -0.71019   1.23697
   1   0.00000  -4.62234  -1.25022
   1   0.00000  -3.37985  -3.38773
   1   0.00000  -1.22716  -4.64057
   1   0.00000   1.22716  -4.64057
   1   0.00000   3.37985  -3.38773
   1   0.00000   4.62234  -1.25022
   1   0.00000   4.62234   1.25022
   1   0.00000   3.37985   3.38773
   1   0.00000   1.22716   4.64057
   1   0.00000  -1.22716   4.64057
   1   0.00000  -3.37985   3.38773
   1   0.00000  -4.62234   1.25022
 read in order, maxerr=  9.58 for atom  27
 loop 1 3
 mod cartes coords mol 2
   6   0.00000  -3.53648  -1.24830
   6   0.00000  -2.83671  -2.44504
   6   0.00000  -1.43414  -2.47894
   6   0.00000  -0.68097  -3.70032
   6   0.00000   0.68097  -3.70032
   6   0.00000   1.43414  -2.47894
   6   0.00000   2.83671  -2.44504
   6   0.00000   3.53648  -1.24830
   6   0.00000   2.85721   0.00000
   6   0.00000   3.53648   1.24830
   6   0.00000   2.83671   2.44504
   6   0.00000   1.43414   2.47894
   6   0.00000   0.68097   3.70032
   6   0.00000  -0.68097   3.70032
   6   0.00000  -1.43414   2.47894
   6   0.00000  -2.83671   2.44504
   6   0.00000  -3.53648   1.24830
   6   0.00000  -2.85721   0.00000
   6   0.00000  -1.42548   0.00000
   6   0.00000  -0.71019  -1.23697
   6   0.00000   0.71019  -1.23697
   6   0.00000   1.42548   0.00000
   6   0.00000   0.71019   1.23697
   6   0.00000  -0.71019   1.23697
   1   0.00000  -4.62234  -1.25022
   1   0.00000  -3.37985  -3.38773
   1   0.00000  -1.22716  -4.64057
   1   0.00000   1.22716  -4.64057
   1   0.00000   3.37985  -3.38773
   1   0.00000   4.62234  -1.25022
   1   0.00000   4.62234   1.25022
   1   0.00000   3.37985   3.38773
   1   0.00000   1.22716   4.64057
   1   0.00000  -1.22716   4.64057
   1   0.00000  -3.37985   3.38773
   1   0.00000  -4.62234   1.25022
 read in order, maxerr=  9.58 for atom  27
 loop 1 4
 mod cartes coords mol 2
   6   0.00000   3.53648   1.24830
   6   0.00000   2.83671   2.44504
   6   0.00000   1.43414   2.47894
   6   0.00000   0.68097   3.70032
   6   0.00000  -0.68097   3.70032
   6   0.00000  -1.43414   2.47894
   6   0.00000  -2.83671   2.44504
   6   0.00000  -3.53648   1.24830
   6   0.00000  -2.85721  -0.00000
   6   0.00000  -3.53648  -1.24830
   6   0.00000  -2.83671  -2.44504
   6   0.00000  -1.43414  -2.47894
   6   0.00000  -0.68097  -3.70032
   6   0.00000   0.68097  -3.70032
   6   0.00000   1.43414  -2.47894
   6   0.00000   2.83671  -2.44504
   6   0.00000   3.53648  -1.24830
   6   0.00000   2.85721  -0.00000
   6   0.00000   1.42548  -0.00000
   6   0.00000   0.71019   1.23697
   6   0.00000  -0.71019   1.23697
   6   0.00000  -1.42548  -0.00000
   6   0.00000  -0.71019  -1.23697
   6   0.00000   0.71019  -1.23697
   1   0.00000   4.62234   1.25022
   1   0.00000   3.37985   3.38773
   1   0.00000   1.22716   4.64057
   1   0.00000  -1.22716   4.64057
   1   0.00000  -3.37985   3.38773
   1   0.00000  -4.62234   1.25022
   1   0.00000  -4.62234  -1.25022
   1   0.00000  -3.37985  -3.38773
   1   0.00000  -1.22716  -4.64057
   1   0.00000   1.22716  -4.64057
   1   0.00000   3.37985  -3.38773
   1   0.00000   4.62234  -1.25022
 read in order, maxerr=  0.02 for atom  27
 final axis swaps:           1           1          -1
 final xyz swap pattern=           1
 reorder list:
   1   2   3   4   5   6   7   8   9  10  11  12  13  14  15  16  17  18  19  20
  21  22  23  24  25  26  27  28  29  30  31  32  33  34  35  36
 axis signs=           1           1          -1
  6     0.000000  3.536484  1.248299     0.000000  3.529138  1.246946
  6     0.000000  2.836709  2.445037     0.000000  2.844456  2.432851
  6     0.000000  1.434141  2.478940     0.000000  1.422468  2.463787
  6     0.000000  0.680965  3.700321     0.000000  0.684682  3.679797
  6     0.000000 -0.680965  3.700321     0.000000 -0.684682  3.679797
  6     0.000000 -1.434141  2.478940     0.000000 -1.422468  2.463787
  6     0.000000 -2.836709  2.445037     0.000000 -2.844456  2.432851
[...]
                -0.3201    10.2          73 Ag   1257.
  71 B1g  1249. -0.3340    11.2    99.9   1 B3g  -148.
                 0.5268    27.7          67 B3g  1175.
                 0.6682    44.7          74 B3g  1300.
  72 Ag   1249.  0.3221    10.4    99.8  69 Ag   1220.
                 0.9300    86.5          73 Ag   1257.
  73 B1g  1258. -0.9961    99.2    99.6  72 B3g  1248.
  74 B2u  1338.  0.9248    85.5    99.5  76 B1u  1324.
                 0.3611    13.0          78 B1u  1357.
  75 B3u  1338. -0.7493    56.1    99.7  75 B2u  1317.
                -0.6031    36.4          77 B2u  1355.
  76 Ag   1372.  0.9691    93.9   100.0  79 Ag   1358.
  77 B3u  1373.  0.4749    22.6    99.5  75 B2u  1317.
                -0.5277    27.8          77 B2u  1355.
                 0.6075    36.9          80 B2u  1381.
  78 B1g  1423.  0.4355    19.0    99.7  74 B3g  1300.
                 0.8186    67.0          82 B3g  1411.
  79 Ag   1423. -0.9772    95.5    99.9  81 Ag   1402.
  80 B2u  1425. -0.3351    11.2    99.9  76 B1u  1324.
                 0.9092    82.7          78 B1u  1357.
  81 B3u  1425. -0.3357    11.3    99.9  77 B2u  1355.
                -0.7307    53.4          80 B2u  1381.
                 0.4817    23.2          85 B2u  1469.
  82 B2u  1445.  0.9886    97.7    99.5  83 B1u  1432.
  83 B1g  1465.  0.4465    19.9    99.9  82 B3g  1411.
                -0.5305    28.1          84 B3g  1450.
                -0.5986    35.8          89 B3g  1498.
  84 Ag   1465. -0.7912    62.6    99.5  86 Ag   1474.
                -0.5334    28.5          87 Ag   1489.
  85 B1g  1481. -0.8218    67.5    99.8  84 B3g  1450.
                 0.4548    20.7          89 B3g  1498.
  86 Ag   1481. -0.5332    28.4    99.3  86 Ag   1474.
                 0.8187    67.0          87 Ag   1489.
  87 B3u  1518. -0.4491    20.2    99.7  77 B2u  1355.
                -0.7276    52.9          85 B2u  1469.
  88 B2u  1533.  0.8387    70.3    99.6  88 B1u  1497.
                 0.4516    20.4          91 B1u  1534.
  89 B3u  1533. -0.3382    11.4    99.6  85 B2u  1469.
                -0.9100    82.8          90 B2u  1530.
  90 B1g  1573.  0.9822    96.5    99.6  92 B3g  1566.
  91 B2u  1584. -0.4757    22.6    99.9  88 B1u  1497.
                 0.8439    71.2          91 B1u  1534.
  92 Ag   1639.  0.9559    91.4   100.1  94 Ag   1610.
  93 B2u  1654. -0.9552    91.2   100.2  93 B1u  1605.
  94 B3u  1654.  0.9544    91.1    99.8  95 B2u  1616.
  95 Ag   1654.  0.9762    95.3    99.8  96 Ag   1659.
  96 B1g  1654. -0.5262    27.7   100.0   1 B3g  -148.
                 0.3607    13.0          31 B3g   564.
                -0.3680    13.5          74 B3g  1300.
                 0.5662    32.1          89 B3g  1498.
  97 B1g  3155.  0.9362    87.6   100.0  97 B3g  3117.
  98 B2u  3156.  0.9801    96.1   100.0  98 B1u  3117.
  99 B3u  3156. -0.9275    86.0   100.0  99 B2u  3118.
                 0.3409    11.6         106 B2u  3146.
 100 B1g  3158. -0.9266    85.9   100.0 100 B3g  3119.
 101 Ag   3158.  0.9423    88.8   100.0 101 Ag   3120.
                 0.3206    10.3         108 Ag   3152.
 102 B2u  3158.  0.9536    90.9   100.0 102 B1u  3122.
 103 B3u  3173. -0.3234    10.5   100.0  99 B2u  3118.
                -0.7862    61.8         103 B2u  3142.
                -0.5266    27.7         106 B2u  3146.
 104 Ag   3174.  0.8884    78.9   100.0 104 Ag   3143.
                -0.3992    15.9         108 Ag   3152.
 105 B1g  3174.  0.3199    10.2   100.0 100 B3g  3119.
                -0.9214    84.9         105 B3g  3146.
 106 B3u  3175.  0.5987    35.8   100.0 103 B2u  3142.
                -0.7787    60.6         106 B2u  3146.
 107 B2u  3175. -0.9387    88.1   100.0 107 B1u  3151.
 108 Ag   3177.  0.4489    20.1   100.0 104 Ag   3143.
                 0.8589    73.8         108 Ag   3152.
 nber times 1st assigned=           1           0
 nber times 1st assigned=           2           0
 nber times 1st assigned=           3           0
 nber times 1st assigned=           4           0
 nber times 1st assigned=           5           0
 nber times 1st assigned=           6           0
 nber times 1st assigned=           7           0
 nber times 1st assigned=           8           0
 nber times 1st assigned=           9           0
 nber times 1st assigned=          10           0
 nber times 1st assigned=          11           0
 nber times 1st assigned=          12           0
 nber times 1st assigned=          13           0
 nber times 1st assigned=          14           0
 nber times 1st assigned=          15           0
 nber times 1st assigned=          16           0
 nber times 1st assigned=          17           0
 nber times 1st assigned=          18           0
 nber times 1st assigned=          19           0
 nber times 1st assigned=          20           0
 nber times 1st assigned=          21           0
 nber times 1st assigned=          22           0
 nber times 1st assigned=          23           0
 nber times 1st assigned=          24           0
 nber times 1st assigned=          25           0
 nber times 1st assigned=          26           0
 nber times 1st assigned=          27           0
 nber times 1st assigned=          28           0
 nber times 1st assigned=          29           0
 nber times 1st assigned=          30           0
 nber times 1st assigned=          31           0
 nber times 1st assigned=          32           0
 nber times 1st assigned=          33           0
 nber times 1st assigned=          34           0
 nber times 1st assigned=          35           0
 nber times 1st assigned=          36           0
 nber times 1st assigned=          37           0
 nber times 1st assigned=          38           0
 nber times 1st assigned=          39           0
 nber times 1st assigned=          40           0
 nber times 1st assigned=          41           0
 nber times 1st assigned=          42           0
 nber times 1st assigned=          43           0
 nber times 1st assigned=          44           0
 nber times 1st assigned=          45           0
 nber times 1st assigned=          46           0
 nber times 1st assigned=          47           0
 nber times 1st assigned=          48           0
 nber times 1st assigned=          49           0
 nber times 1st assigned=          50           0
 nber times 1st assigned=          51           0
 nber times 1st assigned=          52           0
 nber times 1st assigned=          53           0
 nber times 1st assigned=          54           0
 nber times 1st assigned=          55           0
 nber times 1st assigned=          56           0
 nber times 1st assigned=          57           0
 nber times 1st assigned=          58           0
 nber times 1st assigned=          59           0
 nber times 1st assigned=          60           0
 nber times 1st assigned=          61           0
 nber times 1st assigned=          62           0
 nber times 1st assigned=          63           0
 nber times 1st assigned=          64           0
 nber times 1st assigned=          65           0
 nber times 1st assigned=          66           0
 nber times 1st assigned=          67           0
 nber times 1st assigned=          68           0
 nber times 1st assigned=          69           0
 nber times 1st assigned=          70           0
 nber times 1st assigned=          71           0
 nber times 1st assigned=          72           0
 nber times 1st assigned=          73           0
 nber times 1st assigned=          74           0
 nber times 1st assigned=          75           0
 nber times 1st assigned=          76           0
 nber times 1st assigned=          77           0
 nber times 1st assigned=          78           0
 nber times 1st assigned=          79           0
 nber times 1st assigned=          80           0
 nber times 1st assigned=          81           0
 nber times 1st assigned=          82           0
 nber times 1st assigned=          83           0
 nber times 1st assigned=          84           0
 nber times 1st assigned=          85           0
 nber times 1st assigned=          86           0
 nber times 1st assigned=          87           0
 nber times 1st assigned=          88           0
 nber times 1st assigned=          89           0
 nber times 1st assigned=          90           0
 nber times 1st assigned=          91           0
 nber times 1st assigned=          92           0
 nber times 1st assigned=          93           0
 nber times 1st assigned=          94           0
 nber times 1st assigned=          95           0
 nber times 1st assigned=          96           0
 nber times 1st assigned=          97           0
 nber times 1st assigned=          98           0
 nber times 1st assigned=          99           0
 nber times 1st assigned=         100           0
 nber times 1st assigned=         101           0
 nber times 1st assigned=         102           0
 nber times 1st assigned=         103           0
 nber times 1st assigned=         104           0
 nber times 1st assigned=         105           0
 nber times 1st assigned=         106           0
 nber times 1st assigned=         107           0
 nber times 1st assigned=         108           0
 modes represented=   101.731234868897     
 p1=
    0.    0.    0.    0.   -0.    0.    0.   -0.   -0.   -0.   -0.    0.    0.    0.   -0.   -4.    0.   -0.    0.   -0.
   -0.   -0.   -7.   -0.   -2.   -0.    0.    0.   -0.    0.    0.    0.   -0.   -0.   -0.    0.    1.    0.   -0.    0.
   -0.    0.   -0.   -0.   -0.    0.   -0.   -0.    0.    0.    0.    0.    0.    0.   -0.   -0.    0.   -1.   -0.    0.
   -0.    0.    0.   -0.    2.    0.    0.   -0.    0.    0.   -0.   -2.    0.   -0.   -0.    4.   -0.    0.    1.   -0.
   -0.    0.   -0.   -1.   -0.    1.   -0.    0.   -0.    0.    0.   -0.   -0.   -0.   -3.    0.    0.    0.    0.    0.
    0.    0.   -0.   -0.   -0.   -0.    0.   -0.
 p2=
    0.    0.   -0.    0.    0.    0.   -0.    0.   -0.    0.    0.   -0.   -0.   -0.    0.   -0.   -4.    0.   -0.   -0.
    0.    0.   -0.    7.   -2.   -0.   -0.   -0.   -0.   -0.   -0.   -0.    0.    0.   -0.   -0.   -0.   -0.   -0.    0.
    0.   -0.    0.    0.    0.    0.    0.    0.    0.    0.    0.   -0.   -0.   -0.    0.   -0.    0.   -0.    1.    0.
    0.   -0.   -0.    0.   -2.    0.    0.   -0.    1.    0.    0.    0.    1.   -0.   -0.    0.    0.   -0.   -4.    0.
    1.   -0.    0.   -0.   -0.   -0.   -1.    0.   -0.   -0.   -0.    0.    0.    1.    0.    3.   -0.   -0.    0.    0.
   -0.   -0.   -0.    0.    0.   -0.    0.    0.

 Displacement: in terms of nc of 1 THEN of nc of 2

   1 B2u freq=    -0. Q=  0.000 lam=    -0.0 B3g freq=  -148. Q=  0.000 lam=    -0.0
   2 B3g freq=    -0. Q=  0.000 lam=    -0.0 B1u freq=    -0. Q=  0.000 lam=    -0.0
   3 B2g freq=     0. Q=  0.000 lam=     0.0 B3g freq=    -0. Q=  0.000 lam=    -0.0
   4 B1u freq=     0. Q=  0.000 lam=     0.0 B1g freq=     0. Q=  0.000 lam=     0.0
   5 B3u freq=     0. Q= -0.000 lam=     0.0 B3u freq=     0. Q= -0.000 lam=     0.0
   6 B1g freq=     0. Q=  0.000 lam=     0.0 B2u freq=     0. Q=  0.000 lam=     0.0
   7 Au  freq=    88. Q=  0.000 lam=     0.0 B2g freq=     0. Q=  0.000 lam=     0.0
   8 B1u freq=    88. Q= -0.000 lam=     0.0 B3u freq=    83. Q= -0.000 lam=     0.0
   9 B1u freq=   126. Q= -0.000 lam=     0.0 Au  freq=    87. Q= -0.000 lam=     0.0
  10 B2g freq=   165. Q= -0.000 lam=     0.0 B3u freq=   132. Q= -0.000 lam=     0.0
  11 B3g freq=   227. Q= -0.000 lam=     0.0 B1g freq=   153. Q= -0.000 lam=     0.0
  12 B3g freq=   297. Q=  0.000 lam=     0.0 B2g freq=   228. Q=  0.000 lam=     0.0
  13 B2g freq=   297. Q=  0.000 lam=     0.0 B1g freq=   274. Q=  0.000 lam=     0.0
  14 B1u freq=   302. Q=  0.000 lam=     0.0 Au  freq=   280. Q=  0.000 lam=     0.0
  15 Au  freq=   302. Q= -0.000 lam=     0.0 B2g freq=   297. Q= -0.000 lam=     0.0
  16 Ag  freq=   370. Q= -0.295 lam=    16.1 B3u freq=   304. Q= -0.000 lam=     0.0
  17 B1g freq=   370. Q=  0.000 lam=     0.0 Ag  freq=   365. Q=  0.297 lam=    16.1
  18 B2u freq=   385. Q= -0.000 lam=     0.0 B1u freq=   378. Q= -0.000 lam=     0.0
  19 B3u freq=   385. Q=  0.000 lam=     0.0 B2u freq=   385. Q=  0.000 lam=     0.0
  20 B2g freq=   457. Q= -0.000 lam=     0.0 B3g freq=   420. Q= -0.000 lam=     0.0
  21 B3g freq=   457. Q= -0.000 lam=     0.0 B1g freq=   425. Q= -0.000 lam=     0.0
  22 B3u freq=   481. Q= -0.000 lam=     0.0 B2g freq=   462. Q= -0.000 lam=     0.0
  23 Ag  freq=   485. Q= -0.646 lam=   101.2 B2u freq=   475. Q= -0.000 lam=     0.0
  24 B1g freq=   498. Q= -0.000 lam=     0.0 Ag  freq=   482. Q= -0.641 lam=    99.1
  25 Ag  freq=   498. Q= -0.209 lam=    10.9 Ag  freq=   498. Q= -0.207 lam=    10.7
  26 Au  freq=   530. Q= -0.000 lam=     0.0 Au  freq=   501. Q= -0.000 lam=     0.0
  27 B1u freq=   553. Q=  0.000 lam=     0.0 B3u freq=   539. Q=  0.000 lam=     0.0
  28 Au  freq=   553. Q=  0.000 lam=     0.0 Au  freq=   540. Q=  0.000 lam=     0.0
  29 B2u freq=   565. Q= -0.000 lam=     0.0 B3u freq=   552. Q= -0.000 lam=     0.0
  30 B1u freq=   565. Q=  0.000 lam=     0.0 B1u freq=   554. Q=  0.000 lam=     0.0
  31 B3g freq=   624. Q=  0.000 lam=     0.0 B3g freq=   564. Q=  0.000 lam=     0.0
  32 B1g freq=   646. Q=  0.000 lam=     0.0 B2g freq=   614. Q=  0.000 lam=     0.0
  33 B2g freq=   672. Q= -0.000 lam=     0.0 B1g freq=   640. Q= -0.000 lam=     0.0
  34 B3g freq=   672. Q= -0.000 lam=     0.0 B3g freq=   644. Q= -0.000 lam=     0.0
  35 B2u freq=   681. Q= -0.000 lam=     0.0 B2g freq=   663. Q= -0.000 lam=     0.0
  36 B1g freq=   691. Q=  0.000 lam=     0.0 B1u freq=   677. Q=  0.000 lam=     0.0
  37 Ag  freq=   691. Q=  0.062 lam=     1.3 Ag  freq=   688. Q=  0.051 lam=     0.9
  38 B1u freq=   773. Q=  0.000 lam=     0.0 B3g freq=   693. Q=  0.000 lam=     0.0
  39 Au  freq=   773. Q= -0.000 lam=     0.0 B1g freq=   726. Q= -0.000 lam=     0.0
  40 B2g freq=   776. Q=  0.000 lam=     0.0 Au  freq=   730. Q=  0.000 lam=     0.0
  41 B3g freq=   784. Q= -0.000 lam=     0.0 B3u freq=   752. Q= -0.000 lam=     0.0
  42 B2u freq=   785. Q=  0.000 lam=     0.0 Au  freq=   759. Q=  0.000 lam=     0.0
  43 B3u freq=   785. Q= -0.000 lam=     0.0 B2u freq=   767. Q= -0.000 lam=     0.0
  44 B1u freq=   818. Q= -0.000 lam=     0.0 B1u freq=   779. Q= -0.000 lam=     0.0
  45 Au  freq=   818. Q= -0.000 lam=     0.0 B2g freq=   788. Q= -0.000 lam=     0.0
  46 B2u freq=   824. Q=  0.000 lam=     0.0 B3u freq=   793. Q=  0.000 lam=     0.0
  47 B3u freq=   824. Q= -0.000 lam=     0.0 B1g freq=   793. Q= -0.000 lam=     0.0
  48 B2g freq=   854. Q= -0.000 lam=     0.0 B2u freq=   800. Q= -0.000 lam=     0.0
  49 B3g freq=   854. Q=  0.000 lam=     0.0 B3u freq=   808. Q=  0.000 lam=     0.0
  50 B1u freq=   874. Q=  0.000 lam=     0.0 B2g freq=   813. Q=  0.000 lam=     0.0
  51 B1g freq=   942. Q=  0.000 lam=     0.0 B1u freq=   815. Q=  0.000 lam=     0.0
  52 Au  freq=   960. Q=  0.000 lam=     0.0 Au  freq=   881. Q=  0.000 lam=     0.0
  53 B3g freq=   966. Q=  0.000 lam=     0.0 B1g freq=   885. Q=  0.000 lam=     0.0
  54 B2g freq=   966. Q=  0.000 lam=     0.0 B2g freq=   887. Q=  0.000 lam=     0.0
  55 Au  freq=   977. Q= -0.000 lam=     0.0 B3u freq=   893. Q= -0.000 lam=     0.0
  56 B1u freq=   977. Q= -0.000 lam=     0.0 B3g freq=   933. Q= -0.000 lam=     0.0
  57 B3g freq=   983. Q=  0.000 lam=     0.0 Au  freq=   933. Q=  0.000 lam=     0.0
  58 Ag  freq=  1010. Q= -0.104 lam=     5.4 B2g freq=   934. Q= -0.000 lam=     0.0
  59 B1g freq=  1010. Q= -0.000 lam=     0.0 Ag  freq=   998. Q= -0.095 lam=     4.5
  60 Ag  freq=  1049. Q=  0.020 lam=     0.2 B3g freq=  1009. Q=  0.000 lam=     0.0
  61 B2u freq=  1159. Q= -0.000 lam=     0.0 Ag  freq=  1037. Q= -0.059 lam=     1.8
  62 B3u freq=  1159. Q=  0.000 lam=     0.0 B1u freq=  1131. Q=  0.000 lam=     0.0
  63 B3u freq=  1159. Q=  0.000 lam=     0.0 B2u freq=  1134. Q=  0.000 lam=     0.0
  64 B1g freq=  1182. Q= -0.000 lam=     0.0 B2u freq=  1146. Q= -0.000 lam=     0.0
  65 Ag  freq=  1182. Q=  0.236 lam=    33.0 Ag  freq=  1169. Q=  0.234 lam=    32.1
  66 B2u freq=  1184. Q=  0.000 lam=     0.0 B1u freq=  1174. Q=  0.000 lam=     0.0
  67 B3u freq=  1213. Q=  0.000 lam=     0.0 B3g freq=  1175. Q=  0.000 lam=     0.0
  68 B2u freq=  1237. Q= -0.000 lam=     0.0 B2u freq=  1220. Q= -0.000 lam=     0.0
  69 B3u freq=  1237. Q=  0.000 lam=     0.0 Ag  freq=  1220. Q=  0.089 lam=     4.9
  70 Ag  freq=  1244. Q=  0.002 lam=     0.0 B1u freq=  1222. Q=  0.000 lam=     0.0
  71 B1g freq=  1249. Q= -0.000 lam=     0.0 B2u freq=  1241. Q= -0.000 lam=     0.0
  72 Ag  freq=  1249. Q= -0.293 lam=    53.7 B3g freq=  1248. Q= -0.000 lam=     0.0
  73 B1g freq=  1258. Q=  0.000 lam=     0.0 Ag  freq=  1257. Q=  0.180 lam=    20.4
  74 B2u freq=  1338. Q= -0.000 lam=     0.0 B3g freq=  1300. Q= -0.000 lam=     0.0
  75 B3u freq=  1338. Q= -0.000 lam=     0.0 B2u freq=  1317. Q= -0.000 lam=     0.0
  76 Ag  freq=  1372. Q=  0.547 lam=   205.0 B1u freq=  1324. Q=  0.000 lam=     0.0
  77 B3u freq=  1373. Q= -0.000 lam=     0.0 B2u freq=  1355. Q= -0.000 lam=     0.0
  78 B1g freq=  1423. Q=  0.000 lam=     0.0 B1u freq=  1357. Q=  0.000 lam=     0.0
  79 Ag  freq=  1423. Q=  0.172 lam=    21.1 Ag  freq=  1358. Q=  0.549 lam=   204.9
  80 B2u freq=  1425. Q= -0.000 lam=     0.0 B2u freq=  1381. Q= -0.000 lam=     0.0
  81 B3u freq=  1425. Q= -0.000 lam=     0.0 Ag  freq=  1402. Q= -0.102 lam=     7.3
  82 B2u freq=  1445. Q=  0.000 lam=     0.0 B3g freq=  1411. Q=  0.000 lam=     0.0
  83 B1g freq=  1465. Q= -0.000 lam=     0.0 B1u freq=  1432. Q= -0.000 lam=     0.0
  84 Ag  freq=  1465. Q= -0.167 lam=    20.5 B3g freq=  1450. Q= -0.000 lam=     0.0
  85 B1g freq=  1481. Q= -0.000 lam=     0.0 B2u freq=  1469. Q= -0.000 lam=     0.0
  86 Ag  freq=  1481. Q=  0.109 lam=     8.8 Ag  freq=  1474. Q=  0.001 lam=     0.0
  87 B3u freq=  1518. Q= -0.000 lam=     0.0 Ag  freq=  1489. Q= -0.205 lam=    31.2
  88 B2u freq=  1533. Q=  0.000 lam=     0.0 B1u freq=  1497. Q=  0.000 lam=     0.0
  89 B3u freq=  1533. Q= -0.000 lam=     0.0 B3g freq=  1498. Q= -0.000 lam=     0.0
  90 B1g freq=  1573. Q=  0.000 lam=     0.0 B2u freq=  1530. Q=  0.000 lam=     0.0
  91 B2u freq=  1584. Q=  0.000 lam=     0.0 B1u freq=  1534. Q=  0.000 lam=     0.0
  92 Ag  freq=  1639. Q= -0.060 lam=     3.0 B3g freq=  1566. Q= -0.000 lam=     0.0
  93 B2u freq=  1654. Q= -0.000 lam=     0.0 B1u freq=  1605. Q= -0.000 lam=     0.0
  94 B3u freq=  1654. Q= -0.000 lam=     0.0 Ag  freq=  1610. Q= -0.180 lam=    26.0
  95 Ag  freq=  1654. Q= -0.523 lam=   226.0 B2u freq=  1616. Q= -0.000 lam=     0.0
  96 B1g freq=  1654. Q=  0.000 lam=     0.0 Ag  freq=  1659. Q=  0.533 lam=   235.8
  97 B1g freq=  3155. Q=  0.000 lam=     0.0 B3g freq=  3117. Q=  0.000 lam=     0.0
  98 B2u freq=  3156. Q=  0.000 lam=     0.0 B1u freq=  3117. Q=  0.000 lam=     0.0
  99 B3u freq=  3156. Q=  0.000 lam=     0.0 B2u freq=  3118. Q=  0.000 lam=     0.0
 100 B1g freq=  3158. Q=  0.000 lam=     0.0 B3g freq=  3119. Q=  0.000 lam=     0.0
 101 Ag  freq=  3158. Q=  0.030 lam=     1.4 Ag  freq=  3120. Q=  0.039 lam=     2.4
 102 B2u freq=  3158. Q=  0.000 lam=     0.0 B1u freq=  3122. Q=  0.000 lam=     0.0
 103 B3u freq=  3173. Q= -0.000 lam=     0.0 B2u freq=  3142. Q= -0.000 lam=     0.0
 104 Ag  freq=  3174. Q= -0.012 lam=     0.2 Ag  freq=  3143. Q= -0.037 lam=     2.2
 105 B1g freq=  3174. Q= -0.000 lam=     0.0 B3g freq=  3146. Q= -0.000 lam=     0.0
 106 B3u freq=  3175. Q= -0.000 lam=     0.0 B2u freq=  3146. Q= -0.000 lam=     0.0
 107 B2u freq=  3175. Q=  0.000 lam=     0.0 B1u freq=  3151. Q=  0.000 lam=     0.0
 108 Ag  freq=  3177. Q= -0.053 lam=     4.4 Ag  freq=  3152. Q= -0.033 lam=     1.7

 total reorg energy (cm**-1, kcal/mol)=      712.      702.      2.04      2.01
 Nber of molecules processed=           2
