 Enter ifcurve (0=recti, 1=orth curvi, 2=apprx curvi, -1 = skip
 And atom ordering flag, 0= never changes, 1= use the first order thenceforth,
  2= deduce it (does read on fail), 3= always read it
 Reading file: 
 ./TT-BT_3_C0S0.log                                                             
                                          
  Entering Gaussian System, Link 0=g16                                          
  
 Gaussian format, type: g94, g98, g03= F F F
  #P Geom=AllCheck Guess=TCheck SCRF=Check GenChk RB3LYP/6-311G(d,p) Fre    
 energy type= B3LYP   
 Original G94 input coords:
  6 -2.097894 -1.048712  0.130881
  6 -2.403196  0.297950  0.384293
  6 -1.403487  1.262090  0.433732
  6 -0.087065  0.853444  0.224204
 16  1.380675  1.805689  0.220555
  6  2.300193  0.309074 -0.122813
  6  3.757286  0.326668 -0.276455
  6  4.512126  1.500769 -0.158225
  6  5.890743  1.478787 -0.305570
  6  6.571254  0.282498 -0.585483
  6  8.026131  0.242480 -0.734433
  6  8.869216 -0.819908 -0.512392
  6 10.225441 -0.489800 -0.759980
 16 11.741350 -1.346531 -0.660080
  6 12.606903  0.082889 -1.177081
  6 11.792479  1.152201 -1.410667
  6 10.430083  0.821591 -1.168731
 16  8.917345  1.677996 -1.265752
  6  5.806147 -0.892150 -0.713925
  6  4.431844 -0.873316 -0.556794
  7  1.575863 -0.760572 -0.219411
  6  0.235464 -0.499580 -0.032053
  6 -0.789042 -1.454815 -0.077347
  1 -2.898118 -1.778880  0.098106
  1 -3.433920  0.592513  0.544135
  1 -1.644408  2.299834  0.629610
  1  4.024170  2.443649  0.061853
  1  6.449747  2.398848 -0.181347
  1  8.525507 -1.781220 -0.157291
  1 13.680370  0.036065 -1.276534
  1 12.151615  2.118441 -1.736008
  1  6.297184 -1.824954 -0.963872
  1  3.851226 -1.780734 -0.660474
  1 -0.536861 -2.489591 -0.273900
 nber atoms=          34
  SCF Done:  E(RB3LYP) =  -1980.23020651     A.U. after    1 cycles             
  
          23          40 "  -1980.23020651"
After scan for Atom:   Atom  AN      X      Y      Z        X      Y      Z        X      Y      Z   
After scan for Atom:   Atom  AN      X      Y      Z        X      Y      Z        X      Y      Z   
After scan for Atom:   Atom  AN      X      Y      Z        X      Y      Z        X      Y      Z   
After scan for Atom:   Atom  AN      X      Y      Z        X      Y      Z        X      Y      Z   
After scan for Atom:   Atom  AN      X      Y      Z        X      Y      Z        X      Y      Z   
After scan for Atom:   Atom  AN      X      Y      Z        X      Y      Z        X      Y      Z   
After scan for Atom:   Atom  AN      X      Y      Z        X      Y      Z        X      Y      Z   
After scan for Atom:   Atom  AN      X      Y      Z        X      Y      Z        X      Y      Z   
After scan for Atom:   Atom  AN      X      Y      Z        X      Y      Z        X      Y      Z   
After scan for Atom:   Atom  AN      X      Y      Z        X      Y      Z        X      Y      Z   
After scan for Atom:   Atom  AN      X      Y      Z        X      Y      Z        X      Y      Z   
After scan for Atom:   Atom  AN      X      Y      Z        X      Y      Z        X      Y      Z   
After scan for Atom:   Atom  AN      X      Y      Z        X      Y      Z        X      Y      Z   
After scan for Atom:   Atom  AN      X      Y      Z        X      Y      Z        X      Y      Z   
After scan for Atom:   Atom  AN      X      Y      Z        X      Y      Z        X      Y      Z   
After scan for Atom:   Atom  AN      X      Y      Z        X      Y      Z        X      Y      Z   
After scan for Atom:   Atom  AN      X      Y      Z        X      Y      Z        X      Y      Z   
After scan for Atom:   Atom  AN      X      Y      Z        X      Y      Z        X      Y      Z   
After scan for Atom:   Atom  AN      X      Y      Z        X      Y      Z        X      Y      Z   
After scan for Atom:   Atom  AN      X      Y      Z        X      Y      Z        X      Y      Z   
After scan for Atom:   Atom  AN      X      Y      Z        X      Y      Z        X      Y      Z   
After scan for Atom:   Atom  AN      X      Y      Z        X      Y      Z        X      Y      Z   
After scan for Atom:   Atom  AN      X      Y      Z        X      Y      Z        X      Y      Z   
After scan for Atom:   Atom  AN      X      Y      Z        X      Y      Z        X      Y      Z   
After scan for Atom:   Atom  AN      X      Y      Z        X      Y      Z        X      Y      Z   
After scan for Atom:   Atom  AN      X      Y      Z        X      Y      Z        X      Y      Z   
After scan for Atom:   Atom  AN      X      Y      Z        X      Y      Z        X      Y      Z   
After scan for Atom:   Atom  AN      X      Y      Z        X      Y      Z        X      Y      Z   
After scan for Atom:   Atom  AN      X      Y      Z        X      Y      Z        X      Y      Z   
After scan for Atom:   Atom  AN      X      Y      Z        X      Y      Z        X      Y      Z   
After scan for Atom:   Atom  AN      X      Y      Z        X      Y      Z        X      Y      Z   
After scan for Atom:   Atom  AN      X      Y      Z        X      Y      Z        X      Y      Z   
 g94    frequencies=
     0.0    0.0    0.0    0.0    0.0    0.0   18.1   23.7   44.2   46.2
    69.0  105.4  134.3  158.2  191.5  203.5  209.1  264.5  286.8  336.5
   358.9  364.6  411.5  412.9  430.7  439.5  461.3  468.6  501.2  509.7
   553.8  572.9  573.7  610.3  622.9  625.7  640.2  655.3  692.6  703.0
   715.2  717.2  736.5  747.0  763.5  773.4  821.6  830.8  841.5  862.7
   867.3  872.0  877.4  900.6  952.3  965.1  969.9  980.0  990.7  998.8
  1034.0 1038.5 1082.3 1109.5 1143.0 1144.7 1180.6 1184.3 1209.4 1211.5
  1246.1 1255.2 1275.1 1310.5 1321.1 1339.6 1346.0 1364.2 1380.2 1443.6
  1456.9 1463.3 1488.8 1502.8 1525.1 1543.6 1558.1 1594.8 1596.7 1637.9
  1646.2 3168.2 3168.9 3180.7 3181.3 3185.0 3191.3 3198.4 3207.1 3213.6
  3215.4 3244.9
 g94    symmetries=
                                                 A      A      A      A
       A      A      A      A      A      A      A      A      A      A
       A      A      A      A      A      A      A      A      A      A
       A      A      A      A      A      A      A      A      A      A
       A      A      A      A      A      A      A      A      A      A
       A      A      A      A      A      A      A      A      A      A
       A      A      A      A      A      A      A      A      A      A
       A      A      A      A      A      A      A      A      A      A
       A      A      A      A      A      A      A      A      A      A
       A      A      A      A      A      A      A      A      A      A
       A      A
 atomic masses:
 12.0000 12.0000 12.0000 12.0000 31.9721 12.0000 12.0000 12.0000 12.0000 12.0000
 12.0000 12.0000 12.0000 31.9721 12.0000 12.0000 12.0000 31.9721 12.0000 12.0000
 14.0031 12.0000 12.0000  1.0078  1.0078  1.0078  1.0078  1.0078  1.0078  1.0078
  1.0078  1.0078  1.0078  1.0078
 looking for force constants in 
 ./TT-BT_3_C0S0.fchk                                                            
  
 Cartesian Force Constants                  R   N=        5253                  
  
 n3=         102        5253
 g94-fc frequencies=
    -0.0    0.0    0.0    0.3    0.8    2.5   18.1   23.7   44.2   46.2
    69.0  105.4  134.3  158.2  191.5  203.5  209.1  264.5  286.8  336.5
   358.9  364.7  411.6  412.9  430.7  439.5  461.3  468.7  501.2  509.7
   553.8  572.9  573.7  610.3  622.9  625.7  640.2  655.4  692.6  703.0
   715.2  717.2  736.5  747.0  763.5  773.4  821.6  830.8  841.5  862.7
   867.3  872.0  877.4  900.7  952.3  965.1  970.0  980.0  990.7  998.8
  1034.0 1038.5 1082.3 1109.5 1143.0 1144.7 1180.6 1184.3 1209.4 1211.5
  1246.2 1255.2 1275.1 1310.5 1321.1 1339.6 1346.0 1364.3 1380.2 1443.6
  1457.0 1463.4 1488.8 1502.9 1525.1 1543.6 1558.2 1594.8 1596.8 1637.9
  1646.2 3168.2 3168.9 3180.7 3181.4 3185.0 3191.4 3198.5 3207.2 3213.6
  3215.4 3245.0
 at 99999: n3=         102
 symm operator            1 :  F  nop=           0
 symm operator            2 :  F  nop=           0
 symm operator            3 :  F  nop=           0
 symm operator            4 :  F  nop=           0
 symm operator            5 :  F  nop=           0
 symm operator            6 :  F  nop=           0
 symm operator            7 :  F  nop=           0
 The point group of the molecule is  C1
 Symmetry rotation matrix:
   1.00000   0.00000   0.00000
   0.00000   1.00000   0.00000
   0.00000   0.00000   1.00000

 Projecting out zero-frequency components
 generating redundant internal coords
         300        3600          34
 search for int coords
   1 str   2   1   1.404
   2 str   3   2   1.390
   3 str   4   3   1.394
   4 str   5   4   1.750
   5 str   6   5   1.790
   6 str   7   6   1.465
   7 str   8   7   1.401
   8 str   9   8   1.387
   9 str  10   9   1.404
  10 str  11  10   1.463
  11 str  12  11   1.374
  12 str  13  12   1.418
  13 str  14  13   1.744
  14 str  15  14   1.749
  15 str  16  15   1.364
  16 str  17  13   1.389
  17 str  17  16   1.423
  18 str  18  11   1.771
  19 str  18  17   1.741
  20 str  19  10   1.408
  21 str  20   7   1.405
  22 str  20  19   1.383
  23 str  21   6   1.295
  24 str  22   4   1.414
  25 str  22  21   1.378
  26 str  23   1   1.386
  27 str  23  22   1.401
  28 str  24   1   1.084
  29 str  25   2   1.084
  30 str  26   3   1.083
  31 str  27   8   1.084
  32 str  28   9   1.084
  33 str  29  12   1.081
  34 str  30  15   1.079
  35 str  31  16   1.081
  36 str  32  19   1.083
  37 str  33  20   1.082
  38 str  34  23   1.083
 nber stretches=          38
  39 ben   1   2   3
  40 prop tor   1   2   3   4
  41 prop tor   1   2   3  26
  42 ben   1   2  25
  43 ben   1  23  22
  44 ben   1  23  34
  45 ben   2   1  23
  46 prop tor   2   1  23  22
  47 prop tor   2   1  23  34
  48 ben   2   1  24
  49 ben   2   3   4
  50 prop tor   2   3   4   5
  51 prop tor   2   3   4  22
  52 ben   2   3  26
  53 ben   3   2  25
  54 ben   3   4   5
  55 prop tor   3   4   5   6
  56 ben   3   4  22
  57 prop tor   3   4  22  21
  58 prop tor   3   4  22  23
  59 ben   4   3  26
  60 ben   4   5   6
  61 prop tor   4   5   6   7
  62 prop tor   4   5   6  21
  63 ben   4  22  21
  64 ben   4  22  23
  65 prop tor   4  22  23   1
  66 prop tor   4  22  23  34
  67 ben   5   4  22
  68 prop tor   5   4  22  21
  69 prop tor   5   4  22  23
  70 ben   5   6   7
  71 prop tor   5   6   7   8
  72 prop tor   5   6   7  20
  73 ben   5   6  21
  74 prop tor   5   6  21  22
  75 ben   6   7   8
  76 prop tor   6   7   8   9
  77 prop tor   6   7   8  27
  78 ben   6   7  20
  79 prop tor   6   7  20  19
  80 prop tor   6   7  20  33
  81 ben   6  21  22
  82 prop tor   6  21  22   4
  83 prop tor   6  21  22  23
  84 ben   7   6  21
  85 prop tor   7   6  21  22
  86 ben   7   8   9
  87 prop tor   7   8   9  10
  88 prop tor   7   8   9  28
  89 ben   7   8  27
  90 ben   7  20  19
  91 ben   7  20  33
  92 ben   8   7  20
  93 prop tor   8   7  20  19
  94 prop tor   8   7  20  33
  95 ben   8   9  10
  96 prop tor   8   9  10  11
  97 prop tor   8   9  10  19
  98 ben   8   9  28
  99 ben   9   8  27
 100 ben   9  10  11
 101 prop tor   9  10  11  12
 102 prop tor   9  10  11  18
 103 ben   9  10  19
 104 prop tor   9  10  19  20
 105 prop tor   9  10  19  32
 106 ben  10   9  28
 107 ben  10  11  12
 108 prop tor  10  11  12  13
 109 prop tor  10  11  12  29
 110 ben  10  11  18
 111 prop tor  10  11  18  17
 112 ben  10  19  20
 113 prop tor  10  19  20   7
 114 prop tor  10  19  20  33
 115 ben  10  19  32
 116 ben  11  10  19
 117 prop tor  11  10  19  20
 118 prop tor  11  10  19  32
 119 ben  11  12  13
 120 prop tor  11  12  13  14
 121 prop tor  11  12  13  17
 122 ben  11  12  29
 123 ben  11  18  17
 124 ben  12  11  18
 125 prop tor  12  11  18  17
 126 ben  12  13  14
 127 prop tor  12  13  14  15
 128 ben  12  13  17
 129 prop tor  12  13  17  16
 130 prop tor  12  13  17  18
 131 ben  13  12  29
 132 ben  13  14  15
 133 prop tor  13  14  15  16
 134 prop tor  13  14  15  30
 135 ben  13  17  16
 136 ben  13  17  18
 137 prop tor  13  17  18  11
 138 ben  14  13  17
 139 prop tor  14  13  17  16
 140 prop tor  14  13  17  18
 141 ben  14  15  16
 142 prop tor  14  15  16  17
 143 prop tor  14  15  16  31
 144 ben  14  15  30
 145 ben  15  16  17
 146 prop tor  15  16  17  13
 147 prop tor  15  16  17  18
 148 ben  15  16  31
 149 ben  16  15  30
 150 ben  16  17  18
 151 prop tor  16  17  18  11
 152 prop tor  17  13  14  15
 153 ben  17  16  31
 154 prop tor  18  11  12  13
 155 prop tor  18  11  12  29
 156 prop tor  19  10  11  12
 157 prop tor  19  10  11  18
 158 ben  19  20  33
 159 prop tor  20   7   8   9
 160 prop tor  20   7   8  27
 161 ben  20  19  32
 162 prop tor  21   6   7   8
 163 prop tor  21   6   7  20
 164 ben  21  22  23
 165 prop tor  21  22  23   1
 166 prop tor  21  22  23  34
 167 prop tor  22   4   5   6
 168 ben  22  23  34
 169 prop tor  23   1   2   3
 170 prop tor  23   1   2  25
 171 ben  23   1  24
 172 prop tor  24   1   2   3
 173 prop tor  24   1   2  25
 174 prop tor  24   1  23  22
 175 prop tor  24   1  23  34
 176 prop tor  25   2   3   4
 177 prop tor  25   2   3  26
 178 prop tor  26   3   4   5
 179 prop tor  26   3   4  22
 180 prop tor  27   8   9  10
 181 prop tor  27   8   9  28
 182 prop tor  28   9  10  11
 183 prop tor  28   9  10  19
 184 prop tor  29  12  13  14
 185 prop tor  29  12  13  17
 186 prop tor  30  15  16  17
 187 prop tor  30  15  16  31
 188 prop tor  31  16  17  13
 189 prop tor  31  16  17  18
 190 prop tor  32  19  20   7
 191 prop tor  32  19  20  33
 nber bend=              61
 nber lin bend=           0
 nber prop tor=          92
 nber impr tor=           0
 nber tot redund int=         191
 Eigenvalues of G in red int coords
    Gval -0.00000000 -0.00000000 -0.00000000 -0.00000000 -0.00000000 -0.00000000 -0.00000000 -0.00000000
    Gval -0.00000000 -0.00000000 -0.00000000 -0.00000000 -0.00000000 -0.00000000 -0.00000000 -0.00000000
    Gval -0.00000000 -0.00000000 -0.00000000 -0.00000000 -0.00000000 -0.00000000 -0.00000000 -0.00000000
    Gval -0.00000000 -0.00000000 -0.00000000 -0.00000000 -0.00000000 -0.00000000 -0.00000000 -0.00000000
    Gval -0.00000000 -0.00000000 -0.00000000 -0.00000000 -0.00000000 -0.00000000 -0.00000000 -0.00000000
    Gval -0.00000000 -0.00000000 -0.00000000 -0.00000000 -0.00000000 -0.00000000 -0.00000000 -0.00000000
    Gval  0.00000000  0.00000000  0.00000000  0.00000000  0.00000000  0.00000000  0.00000000  0.00000000
    Gval  0.00000000  0.00000000  0.00000000  0.00000000  0.00000000  0.00000000  0.00000000  0.00000000
    Gval  0.00000000  0.00000000  0.00000000  0.00000000  0.00000000  0.00000000  0.00000000  0.00000000
    Gval  0.00000000  0.00000000  0.00000000  0.00000000  0.00000000  0.00000000  0.00000000  0.00000000
    Gval  0.00000000  0.00000000  0.00000000  0.00000000  0.00000000  0.00000000  0.00000000  0.00000000
    Gval  0.00000000  0.00000000  0.00000000  0.00000000  0.00000000  0.00000000  0.00000000  0.00000052
    Gval  0.00000182  0.00000190  0.00000340  0.00000800  0.00000918  0.00001140  0.00001740  0.00001959
    Gval  0.00002129  0.00002505  0.00003317  0.00003490  0.00003772  0.00004133  0.00004562  0.00004850
    Gval  0.00004896  0.00005000  0.00005144  0.00005680  0.00005833  0.00006969  0.00007233  0.00008170
    Gval  0.00008725  0.00009520  0.00010795  0.00011442  0.00011771  0.00012065  0.00012461  0.00012882
    Gval  0.00014381  0.00015551  0.00015668  0.00018187  0.00018669  0.00020680  0.00021645  0.00025041
    Gval  0.00028879  0.00029775  0.00030094  0.00031406  0.00031716  0.00034095  0.00036067  0.00037778
    Gval  0.00038449  0.00039836  0.00042051  0.00043740  0.00056937  0.00059315  0.00059660  0.00059690
    Gval  0.00059752  0.00060023  0.00060953  0.00061830  0.00062204  0.00062654  0.00063971  0.00064991
    Gval  0.00065024  0.00065507  0.00067133  0.00083494  0.00097597  0.00105448  0.00107499  0.00108139
    Gval  0.00110778  0.00112261  0.00114444  0.00115202  0.00116326  0.00117071  0.00117167  0.00118675
    Gval  0.00119244  0.00129284  0.00163518  0.00179999  0.00180273  0.00208549  0.00234067  0.00249341
    Gval  0.00270233  0.00351745  0.00357081  0.00364503  0.00373262  0.00397405  0.00402233
  5.198219866769141E-007  5.198219866769141E-007
  1.818809011177242E-006  5.198219866769141E-007
  1.902700109768471E-006  5.198219866769141E-007
  3.395397676259090E-006  5.198219866769141E-007
  7.997199783697286E-006  5.198219866769141E-007
  9.179662299729182E-006  5.198219866769141E-007
  1.140119896890643E-005  5.198219866769141E-007
  1.740389222573043E-005  5.198219866769141E-007
  1.959321149513758E-005  5.198219866769141E-007
  2.128733401615365E-005  5.198219866769141E-007
  2.504758512948043E-005  5.198219866769141E-007
  3.317378030853902E-005  5.198219866769141E-007
  3.489953581702902E-005  5.198219866769141E-007
  3.771865824310854E-005  5.198219866769141E-007
  4.132832016797066E-005  5.198219866769141E-007
  4.562280297383928E-005  5.198219866769141E-007
  4.850151334605592E-005  5.198219866769141E-007
  4.895737314269844E-005  5.198219866769141E-007
  5.000165941105243E-005  5.198219866769141E-007
  5.144330205122033E-005  5.198219866769141E-007
  5.680446915412286E-005  5.198219866769141E-007
  5.832596960393789E-005  5.198219866769141E-007
  6.969245194010402E-005  5.198219866769141E-007
  7.233309418689194E-005  5.198219866769141E-007
  8.170276902971945E-005  5.198219866769141E-007
  8.724728514920319E-005  5.198219866769141E-007
  9.519900629860487E-005  5.198219866769141E-007
  1.079533248807700E-004  5.198219866769141E-007
  1.144187933991376E-004  5.198219866769141E-007
  1.177135030260226E-004  5.198219866769141E-007
  1.206451729468860E-004  5.198219866769141E-007
  1.246146280970913E-004  5.198219866769141E-007
  1.288219086108376E-004  5.198219866769141E-007
  1.438126865127566E-004  5.198219866769141E-007
  1.555100555978229E-004  5.198219866769141E-007
  1.566825562856333E-004  5.198219866769141E-007
  1.818661759756476E-004  5.198219866769141E-007
  1.866857763530569E-004  5.198219866769141E-007
  2.067978324200939E-004  5.198219866769141E-007
  2.164505013139234E-004  5.198219866769141E-007
  2.504084574394966E-004  5.198219866769141E-007
  2.887869307795017E-004  5.198219866769141E-007
  2.977538959500495E-004  5.198219866769141E-007
  3.009366968432444E-004  5.198219866769141E-007
  3.140573493324645E-004  5.198219866769141E-007
  3.171588703568494E-004  5.198219866769141E-007
  3.409518024068633E-004  5.198219866769141E-007
  3.606712097941661E-004  5.198219866769141E-007
  3.777810727172331E-004  5.198219866769141E-007
  3.844890453971907E-004  5.198219866769141E-007
  3.983573731131088E-004  5.198219866769141E-007
  4.205090456110072E-004  5.198219866769141E-007
  4.374043510143677E-004  5.198219866769141E-007
  5.693698474117823E-004  5.198219866769141E-007
  5.931537139883514E-004  5.198219866769141E-007
  5.966033743350350E-004  5.198219866769141E-007
  5.969038177949602E-004  5.198219866769141E-007
  5.975153508832919E-004  5.198219866769141E-007
  6.002262514992577E-004  5.198219866769141E-007
  6.095328742119712E-004  5.198219866769141E-007
  6.183033955697526E-004  5.198219866769141E-007
  6.220430981654544E-004  5.198219866769141E-007
  6.265372036748402E-004  5.198219866769141E-007
  6.397069096007218E-004  5.198219866769141E-007
  6.499107884967754E-004  5.198219866769141E-007
  6.502366030243180E-004  5.198219866769141E-007
  6.550657742016866E-004  5.198219866769141E-007
  6.713263543899343E-004  5.198219866769141E-007
  8.349421667877202E-004  5.198219866769141E-007
  9.759720682935999E-004  5.198219866769141E-007
  1.054479811122455E-003  5.198219866769141E-007
  1.074992680766915E-003  5.198219866769141E-007
  1.081389578334689E-003  5.198219866769141E-007
  1.107781513509051E-003  5.198219866769141E-007
  1.122606811663508E-003  5.198219866769141E-007
  1.144435130533347E-003  5.198219866769141E-007
  1.152022180954582E-003  5.198219866769141E-007
  1.163258400248445E-003  5.198219866769141E-007
  1.170714917138840E-003  5.198219866769141E-007
  1.171670504275836E-003  5.198219866769141E-007
  1.186752255848371E-003  5.198219866769141E-007
  1.192438350734157E-003  5.198219866769141E-007
  1.292836238076913E-003  5.198219866769141E-007
  1.635184529104879E-003  5.198219866769141E-007
  1.799990668901133E-003  5.198219866769141E-007
  1.802727508728839E-003  5.198219866769141E-007
  2.085487923085250E-003  5.198219866769141E-007
  2.340669195936035E-003  5.198219866769141E-007
  2.493410798573745E-003  5.198219866769141E-007
  2.702333966628306E-003  5.198219866769141E-007
  3.517447509410644E-003  5.198219866769141E-007
  3.570812813851711E-003  5.198219866769141E-007
  3.645028327055259E-003  5.198219866769141E-007
  3.732622014671364E-003  5.198219866769141E-007
  3.974053277136915E-003  5.198219866769141E-007
  4.022329907231115E-003  5.198219866769141E-007
 cut=1d-8, nber non-redundant internal coords=          96
 Check on Eigenvals of non-red overlap matrix:
  0.00000052  0.00000182  0.00000190  0.00000340  0.00000800  0.00000918  0.00001140  0.00001740
  0.00001959  0.00002129  0.00002505  0.00003317  0.00003490  0.00003772  0.00004133  0.00004562
  0.00004850  0.00004896  0.00005000  0.00005144  0.00005680  0.00005833  0.00006969  0.00007233
  0.00008170  0.00008725  0.00009520  0.00010795  0.00011442  0.00011771  0.00012065  0.00012461
  0.00012882  0.00014381  0.00015551  0.00015668  0.00018187  0.00018669  0.00020680  0.00021645
  0.00025041  0.00028879  0.00029775  0.00030094  0.00031406  0.00031716  0.00034095  0.00036067
  0.00037778  0.00038449  0.00039836  0.00042051  0.00043740  0.00056937  0.00059315  0.00059660
  0.00059690  0.00059752  0.00060023  0.00060953  0.00061830  0.00062204  0.00062654  0.00063971
  0.00064991  0.00065024  0.00065507  0.00067133  0.00083494  0.00097597  0.00105448  0.00107499
  0.00108139  0.00110778  0.00112261  0.00114444  0.00115202  0.00116326  0.00117071  0.00117167
  0.00118675  0.00119244  0.00129284  0.00163518  0.00179999  0.00180273  0.00208549  0.00234067
  0.00249341  0.00270233  0.00351745  0.00357081  0.00364503  0.00373262  0.00397405  0.00402233
 Checking for correct frequencies
 recalc frequencies=
    -0.0   -0.0    0.0    0.0    0.0    0.0   18.1   23.7   44.2   46.2
    69.0  105.4  134.3  158.2  191.5  203.5  209.1  264.5  286.8  336.5
   358.9  364.7  411.6  412.9  430.7  439.5  461.3  468.7  501.2  509.7
   553.8  572.9  573.7  610.3  622.9  625.7  640.2  655.4  692.6  703.0
   715.2  717.2  736.5  747.0  763.5  773.4  821.6  830.8  841.5  862.7
   867.3  872.0  877.4  900.7  952.3  965.1  970.0  980.0  990.7  998.8
  1034.0 1038.5 1082.3 1109.5 1143.0 1144.7 1180.6 1184.3 1209.4 1211.5
  1246.2 1255.2 1275.1 1310.5 1321.1 1339.6 1346.0 1364.3 1380.2 1443.6
  1457.0 1463.4 1488.8 1502.9 1525.1 1543.6 1558.2 1594.8 1596.8 1637.9
  1646.2 3168.2 3168.9 3180.7 3181.4 3185.0 3191.4 3198.5 3207.2 3213.6
  3215.4 3245.0
 recalc symmetries=
                                                                       
                                                                       
                                                                       
                                                                       
                                                                       
                                                                       
                                                                       
                                                                       
                                                                       
                                                                       
               
 recalc freqs check OK
 Zero-point lengths:
 10.0000 10.0000 10.0000 10.0000 10.0000 10.0000 58.2806 50.9187 37.3007 36.4850
 29.8429 24.1514 21.3921 19.7112 17.9133 17.3771 17.1435 15.2433 14.6389 13.5137
 13.0854 12.9823 12.2203 12.1999 11.9459 11.8250 11.5423 11.4517 11.0733 10.9809
 10.5343 10.3578 10.3501 10.0349  9.9332  9.9109  9.7979  9.6841  9.4200  9.3502
  9.2702  9.2568  9.1352  9.0708  8.9719  8.9144  8.6490  8.6008  8.5462  8.4403
  8.4181  8.3954  8.3693  8.2607  8.0337  7.9801  7.9601  7.9190  7.8762  7.8443
  7.7096  7.6928  7.5357  7.4427  7.3328  7.3273  7.2151  7.2038  7.1286  7.1226
  7.0227  6.9973  6.9427  6.8482  6.8207  6.7734  6.7572  6.7119  6.6730  6.5249
  6.4949  6.4806  6.4250  6.3949  6.3481  6.3099  6.2804  6.2079  6.2041  6.1257
  6.1102  4.4044  4.4039  4.3957  4.3953  4.3928  4.3884  4.3835  4.3776  4.3732
  4.3720  4.3520
 highest evec of mol 1
  0.0000  0.0000  0.0000
  0.0000 -0.0000 -0.0000
  0.0000 -0.0000 -0.0000
 -0.0000 -0.0000  0.0000
 -0.0000  0.0000  0.0000
  0.0000 -0.0000 -0.0000
 -0.0000  0.0000  0.0000
  0.0001 -0.0001 -0.0000
 -0.0001 -0.0002 -0.0000
 -0.0000  0.0001 -0.0000
  0.0002 -0.0003  0.0001
  0.0007  0.0024 -0.0008
 -0.0035 -0.0000  0.0004
 -0.0007 -0.0021  0.0007
  0.2813 -0.0264 -0.0218
  0.0187  0.0908 -0.0290
 -0.0071 -0.0022  0.0014
  0.0004 -0.0001 -0.0000
 -0.0001  0.0001  0.0000
  0.0001  0.0001  0.0000
 -0.0000 -0.0000  0.0000
 -0.0000 -0.0000 -0.0000
 -0.0000  0.0000  0.0000
 -0.0001 -0.0001 -0.0000
 -0.0001  0.0000  0.0000
 -0.0000  0.0001  0.0000
 -0.0001  0.0003  0.0001
  0.0003  0.0006  0.0001
 -0.0023 -0.0065  0.0024
 -0.9086  0.0432  0.0831
 -0.0891 -0.2469  0.0829
  0.0002 -0.0004 -0.0001
 -0.0002 -0.0004 -0.0000
  0.0000 -0.0001 -0.0000
 generating redundant internal coords
         300        3600          34
 Adding extra bonds for z output only
           6           6           6           6          16           6
           6           6           6           6           6           6
           6          16           6           6           6          16
           6           6           7           6           6           1
           1           1           1           1           1           1
           1           1           1           1
 search for int coords
   1 str   2   1   1.404
   2 str   3   2   1.390
   3 str   4   3   1.394
   4 str   5   4   1.750
   5 str   6   5   1.790
   6 str   7   6   1.465
   7 str   8   7   1.401
   8 str   9   8   1.387
   9 str  10   9   1.404
  10 str  11  10   1.463
  11 str  12  11   1.374
  12 str  13  12   1.418
  13 str  14  13   1.744
  14 str  15  14   1.749
  15 str  16  15   1.364
  16 str  17  13   1.389
  17 str  17  16   1.423
  18 str  18  11   1.771
  19 str  18  17   1.741
  20 str  19  10   1.408
  21 str  20   7   1.405
  22 str  20  19   1.383
  23 str  21   6   1.295
  24 str  22   4   1.414
  25 str  22  21   1.378
  26 str  23   1   1.386
  27 str  23  22   1.401
  28 str  24   1   1.084
  29 str  25   2   1.084
  30 str  26   3   1.083
  31 str  27   8   1.084
  32 str  28   9   1.084
  33 str  29  12   1.081
  34 str  30  15   1.079
  35 str  31  16   1.081
  36 str  32  19   1.083
  37 str  33  20   1.082
  38 str  34  23   1.083
 nber stretches=          38
  39 ben   1   2   3
  40 prop tor   1   2   3   4
  41 prop tor   1   2   3  26
  42 ben   1   2  25
  43 ben   1  23  22
  44 ben   1  23  34
  45 ben   2   1  23
  46 prop tor   2   1  23  22
  47 prop tor   2   1  23  34
  48 ben   2   1  24
  49 ben   2   3   4
  50 prop tor   2   3   4   5
  51 prop tor   2   3   4  22
  52 ben   2   3  26
  53 ben   3   2  25
  54 ben   3   4   5
  55 prop tor   3   4   5   6
  56 ben   3   4  22
  57 prop tor   3   4  22  21
  58 prop tor   3   4  22  23
  59 ben   4   3  26
  60 ben   4   5   6
  61 prop tor   4   5   6   7
  62 prop tor   4   5   6  21
  63 ben   4  22  21
  64 ben   4  22  23
  65 prop tor   4  22  23   1
  66 prop tor   4  22  23  34
  67 ben   5   4  22
  68 prop tor   5   4  22  21
  69 prop tor   5   4  22  23
  70 ben   5   6   7
  71 prop tor   5   6   7   8
  72 prop tor   5   6   7  20
  73 ben   5   6  21
  74 prop tor   5   6  21  22
  75 ben   6   7   8
  76 prop tor   6   7   8   9
  77 prop tor   6   7   8  27
  78 ben   6   7  20
  79 prop tor   6   7  20  19
  80 prop tor   6   7  20  33
  81 ben   6  21  22
  82 prop tor   6  21  22   4
  83 prop tor   6  21  22  23
  84 ben   7   6  21
  85 prop tor   7   6  21  22
  86 ben   7   8   9
  87 prop tor   7   8   9  10
  88 prop tor   7   8   9  28
  89 ben   7   8  27
  90 ben   7  20  19
  91 ben   7  20  33
  92 ben   8   7  20
  93 prop tor   8   7  20  19
  94 prop tor   8   7  20  33
  95 ben   8   9  10
  96 prop tor   8   9  10  11
  97 prop tor   8   9  10  19
  98 ben   8   9  28
  99 ben   9   8  27
 100 ben   9  10  11
 101 prop tor   9  10  11  12
 102 prop tor   9  10  11  18
 103 ben   9  10  19
 104 prop tor   9  10  19  20
 105 prop tor   9  10  19  32
 106 ben  10   9  28
 107 ben  10  11  12
 108 prop tor  10  11  12  13
 109 prop tor  10  11  12  29
 110 ben  10  11  18
 111 prop tor  10  11  18  17
 112 ben  10  19  20
 113 prop tor  10  19  20   7
 114 prop tor  10  19  20  33
 115 ben  10  19  32
 116 ben  11  10  19
 117 prop tor  11  10  19  20
 118 prop tor  11  10  19  32
 119 ben  11  12  13
 120 prop tor  11  12  13  14
 121 prop tor  11  12  13  17
 122 ben  11  12  29
 123 ben  11  18  17
 124 ben  12  11  18
 125 prop tor  12  11  18  17
 126 ben  12  13  14
 127 prop tor  12  13  14  15
 128 ben  12  13  17
 129 prop tor  12  13  17  16
 130 prop tor  12  13  17  18
 131 ben  13  12  29
 132 ben  13  14  15
 133 prop tor  13  14  15  16
 134 prop tor  13  14  15  30
 135 ben  13  17  16
 136 ben  13  17  18
 137 prop tor  13  17  18  11
 138 ben  14  13  17
 139 prop tor  14  13  17  16
 140 prop tor  14  13  17  18
 141 ben  14  15  16
 142 prop tor  14  15  16  17
 143 prop tor  14  15  16  31
 144 ben  14  15  30
 145 ben  15  16  17
 146 prop tor  15  16  17  13
 147 prop tor  15  16  17  18
 148 ben  15  16  31
 149 ben  16  15  30
 150 ben  16  17  18
 151 prop tor  16  17  18  11
 152 prop tor  17  13  14  15
 153 ben  17  16  31
 154 prop tor  18  11  12  13
 155 prop tor  18  11  12  29
 156 prop tor  19  10  11  12
 157 prop tor  19  10  11  18
 158 ben  19  20  33
 159 prop tor  20   7   8   9
 160 prop tor  20   7   8  27
 161 ben  20  19  32
 162 prop tor  21   6   7   8
 163 prop tor  21   6   7  20
 164 ben  21  22  23
 165 prop tor  21  22  23   1
 166 prop tor  21  22  23  34
 167 prop tor  22   4   5   6
 168 ben  22  23  34
 169 prop tor  23   1   2   3
 170 prop tor  23   1   2  25
 171 ben  23   1  24
 172 prop tor  24   1   2   3
 173 prop tor  24   1   2  25
 174 prop tor  24   1  23  22
 175 prop tor  24   1  23  34
 176 prop tor  25   2   3   4
 177 prop tor  25   2   3  26
 178 prop tor  26   3   4   5
 179 prop tor  26   3   4  22
 180 prop tor  27   8   9  10
 181 prop tor  27   8   9  28
 182 prop tor  28   9  10  11
 183 prop tor  28   9  10  19
 184 prop tor  29  12  13  14
 185 prop tor  29  12  13  17
 186 prop tor  30  15  16  17
 187 prop tor  30  15  16  31
 188 prop tor  31  16  17  13
 189 prop tor  31  16  17  18
 190 prop tor  32  19  20   7
 191 prop tor  32  19  20  33
 nber bend=              61
 nber lin bend=           0
 nber prop tor=          92
 nber impr tor=           0
 nber tot redund int=         191
 Reading file: 
 ./TT-BT_3_C-1S0.log                                                            
                                          
  Entering Gaussian System, Link 0=g16                                          
  
 Gaussian format, type: g94, g98, g03= F F F
  #P Geom=AllCheck Guess=TCheck SCRF=Check GenChk UB3LYP/6-311G(d,p) Fre    
 energy type= B3LYP   
 Original G94 input coords:
  6 -2.126724 -1.025825  0.251233
  6 -2.435972  0.336001  0.355468
  6 -1.416723  1.292564  0.300963
  6 -0.104834  0.867029  0.142858
 16  1.366621  1.822700  0.041602
  6  2.315861  0.274476 -0.138415
  6  3.730015  0.295911 -0.283525
  6  4.499211  1.492862 -0.299129
  6  5.865700  1.473121 -0.441647
  6  6.596778  0.258857 -0.582322
  6  8.018195  0.226748 -0.731052
  6  8.869717 -0.871595 -0.878153
  6 10.222478 -0.503086 -0.997889
 16 11.726454 -1.384417 -1.199827
  6 12.646740  0.118713 -1.213502
  6 11.840941  1.217844 -1.071273
  6 10.475447  0.866454 -0.949958
 16  8.972685  1.749308 -0.747275
  6  5.819268 -0.940875 -0.565990
  6  4.456149 -0.925424 -0.423992
  7  1.551590 -0.804743 -0.116822
  6  0.230560 -0.513711  0.034976
  6 -0.814679 -1.456016  0.092889
  1 -2.926110 -1.759349  0.294827
  1 -3.465830  0.653333  0.478679
  1 -1.650983  2.348710  0.381246
  1  3.998984  2.450730 -0.195917
  1  6.400639  2.417539 -0.446384
  1  8.511672 -1.890481 -0.896831
  1 13.718619  0.082042 -1.326146
  1 12.220813  2.231404 -1.055598
  1  6.318863 -1.898028 -0.668816
  1  3.893972 -1.851242 -0.415243
  1 -0.569747 -2.508844  0.011715
 nber atoms=          34
  SCF Done:  E(UB3LYP) =  -1980.27099132     A.U. after    1 cycles             
  
          23          40 "  -1980.27099132"
After scan for Atom:   Atom  AN      X      Y      Z        X      Y      Z        X      Y      Z   
After scan for Atom:   Atom  AN      X      Y      Z        X      Y      Z        X      Y      Z   
After scan for Atom:   Atom  AN      X      Y      Z        X      Y      Z        X      Y      Z   
After scan for Atom:   Atom  AN      X      Y      Z        X      Y      Z        X      Y      Z   
After scan for Atom:   Atom  AN      X      Y      Z        X      Y      Z        X      Y      Z   
After scan for Atom:   Atom  AN      X      Y      Z        X      Y      Z        X      Y      Z   
After scan for Atom:   Atom  AN      X      Y      Z        X      Y      Z        X      Y      Z   
After scan for Atom:   Atom  AN      X      Y      Z        X      Y      Z        X      Y      Z   
After scan for Atom:   Atom  AN      X      Y      Z        X      Y      Z        X      Y      Z   
After scan for Atom:   Atom  AN      X      Y      Z        X      Y      Z        X      Y      Z   
After scan for Atom:   Atom  AN      X      Y      Z        X      Y      Z        X      Y      Z   
After scan for Atom:   Atom  AN      X      Y      Z        X      Y      Z        X      Y      Z   
After scan for Atom:   Atom  AN      X      Y      Z        X      Y      Z        X      Y      Z   
After scan for Atom:   Atom  AN      X      Y      Z        X      Y      Z        X      Y      Z   
After scan for Atom:   Atom  AN      X      Y      Z        X      Y      Z        X      Y      Z   
After scan for Atom:   Atom  AN      X      Y      Z        X      Y      Z        X      Y      Z   
After scan for Atom:   Atom  AN      X      Y      Z        X      Y      Z        X      Y      Z   
After scan for Atom:   Atom  AN      X      Y      Z        X      Y      Z        X      Y      Z   
After scan for Atom:   Atom  AN      X      Y      Z        X      Y      Z        X      Y      Z   
After scan for Atom:   Atom  AN      X      Y      Z        X      Y      Z        X      Y      Z   
After scan for Atom:   Atom  AN      X      Y      Z        X      Y      Z        X      Y      Z   
After scan for Atom:   Atom  AN      X      Y      Z        X      Y      Z        X      Y      Z   
After scan for Atom:   Atom  AN      X      Y      Z        X      Y      Z        X      Y      Z   
After scan for Atom:   Atom  AN      X      Y      Z        X      Y      Z        X      Y      Z   
After scan for Atom:   Atom  AN      X      Y      Z        X      Y      Z        X      Y      Z   
After scan for Atom:   Atom  AN      X      Y      Z        X      Y      Z        X      Y      Z   
After scan for Atom:   Atom  AN      X      Y      Z        X      Y      Z        X      Y      Z   
After scan for Atom:   Atom  AN      X      Y      Z        X      Y      Z        X      Y      Z   
After scan for Atom:   Atom  AN      X      Y      Z        X      Y      Z        X      Y      Z   
After scan for Atom:   Atom  AN      X      Y      Z        X      Y      Z        X      Y      Z   
After scan for Atom:   Atom  AN      X      Y      Z        X      Y      Z        X      Y      Z   
After scan for Atom:   Atom  AN      X      Y      Z        X      Y      Z        X      Y      Z   
 g94    frequencies=
     0.0    0.0    0.0    0.0    0.0    0.0   20.2   23.9   47.3   63.0
    65.8  111.6  116.2  158.7  181.5  190.8  206.3  252.9  267.9  312.2
   336.8  364.2  411.9  412.5  425.9  432.0  436.1  451.9  460.1  501.2
   527.3  546.1  561.0  565.8  588.4  604.1  629.6  635.0  638.2  668.1
   689.7  708.3  708.5  721.7  739.4  744.7  747.9  777.5  804.5  808.6
   839.1  841.1  866.6  885.6  899.6  921.6  939.0  947.0  958.4  964.3
   998.7 1035.1 1070.9 1092.8 1130.2 1133.1 1168.6 1169.3 1199.4 1203.9
  1239.3 1242.8 1272.0 1315.3 1317.9 1332.4 1351.5 1357.3 1393.5 1431.6
  1454.5 1466.4 1478.1 1484.0 1493.3 1495.1 1514.1 1532.4 1582.6 1611.9
  1639.7 3141.3 3141.7 3155.3 3158.0 3162.3 3171.1 3180.0 3190.6 3191.0
  3215.1 3242.1
 g94    symmetries=
                                                 A      A      A      A
       A      A      A      A      A      A      A      A      A      A
       A      A      A      A      A      A      A      A      A      A
       A      A      A      A      A      A      A      A      A      A
       A      A      A      A      A      A      A      A      A      A
       A      A      A      A      A      A      A      A      A      A
       A      A      A      A      A      A      A      A      A      A
       A      A      A      A      A      A      A      A      A      A
       A      A      A      A      A      A      A      A      A      A
       A      A      A      A      A      A      A      A      A      A
       A      A
 atomic masses:
 12.0000 12.0000 12.0000 12.0000 31.9721 12.0000 12.0000 12.0000 12.0000 12.0000
 12.0000 12.0000 12.0000 31.9721 12.0000 12.0000 12.0000 31.9721 12.0000 12.0000
 14.0031 12.0000 12.0000  1.0078  1.0078  1.0078  1.0078  1.0078  1.0078  1.0078
  1.0078  1.0078  1.0078  1.0078
 looking for force constants in 
 ./TT-BT_3_C-1S0.fchk                                                           
  
 Cartesian Force Constants                  R   N=        5253                  
  
 n3=         102        5253
 g94-fc frequencies=
    -1.7   -0.9   -0.0    0.0    0.0    1.7   20.2   23.9   47.3   63.0
    65.8  111.6  116.2  158.7  181.5  190.8  206.3  252.9  267.9  312.2
   336.8  364.2  411.9  412.5  425.9  432.1  436.1  451.9  460.1  501.2
   527.3  546.1  561.1  565.8  588.4  604.1  629.6  635.0  638.2  668.1
   689.7  708.3  708.5  721.8  739.4  744.7  747.9  777.6  804.5  808.6
   839.1  841.2  866.6  885.6  899.6  921.7  939.0  947.0  958.4  964.4
   998.7 1035.1 1070.9 1092.9 1130.3 1133.1 1168.7 1169.3 1199.4 1203.9
  1239.4 1242.8 1272.0 1315.3 1317.9 1332.4 1351.5 1357.4 1393.5 1431.7
  1454.5 1466.4 1478.1 1484.0 1493.3 1495.1 1514.1 1532.4 1582.6 1611.9
  1639.7 3141.3 3141.8 3155.4 3158.1 3162.3 3171.2 3180.1 3190.7 3191.1
  3215.2 3242.2
 at 99999: n3=         102
 symm operator            1 :  F  nop=           0
 symm operator            2 :  F  nop=           0
 symm operator            3 :  F  nop=           0
 symm operator            4 :  F  nop=           0
 symm operator            5 :  F  nop=           0
 symm operator            6 :  F  nop=           0
 symm operator            7 :  F  nop=           0
 The point group of the molecule is  C1
 Symmetry rotation matrix:
   1.00000   0.00000   0.00000
   0.00000   1.00000   0.00000
   0.00000   0.00000   1.00000

 Projecting out zero-frequency components
 generating redundant internal coords
         300        3600          34
 search for int coords
   1 str   2   1   1.400
   2 str   3   2   1.399
   3 str   4   3   1.388
   4 str   5   4   1.757
   5 str   6   5   1.825
   6 str   7   6   1.422
   7 str   8   7   1.423
   8 str   9   8   1.374
   9 str  10   9   1.424
  10 str  11  10   1.430
  11 str  12  11   1.398
  12 str  13  12   1.407
  13 str  14  13   1.755
  14 str  15  14   1.763
  15 str  16  15   1.370
  16 str  17  13   1.394
  17 str  17  16   1.415
  18 str  18  11   1.797
  19 str  18  17   1.755
  20 str  19  10   1.430
  21 str  20   7   1.428
  22 str  20  19   1.371
  23 str  21   6   1.323
  24 str  22   4   1.425
  25 str  22  21   1.361
  26 str  23   1   1.390
  27 str  23  22   1.408
  28 str  24   1   1.086
  29 str  25   2   1.085
  30 str  26   3   1.085
  31 str  27   8   1.086
  32 str  28   9   1.085
  33 str  29  12   1.080
  34 str  30  15   1.078
  35 str  31  16   1.083
  36 str  32  19   1.085
  37 str  33  20   1.083
  38 str  34  23   1.084
 nber stretches=          38
  39 ben   1   2   3
  40 prop tor   1   2   3   4
  41 prop tor   1   2   3  26
  42 ben   1   2  25
  43 ben   1  23  22
  44 ben   1  23  34
  45 ben   2   1  23
  46 prop tor   2   1  23  22
  47 prop tor   2   1  23  34
  48 ben   2   1  24
  49 ben   2   3   4
  50 prop tor   2   3   4   5
  51 prop tor   2   3   4  22
  52 ben   2   3  26
  53 ben   3   2  25
  54 ben   3   4   5
  55 prop tor   3   4   5   6
  56 ben   3   4  22
  57 prop tor   3   4  22  21
  58 prop tor   3   4  22  23
  59 ben   4   3  26
  60 ben   4   5   6
  61 prop tor   4   5   6   7
  62 prop tor   4   5   6  21
  63 ben   4  22  21
  64 ben   4  22  23
  65 prop tor   4  22  23   1
  66 prop tor   4  22  23  34
  67 ben   5   4  22
  68 prop tor   5   4  22  21
  69 prop tor   5   4  22  23
  70 ben   5   6   7
  71 prop tor   5   6   7   8
  72 prop tor   5   6   7  20
  73 ben   5   6  21
  74 prop tor   5   6  21  22
  75 ben   6   7   8
  76 prop tor   6   7   8   9
  77 prop tor   6   7   8  27
  78 ben   6   7  20
  79 prop tor   6   7  20  19
  80 prop tor   6   7  20  33
  81 ben   6  21  22
  82 prop tor   6  21  22   4
  83 prop tor   6  21  22  23
  84 ben   7   6  21
  85 prop tor   7   6  21  22
  86 ben   7   8   9
  87 prop tor   7   8   9  10
  88 prop tor   7   8   9  28
  89 ben   7   8  27
  90 ben   7  20  19
  91 ben   7  20  33
  92 ben   8   7  20
  93 prop tor   8   7  20  19
  94 prop tor   8   7  20  33
  95 ben   8   9  10
  96 prop tor   8   9  10  11
  97 prop tor   8   9  10  19
  98 ben   8   9  28
  99 ben   9   8  27
 100 ben   9  10  11
 101 prop tor   9  10  11  12
 102 prop tor   9  10  11  18
 103 ben   9  10  19
 104 prop tor   9  10  19  20
 105 prop tor   9  10  19  32
 106 ben  10   9  28
 107 ben  10  11  12
 108 prop tor  10  11  12  13
 109 prop tor  10  11  12  29
 110 ben  10  11  18
 111 prop tor  10  11  18  17
 112 ben  10  19  20
 113 prop tor  10  19  20   7
 114 prop tor  10  19  20  33
 115 ben  10  19  32
 116 ben  11  10  19
 117 prop tor  11  10  19  20
 118 prop tor  11  10  19  32
 119 ben  11  12  13
 120 prop tor  11  12  13  14
 121 prop tor  11  12  13  17
 122 ben  11  12  29
 123 ben  11  18  17
 124 ben  12  11  18
 125 prop tor  12  11  18  17
 126 ben  12  13  14
 127 prop tor  12  13  14  15
 128 ben  12  13  17
 129 prop tor  12  13  17  16
 130 prop tor  12  13  17  18
 131 ben  13  12  29
 132 ben  13  14  15
 133 prop tor  13  14  15  16
 134 prop tor  13  14  15  30
 135 ben  13  17  16
 136 ben  13  17  18
 137 prop tor  13  17  18  11
 138 ben  14  13  17
 139 prop tor  14  13  17  16
 140 prop tor  14  13  17  18
 141 ben  14  15  16
 142 prop tor  14  15  16  17
 143 prop tor  14  15  16  31
 144 ben  14  15  30
 145 ben  15  16  17
 146 prop tor  15  16  17  13
 147 prop tor  15  16  17  18
 148 ben  15  16  31
 149 ben  16  15  30
 150 ben  16  17  18
 151 prop tor  16  17  18  11
 152 prop tor  17  13  14  15
 153 ben  17  16  31
 154 prop tor  18  11  12  13
 155 prop tor  18  11  12  29
 156 prop tor  19  10  11  12
 157 prop tor  19  10  11  18
 158 ben  19  20  33
 159 prop tor  20   7   8   9
 160 prop tor  20   7   8  27
 161 ben  20  19  32
 162 prop tor  21   6   7   8
 163 prop tor  21   6   7  20
 164 ben  21  22  23
 165 prop tor  21  22  23   1
 166 prop tor  21  22  23  34
 167 prop tor  22   4   5   6
 168 ben  22  23  34
 169 prop tor  23   1   2   3
 170 prop tor  23   1   2  25
 171 ben  23   1  24
 172 prop tor  24   1   2   3
 173 prop tor  24   1   2  25
 174 prop tor  24   1  23  22
 175 prop tor  24   1  23  34
 176 prop tor  25   2   3   4
 177 prop tor  25   2   3  26
 178 prop tor  26   3   4   5
 179 prop tor  26   3   4  22
 180 prop tor  27   8   9  10
 181 prop tor  27   8   9  28
 182 prop tor  28   9  10  11
 183 prop tor  28   9  10  19
 184 prop tor  29  12  13  14
 185 prop tor  29  12  13  17
 186 prop tor  30  15  16  17
 187 prop tor  30  15  16  31
 188 prop tor  31  16  17  13
 189 prop tor  31  16  17  18
 190 prop tor  32  19  20   7
 191 prop tor  32  19  20  33
 nber bend=              61
 nber lin bend=           0
 nber prop tor=          92
 nber impr tor=           0
 nber tot redund int=         191
 Eigenvalues of G in red int coords
    Gval -0.00000000 -0.00000000 -0.00000000 -0.00000000 -0.00000000 -0.00000000 -0.00000000 -0.00000000
    Gval -0.00000000 -0.00000000 -0.00000000 -0.00000000 -0.00000000 -0.00000000 -0.00000000 -0.00000000
    Gval -0.00000000 -0.00000000 -0.00000000 -0.00000000 -0.00000000 -0.00000000 -0.00000000 -0.00000000
    Gval -0.00000000 -0.00000000 -0.00000000 -0.00000000 -0.00000000 -0.00000000 -0.00000000 -0.00000000
    Gval -0.00000000 -0.00000000 -0.00000000 -0.00000000 -0.00000000 -0.00000000 -0.00000000 -0.00000000
    Gval -0.00000000 -0.00000000 -0.00000000 -0.00000000 -0.00000000 -0.00000000  0.00000000  0.00000000
    Gval  0.00000000  0.00000000  0.00000000  0.00000000  0.00000000  0.00000000  0.00000000  0.00000000
    Gval  0.00000000  0.00000000  0.00000000  0.00000000  0.00000000  0.00000000  0.00000000  0.00000000
    Gval  0.00000000  0.00000000  0.00000000  0.00000000  0.00000000  0.00000000  0.00000000  0.00000000
    Gval  0.00000000  0.00000000  0.00000000  0.00000000  0.00000000  0.00000000  0.00000000  0.00000000
    Gval  0.00000000  0.00000000  0.00000000  0.00000000  0.00000000  0.00000000  0.00000000  0.00000000
    Gval  0.00000000  0.00000000  0.00000000  0.00000000  0.00000000  0.00000000  0.00000000  0.00000050
    Gval  0.00000185  0.00000217  0.00000301  0.00000837  0.00000909  0.00001212  0.00001662  0.00001952
    Gval  0.00002123  0.00002450  0.00003305  0.00003496  0.00003738  0.00004156  0.00004764  0.00004849
    Gval  0.00004872  0.00005017  0.00005152  0.00005589  0.00005839  0.00006908  0.00007160  0.00008111
    Gval  0.00008703  0.00009583  0.00010795  0.00011533  0.00011591  0.00012006  0.00012471  0.00012875
    Gval  0.00014160  0.00015517  0.00015531  0.00018415  0.00019865  0.00019966  0.00020696  0.00024760
    Gval  0.00029023  0.00029581  0.00029810  0.00030963  0.00031482  0.00034994  0.00036023  0.00037553
    Gval  0.00038086  0.00039640  0.00042418  0.00044260  0.00057756  0.00059316  0.00059338  0.00059660
    Gval  0.00059743  0.00059774  0.00059978  0.00061834  0.00062162  0.00062618  0.00063969  0.00064553
    Gval  0.00064862  0.00065470  0.00066750  0.00083259  0.00098820  0.00105185  0.00107180  0.00108124
    Gval  0.00110116  0.00111959  0.00114329  0.00114933  0.00115884  0.00116624  0.00116891  0.00118460
    Gval  0.00121435  0.00129933  0.00162777  0.00179763  0.00181780  0.00210401  0.00231294  0.00250244
    Gval  0.00268891  0.00350021  0.00353981  0.00362968  0.00369043  0.00395634  0.00401304
  4.990085416256738E-007  4.990085416256738E-007
  1.845390266194657E-006  4.990085416256738E-007
  2.168864424702224E-006  4.990085416256738E-007
  3.005427194363422E-006  4.990085416256738E-007
  8.369434893231049E-006  4.990085416256738E-007
  9.090319648623184E-006  4.990085416256738E-007
  1.211649290957956E-005  4.990085416256738E-007
  1.661682532099610E-005  4.990085416256738E-007
  1.952325527273141E-005  4.990085416256738E-007
  2.122873112513992E-005  4.990085416256738E-007
  2.449717794211386E-005  4.990085416256738E-007
  3.304954417837475E-005  4.990085416256738E-007
  3.496454252392159E-005  4.990085416256738E-007
  3.737596792817093E-005  4.990085416256738E-007
  4.155611932655759E-005  4.990085416256738E-007
  4.764087676277260E-005  4.990085416256738E-007
  4.848971172815421E-005  4.990085416256738E-007
  4.872337609612719E-005  4.990085416256738E-007
  5.016788073955474E-005  4.990085416256738E-007
  5.151965141852759E-005  4.990085416256738E-007
  5.588947229744530E-005  4.990085416256738E-007
  5.839204505211722E-005  4.990085416256738E-007
  6.908136538864000E-005  4.990085416256738E-007
  7.159934428740436E-005  4.990085416256738E-007
  8.110900260432736E-005  4.990085416256738E-007
  8.702751465454265E-005  4.990085416256738E-007
  9.582857107687021E-005  4.990085416256738E-007
  1.079522379475118E-004  4.990085416256738E-007
  1.153256217882087E-004  4.990085416256738E-007
  1.159060650685641E-004  4.990085416256738E-007
  1.200625959869259E-004  4.990085416256738E-007
  1.247090640553776E-004  4.990085416256738E-007
  1.287454256690517E-004  4.990085416256738E-007
  1.415975835005155E-004  4.990085416256738E-007
  1.551743528320835E-004  4.990085416256738E-007
  1.553101753439263E-004  4.990085416256738E-007
  1.841471388472720E-004  4.990085416256738E-007
  1.986477566169224E-004  4.990085416256738E-007
  1.996573675180601E-004  4.990085416256738E-007
  2.069628231809947E-004  4.990085416256738E-007
  2.476004238719731E-004  4.990085416256738E-007
  2.902342650376007E-004  4.990085416256738E-007
  2.958132988211662E-004  4.990085416256738E-007
  2.981026448793833E-004  4.990085416256738E-007
  3.096295089545307E-004  4.990085416256738E-007
  3.148213615462564E-004  4.990085416256738E-007
  3.499361788287155E-004  4.990085416256738E-007
  3.602349854260746E-004  4.990085416256738E-007
  3.755346764936280E-004  4.990085416256738E-007
  3.808616248727994E-004  4.990085416256738E-007
  3.964027031292145E-004  4.990085416256738E-007
  4.241821902505778E-004  4.990085416256738E-007
  4.425969011806488E-004  4.990085416256738E-007
  5.775626437828026E-004  4.990085416256738E-007
  5.931613988221719E-004  4.990085416256738E-007
  5.933782771918574E-004  4.990085416256738E-007
  5.966004785621560E-004  4.990085416256738E-007
  5.974320558324299E-004  4.990085416256738E-007
  5.977385061034058E-004  4.990085416256738E-007
  5.997821520842129E-004  4.990085416256738E-007
  6.183430045346731E-004  4.990085416256738E-007
  6.216176213684624E-004  4.990085416256738E-007
  6.261831985304045E-004  4.990085416256738E-007
  6.396909929464473E-004  4.990085416256738E-007
  6.455298312705339E-004  4.990085416256738E-007
  6.486190967662024E-004  4.990085416256738E-007
  6.546973909689782E-004  4.990085416256738E-007
  6.674953399311079E-004  4.990085416256738E-007
  8.325949501906041E-004  4.990085416256738E-007
  9.881966895747820E-004  4.990085416256738E-007
  1.051851803229156E-003  4.990085416256738E-007
  1.071799090918967E-003  4.990085416256738E-007
  1.081239332383711E-003  4.990085416256738E-007
  1.101158395140088E-003  4.990085416256738E-007
  1.119590222184037E-003  4.990085416256738E-007
  1.143293708773661E-003  4.990085416256738E-007
  1.149331064695754E-003  4.990085416256738E-007
  1.158839536111688E-003  4.990085416256738E-007
  1.166238344941005E-003  4.990085416256738E-007
  1.168911833037543E-003  4.990085416256738E-007
  1.184599017658146E-003  4.990085416256738E-007
  1.214345879379201E-003  4.990085416256738E-007
  1.299328789513873E-003  4.990085416256738E-007
  1.627769887997601E-003  4.990085416256738E-007
  1.797632211704400E-003  4.990085416256738E-007
  1.817795239768355E-003  4.990085416256738E-007
  2.104007126037420E-003  4.990085416256738E-007
  2.312943568499098E-003  4.990085416256738E-007
  2.502436574045340E-003  4.990085416256738E-007
  2.688913773121001E-003  4.990085416256738E-007
  3.500211796014499E-003  4.990085416256738E-007
  3.539811066346691E-003  4.990085416256738E-007
  3.629682963425561E-003  4.990085416256738E-007
  3.690431225402440E-003  4.990085416256738E-007
  3.956342268374263E-003  4.990085416256738E-007
  4.013035366807172E-003  4.990085416256738E-007
 cut=1d-8, nber non-redundant internal coords=          96
 Check on Eigenvals of non-red overlap matrix:
  0.00000050  0.00000185  0.00000217  0.00000301  0.00000837  0.00000909  0.00001212  0.00001662
  0.00001952  0.00002123  0.00002450  0.00003305  0.00003496  0.00003738  0.00004156  0.00004764
  0.00004849  0.00004872  0.00005017  0.00005152  0.00005589  0.00005839  0.00006908  0.00007160
  0.00008111  0.00008703  0.00009583  0.00010795  0.00011533  0.00011591  0.00012006  0.00012471
  0.00012875  0.00014160  0.00015517  0.00015531  0.00018415  0.00019865  0.00019966  0.00020696
  0.00024760  0.00029023  0.00029581  0.00029810  0.00030963  0.00031482  0.00034994  0.00036023
  0.00037553  0.00038086  0.00039640  0.00042418  0.00044260  0.00057756  0.00059316  0.00059338
  0.00059660  0.00059743  0.00059774  0.00059978  0.00061834  0.00062162  0.00062618  0.00063969
  0.00064553  0.00064862  0.00065470  0.00066750  0.00083259  0.00098820  0.00105185  0.00107180
  0.00108124  0.00110116  0.00111959  0.00114329  0.00114933  0.00115884  0.00116624  0.00116891
  0.00118460  0.00121435  0.00129933  0.00162777  0.00179763  0.00181780  0.00210401  0.00231294
  0.00250244  0.00268891  0.00350021  0.00353981  0.00362968  0.00369043  0.00395634  0.00401304
 Checking for correct frequencies
 recalc frequencies=
    -0.0   -0.0   -0.0   -0.0    0.0    0.0   20.2   23.9   47.3   63.0
    65.8  111.6  116.2  158.7  181.5  190.8  206.3  252.9  267.9  312.2
   336.8  364.2  411.9  412.5  425.9  432.1  436.1  451.9  460.1  501.2
   527.3  546.1  561.1  565.8  588.4  604.1  629.6  635.0  638.2  668.1
   689.7  708.3  708.5  721.8  739.4  744.7  747.9  777.6  804.5  808.6
   839.1  841.2  866.6  885.6  899.6  921.7  939.0  947.0  958.4  964.4
   998.7 1035.1 1070.9 1092.9 1130.3 1133.1 1168.7 1169.3 1199.4 1203.9
  1239.4 1242.8 1272.0 1315.3 1317.9 1332.4 1351.5 1357.4 1393.5 1431.7
  1454.5 1466.4 1478.1 1484.0 1493.3 1495.1 1514.1 1532.4 1582.6 1611.9
  1639.7 3141.3 3141.8 3155.4 3158.1 3162.3 3171.2 3180.1 3190.7 3191.1
  3215.2 3242.2
 recalc symmetries=
                                                                       
                                                                       
                                                                       
                                                                       
                                                                       
                                                                       
                                                                       
                                                                       
                                                                       
                                                                       
               
 recalc freqs check OK
 Zero-point lengths:
 10.0000 10.0000 10.0000 10.0000 10.0000 10.0000 55.1990 50.7397 36.0535 31.2369
 30.5592 23.4670 22.9956 19.6790 18.4006 17.9486 17.2614 15.5897 15.1475 14.0306
 13.5091 12.9909 12.2146 12.2057 12.0124 11.9269 11.8713 11.6622 11.5573 11.0740
 10.7964 10.6082 10.4662 10.4223 10.2200 10.0867  9.8803  9.8382  9.8136  9.5914
  9.4399  9.3150  9.3137  9.2278  9.1169  9.0843  9.0648  8.8905  8.7404  8.7181
  8.5582  8.5478  8.4213  8.3304  8.2655  8.1660  8.0903  8.0561  8.0079  7.9832
  7.8447  7.7055  7.5756  7.4992  7.3741  7.3649  7.2519  7.2498  7.1583  7.1450
  7.0420  7.0323  6.9510  6.8357  6.8290  6.7917  6.7435  6.7289  6.6411  6.5520
  6.5004  6.4739  6.4482  6.4355  6.4153  6.4115  6.3712  6.3330  6.2317  6.1748
  6.1222  4.4232  4.4229  4.4134  4.4115  4.4085  4.4023  4.3962  4.3889  4.3886
  4.3721  4.3539
 highest evec of mol 2
  0.0001  0.0001 -0.0000
 -0.0000 -0.0001 -0.0000
  0.0001 -0.0001 -0.0000
 -0.0001  0.0000  0.0000
 -0.0000  0.0000  0.0000
  0.0004  0.0001 -0.0000
 -0.0003  0.0000  0.0000
  0.0001  0.0001 -0.0000
 -0.0003 -0.0006 -0.0000
 -0.0003  0.0002  0.0000
  0.0005 -0.0003 -0.0001
 -0.0011 -0.0013  0.0000
 -0.0021  0.0011  0.0003
 -0.0006 -0.0019 -0.0000
  0.2852 -0.0232 -0.0307
  0.0123  0.0666  0.0023
 -0.0069 -0.0029  0.0006
  0.0003 -0.0000 -0.0000
 -0.0001  0.0002  0.0000
  0.0001 -0.0001 -0.0000
 -0.0003 -0.0002  0.0000
  0.0002 -0.0001 -0.0000
 -0.0001  0.0001  0.0000
 -0.0004 -0.0004  0.0000
 -0.0002  0.0001  0.0000
 -0.0001  0.0004  0.0000
  0.0000 -0.0001 -0.0000
  0.0011  0.0021 -0.0000
  0.0016  0.0045  0.0001
 -0.9325  0.0363  0.0982
 -0.0602 -0.1684 -0.0029
  0.0004 -0.0009 -0.0001
 -0.0000  0.0000  0.0000
  0.0001 -0.0003 -0.0000
 Enter nber and list of atoms to keep of mol #2
 keep list:          34           1           2           3           4
           5           6           7           8           9          10
          11          12          13          14          15          16
          17          18          19          20          21          22
          23          24          25          26          27          28
          29          30          31          32          33          34
 reordering atoms
           1  -7.43896850438498     
           2  -7.77922853467551     
           3  -6.77534527126635     
           4  -5.44745797068358     
           5  -3.98900313606355     
           6  -3.00142726125581     
           7  -1.58037850189101     
           8 -0.833069167700042     
           9  0.540971449471368     
          10   1.30213698231341     
          11   2.73164549810026     
          12   3.61139131192325     
          13   4.96317076469584     
          14   6.49396324450895     
          15   7.38640231455267     
          16   6.55261957084667     
          17   5.18773819252510     
          18   3.65805132495851     
          19  0.546528805378130     
          20 -0.824037468272235     
          21  -3.74635401101360     
          22  -5.08051379959194     
          23  -6.11082636830079     
          24  -8.22665974403526     
          25  -8.82128269114546     
          26  -7.03362944803811     
          27  -1.35664828664664     
          28   1.05825333068334     
          29   3.27365284419452     
          30   8.46463410849155     
          31   6.91246157710295     
          32   1.06942790909363     
          33  -1.36912223369900     
          34  -5.84189010021025     
           1           1
           2           2
           3           3
           4           4
           5           5
           6           6
           7           7
           8           8
           9           9
          10          10
          11          11
          12          12
          13          13
          14          14
          15          15
          16          16
          17          17
          18          18
          19          19
          20          20
          21          21
          22          22
          23          23
          24          24
          25          25
          26          26
          27          27
          28          28
          29          29
          30          30
          31          31
          32          32
          33          33
          34          34
 initial cartes coords mol 1
   6   0.21156  -1.42612  -7.39434
   6  -0.04190  -0.09069  -7.74548
   6  -0.21430   0.88573  -6.77167
   6  -0.12825   0.50089  -5.43437
  16  -0.29452   1.47328  -3.98943
   6  -0.00965  -0.00121  -3.01578
   6  -0.00344   0.04056  -1.55111
   6  -0.22469   1.22170  -0.83122
   6  -0.21592   1.22266   0.55539
   6   0.02267   0.04343   1.28000
   6   0.02581   0.02747   2.74294
   6  -0.25437  -1.02835   3.57691
   6  -0.15202  -0.67322   4.94549
  16  -0.38311  -1.51100   6.45767
   6   0.01031  -0.05704   7.34701
   6   0.29893   1.00639   6.54259
   6   0.20283   0.65082   5.16844
  16   0.43075   1.48825   3.65914
   6   0.25512  -1.13813   0.55092
   6   0.23627  -1.14243  -0.83233
   7   0.18454  -1.07806  -3.70919
   6   0.12646  -0.84059  -5.06570
   6   0.29701  -1.80855  -6.06475
   1   0.34181  -2.16631  -8.17520
   1  -0.10448   0.18535  -8.79171
   1  -0.40964   1.91472  -7.04794
   1  -0.41706   2.15182  -1.35413
   1  -0.41745   2.14698   1.08402
   1  -0.55023  -2.00303   3.21523
   1   0.00264  -0.08637   8.42566
   1   0.56353   1.98547   6.91656
   1   0.47666  -2.05738   1.07971
   1   0.41923  -2.05494  -1.38472
   1   0.49183  -2.83441  -5.77725
 initial cartes coords mol 2
   6  -0.00048  -1.40954  -7.43897
   6   0.00002  -0.05112  -7.77923
   6   0.00035   0.92308  -6.77535
   6   0.00018   0.51830  -5.44746
  16   0.00049   1.49894  -3.98900
   6  -0.00031  -0.03571  -3.00143
   6  -0.00016   0.00866  -1.58038
   6  -0.00004   1.21949  -0.83307
   6   0.00024   1.22185   0.54097
   6   0.00048   0.01797   1.30214
   6   0.00064   0.00885   2.73165
   6   0.00105  -1.07703   3.61139
   6   0.00073  -0.68615   4.96317
  16   0.00018  -1.54413   6.49396
   6  -0.00087  -0.02424   7.38640
   6  -0.00109   1.06316   6.55262
   6  -0.00012   0.68917   5.18774
  16  -0.00036   1.54874   3.65805
   6   0.00034  -1.19578   0.54653
   6   0.00000  -1.20238  -0.82404
   7  -0.00063  -1.12858  -3.74635
   6  -0.00039  -0.85862  -5.08051
   6  -0.00069  -1.81897  -6.11083
   1  -0.00070  -2.15688  -8.22666
   1   0.00017   0.24990  -8.82128
   1   0.00073   1.97667  -7.03363
   1  -0.00037   2.17042  -1.35665
   1   0.00020   2.17607   1.05825
   1   0.00225  -2.10300   3.27365
   1  -0.00092  -0.04359   8.46463
   1  -0.00183   2.08412   6.91246
   1   0.00039  -2.14598   1.06943
   1  -0.00015  -2.13840  -1.36912
   1  -0.00109  -2.86907  -5.84189
 loop 1 0
 mod cartes coords mol 2
   6  -0.00048  -1.40954  -7.43897
   6   0.00002  -0.05112  -7.77923
   6   0.00035   0.92308  -6.77535
   6   0.00018   0.51830  -5.44746
  16   0.00049   1.49894  -3.98900
   6  -0.00031  -0.03571  -3.00143
   6  -0.00016   0.00866  -1.58038
   6  -0.00004   1.21949  -0.83307
   6   0.00024   1.22185   0.54097
   6   0.00048   0.01797   1.30214
   6   0.00064   0.00885   2.73165
   6   0.00105  -1.07703   3.61139
   6   0.00073  -0.68615   4.96317
  16   0.00018  -1.54413   6.49396
   6  -0.00087  -0.02424   7.38640
   6  -0.00109   1.06316   6.55262
   6  -0.00012   0.68917   5.18774
  16  -0.00036   1.54874   3.65805
   6   0.00034  -1.19578   0.54653
   6   0.00000  -1.20238  -0.82404
   7  -0.00063  -1.12858  -3.74635
   6  -0.00039  -0.85862  -5.08051
   6  -0.00069  -1.81897  -6.11083
   1  -0.00070  -2.15688  -8.22666
   1   0.00017   0.24990  -8.82128
   1   0.00073   1.97667  -7.03363
   1  -0.00037   2.17042  -1.35665
   1   0.00020   2.17607   1.05825
   1   0.00225  -2.10300   3.27365
   1  -0.00092  -0.04359   8.46463
   1  -0.00183   2.08412   6.91246
   1   0.00039  -2.14598   1.06943
   1  -0.00015  -2.13840  -1.36912
   1  -0.00109  -2.86907  -5.84189
 read in order, maxerr=  0.57 for atom  31
 loop 1 1
 mod cartes coords mol 2
   6   0.00048  -1.40954  -7.43897
   6  -0.00002  -0.05112  -7.77923
   6  -0.00035   0.92308  -6.77535
   6  -0.00018   0.51830  -5.44746
  16  -0.00049   1.49894  -3.98900
   6   0.00031  -0.03571  -3.00143
   6   0.00016   0.00866  -1.58038
   6   0.00004   1.21949  -0.83307
   6  -0.00024   1.22185   0.54097
   6  -0.00048   0.01797   1.30214
   6  -0.00064   0.00885   2.73165
   6  -0.00105  -1.07703   3.61139
   6  -0.00073  -0.68615   4.96317
  16  -0.00018  -1.54413   6.49396
   6   0.00087  -0.02424   7.38640
   6   0.00109   1.06316   6.55262
   6   0.00012   0.68917   5.18774
  16   0.00036   1.54874   3.65805
   6  -0.00034  -1.19578   0.54653
   6  -0.00000  -1.20238  -0.82404
   7   0.00063  -1.12858  -3.74635
   6   0.00039  -0.85862  -5.08051
   6   0.00069  -1.81897  -6.11083
   1   0.00070  -2.15688  -8.22666
   1  -0.00017   0.24990  -8.82128
   1  -0.00073   1.97667  -7.03363
   1   0.00037   2.17042  -1.35665
   1  -0.00020   2.17607   1.05825
   1  -0.00225  -2.10300   3.27365
   1   0.00092  -0.04359   8.46463
   1   0.00183   2.08412   6.91246
   1  -0.00039  -2.14598   1.06943
   1   0.00015  -2.13840  -1.36912
   1   0.00109  -2.86907  -5.84189
 read in order, maxerr=  0.57 for atom  31
 loop 1 2
 mod cartes coords mol 2
   6  -0.00048   1.40954  -7.43897
   6   0.00002   0.05112  -7.77923
   6   0.00035  -0.92308  -6.77535
   6   0.00018  -0.51830  -5.44746
  16   0.00049  -1.49894  -3.98900
   6  -0.00031   0.03571  -3.00143
   6  -0.00016  -0.00866  -1.58038
   6  -0.00004  -1.21949  -0.83307
   6   0.00024  -1.22185   0.54097
   6   0.00048  -0.01797   1.30214
   6   0.00064  -0.00885   2.73165
   6   0.00105   1.07703   3.61139
   6   0.00073   0.68615   4.96317
  16   0.00018   1.54413   6.49396
   6  -0.00087   0.02424   7.38640
   6  -0.00109  -1.06316   6.55262
   6  -0.00012  -0.68917   5.18774
  16  -0.00036  -1.54874   3.65805
   6   0.00034   1.19578   0.54653
   6   0.00000   1.20238  -0.82404
   7  -0.00063   1.12858  -3.74635
   6  -0.00039   0.85862  -5.08051
   6  -0.00069   1.81897  -6.11083
   1  -0.00070   2.15688  -8.22666
   1   0.00017  -0.24990  -8.82128
   1   0.00073  -1.97667  -7.03363
   1  -0.00037  -2.17042  -1.35665
   1   0.00020  -2.17607   1.05825
   1   0.00225   2.10300   3.27365
   1  -0.00092   0.04359   8.46463
   1  -0.00183  -2.08412   6.91246
   1   0.00039   2.14598   1.06943
   1  -0.00015   2.13840  -1.36912
   1  -0.00109   2.86907  -5.84189
 read in order, maxerr=  5.73 for atom  34
 loop 1 3
 mod cartes coords mol 2
   6   0.00048   1.40954  -7.43897
   6  -0.00002   0.05112  -7.77923
   6  -0.00035  -0.92308  -6.77535
   6  -0.00018  -0.51830  -5.44746
  16  -0.00049  -1.49894  -3.98900
   6   0.00031   0.03571  -3.00143
   6   0.00016  -0.00866  -1.58038
   6   0.00004  -1.21949  -0.83307
   6  -0.00024  -1.22185   0.54097
   6  -0.00048  -0.01797   1.30214
   6  -0.00064  -0.00885   2.73165
   6  -0.00105   1.07703   3.61139
   6  -0.00073   0.68615   4.96317
  16  -0.00018   1.54413   6.49396
   6   0.00087   0.02424   7.38640
   6   0.00109  -1.06316   6.55262
   6   0.00012  -0.68917   5.18774
  16   0.00036  -1.54874   3.65805
   6  -0.00034   1.19578   0.54653
   6  -0.00000   1.20238  -0.82404
   7   0.00063   1.12858  -3.74635
   6   0.00039   0.85862  -5.08051
   6   0.00069   1.81897  -6.11083
   1   0.00070   2.15688  -8.22666
   1  -0.00017  -0.24990  -8.82128
   1  -0.00073  -1.97667  -7.03363
   1   0.00037  -2.17042  -1.35665
   1  -0.00020  -2.17607   1.05825
   1  -0.00225   2.10300   3.27365
   1   0.00092   0.04359   8.46463
   1   0.00183  -2.08412   6.91246
   1  -0.00039   2.14598   1.06943
   1   0.00015   2.13840  -1.36912
   1   0.00109   2.86907  -5.84189
 read in order, maxerr=  5.72 for atom  34
 loop 1 4
 mod cartes coords mol 2
   6  -0.00048  -1.40954   7.43897
   6   0.00002  -0.05112   7.77923
   6   0.00035   0.92308   6.77535
   6   0.00018   0.51830   5.44746
  16   0.00049   1.49894   3.98900
   6  -0.00031  -0.03571   3.00143
   6  -0.00016   0.00866   1.58038
   6  -0.00004   1.21949   0.83307
   6   0.00024   1.22185  -0.54097
   6   0.00048   0.01797  -1.30214
   6   0.00064   0.00885  -2.73165
   6   0.00105  -1.07703  -3.61139
   6   0.00073  -0.68615  -4.96317
  16   0.00018  -1.54413  -6.49396
   6  -0.00087  -0.02424  -7.38640
   6  -0.00109   1.06316  -6.55262
   6  -0.00012   0.68917  -5.18774
  16  -0.00036   1.54874  -3.65805
   6   0.00034  -1.19578  -0.54653
   6   0.00000  -1.20238   0.82404
   7  -0.00063  -1.12858   3.74635
   6  -0.00039  -0.85862   5.08051
   6  -0.00069  -1.81897   6.11083
   1  -0.00070  -2.15688   8.22666
   1   0.00017   0.24990   8.82128
   1   0.00073   1.97667   7.03363
   1  -0.00037   2.17042   1.35665
   1   0.00020   2.17607  -1.05825
   1   0.00225  -2.10300  -3.27365
   1  -0.00092  -0.04359  -8.46463
   1  -0.00183   2.08412  -6.91246
   1   0.00039  -2.14598  -1.06943
   1  -0.00015  -2.13840   1.36912
   1  -0.00109  -2.86907   5.84189
 read in order, maxerr= 17.61 for atom  25
 loop 1 5
 mod cartes coords mol 2
   6   0.00048  -1.40954   7.43897
   6  -0.00002  -0.05112   7.77923
   6  -0.00035   0.92308   6.77535
   6  -0.00018   0.51830   5.44746
  16  -0.00049   1.49894   3.98900
   6   0.00031  -0.03571   3.00143
   6   0.00016   0.00866   1.58038
   6   0.00004   1.21949   0.83307
   6  -0.00024   1.22185  -0.54097
   6  -0.00048   0.01797  -1.30214
   6  -0.00064   0.00885  -2.73165
   6  -0.00105  -1.07703  -3.61139
   6  -0.00073  -0.68615  -4.96317
  16  -0.00018  -1.54413  -6.49396
   6   0.00087  -0.02424  -7.38640
   6   0.00109   1.06316  -6.55262
   6   0.00012   0.68917  -5.18774
  16   0.00036   1.54874  -3.65805
   6  -0.00034  -1.19578  -0.54653
   6  -0.00000  -1.20238   0.82404
   7   0.00063  -1.12858   3.74635
   6   0.00039  -0.85862   5.08051
   6   0.00069  -1.81897   6.11083
   1   0.00070  -2.15688   8.22666
   1  -0.00017   0.24990   8.82128
   1  -0.00073   1.97667   7.03363
   1   0.00037   2.17042   1.35665
   1  -0.00020   2.17607  -1.05825
   1  -0.00225  -2.10300  -3.27365
   1   0.00092  -0.04359  -8.46463
   1   0.00183   2.08412  -6.91246
   1  -0.00039  -2.14598  -1.06943
   1   0.00015  -2.13840   1.36912
   1   0.00109  -2.86907   5.84189
 read in order, maxerr= 17.61 for atom  25
 loop 1 6
 mod cartes coords mol 2
   6  -0.00048   1.40954   7.43897
   6   0.00002   0.05112   7.77923
   6   0.00035  -0.92308   6.77535
   6   0.00018  -0.51830   5.44746
  16   0.00049  -1.49894   3.98900
   6  -0.00031   0.03571   3.00143
   6  -0.00016  -0.00866   1.58038
   6  -0.00004  -1.21949   0.83307
   6   0.00024  -1.22185  -0.54097
   6   0.00048  -0.01797  -1.30214
   6   0.00064  -0.00885  -2.73165
   6   0.00105   1.07703  -3.61139
   6   0.00073   0.68615  -4.96317
  16   0.00018   1.54413  -6.49396
   6  -0.00087   0.02424  -7.38640
   6  -0.00109  -1.06316  -6.55262
   6  -0.00012  -0.68917  -5.18774
  16  -0.00036  -1.54874  -3.65805
   6   0.00034   1.19578  -0.54653
   6   0.00000   1.20238   0.82404
   7  -0.00063   1.12858   3.74635
   6  -0.00039   0.85862   5.08051
   6  -0.00069   1.81897   6.11083
   1  -0.00070   2.15688   8.22666
   1   0.00017  -0.24990   8.82128
   1   0.00073  -1.97667   7.03363
   1  -0.00037  -2.17042   1.35665
   1   0.00020  -2.17607  -1.05825
   1   0.00225   2.10300  -3.27365
   1  -0.00092   0.04359  -8.46463
   1  -0.00183  -2.08412  -6.91246
   1   0.00039   2.14598  -1.06943
   1  -0.00015   2.13840   1.36912
   1  -0.00109   2.86907   5.84189
 read in order, maxerr= 17.62 for atom  25
 loop 1 7
 mod cartes coords mol 2
   6   0.00048   1.40954   7.43897
   6  -0.00002   0.05112   7.77923
   6  -0.00035  -0.92308   6.77535
   6  -0.00018  -0.51830   5.44746
  16  -0.00049  -1.49894   3.98900
   6   0.00031   0.03571   3.00143
   6   0.00016  -0.00866   1.58038
   6   0.00004  -1.21949   0.83307
   6  -0.00024  -1.22185  -0.54097
   6  -0.00048  -0.01797  -1.30214
   6  -0.00064  -0.00885  -2.73165
   6  -0.00105   1.07703  -3.61139
   6  -0.00073   0.68615  -4.96317
  16  -0.00018   1.54413  -6.49396
   6   0.00087   0.02424  -7.38640
   6   0.00109  -1.06316  -6.55262
   6   0.00012  -0.68917  -5.18774
  16   0.00036  -1.54874  -3.65805
   6  -0.00034   1.19578  -0.54653
   6  -0.00000   1.20238   0.82404
   7   0.00063   1.12858   3.74635
   6   0.00039   0.85862   5.08051
   6   0.00069   1.81897   6.11083
   1   0.00070   2.15688   8.22666
   1  -0.00017  -0.24990   8.82128
   1  -0.00073  -1.97667   7.03363
   1   0.00037  -2.17042   1.35665
   1  -0.00020  -2.17607  -1.05825
   1  -0.00225   2.10300  -3.27365
   1   0.00092   0.04359  -8.46463
   1   0.00183  -2.08412  -6.91246
   1  -0.00039   2.14598  -1.06943
   1   0.00015   2.13840   1.36912
   1   0.00109   2.86907   5.84189
 read in order, maxerr= 17.62 for atom  25
 loop 2 0
 mod cartes coords mol 2
   6  -0.00048  -7.43897  -1.40954
   6   0.00002  -7.77923  -0.05112
   6   0.00035  -6.77535   0.92308
   6   0.00018  -5.44746   0.51830
  16   0.00049  -3.98900   1.49894
   6  -0.00031  -3.00143  -0.03571
   6  -0.00016  -1.58038   0.00866
   6  -0.00004  -0.83307   1.21949
   6   0.00024   0.54097   1.22185
   6   0.00048   1.30214   0.01797
   6   0.00064   2.73165   0.00885
   6   0.00105   3.61139  -1.07703
   6   0.00073   4.96317  -0.68615
  16   0.00018   6.49396  -1.54413
   6  -0.00087   7.38640  -0.02424
   6  -0.00109   6.55262   1.06316
   6  -0.00012   5.18774   0.68917
  16  -0.00036   3.65805   1.54874
   6   0.00034   0.54653  -1.19578
   6   0.00000  -0.82404  -1.20238
   7  -0.00063  -3.74635  -1.12858
   6  -0.00039  -5.08051  -0.85862
   6  -0.00069  -6.11083  -1.81897
   1  -0.00070  -8.22666  -2.15688
   1   0.00017  -8.82128   0.24990
   1   0.00073  -7.03363   1.97667
   1  -0.00037  -1.35665   2.17042
   1   0.00020   1.05825   2.17607
   1   0.00225   3.27365  -2.10300
   1  -0.00092   8.46463  -0.04359
   1  -0.00183   6.91246   2.08412
   1   0.00039   1.06943  -2.14598
   1  -0.00015  -1.36912  -2.13840
   1  -0.00109  -5.84189  -2.86907
 read in order, maxerr= 12.76 for atom  25
 loop 2 1
 mod cartes coords mol 2
   6   0.00048  -7.43897  -1.40954
   6  -0.00002  -7.77923  -0.05112
   6  -0.00035  -6.77535   0.92308
   6  -0.00018  -5.44746   0.51830
  16  -0.00049  -3.98900   1.49894
   6   0.00031  -3.00143  -0.03571
   6   0.00016  -1.58038   0.00866
   6   0.00004  -0.83307   1.21949
   6  -0.00024   0.54097   1.22185
   6  -0.00048   1.30214   0.01797
   6  -0.00064   2.73165   0.00885
   6  -0.00105   3.61139  -1.07703
   6  -0.00073   4.96317  -0.68615
  16  -0.00018   6.49396  -1.54413
   6   0.00087   7.38640  -0.02424
   6   0.00109   6.55262   1.06316
   6   0.00012   5.18774   0.68917
  16   0.00036   3.65805   1.54874
   6  -0.00034   0.54653  -1.19578
   6  -0.00000  -0.82404  -1.20238
   7   0.00063  -3.74635  -1.12858
   6   0.00039  -5.08051  -0.85862
   6   0.00069  -6.11083  -1.81897
   1   0.00070  -8.22666  -2.15688
   1  -0.00017  -8.82128   0.24990
   1  -0.00073  -7.03363   1.97667
   1   0.00037  -1.35665   2.17042
   1  -0.00020   1.05825   2.17607
   1  -0.00225   3.27365  -2.10300
   1   0.00092   8.46463  -0.04359
   1   0.00183   6.91246   2.08412
   1  -0.00039   1.06943  -2.14598
   1   0.00015  -1.36912  -2.13840
   1   0.00109  -5.84189  -2.86907
 read in order, maxerr= 12.76 for atom  25
 loop 2 2
 mod cartes coords mol 2
   6  -0.00048  -7.43897   1.40954
   6   0.00002  -7.77923   0.05112
   6   0.00035  -6.77535  -0.92308
   6   0.00018  -5.44746  -0.51830
  16   0.00049  -3.98900  -1.49894
   6  -0.00031  -3.00143   0.03571
   6  -0.00016  -1.58038  -0.00866
   6  -0.00004  -0.83307  -1.21949
   6   0.00024   0.54097  -1.22185
   6   0.00048   1.30214  -0.01797
   6   0.00064   2.73165  -0.00885
   6   0.00105   3.61139   1.07703
   6   0.00073   4.96317   0.68615
  16   0.00018   6.49396   1.54413
   6  -0.00087   7.38640   0.02424
   6  -0.00109   6.55262  -1.06316
   6  -0.00012   5.18774  -0.68917
  16  -0.00036   3.65805  -1.54874
   6   0.00034   0.54653   1.19578
   6   0.00000  -0.82404   1.20238
   7  -0.00063  -3.74635   1.12858
   6  -0.00039  -5.08051   0.85862
   6  -0.00069  -6.11083   1.81897
   1  -0.00070  -8.22666   2.15688
   1   0.00017  -8.82128  -0.24990
   1   0.00073  -7.03363  -1.97667
   1  -0.00037  -1.35665  -2.17042
   1   0.00020   1.05825  -2.17607
   1   0.00225   3.27365   2.10300
   1  -0.00092   8.46463   0.04359
   1  -0.00183   6.91246  -2.08412
   1   0.00039   1.06943   2.14598
   1  -0.00015  -1.36912   2.13840
   1  -0.00109  -5.84189   2.86907
 read in order, maxerr= 12.41 for atom  25
 loop 2 3
 mod cartes coords mol 2
   6   0.00048  -7.43897   1.40954
   6  -0.00002  -7.77923   0.05112
   6  -0.00035  -6.77535  -0.92308
   6  -0.00018  -5.44746  -0.51830
  16  -0.00049  -3.98900  -1.49894
   6   0.00031  -3.00143   0.03571
   6   0.00016  -1.58038  -0.00866
   6   0.00004  -0.83307  -1.21949
   6  -0.00024   0.54097  -1.22185
   6  -0.00048   1.30214  -0.01797
   6  -0.00064   2.73165  -0.00885
   6  -0.00105   3.61139   1.07703
   6  -0.00073   4.96317   0.68615
  16  -0.00018   6.49396   1.54413
   6   0.00087   7.38640   0.02424
   6   0.00109   6.55262  -1.06316
   6   0.00012   5.18774  -0.68917
  16   0.00036   3.65805  -1.54874
   6  -0.00034   0.54653   1.19578
   6  -0.00000  -0.82404   1.20238
   7   0.00063  -3.74635   1.12858
   6   0.00039  -5.08051   0.85862
   6   0.00069  -6.11083   1.81897
   1   0.00070  -8.22666   2.15688
   1  -0.00017  -8.82128  -0.24990
   1  -0.00073  -7.03363  -1.97667
   1   0.00037  -1.35665  -2.17042
   1  -0.00020   1.05825  -2.17607
   1  -0.00225   3.27365   2.10300
   1   0.00092   8.46463   0.04359
   1   0.00183   6.91246  -2.08412
   1  -0.00039   1.06943   2.14598
   1   0.00015  -1.36912   2.13840
   1   0.00109  -5.84189   2.86907
 read in order, maxerr= 12.41 for atom  25
 loop 2 4
 mod cartes coords mol 2
   6  -0.00048   7.43897  -1.40954
   6   0.00002   7.77923  -0.05112
   6   0.00035   6.77535   0.92308
   6   0.00018   5.44746   0.51830
  16   0.00049   3.98900   1.49894
   6  -0.00031   3.00143  -0.03571
   6  -0.00016   1.58038   0.00866
   6  -0.00004   0.83307   1.21949
   6   0.00024  -0.54097   1.22185
   6   0.00048  -1.30214   0.01797
   6   0.00064  -2.73165   0.00885
   6   0.00105  -3.61139  -1.07703
   6   0.00073  -4.96317  -0.68615
  16   0.00018  -6.49396  -1.54413
   6  -0.00087  -7.38640  -0.02424
   6  -0.00109  -6.55262   1.06316
   6  -0.00012  -5.18774   0.68917
  16  -0.00036  -3.65805   1.54874
   6   0.00034  -0.54653  -1.19578
   6   0.00000   0.82404  -1.20238
   7  -0.00063   3.74635  -1.12858
   6  -0.00039   5.08051  -0.85862
   6  -0.00069   6.11083  -1.81897
   1  -0.00070   8.22666  -2.15688
   1   0.00017   8.82128   0.24990
   1   0.00073   7.03363   1.97667
   1  -0.00037   1.35665   2.17042
   1   0.00020  -1.05825   2.17607
   1   0.00225  -3.27365  -2.10300
   1  -0.00092  -8.46463  -0.04359
   1  -0.00183  -6.91246   2.08412
   1   0.00039  -1.06943  -2.14598
   1  -0.00015   1.36912  -2.13840
   1  -0.00109   5.84189  -2.86907
 read in order, maxerr= 12.50 for atom  25
 loop 2 5
 mod cartes coords mol 2
   6   0.00048   7.43897  -1.40954
   6  -0.00002   7.77923  -0.05112
   6  -0.00035   6.77535   0.92308
   6  -0.00018   5.44746   0.51830
  16  -0.00049   3.98900   1.49894
   6   0.00031   3.00143  -0.03571
   6   0.00016   1.58038   0.00866
   6   0.00004   0.83307   1.21949
   6  -0.00024  -0.54097   1.22185
   6  -0.00048  -1.30214   0.01797
   6  -0.00064  -2.73165   0.00885
   6  -0.00105  -3.61139  -1.07703
   6  -0.00073  -4.96317  -0.68615
  16  -0.00018  -6.49396  -1.54413
   6   0.00087  -7.38640  -0.02424
   6   0.00109  -6.55262   1.06316
   6   0.00012  -5.18774   0.68917
  16   0.00036  -3.65805   1.54874
   6  -0.00034  -0.54653  -1.19578
   6  -0.00000   0.82404  -1.20238
   7   0.00063   3.74635  -1.12858
   6   0.00039   5.08051  -0.85862
   6   0.00069   6.11083  -1.81897
   1   0.00070   8.22666  -2.15688
   1  -0.00017   8.82128   0.24990
   1  -0.00073   7.03363   1.97667
   1   0.00037   1.35665   2.17042
   1  -0.00020  -1.05825   2.17607
   1  -0.00225  -3.27365  -2.10300
   1   0.00092  -8.46463  -0.04359
   1   0.00183  -6.91246   2.08412
   1  -0.00039  -1.06943  -2.14598
   1   0.00015   1.36912  -2.13840
   1   0.00109   5.84189  -2.86907
 read in order, maxerr= 12.50 for atom  25
 loop 2 6
 mod cartes coords mol 2
   6  -0.00048   7.43897   1.40954
   6   0.00002   7.77923   0.05112
   6   0.00035   6.77535  -0.92308
   6   0.00018   5.44746  -0.51830
  16   0.00049   3.98900  -1.49894
   6  -0.00031   3.00143   0.03571
   6  -0.00016   1.58038  -0.00866
   6  -0.00004   0.83307  -1.21949
   6   0.00024  -0.54097  -1.22185
   6   0.00048  -1.30214  -0.01797
   6   0.00064  -2.73165  -0.00885
[...]
  44       747. -0.6967    48.5    98.3  42       708.
  45       764.  0.9880    97.6    99.9  47       748.
  46       773.  0.9299    86.5    99.8  46       745.
  47       822. -0.9110    83.0    99.7  50       809.
  48       831. -0.4633    21.5    98.7  45       739.
                 0.5291    28.0          48       778.
  49       841. -0.3478    12.1    99.1  45       739.
                -0.6971    48.6          48       778.
  50       863. -0.7683    59.0    99.1  49       804.
  51       867.  0.9705    94.2    99.3  51       839.
  52       872. -0.9899    98.0    99.1  53       867.
  53       877. -0.9696    94.0    99.6  52       841.
  54       901.  0.9579    91.8    99.5  54       886.
  55       952. -0.9508    90.4    99.4  55       900.
  56       965.  0.9610    92.3    99.1  56       922.
  57       970. -0.9577    91.7    98.6  57       939.
  58       980.  0.9255    85.7    99.1  59       958.
  59       991. -0.9707    94.2    99.7  58       947.
  60       999.  0.9909    98.2    99.1  60       964.
  61      1034.  0.9467    89.6   100.3  61       999.
  62      1039.  0.9638    92.9   100.1  62      1035.
  63      1082. -0.9948    99.0    99.9  63      1071.
  64      1109. -0.9980    99.6    99.9  64      1093.
  65      1143.  0.7567    57.3    99.5  65      1130.
                 0.5785    33.5          66      1133.
  66      1145.  0.6116    37.4    99.8  65      1130.
                -0.7486    56.0          66      1133.
  67      1181. -0.6880    47.3    99.9  67      1169.
                -0.6326    40.0          68      1169.
  68      1184.  0.6324    40.0    99.7  67      1169.
                -0.7083    50.2          68      1169.
  69      1209.  0.4578    21.0   100.3  69      1199.
                -0.7605    57.8          70      1204.
  70      1211. -0.6454    41.7   100.0  69      1199.
                -0.4760    22.7          70      1204.
  71      1246. -0.8348    69.7    99.1  71      1239.
  72      1255. -0.8886    79.0    99.0  72      1243.
  73      1275. -0.9514    90.5    99.7  73      1272.
  74      1310.  0.7391    54.6   100.0  75      1318.
  75      1321.  0.4032    16.3    99.9  74      1315.
                -0.5391    29.1          76      1332.
  76      1340. -0.4921    24.2    99.7  75      1318.
                -0.6280    39.4          76      1332.
  77      1346. -0.3810    14.5   100.0  76      1332.
                -0.3276    10.7          77      1351.
                -0.7850    61.6          78      1357.
  78      1364.  0.8162    66.6   100.1  77      1351.
                -0.3484    12.1          78      1357.
  79      1380. -0.8860    78.5    99.8  79      1393.
  80      1444.  0.7678    59.0    99.4  84      1484.
                -0.3765    14.2          86      1495.
  81      1457. -0.8211    67.4   100.0  80      1432.
                 0.3478    12.1          81      1454.
  82      1463.  0.3413    11.6    99.8  80      1432.
                 0.4671    21.8          81      1454.
                 0.7211    52.0          82      1466.
  83      1489.  0.9652    93.2    99.9  83      1478.
  84      1503.  0.5356    28.7   100.0  81      1454.
                -0.4508    20.3          82      1466.
                 0.5326    28.4          86      1495.
  85      1525.  0.3528    12.4    99.7  81      1454.
                 0.4726    22.3          85      1493.
                -0.4393    19.3          86      1495.
                 0.3370    11.4          88      1532.
  86      1544. -0.6710    45.0   100.1  87      1514.
                -0.4736    22.4          88      1532.
  87      1558. -0.4424    19.6    99.7  85      1493.
                -0.4003    16.0          86      1495.
                 0.3873    15.0          87      1514.
                -0.3817    14.6          88      1532.
  88      1595.  0.5107    26.1    99.8  85      1493.
                -0.6221    38.7          88      1532.
  89      1597.  0.9610    92.4    99.6  89      1583.
  90      1638.  0.9453    89.4   100.1  90      1612.
  91      1646.  0.9573    91.6   100.1  91      1640.
  92      3168.  0.9499    90.2   100.0  93      3142.
  93      3169.  0.9270    85.9   100.0  92      3141.
  94      3181. -0.9553    91.3   100.0  94      3155.
  95      3181.  0.9965    99.3   100.0  95      3158.
  96      3185. -0.9851    97.0   100.0  96      3162.
  97      3191.  0.9823    96.5   100.0  97      3171.
  98      3198. -0.9924    98.5   100.0  98      3180.
  99      3207.  0.9921    98.4   100.0  99      3191.
 100      3214. -0.9874    97.5   100.0 100      3191.
 101      3215.  0.9991    99.8   100.0 101      3215.
 102      3245.  0.9945    98.9   100.0 102      3242.
 nber times 1st assigned=           1           0
 nber times 1st assigned=           2           0
 nber times 1st assigned=           3           0
 nber times 1st assigned=           4           0
 nber times 1st assigned=           5           0
 nber times 1st assigned=           6           0
 nber times 1st assigned=           7           0
 nber times 1st assigned=           8           0
 nber times 1st assigned=           9           0
 nber times 1st assigned=          10           0
 nber times 1st assigned=          11           0
 nber times 1st assigned=          12           0
 nber times 1st assigned=          13           0
 nber times 1st assigned=          14           0
 nber times 1st assigned=          15           0
 nber times 1st assigned=          16           0
 nber times 1st assigned=          17           0
 nber times 1st assigned=          18           0
 nber times 1st assigned=          19           0
 nber times 1st assigned=          20           0
 nber times 1st assigned=          21           0
 nber times 1st assigned=          22           0
 nber times 1st assigned=          23           0
 nber times 1st assigned=          24           0
 nber times 1st assigned=          25           0
 nber times 1st assigned=          26           0
 nber times 1st assigned=          27           0
 nber times 1st assigned=          28           0
 nber times 1st assigned=          29           0
 nber times 1st assigned=          30           0
 nber times 1st assigned=          31           0
 nber times 1st assigned=          32           0
 nber times 1st assigned=          33           0
 nber times 1st assigned=          34           0
 nber times 1st assigned=          35           0
 nber times 1st assigned=          36           0
 nber times 1st assigned=          37           0
 nber times 1st assigned=          38           0
 nber times 1st assigned=          39           0
 nber times 1st assigned=          40           0
 nber times 1st assigned=          41           0
 nber times 1st assigned=          42           0
 nber times 1st assigned=          43           0
 nber times 1st assigned=          44           0
 nber times 1st assigned=          45           0
 nber times 1st assigned=          46           0
 nber times 1st assigned=          47           0
 nber times 1st assigned=          48           0
 nber times 1st assigned=          49           0
 nber times 1st assigned=          50           0
 nber times 1st assigned=          51           0
 nber times 1st assigned=          52           0
 nber times 1st assigned=          53           0
 nber times 1st assigned=          54           0
 nber times 1st assigned=          55           0
 nber times 1st assigned=          56           0
 nber times 1st assigned=          57           0
 nber times 1st assigned=          58           0
 nber times 1st assigned=          59           0
 nber times 1st assigned=          60           0
 nber times 1st assigned=          61           0
 nber times 1st assigned=          62           0
 nber times 1st assigned=          63           0
 nber times 1st assigned=          64           0
 nber times 1st assigned=          65           0
 nber times 1st assigned=          66           0
 nber times 1st assigned=          67           0
 nber times 1st assigned=          68           0
 nber times 1st assigned=          69           0
 nber times 1st assigned=          70           0
 nber times 1st assigned=          71           0
 nber times 1st assigned=          72           0
 nber times 1st assigned=          73           0
 nber times 1st assigned=          74           0
 nber times 1st assigned=          75           0
 nber times 1st assigned=          76           0
 nber times 1st assigned=          77           0
 nber times 1st assigned=          78           0
 nber times 1st assigned=          79           0
 nber times 1st assigned=          80           0
 nber times 1st assigned=          81           0
 nber times 1st assigned=          82           0
 nber times 1st assigned=          83           0
 nber times 1st assigned=          84           0
 nber times 1st assigned=          85           0
 nber times 1st assigned=          86           0
 nber times 1st assigned=          87           0
 nber times 1st assigned=          88           0
 nber times 1st assigned=          89           0
 nber times 1st assigned=          90           0
 nber times 1st assigned=          91           0
 nber times 1st assigned=          92           0
 nber times 1st assigned=          93           0
 nber times 1st assigned=          94           0
 nber times 1st assigned=          95           0
 nber times 1st assigned=          96           0
 nber times 1st assigned=          97           0
 nber times 1st assigned=          98           0
 nber times 1st assigned=          99           0
 nber times 1st assigned=         100           0
 nber times 1st assigned=         101           0
 nber times 1st assigned=         102           0
 modes represented=   110.524075232625     
 p1=
    0.    0.   -0.    0.   -0.    0. -171.    0.   12.  121.   -6.   -4.    2.   -9.   -0.   -4.   -1.    1.   -1.    0.
   -1.    0.   -2.    1.    1.    0.   -3.   -0.   -0.   -3.    0.   -1.   -1.   -1.    1.    0.   -0.   -3.   -3.   -0.
   -2.    2.   -0.   -0.   -2.   -0.   -1.   -1.    0.    1.    0.    1.    0.    1.    0.   -0.   -0.    1.    0.    0.
   -0.   -1.    1.    1.   -1.   -0.   -1.   -0.    3.   -1.    2.    1.    1.   -1.    1.    1.    0.   -1.    0.   -1.
    2.    1.   -1.   -1.    1.    4.   -0.    1.    0.   -1.    3.   -0.    0.    0.   -0.    0.   -0.   -0.    0.   -0.
    0.    0.
 p2=
   -0.   -0.    0.    0.    0.    0.  182.  100.  -21.   26.    1.   -7.    3.  -13.    2.    1.    3.   -2.    1.    0.
   -0.    1.    1.    1.   -1.   -1.   -1.    2.   -1.    3.   -0.    0.    0.   -1.   -0.    0.    0.   -1.    4.    2.
   -2.    1.    1.   -0.    2.    0.    2.   -1.   -1.   -1.    0.    0.    1.   -1.   -0.   -0.   -0.   -0.   -1.    0.
   -0.    1.    0.    1.    0.   -0.   -1.   -1.   -2.    2.    1.   -0.   -0.   -1.    0.    1.    1.   -1.    1.    0.
   -1.   -1.    1.    3.   -1.    1.    4.    3.    0.    0.   -3.   -0.   -0.   -0.    0.    0.    0.   -0.   -0.   -0.
   -0.   -0.

 Displacement: in terms of nc of 1 THEN of nc of 2

   1     freq=    -0. Q=  0.000 lam=    -0.0     freq=    -0. Q=  0.000 lam=    -0.0
   2     freq=    -0. Q=  0.000 lam=    -0.0     freq=    -0. Q=  0.000 lam=    -0.0
   3     freq=     0. Q= -0.000 lam=     0.0     freq=    -0. Q= -0.000 lam=    -0.0
   4     freq=     0. Q=  0.000 lam=     0.0     freq=    -0. Q=  0.000 lam=    -0.0
   5     freq=     0. Q= -0.000 lam=     0.0     freq=     0. Q= -0.000 lam=     0.0
   6     freq=     0. Q=  0.000 lam=     0.0     freq=     0. Q=  0.000 lam=     0.0
   7     freq=    18. Q= -2.933 lam=    77.8     freq=    20. Q= -3.306 lam=   110.2
   8     freq=    24. Q=  0.004 lam=     0.0     freq=    24. Q=  1.963 lam=    46.0
   9     freq=    44. Q=  0.330 lam=     2.4     freq=    47. Q=  0.588 lam=     8.2
  10     freq=    46. Q=  3.305 lam=   252.2     freq=    63. Q=  0.841 lam=    22.3
  11     freq=    69. Q= -0.197 lam=     1.3     freq=    66. Q= -0.021 lam=     0.0
  12     freq=   105. Q= -0.156 lam=     1.3     freq=   112. Q= -0.306 lam=     5.2
  13     freq=   134. Q=  0.082 lam=     0.5     freq=   116. Q=  0.113 lam=     0.7
  14     freq=   158. Q= -0.453 lam=    16.2     freq=   159. Q= -0.680 lam=    36.7
  15     freq=   192. Q= -0.006 lam=     0.0     freq=   182. Q= -0.114 lam=     1.2
  16     freq=   204. Q= -0.205 lam=     4.3     freq=   191. Q= -0.057 lam=     0.3
  17     freq=   209. Q= -0.086 lam=     0.8     freq=   206. Q= -0.198 lam=     4.1
  18     freq=   264. Q=  0.058 lam=     0.4     freq=   253. Q=  0.130 lam=     2.1
  19     freq=   287. Q= -0.048 lam=     0.3     freq=   268. Q= -0.076 lam=     0.8
  20     freq=   337. Q=  0.020 lam=     0.1     freq=   312. Q=  0.019 lam=     0.1
  21     freq=   359. Q= -0.069 lam=     0.9     freq=   337. Q= -0.033 lam=     0.2
  22     freq=   365. Q=  0.024 lam=     0.1     freq=   364. Q=  0.092 lam=     1.6
  23     freq=   412. Q= -0.175 lam=     6.3     freq=   412. Q= -0.066 lam=     0.9
  24     freq=   413. Q=  0.092 lam=     1.8     freq=   413. Q=  0.042 lam=     0.4
  25     freq=   431. Q=  0.043 lam=     0.4     freq=   426. Q=  0.092 lam=     1.8
  26     freq=   440. Q=  0.032 lam=     0.2     freq=   432. Q=  0.059 lam=     0.8
  27     freq=   461. Q= -0.224 lam=    11.5     freq=   436. Q= -0.075 lam=     1.2
  28     freq=   469. Q= -0.011 lam=     0.0     freq=   452. Q= -0.149 lam=     5.0
  29     freq=   501. Q= -0.010 lam=     0.0     freq=   460. Q= -0.081 lam=     1.5
  30     freq=   510. Q= -0.274 lam=    19.2     freq=   501. Q= -0.290 lam=    21.1
  31     freq=   554. Q=  0.028 lam=     0.2     freq=   527. Q=  0.015 lam=     0.1
  32     freq=   573. Q= -0.144 lam=     5.9     freq=   546. Q= -0.012 lam=     0.0
  33     freq=   574. Q= -0.123 lam=     4.3     freq=   561. Q= -0.044 lam=     0.6
  34     freq=   610. Q= -0.061 lam=     1.1     freq=   566. Q= -0.135 lam=     5.1
  35     freq=   623. Q=  0.070 lam=     1.5     freq=   588. Q=  0.017 lam=     0.1
  36     freq=   626. Q=  0.017 lam=     0.1     freq=   604. Q=  0.028 lam=     0.2
  37     freq=   640. Q= -0.013 lam=     0.1     freq=   630. Q= -0.037 lam=     0.4
  38     freq=   655. Q= -0.275 lam=    24.8     freq=   635. Q= -0.088 lam=     2.5
  39     freq=   693. Q= -0.273 lam=    25.8     freq=   638. Q= -0.382 lam=    46.5
  40     freq=   703. Q= -0.006 lam=     0.0     freq=   668. Q= -0.200 lam=    13.4
  41     freq=   715. Q= -0.239 lam=    20.4     freq=   690. Q= -0.170 lam=     9.9
  42     freq=   717. Q=  0.171 lam=    10.5     freq=   708. Q=  0.085 lam=     2.5
  43     freq=   736. Q= -0.016 lam=     0.1     freq=   709. Q= -0.108 lam=     4.1
  44     freq=   747. Q= -0.048 lam=     0.9     freq=   722. Q= -0.015 lam=     0.1
  45     freq=   764. Q= -0.261 lam=    25.9     freq=   739. Q= -0.188 lam=    13.1
  46     freq=   773. Q= -0.006 lam=     0.0     freq=   745. Q= -0.013 lam=     0.1
  47     freq=   822. Q= -0.111 lam=     5.0     freq=   748. Q= -0.238 lam=    21.1
  48     freq=   831. Q= -0.073 lam=     2.2     freq=   778. Q= -0.112 lam=     4.8
  49     freq=   841. Q=  0.030 lam=     0.4     freq=   804. Q=  0.092 lam=     3.4
  50     freq=   863. Q=  0.063 lam=     1.7     freq=   809. Q=  0.099 lam=     3.9
  51     freq=   867. Q=  0.011 lam=     0.1     freq=   839. Q=  0.001 lam=     0.0
  52     freq=   872. Q=  0.097 lam=     4.1     freq=   841. Q=  0.004 lam=     0.0
  53     freq=   877. Q=  0.009 lam=     0.0     freq=   867. Q=  0.082 lam=     2.9
  54     freq=   901. Q=  0.119 lam=     6.4     freq=   886. Q=  0.141 lam=     8.8
  55     freq=   952. Q=  0.001 lam=     0.0     freq=   900. Q=  0.000 lam=     0.0
  56     freq=   965. Q= -0.049 lam=     1.2     freq=   922. Q= -0.030 lam=     0.4
  57     freq=   970. Q= -0.011 lam=     0.1     freq=   939. Q= -0.008 lam=     0.0
  58     freq=   980. Q=  0.077 lam=     2.9     freq=   947. Q=  0.000 lam=     0.0
  59     freq=   991. Q=  0.000 lam=     0.0     freq=   958. Q=  0.080 lam=     3.1
  60     freq=   999. Q=  0.050 lam=     1.2     freq=   964. Q=  0.023 lam=     0.3
  61     freq=  1034. Q= -0.002 lam=     0.0     freq=   999. Q= -0.004 lam=     0.0
  62     freq=  1039. Q= -0.069 lam=     2.4     freq=  1035. Q= -0.065 lam=     2.2
  63     freq=  1082. Q=  0.073 lam=     2.9     freq=  1071. Q=  0.058 lam=     1.8
  64     freq=  1109. Q=  0.090 lam=     4.5     freq=  1093. Q=  0.104 lam=     6.0
  65     freq=  1143. Q= -0.075 lam=     3.3     freq=  1130. Q= -0.048 lam=     1.3
  66     freq=  1145. Q= -0.060 lam=     2.1     freq=  1133. Q= -0.007 lam=     0.0
  67     freq=  1181. Q= -0.123 lam=     9.0     freq=  1169. Q= -0.100 lam=     5.8
  68     freq=  1184. Q= -0.039 lam=     0.9     freq=  1169. Q= -0.158 lam=    14.7
  69     freq=  1209. Q=  0.378 lam=    86.5     freq=  1199. Q=  0.284 lam=    48.3
  70     freq=  1211. Q= -0.101 lam=     6.2     freq=  1204. Q= -0.315 lam=    59.7
  71     freq=  1246. Q=  0.272 lam=    46.0     freq=  1239. Q=  0.079 lam=     3.8
  72     freq=  1255. Q=  0.210 lam=    27.7     freq=  1243. Q=  0.008 lam=     0.0
  73     freq=  1275. Q=  0.093 lam=     5.5     freq=  1272. Q=  0.001 lam=     0.0
  74     freq=  1310. Q= -0.085 lam=     4.8     freq=  1315. Q= -0.122 lam=     9.7
  75     freq=  1321. Q=  0.167 lam=    18.3     freq=  1318. Q=  0.015 lam=     0.1
  76     freq=  1340. Q=  0.085 lam=     4.9     freq=  1332. Q=  0.148 lam=    14.5
  77     freq=  1346. Q=  0.032 lam=     0.7     freq=  1351. Q=  0.135 lam=    12.3
  78     freq=  1364. Q= -0.136 lam=    12.6     freq=  1357. Q= -0.178 lam=    21.6
  79     freq=  1380. Q=  0.037 lam=     1.0     freq=  1393. Q=  0.082 lam=     4.7
  80     freq=  1444. Q= -0.171 lam=    21.2     freq=  1432. Q= -0.064 lam=     2.9
  81     freq=  1457. Q=  0.320 lam=    74.5     freq=  1454. Q=  0.146 lam=    15.4
  82     freq=  1463. Q=  0.128 lam=    12.0     freq=  1466. Q=  0.155 lam=    17.6
  83     freq=  1489. Q= -0.140 lam=    14.6     freq=  1478. Q= -0.088 lam=     5.8
  84     freq=  1503. Q= -0.105 lam=     8.3     freq=  1484. Q= -0.428 lam=   135.7
  85     freq=  1525. Q=  0.148 lam=    16.8     freq=  1493. Q=  0.109 lam=     8.8
  86     freq=  1544. Q=  0.701 lam=   379.4     freq=  1495. Q=  0.143 lam=    15.3
  87     freq=  1558. Q= -0.013 lam=     0.1     freq=  1514. Q= -0.608 lam=   279.6
  88     freq=  1595. Q=  0.082 lam=     5.3     freq=  1532. Q=  0.451 lam=   156.2
  89     freq=  1597. Q=  0.001 lam=     0.0     freq=  1583. Q=  0.045 lam=     1.6
  90     freq=  1638. Q= -0.098 lam=     7.8     freq=  1612. Q= -0.021 lam=     0.4
  91     freq=  1646. Q=  0.467 lam=   179.7     freq=  1640. Q=  0.529 lam=   229.1
  92     freq=  3168. Q= -0.000 lam=     0.0     freq=  3141. Q= -0.012 lam=     0.2
  93     freq=  3169. Q=  0.010 lam=     0.2     freq=  3142. Q=  0.001 lam=     0.0
  94     freq=  3181. Q=  0.003 lam=     0.0     freq=  3155. Q=  0.000 lam=     0.0
  95     freq=  3181. Q= -0.010 lam=     0.2     freq=  3158. Q= -0.002 lam=     0.0
  96     freq=  3185. Q=  0.014 lam=     0.3     freq=  3162. Q=  0.016 lam=     0.4
  97     freq=  3191. Q= -0.011 lam=     0.2     freq=  3171. Q= -0.012 lam=     0.2
  98     freq=  3198. Q= -0.017 lam=     0.4     freq=  3180. Q= -0.014 lam=     0.3
  99     freq=  3207. Q=  0.007 lam=     0.1     freq=  3191. Q=  0.005 lam=     0.0
 100     freq=  3214. Q= -0.018 lam=     0.5     freq=  3191. Q= -0.017 lam=     0.5
 101     freq=  3215. Q=  0.006 lam=     0.1     freq=  3215. Q=  0.014 lam=     0.3
 102     freq=  3245. Q=  0.008 lam=     0.1     freq=  3242. Q=  0.009 lam=     0.1

 total reorg energy (cm**-1, kcal/mol)=     1506.     1497.      4.31      4.28
 Nber of molecules processed=           2
