 Enter ifcurve (0=recti, 1=orth curvi, 2=apprx curvi, -1 = skip
 And atom ordering flag, 0= never changes, 1= use the first order thenceforth,
  2= deduce it (does read on fail), 3= always read it
 Reading file: 
 ./CDT-BT_2_C0S1.log                                                            
                                          
  Entering Gaussian System, Link 0=g16                                          
  
 Gaussian format, type: g94, g98, g03= F F F
  #P Geom=AllCheck Guess=TCheck SCRF=Check GenChk RB3LYP TD(FC,Read)/6-3    
 energy type= TD      
 Original G94 input coords:
  6  0.286277  0.990800 -0.019864
  6 -0.862529  0.537861 -0.023643
  6 -2.161191  0.082595 -0.027639
  7 -2.544497 -1.186553 -0.031877
  6 -3.895529 -1.296669 -0.035194
  6 -4.607482 -2.516952 -0.040067
  6 -5.988595 -2.494599 -0.043095
  6 -6.697044 -1.276927 -0.041409
  6 -6.025402 -0.057924 -0.036639
  6 -4.633527 -0.070120 -0.033569
 16 -3.522793  1.276736 -0.027486
  6  1.566215  1.458730 -0.016070
  6  2.022701  2.807308 -0.011557
  6  3.397597  2.903145 -0.008545
  6  4.426306  4.019782 -0.003559
  6  5.723970  3.237415 -0.002996
  6  7.098491  3.517746  0.000554
  6  7.866346  2.370255 -0.000885
 16  6.907393  0.907100 -0.006689
  6  5.449894  1.856490 -0.007185
  6  4.058624  1.642578 -0.010539
 16  2.956668  0.302763 -0.016316
  1 -4.049034 -3.444749 -0.041308
  1 -6.540110 -3.427903 -0.046840
  1 -7.780831 -1.287788 -0.043854
  1 -6.575869  0.875142 -0.035361
  1  1.325446  3.633549 -0.010789
  1  4.331662  4.667648 -0.882731
  1  4.328120  4.663077  0.878569
  1  7.532992  4.509073  0.004050
  1  8.942563  2.289851  0.001095
 nber atoms=          31
  Total Energy, E(TD-HF/TD-DFT) =  -1940.72238675                               
  
          32          49 "  -1940.72238675"
After scan for Atom:   Atom  AN      X      Y      Z        X      Y      Z        X      Y      Z   
After scan for Atom:   Atom  AN      X      Y      Z        X      Y      Z        X      Y      Z   
After scan for Atom:   Atom  AN      X      Y      Z        X      Y      Z        X      Y      Z   
After scan for Atom:   Atom  AN      X      Y      Z        X      Y      Z        X      Y      Z   
After scan for Atom:   Atom  AN      X      Y      Z        X      Y      Z        X      Y      Z   
After scan for Atom:   Atom  AN      X      Y      Z        X      Y      Z        X      Y      Z   
After scan for Atom:   Atom  AN      X      Y      Z        X      Y      Z        X      Y      Z   
After scan for Atom:   Atom  AN      X      Y      Z        X      Y      Z        X      Y      Z   
After scan for Atom:   Atom  AN      X      Y      Z        X      Y      Z        X      Y      Z   
After scan for Atom:   Atom  AN      X      Y      Z        X      Y      Z        X      Y      Z   
After scan for Atom:   Atom  AN      X      Y      Z        X      Y      Z        X      Y      Z   
After scan for Atom:   Atom  AN      X      Y      Z        X      Y      Z        X      Y      Z   
After scan for Atom:   Atom  AN      X      Y      Z        X      Y      Z        X      Y      Z   
After scan for Atom:   Atom  AN      X      Y      Z        X      Y      Z        X      Y      Z   
After scan for Atom:   Atom  AN      X      Y      Z        X      Y      Z        X      Y      Z   
After scan for Atom:   Atom  AN      X      Y      Z        X      Y      Z        X      Y      Z   
After scan for Atom:   Atom  AN      X      Y      Z        X      Y      Z        X      Y      Z   
After scan for Atom:   Atom  AN      X      Y      Z        X      Y      Z        X      Y      Z   
After scan for Atom:   Atom  AN      X      Y      Z        X      Y      Z        X      Y      Z   
After scan for Atom:   Atom  AN      X      Y      Z        X      Y      Z        X      Y      Z   
After scan for Atom:   Atom  AN      X      Y      Z        X      Y      Z        X      Y      Z   
After scan for Atom:   Atom  AN      X      Y      Z        X      Y      Z        X      Y      Z   
After scan for Atom:   Atom  AN      X      Y      Z        X      Y      Z        X      Y      Z   
After scan for Atom:   Atom  AN      X      Y      Z        X      Y      Z        X      Y      Z   
After scan for Atom:   Atom  AN      X      Y      Z        X      Y      Z        X      Y      Z   
After scan for Atom:   Atom  AN      X      Y      Z        X      Y      Z        X      Y      Z   
After scan for Atom:   Atom  AN      X      Y      Z        X      Y      Z        X      Y      Z   
After scan for Atom:   Atom  AN      X      Y      Z        X      Y      Z        X      Y      Z   
After scan for Atom:   Atom  AN      X      Y      Z        X      Y      Z        X      Y      Z   
 g94    frequencies=
     0.0    0.0    0.0    0.0    0.0    0.0   20.0   22.3   28.7   51.3
    95.2  109.9  133.9  172.3  175.6  198.7  213.7  233.5  262.1  299.0
   334.5  372.9  405.5  427.7  433.5  442.6  466.7  491.5  501.1  504.2
   508.1  550.0  554.1  561.8  572.0  598.5  626.7  641.0  661.1  664.0
   676.0  705.4  707.9  727.7  767.9  798.8  807.6  857.3  873.0  881.7
   938.3  940.3  945.6  959.9  983.1  984.4 1022.9 1034.9 1078.4 1099.7
  1143.2 1148.0 1153.8 1181.9 1183.0 1207.0 1262.6 1273.4 1304.1 1330.4
  1348.8 1351.5 1375.8 1443.7 1451.9 1453.6 1465.5 1480.3 1492.8 1514.8
  1543.0 1570.5 1616.1 2121.8 3014.7 3037.4 3167.3 3178.5 3190.3 3198.8
  3199.4 3214.8 3243.5
 g94    symmetries=
                                                 A      A      A      A
       A      A      A      A      A      A      A      A      A      A
       A      A      A      A      A      A      A      A      A      A
       A      A      A      A      A      A      A      A      A      A
       A      A      A      A      A      A      A      A      A      A
       A      A      A      A      A      A      A      A      A      A
       A      A      A      A      A      A      A      A      A      A
       A      A      A      A      A      A      A      A      A      A
       A      A      A      A      A      A      A      A      A      A
       A      A      A
 atomic masses:
 12.0000 12.0000 12.0000 14.0031 12.0000 12.0000 12.0000 12.0000 12.0000 12.0000
 31.9721 12.0000 12.0000 12.0000 12.0000 12.0000 12.0000 12.0000 31.9721 12.0000
 12.0000 31.9721  1.0078  1.0078  1.0078  1.0078  1.0078  1.0078  1.0078  1.0078
  1.0078
 looking for force constants in 
 ./CDT-BT_2_C0S1.fchk                                                           
  
 Cartesian Force Constants                  R   N=        4371                  
  
 n3=          93        4371
 g94-fc frequencies=
    -2.2   -1.5   -0.0    0.0    0.0    0.5   20.0   22.3   28.7   51.3
    95.2  109.9  133.9  172.3  175.6  198.7  213.7  233.5  262.1  299.0
   334.5  372.9  405.5  427.7  433.5  442.6  466.7  491.5  501.1  504.2
   508.1  550.1  554.1  561.8  572.1  598.5  626.7  641.0  661.1  664.0
   676.0  705.4  707.9  727.7  768.0  798.9  807.6  857.3  873.0  881.7
   938.3  940.3  945.6  959.9  983.1  984.4 1022.9 1035.0 1078.4 1099.7
  1143.2 1148.0 1153.9 1181.9 1183.1 1207.0 1262.6 1273.5 1304.1 1330.4
  1348.8 1351.5 1375.8 1443.7 1451.9 1453.6 1465.5 1480.3 1492.9 1514.9
  1543.0 1570.6 1616.1 2121.8 3014.8 3037.5 3167.4 3178.5 3190.4 3198.9
  3199.5 3214.9 3243.6
 at 99999: n3=          93
 symm operator            1 :  F  nop=           0
 symm operator            2 :  F  nop=           0
 symm operator            3 :  F  nop=           0
 symm operator            4 :  F  nop=           0
 symm operator            5 :  F  nop=           0
 symm operator            6 :  F  nop=           0
 symm operator            7 :  F  nop=           0
 The point group of the molecule is  C1
 Symmetry rotation matrix:
   1.00000   0.00000   0.00000
   0.00000   1.00000   0.00000
   0.00000   0.00000   1.00000

 Projecting out zero-frequency components
 generating redundant internal coords
         300        3600          31
 search for int coords
   1 str   2   1   1.235
   2 str   3   2   1.376
   3 str   4   3   1.326
   4 str   5   4   1.356
   5 str   6   5   1.413
   6 str   7   6   1.381
   7 str   8   7   1.409
   8 str   9   8   1.392
   9 str  10   5   1.431
  10 str  10   9   1.392
  11 str  11   3   1.811
  12 str  11  10   1.746
  13 str  12   1   1.363
  14 str  13  12   1.424
  15 str  14  13   1.378
  16 str  15  14   1.518
  17 str  16  15   1.515
  18 str  17  16   1.403
  19 str  18  17   1.381
  20 str  19  18   1.749
  21 str  20  16   1.408
  22 str  20  19   1.739
  23 str  21  14   1.423
  24 str  21  20   1.408
  25 str  22  12   1.808
  26 str  22  21   1.735
  27 str  23   6   1.083
  28 str  24   7   1.084
  29 str  25   8   1.084
  30 str  26   9   1.083
  31 str  27  13   1.081
  32 str  28  15   1.096
  33 str  29  15   1.096
  34 str  30  17   1.082
  35 str  31  18   1.079
 nber stretches=          35
  36 lin ben   1   2   3
  38 ben   1  12  13
  39 prop tor   1  12  13  14
  40 prop tor   1  12  13  27
  41 ben   1  12  22
  42 prop tor   1  12  22  21
 Extend lin bond           1          12           2           3
  43 lin ben   2   1  12
  45 ben   2   3   4
  46 prop tor   2   3   4   5
  47 ben   2   3  11
  48 prop tor   2   3  11  10
  49 ben   3   4   5
  50 prop tor   3   4   5   6
  51 prop tor   3   4   5  10
  52 ben   3  11  10
  53 ben   4   3  11
  54 prop tor   4   3  11  10
  55 ben   4   5   6
  56 prop tor   4   5   6   7
  57 prop tor   4   5   6  23
  58 ben   4   5  10
  59 prop tor   4   5  10   9
  60 prop tor   4   5  10  11
  61 ben   5   6   7
  62 prop tor   5   6   7   8
  63 prop tor   5   6   7  24
  64 ben   5   6  23
  65 ben   5  10   9
  66 ben   5  10  11
  67 prop tor   5  10  11   3
  68 ben   6   5  10
  69 prop tor   6   5  10   9
  70 prop tor   6   5  10  11
  71 ben   6   7   8
  72 prop tor   6   7   8   9
  73 prop tor   6   7   8  25
  74 ben   6   7  24
  75 ben   7   6  23
  76 ben   7   8   9
  77 prop tor   7   8   9  10
  78 prop tor   7   8   9  26
  79 ben   7   8  25
  80 ben   8   7  24
  81 ben   8   9  10
  82 prop tor   8   9  10   5
  83 prop tor   8   9  10  11
  84 ben   8   9  26
  85 ben   9   8  25
  86 ben   9  10  11
  87 prop tor   9  10  11   3
  88 prop tor  10   5   6   7
  89 prop tor  10   5   6  23
  90 ben  10   9  26
  91 prop tor  11   3   4   5
  92 ben  12  13  14
  93 prop tor  12  13  14  15
  94 prop tor  12  13  14  21
  95 ben  12  13  27
  96 ben  12  22  21
  97 ben  13  12  22
  98 prop tor  13  12  22  21
  99 ben  13  14  15
 100 prop tor  13  14  15  16
 101 prop tor  13  14  15  28
 102 prop tor  13  14  15  29
 103 ben  13  14  21
 104 prop tor  13  14  21  20
 105 prop tor  13  14  21  22
 106 ben  14  13  27
 107 ben  14  15  16
 108 prop tor  14  15  16  17
 109 prop tor  14  15  16  20
 110 ben  14  15  28
 111 ben  14  15  29
 112 ben  14  21  20
 113 ben  14  21  22
 114 prop tor  14  21  22  12
 115 ben  15  14  21
 116 prop tor  15  14  21  20
 117 prop tor  15  14  21  22
 118 ben  15  16  17
 119 prop tor  15  16  17  18
 120 prop tor  15  16  17  30
 121 ben  15  16  20
 122 prop tor  15  16  20  19
 123 prop tor  15  16  20  21
 124 ben  16  15  28
 125 ben  16  15  29
 126 ben  16  17  18
 127 prop tor  16  17  18  19
 128 prop tor  16  17  18  31
 129 ben  16  17  30
 130 ben  16  20  19
 131 ben  16  20  21
 132 prop tor  16  20  21  14
 133 prop tor  16  20  21  22
 134 ben  17  16  20
 135 prop tor  17  16  20  19
 136 prop tor  17  16  20  21
 137 ben  17  18  19
 138 prop tor  17  18  19  20
 139 ben  17  18  31
 140 ben  18  17  30
 141 ben  18  19  20
 142 prop tor  18  19  20  16
 143 prop tor  18  19  20  21
 144 ben  19  18  31
 145 ben  19  20  21
 146 prop tor  19  20  21  14
 147 prop tor  19  20  21  22
 148 prop tor  20  16  17  18
 149 prop tor  20  16  17  30
 150 ben  20  21  22
 151 prop tor  20  21  22  12
 152 prop tor  21  14  15  16
 153 prop tor  21  14  15  28
 154 prop tor  21  14  15  29
 155 prop tor  22  12  13  14
 156 prop tor  22  12  13  27
 157 prop tor  23   6   7   8
 158 prop tor  23   6   7  24
 159 prop tor  24   7   8   9
 160 prop tor  24   7   8  25
 161 prop tor  25   8   9  10
 162 prop tor  25   8   9  26
 163 prop tor  26   9  10   5
 164 prop tor  26   9  10  11
 165 prop tor  27  13  14  15
 166 prop tor  27  13  14  21
 167 prop tor  28  15  16  17
 168 prop tor  28  15  16  20
 169 ben  28  15  29
 170 prop tor  29  15  16  17
 171 prop tor  29  15  16  20
 172 prop tor  30  17  18  19
 173 prop tor  30  17  18  31
 174 prop tor  31  18  19  20
 175 lin bend prop tor   1  12   3   2
 176 lin bend prop tor   1  12   3   4
 177 lin bend prop tor   1  12   3  11
 178 lin bend prop tor  13  12   3   2
 179 lin bend prop tor  13  12   3   4
 180 lin bend prop tor  13  12   3  11
 181 lin bend prop tor  22  12   3   2
 182 lin bend prop tor  22  12   3   4
 183 lin bend prop tor  22  12   3  11
 nber bend=              59
 nber lin bend=           1
 nber prop tor=          89
 nber impr tor=           0
 nber tot redund int=         183
 Eigenvalues of G in red int coords
    Gval -0.00000000 -0.00000000 -0.00000000 -0.00000000 -0.00000000 -0.00000000 -0.00000000 -0.00000000
    Gval -0.00000000 -0.00000000 -0.00000000 -0.00000000 -0.00000000 -0.00000000 -0.00000000 -0.00000000
    Gval -0.00000000 -0.00000000 -0.00000000 -0.00000000 -0.00000000 -0.00000000 -0.00000000 -0.00000000
    Gval -0.00000000 -0.00000000 -0.00000000 -0.00000000 -0.00000000 -0.00000000 -0.00000000 -0.00000000
    Gval -0.00000000 -0.00000000 -0.00000000 -0.00000000 -0.00000000 -0.00000000 -0.00000000 -0.00000000
    Gval -0.00000000 -0.00000000 -0.00000000 -0.00000000 -0.00000000  0.00000000  0.00000000  0.00000000
    Gval  0.00000000  0.00000000  0.00000000  0.00000000  0.00000000  0.00000000  0.00000000  0.00000000
    Gval  0.00000000  0.00000000  0.00000000  0.00000000  0.00000000  0.00000000  0.00000000  0.00000000
    Gval  0.00000000  0.00000000  0.00000000  0.00000000  0.00000000  0.00000000  0.00000000  0.00000000
    Gval  0.00000000  0.00000000  0.00000000  0.00000000  0.00000000  0.00000000  0.00000000  0.00000000
    Gval  0.00000000  0.00000000  0.00000000  0.00000000  0.00000000  0.00000000  0.00000000  0.00000000
    Gval  0.00000000  0.00000000  0.00000000  0.00000000  0.00000000  0.00000000  0.00000000  0.00000000
    Gval  0.00000036  0.00000163  0.00000359  0.00000375  0.00000949  0.00001263  0.00001585  0.00001903
    Gval  0.00001987  0.00002364  0.00002953  0.00003277  0.00003605  0.00003887  0.00004258  0.00004896
    Gval  0.00005066  0.00005738  0.00006244  0.00006615  0.00007184  0.00007972  0.00008692  0.00009251
    Gval  0.00009651  0.00010409  0.00011504  0.00011721  0.00012464  0.00013117  0.00013404  0.00013608
    Gval  0.00015659  0.00016593  0.00020777  0.00021026  0.00022406  0.00022560  0.00026905  0.00028549
    Gval  0.00029840  0.00031245  0.00032051  0.00036086  0.00036607  0.00037179  0.00038798  0.00039748
    Gval  0.00042478  0.00044512  0.00048408  0.00058336  0.00059314  0.00059672  0.00059746  0.00061068
    Gval  0.00061829  0.00062414  0.00062838  0.00065468  0.00065985  0.00074457  0.00089607  0.00105402
    Gval  0.00108163  0.00109609  0.00112157  0.00114228  0.00116298  0.00117095  0.00118166  0.00132530
    Gval  0.00137929  0.00162103  0.00166287  0.00179798  0.00195003  0.00207617  0.00265649  0.00269245
    Gval  0.00302323  0.00356383  0.00370339  0.00401536  0.00406397  0.32081321 11.83187744
  3.635902333651406E-007  3.635902333651406E-007
  1.627197411294815E-006  3.635902333651406E-007
  3.591259733636872E-006  3.635902333651406E-007
  3.753478396205699E-006  3.635902333651406E-007
  9.491940565398206E-006  3.635902333651406E-007
  1.263011560434065E-005  3.635902333651406E-007
  1.585394456894761E-005  3.635902333651406E-007
  1.902932311974525E-005  3.635902333651406E-007
  1.987171652390856E-005  3.635902333651406E-007
  2.364303320524553E-005  3.635902333651406E-007
  2.952581420751138E-005  3.635902333651406E-007
  3.276933267819258E-005  3.635902333651406E-007
  3.604650002452907E-005  3.635902333651406E-007
  3.887229696594187E-005  3.635902333651406E-007
  4.258028024388041E-005  3.635902333651406E-007
  4.895861061807334E-005  3.635902333651406E-007
  5.066031414328011E-005  3.635902333651406E-007
  5.738354861190515E-005  3.635902333651406E-007
  6.243607897765009E-005  3.635902333651406E-007
  6.614655735781135E-005  3.635902333651406E-007
  7.183926705662557E-005  3.635902333651406E-007
  7.972103980112249E-005  3.635902333651406E-007
  8.692442028970676E-005  3.635902333651406E-007
  9.251380367571811E-005  3.635902333651406E-007
  9.651458281970423E-005  3.635902333651406E-007
  1.040909398108344E-004  3.635902333651406E-007
  1.150373536951810E-004  3.635902333651406E-007
  1.172074520010743E-004  3.635902333651406E-007
  1.246437420565906E-004  3.635902333651406E-007
  1.311733082416489E-004  3.635902333651406E-007
  1.340395643017577E-004  3.635902333651406E-007
  1.360752054605585E-004  3.635902333651406E-007
  1.565880177611470E-004  3.635902333651406E-007
  1.659318319008664E-004  3.635902333651406E-007
  2.077654859610522E-004  3.635902333651406E-007
  2.102554968706737E-004  3.635902333651406E-007
  2.240573795022990E-004  3.635902333651406E-007
  2.256016428177058E-004  3.635902333651406E-007
  2.690514536997751E-004  3.635902333651406E-007
  2.854888280853588E-004  3.635902333651406E-007
  2.983979947022907E-004  3.635902333651406E-007
  3.124472341768599E-004  3.635902333651406E-007
  3.205112525022437E-004  3.635902333651406E-007
  3.608628554964105E-004  3.635902333651406E-007
  3.660657811814765E-004  3.635902333651406E-007
  3.717854042024095E-004  3.635902333651406E-007
  3.879791007564636E-004  3.635902333651406E-007
  3.974754134886461E-004  3.635902333651406E-007
  4.247791770338684E-004  3.635902333651406E-007
  4.451207044956248E-004  3.635902333651406E-007
  4.840760521931846E-004  3.635902333651406E-007
  5.833560491218339E-004  3.635902333651406E-007
  5.931437645954208E-004  3.635902333651406E-007
  5.967246367911260E-004  3.635902333651406E-007
  5.974604441187290E-004  3.635902333651406E-007
  6.106846385978043E-004  3.635902333651406E-007
  6.182904708920162E-004  3.635902333651406E-007
  6.241447187185292E-004  3.635902333651406E-007
  6.283813862724134E-004  3.635902333651406E-007
  6.546816086181173E-004  3.635902333651406E-007
  6.598464673134178E-004  3.635902333651406E-007
  7.445731621456305E-004  3.635902333651406E-007
  8.960665340350237E-004  3.635902333651406E-007
  1.054019007019163E-003  3.635902333651406E-007
  1.081627396579664E-003  3.635902333651406E-007
  1.096093197592644E-003  3.635902333651406E-007
  1.121570051485563E-003  3.635902333651406E-007
  1.142281445045059E-003  3.635902333651406E-007
  1.162984862765936E-003  3.635902333651406E-007
  1.170949847095415E-003  3.635902333651406E-007
  1.181659814094070E-003  3.635902333651406E-007
  1.325301541148907E-003  3.635902333651406E-007
  1.379288627294995E-003  3.635902333651406E-007
  1.621033923003253E-003  3.635902333651406E-007
  1.662870637944881E-003  3.635902333651406E-007
  1.797979769515913E-003  3.635902333651406E-007
  1.950034210131508E-003  3.635902333651406E-007
  2.076169533249683E-003  3.635902333651406E-007
  2.656490172058738E-003  3.635902333651406E-007
  2.692447380634197E-003  3.635902333651406E-007
  3.023232327463108E-003  3.635902333651406E-007
  3.563829140758631E-003  3.635902333651406E-007
  3.703386679007805E-003  3.635902333651406E-007
  4.015357749500084E-003  3.635902333651406E-007
  4.063966897358883E-003  3.635902333651406E-007
  0.320813206069334       3.635902333651406E-007
   11.8318774441783       3.635902333651406E-007
 cut=1d-8, nber non-redundant internal coords=          87
 Check on Eigenvals of non-red overlap matrix:
  0.00000036  0.00000163  0.00000359  0.00000375  0.00000949  0.00001263  0.00001585  0.00001903
  0.00001987  0.00002364  0.00002953  0.00003277  0.00003605  0.00003887  0.00004258  0.00004896
  0.00005066  0.00005738  0.00006244  0.00006615  0.00007184  0.00007972  0.00008692  0.00009251
  0.00009651  0.00010409  0.00011504  0.00011721  0.00012464  0.00013117  0.00013404  0.00013608
  0.00015659  0.00016593  0.00020777  0.00021026  0.00022406  0.00022560  0.00026905  0.00028549
  0.00029840  0.00031245  0.00032051  0.00036086  0.00036607  0.00037179  0.00038798  0.00039748
  0.00042478  0.00044512  0.00048408  0.00058336  0.00059314  0.00059672  0.00059746  0.00061068
  0.00061829  0.00062414  0.00062838  0.00065468  0.00065985  0.00074457  0.00089607  0.00105402
  0.00108163  0.00109609  0.00112157  0.00114228  0.00116298  0.00117095  0.00118166  0.00132530
  0.00137929  0.00162103  0.00166287  0.00179798  0.00195003  0.00207617  0.00265649  0.00269245
  0.00302323  0.00356383  0.00370339  0.00401536  0.00406397  0.32081321 11.83187744
 Checking for correct frequencies
 recalc frequencies=
    -0.0   -0.0   -0.0    0.0    0.0    0.0   20.0   22.3   28.7   51.3
    95.2  109.9  133.9  172.3  175.6  198.7  213.7  233.5  262.1  299.0
   334.5  372.9  405.5  427.7  433.5  442.6  466.7  491.5  501.1  504.2
   508.1  550.1  554.1  561.8  572.1  598.5  626.7  641.0  661.1  664.0
   676.0  705.4  707.9  727.7  768.0  798.9  807.6  857.3  873.0  881.7
   938.3  940.3  945.6  959.9  983.1  984.4 1022.9 1035.0 1078.4 1099.7
  1143.2 1148.0 1153.9 1181.9 1183.1 1207.0 1262.6 1273.5 1304.1 1330.4
  1348.8 1351.5 1375.8 1443.7 1451.9 1453.6 1465.5 1480.3 1492.9 1514.9
  1543.0 1570.6 1616.1 2121.8 3014.8 3037.5 3167.4 3178.5 3190.4 3198.9
  3199.5 3214.9 3243.6
 recalc symmetries=
                                                                       
                                                                       
                                                                       
                                                                       
                                                                       
                                                                       
                                                                       
                                                                       
                                                                       
                      
 recalc freqs check OK
 Zero-point lengths:
 10.0000 10.0000 10.0000 10.0000 10.0000 10.0000 55.4518 52.4965 46.2457 34.5981
 25.4017 23.6453 21.4215 18.8840 18.7091 17.5890 16.9590 16.2250 15.3127 14.3367
 13.5557 12.8377 12.3109 11.9875 11.9074 11.7834 11.4751 11.1825 11.0745 11.0409
 10.9983 10.5704 10.5319 10.4596 10.3651 10.1338  9.9031  9.7920  9.6418  9.6209
  9.5350  9.3341  9.3178  9.1901  8.9459  8.7712  8.7234  8.4668  8.3907  8.3490
  8.0934  8.0846  8.0620  8.0018  7.9066  7.9015  7.7514  7.7061  7.5492  7.4757
  7.3322  7.3167  7.2982  7.2112  7.2076  7.1357  6.9768  6.9471  6.8650  6.7967
  6.7503  6.7436  6.6837  6.5245  6.5061  6.5024  6.4760  6.4434  6.4163  6.3696
  6.3112  6.2556  6.1668  5.3819  4.5151  4.4982  4.4050  4.3973  4.3891  4.3833
  4.3829  4.3723  4.3529
 highest evec of mol 1
 -0.0002 -0.0001 -0.0000
  0.0001  0.0001  0.0000
 -0.0001 -0.0001 -0.0000
  0.0001  0.0001  0.0000
 -0.0001 -0.0000 -0.0000
  0.0001 -0.0001 -0.0000
 -0.0001 -0.0002 -0.0000
 -0.0001  0.0001  0.0000
 -0.0001  0.0001  0.0000
  0.0000  0.0000  0.0000
  0.0000 -0.0000 -0.0000
  0.0002  0.0000  0.0000
  0.0006 -0.0007 -0.0000
 -0.0004  0.0002 -0.0000
 -0.0003  0.0001 -0.0000
  0.0063  0.0019  0.0000
 -0.0152 -0.0652 -0.0002
 -0.2865  0.0335 -0.0005
  0.0008  0.0019  0.0000
  0.0034 -0.0001  0.0000
 -0.0000 -0.0002 -0.0000
 -0.0000  0.0001  0.0000
 -0.0002  0.0004  0.0000
  0.0004  0.0006  0.0000
  0.0003  0.0000  0.0000
  0.0003 -0.0005 -0.0000
 -0.0016  0.0020  0.0000
 -0.0002 -0.0004  0.0005
 -0.0002 -0.0004 -0.0005
  0.0698  0.1662  0.0006
  0.9351 -0.0732  0.0017
 generating redundant internal coords
         300        3600          31
 Adding extra bonds for z output only
           6           6           6           7           6           6
           6           6           6           6          16           6
           6           6           6           6           6           6
          16           6           6          16           1           1
           1           1           1           1           1           1
           1
 search for int coords
   1 str   2   1   1.235
   2 str   3   2   1.376
   3 str   4   3   1.326
   4 str   5   4   1.356
   5 str   6   5   1.413
   6 str   7   6   1.381
   7 str   8   7   1.409
   8 str   9   8   1.392
   9 str  10   5   1.431
  10 str  10   9   1.392
  11 str  11   3   1.811
  12 str  11  10   1.746
  13 str  12   1   1.363
  14 str  13  12   1.424
  15 str  14  13   1.378
  16 str  15  14   1.518
  17 str  16  15   1.515
  18 str  17  16   1.403
  19 str  18  17   1.381
  20 str  19  18   1.749
  21 str  20  16   1.408
  22 str  20  19   1.739
  23 str  21  14   1.423
  24 str  21  20   1.408
  25 str  22  12   1.808
  26 str  22  21   1.735
  27 str  23   6   1.083
  28 str  24   7   1.084
  29 str  25   8   1.084
  30 str  26   9   1.083
  31 str  27  13   1.081
  32 str  28  15   1.096
  33 str  29  15   1.096
  34 str  30  17   1.082
  35 str  31  18   1.079
 nber stretches=          35
  36 lin ben   1   2   3
  38 ben   1  12  13
  39 prop tor   1  12  13  14
  40 prop tor   1  12  13  27
  41 ben   1  12  22
  42 prop tor   1  12  22  21
 Extend lin bond           1          12           2           3
  43 lin ben   2   1  12
  45 ben   2   3   4
  46 prop tor   2   3   4   5
  47 ben   2   3  11
  48 prop tor   2   3  11  10
  49 ben   3   4   5
  50 prop tor   3   4   5   6
  51 prop tor   3   4   5  10
  52 ben   3  11  10
  53 ben   4   3  11
  54 prop tor   4   3  11  10
  55 ben   4   5   6
  56 prop tor   4   5   6   7
  57 prop tor   4   5   6  23
  58 ben   4   5  10
  59 prop tor   4   5  10   9
  60 prop tor   4   5  10  11
  61 ben   5   6   7
  62 prop tor   5   6   7   8
  63 prop tor   5   6   7  24
  64 ben   5   6  23
  65 ben   5  10   9
  66 ben   5  10  11
  67 prop tor   5  10  11   3
  68 ben   6   5  10
  69 prop tor   6   5  10   9
  70 prop tor   6   5  10  11
  71 ben   6   7   8
  72 prop tor   6   7   8   9
  73 prop tor   6   7   8  25
  74 ben   6   7  24
  75 ben   7   6  23
  76 ben   7   8   9
  77 prop tor   7   8   9  10
  78 prop tor   7   8   9  26
  79 ben   7   8  25
  80 ben   8   7  24
  81 ben   8   9  10
  82 prop tor   8   9  10   5
  83 prop tor   8   9  10  11
  84 ben   8   9  26
  85 ben   9   8  25
  86 ben   9  10  11
  87 prop tor   9  10  11   3
  88 prop tor  10   5   6   7
  89 prop tor  10   5   6  23
  90 ben  10   9  26
  91 prop tor  11   3   4   5
  92 ben  12  13  14
  93 prop tor  12  13  14  15
  94 prop tor  12  13  14  21
  95 ben  12  13  27
  96 ben  12  22  21
  97 ben  13  12  22
  98 prop tor  13  12  22  21
  99 ben  13  14  15
 100 prop tor  13  14  15  16
 101 prop tor  13  14  15  28
 102 prop tor  13  14  15  29
 103 ben  13  14  21
 104 prop tor  13  14  21  20
 105 prop tor  13  14  21  22
 106 ben  14  13  27
 107 ben  14  15  16
 108 prop tor  14  15  16  17
 109 prop tor  14  15  16  20
 110 ben  14  15  28
 111 ben  14  15  29
 112 ben  14  21  20
 113 ben  14  21  22
 114 prop tor  14  21  22  12
 115 ben  15  14  21
 116 prop tor  15  14  21  20
 117 prop tor  15  14  21  22
 118 ben  15  16  17
 119 prop tor  15  16  17  18
 120 prop tor  15  16  17  30
 121 ben  15  16  20
 122 prop tor  15  16  20  19
 123 prop tor  15  16  20  21
 124 ben  16  15  28
 125 ben  16  15  29
 126 ben  16  17  18
 127 prop tor  16  17  18  19
 128 prop tor  16  17  18  31
 129 ben  16  17  30
 130 ben  16  20  19
 131 ben  16  20  21
 132 prop tor  16  20  21  14
 133 prop tor  16  20  21  22
 134 ben  17  16  20
 135 prop tor  17  16  20  19
 136 prop tor  17  16  20  21
 137 ben  17  18  19
 138 prop tor  17  18  19  20
 139 ben  17  18  31
 140 ben  18  17  30
 141 ben  18  19  20
 142 prop tor  18  19  20  16
 143 prop tor  18  19  20  21
 144 ben  19  18  31
 145 ben  19  20  21
 146 prop tor  19  20  21  14
 147 prop tor  19  20  21  22
 148 prop tor  20  16  17  18
 149 prop tor  20  16  17  30
 150 ben  20  21  22
 151 prop tor  20  21  22  12
 152 prop tor  21  14  15  16
 153 prop tor  21  14  15  28
 154 prop tor  21  14  15  29
 155 prop tor  22  12  13  14
 156 prop tor  22  12  13  27
 157 prop tor  23   6   7   8
 158 prop tor  23   6   7  24
 159 prop tor  24   7   8   9
 160 prop tor  24   7   8  25
 161 prop tor  25   8   9  10
 162 prop tor  25   8   9  26
 163 prop tor  26   9  10   5
 164 prop tor  26   9  10  11
 165 prop tor  27  13  14  15
 166 prop tor  27  13  14  21
 167 prop tor  28  15  16  17
 168 prop tor  28  15  16  20
 169 ben  28  15  29
 170 prop tor  29  15  16  17
 171 prop tor  29  15  16  20
 172 prop tor  30  17  18  19
 173 prop tor  30  17  18  31
 174 prop tor  31  18  19  20
 175 lin bend prop tor   1  12   3   2
 176 lin bend prop tor   1  12   3   4
 177 lin bend prop tor   1  12   3  11
 178 lin bend prop tor  13  12   3   2
 179 lin bend prop tor  13  12   3   4
 180 lin bend prop tor  13  12   3  11
 181 lin bend prop tor  22  12   3   2
 182 lin bend prop tor  22  12   3   4
 183 lin bend prop tor  22  12   3  11
 nber bend=              59
 nber lin bend=           1
 nber prop tor=          89
 nber impr tor=           0
 nber tot redund int=         183
 Reading file: 
 ./CDT-BT_2_C0S0.log                                                            
                                          
  Entering Gaussian System, Link 0=g16                                          
  
 Gaussian format, type: g94, g98, g03= F F F
  File lengths (MBytes):  RWF=    143 Int=      0 D2E=      0 Chk=     17 Sc
