 Enter ifcurve (0=recti, 1=orth curvi, 2=apprx curvi, -1 = skip
 And atom ordering flag, 0= never changes, 1= use the first order thenceforth,
  2= deduce it (does read on fail), 3= always read it
 Reading file: 
 ./Benzene_Conj_2_C0S0.log                                                      
                                          
  Entering Gaussian System, Link 0=g16                                          
  
 Gaussian format, type: g94, g98, g03= F F F
  #P Geom=AllCheck Guess=TCheck SCRF=Check GenChk RB3LYP/6-311G(d,p) Fre    
 energy type= B3LYP   
 Original G94 input coords:
  6  2.476712 -1.404830  0.000000
  6  1.221874 -0.721547  0.000000
  6  0.000000 -1.401596  0.000000
  6 -1.221874 -0.721547  0.000000
  6 -2.476712 -1.404830  0.000000
  6 -3.654888 -0.712222  0.000000
  6 -3.654888  0.712222  0.000000
  6 -2.476712  1.404830  0.000000
  6 -1.221874  0.721547  0.000000
  6  0.000000  1.401596  0.000000
  6  1.221874  0.721547  0.000000
  6  2.476712  1.404830  0.000000
  6  3.654888  0.712222  0.000000
  6  3.654888 -0.712222  0.000000
  1  2.476147 -2.489888  0.000000
  1  0.000000 -2.487504  0.000000
  1 -2.476147 -2.489888  0.000000
  1 -4.599423 -1.244469  0.000000
  1 -4.599423  1.244469  0.000000
  1 -2.476147  2.489888  0.000000
  1  0.000000  2.487504  0.000000
  1  2.476147  2.489888  0.000000
  1  4.599423  1.244469  0.000000
  1  4.599423 -1.244469  0.000000
 nber atoms=          24
 Original standard coords:
  6  0.000000  2.476712  1.404830
  6  0.000000  1.221874  0.721547
  6  0.000000  0.000000  1.401596
  6  0.000000 -1.221874  0.721547
  6  0.000000 -2.476712  1.404830
  6  0.000000 -3.654888  0.712222
  6  0.000000 -3.654888 -0.712222
  6  0.000000 -2.476712 -1.404830
  6  0.000000 -1.221874 -0.721547
  6  0.000000  0.000000 -1.401596
  6  0.000000  1.221874 -0.721547
  6  0.000000  2.476712 -1.404830
  6  0.000000  3.654888 -0.712222
  6  0.000000  3.654888  0.712222
  1  0.000000  2.476147  2.489888
  1  0.000000  0.000000  2.487504
  1  0.000000 -2.476147  2.489888
  1  0.000000 -4.599423  1.244469
  1  0.000000 -4.599423 -1.244469
  1  0.000000 -2.476147 -2.489888
  1  0.000000  0.000000 -2.487504
  1  0.000000  2.476147 -2.489888
  1  0.000000  4.599423 -1.244469
  1  0.000000  4.599423  1.244469
  SCF Done:  E(RB3LYP) =  -539.655145862     A.U. after    1 cycles             
  
          23          40 "  -539.655145862"
After scan for Atom:   Atom  AN      X      Y      Z        X      Y      Z        X      Y      Z   
After scan for Atom:   Atom  AN      X      Y      Z        X      Y      Z        X      Y      Z   
After scan for Atom:   Atom  AN      X      Y      Z        X      Y      Z        X      Y      Z   
After scan for Atom:   Atom  AN      X      Y      Z        X      Y      Z        X      Y      Z   
After scan for Atom:   Atom  AN      X      Y      Z        X      Y      Z        X      Y      Z   
After scan for Atom:   Atom  AN      X      Y      Z        X      Y      Z        X      Y      Z   
After scan for Atom:   Atom  AN      X      Y      Z        X      Y      Z        X      Y      Z   
After scan for Atom:   Atom  AN      X      Y      Z        X      Y      Z        X      Y      Z   
After scan for Atom:   Atom  AN      X      Y      Z        X      Y      Z        X      Y      Z   
After scan for Atom:   Atom  AN      X      Y      Z        X      Y      Z        X      Y      Z   
After scan for Atom:   Atom  AN      X      Y      Z        X      Y      Z        X      Y      Z   
After scan for Atom:   Atom  AN      X      Y      Z        X      Y      Z        X      Y      Z   
After scan for Atom:   Atom  AN      X      Y      Z        X      Y      Z        X      Y      Z   
After scan for Atom:   Atom  AN      X      Y      Z        X      Y      Z        X      Y      Z   
After scan for Atom:   Atom  AN      X      Y      Z        X      Y      Z        X      Y      Z   
After scan for Atom:   Atom  AN      X      Y      Z        X      Y      Z        X      Y      Z   
After scan for Atom:   Atom  AN      X      Y      Z        X      Y      Z        X      Y      Z   
After scan for Atom:   Atom  AN      X      Y      Z        X      Y      Z        X      Y      Z   
After scan for Atom:   Atom  AN      X      Y      Z        X      Y      Z        X      Y      Z   
After scan for Atom:   Atom  AN      X      Y      Z        X      Y      Z        X      Y      Z   
After scan for Atom:   Atom  AN      X      Y      Z        X      Y      Z        X      Y      Z   
After scan for Atom:   Atom  AN      X      Y      Z        X      Y      Z        X      Y      Z   
 g94    frequencies=
     0.0    0.0    0.0    0.0    0.0    0.0   90.9  121.0  235.6  235.8
   269.0  386.9  395.9  398.0  478.4  483.9  506.6  535.6  591.1  617.6
   642.4  661.3  740.4  758.9  763.3  769.6  781.9  820.8  843.9  865.9
   894.8  911.2  918.8  929.2  967.4  972.2  995.1  996.0 1026.2 1031.0
  1126.7 1158.7 1173.1 1188.6 1189.9 1210.6 1289.6 1290.6 1294.6 1338.9
  1375.8 1414.3 1414.6 1427.6 1482.0 1486.8 1516.7 1579.2 1593.6 1624.3
  1667.9 1670.3 3153.0 3155.0 3156.8 3157.7 3161.4 3162.9 3174.7 3175.0
  3186.9 3187.4
 g94    symmetries=
                                                B3     AU     B1     B1
      B2     B3     B3     AG     B3     B1     AU     B3     B2     B2
      AG     B1     B3     AU     AG     B1     B2     B2     B2     AU
      B3     B2     B1     B3     B1     B3     AU     B2     B2     AG
      B3     B2     B1     B2     AG     B3     AG     B1     B3     B1
      B2     B3     B2     AG     B2     B1     AG     B2     AG     B3
      B3     B1     B1     AG     B3     B1     B2     AG     B3     B1
      B2     AG
 atomic masses:
 12.0000 12.0000 12.0000 12.0000 12.0000 12.0000 12.0000 12.0000 12.0000 12.0000
 12.0000 12.0000 12.0000 12.0000  1.0078  1.0078  1.0078  1.0078  1.0078  1.0078
  1.0078  1.0078  1.0078  1.0078
 looking for force constants in 
 ./Benzene_Conj_2_C0S0.fchk                                                     
  
 Cartesian Force Constants                  R   N=        2628                  
  
 n3=          72        2628
 g94-fc frequencies=
    -1.7   -0.0   -0.0   -0.0    0.8    2.4   90.9  121.0  235.6  235.8
   269.0  386.9  395.9  398.0  478.5  484.0  506.6  535.6  591.1  617.6
   642.4  661.3  740.4  758.9  763.3  769.6  781.9  820.9  844.0  865.9
   894.8  911.2  918.8  929.2  967.4  972.2  995.1  996.0 1026.2 1031.0
  1126.7 1158.7 1173.1 1188.6 1189.9 1210.6 1289.6 1290.6 1294.6 1339.0
  1375.8 1414.3 1414.6 1427.6 1482.0 1486.9 1516.7 1579.3 1593.7 1624.4
  1667.9 1670.3 3153.0 3155.1 3156.9 3157.8 3161.5 3163.0 3174.8 3175.1
  3187.0 3187.5
 at 99999: n3=          72
 symm operator            1 :  T  nop=           1
 symm operator            2 :  T  nop=           2
 symm operator            3 :  T  nop=           3
 symm operator            4 :  T  nop=           4
 symm operator            5 :  T  nop=           5
 symm operator            6 :  T  nop=           6
 symm operator            7 :  T  nop=           7
 The point group of the molecule is D2H
 enforcing symm op           1  jsymt=          -1          -1           1
 enforcing symm op           2  jsymt=          -1           1          -1
 enforcing symm op           3  jsymt=           1          -1          -1
 enforcing symm op           4  jsymt=          -1          -1          -1
 enforcing symm op           5  jsymt=           1           1          -1
 enforcing symm op           6  jsymt=           1          -1           1
 enforcing symm op           7  jsymt=          -1           1           1
 cartesian coord symmetries:
 Ag :   12 Au :    5 B1g:    5 B1u:   12 B2g:    7 B2u:   12 B3g:   12 B3u:    7
 Symmetry rotation matrix:
   1.00000   0.00000   0.00000
   0.00000   1.00000   0.00000
   0.00000   0.00000   1.00000

 Projecting out zero-frequency components
 generating redundant internal coords
         300        3600          24
 search for int coords
   1 str   2   1   1.429
   2 str   3   2   1.398
   3 str   4   3   1.398
   4 str   5   4   1.429
   5 str   6   5   1.367
   6 str   7   6   1.424
   7 str   8   7   1.367
   8 str   9   4   1.443
   9 str   9   8   1.429
  10 str  10   9   1.398
  11 str  11   2   1.443
  12 str  11  10   1.398
  13 str  12  11   1.429
  14 str  13  12   1.367
  15 str  14   1   1.367
  16 str  14  13   1.424
  17 str  15   1   1.085
  18 str  16   3   1.086
  19 str  17   5   1.085
  20 str  18   6   1.084
  21 str  19   7   1.084
  22 str  20   8   1.085
  23 str  21  10   1.086
  24 str  22  12   1.085
  25 str  23  13   1.084
  26 str  24  14   1.084
 nber stretches=          26
  27 ben   1   2   3
  28 prop tor   1   2   3   4
  29 prop tor   1   2   3  16
  30 ben   1   2  11
  31 prop tor   1   2  11  10
  32 prop tor   1   2  11  12
  33 ben   1  14  13
  34 ben   1  14  24
  35 ben   2   1  14
  36 prop tor   2   1  14  13
  37 prop tor   2   1  14  24
  38 ben   2   1  15
  39 ben   2   3   4
  40 prop tor   2   3   4   5
  41 prop tor   2   3   4   9
  42 ben   2   3  16
  43 ben   2  11  10
  44 ben   2  11  12
  45 prop tor   2  11  12  13
  46 prop tor   2  11  12  22
  47 ben   3   2  11
  48 prop tor   3   2  11  10
  49 prop tor   3   2  11  12
  50 ben   3   4   5
  51 prop tor   3   4   5   6
  52 prop tor   3   4   5  17
  53 ben   3   4   9
  54 prop tor   3   4   9   8
  55 prop tor   3   4   9  10
  56 ben   4   3  16
  57 ben   4   5   6
  58 prop tor   4   5   6   7
  59 prop tor   4   5   6  18
  60 ben   4   5  17
  61 ben   4   9   8
  62 ben   4   9  10
  63 prop tor   4   9  10  11
  64 prop tor   4   9  10  21
  65 ben   5   4   9
  66 prop tor   5   4   9   8
  67 prop tor   5   4   9  10
  68 ben   5   6   7
  69 prop tor   5   6   7   8
  70 prop tor   5   6   7  19
  71 ben   5   6  18
  72 ben   6   5  17
  73 ben   6   7   8
  74 prop tor   6   7   8   9
  75 prop tor   6   7   8  20
  76 ben   6   7  19
  77 ben   7   6  18
  78 ben   7   8   9
  79 prop tor   7   8   9   4
  80 prop tor   7   8   9  10
  81 ben   7   8  20
  82 ben   8   7  19
  83 ben   8   9  10
  84 prop tor   8   9  10  11
  85 prop tor   8   9  10  21
  86 prop tor   9   4   5   6
  87 prop tor   9   4   5  17
  88 ben   9   8  20
  89 ben   9  10  11
  90 prop tor   9  10  11   2
  91 prop tor   9  10  11  12
  92 ben   9  10  21
  93 ben  10  11  12
  94 prop tor  10  11  12  13
  95 prop tor  10  11  12  22
  96 prop tor  11   2   3   4
  97 prop tor  11   2   3  16
  98 ben  11  10  21
  99 ben  11  12  13
 100 prop tor  11  12  13  14
 101 prop tor  11  12  13  23
 102 ben  11  12  22
 103 ben  12  13  14
 104 prop tor  12  13  14   1
 105 prop tor  12  13  14  24
 106 ben  12  13  23
 107 ben  13  12  22
 108 ben  13  14  24
 109 prop tor  14   1   2   3
 110 prop tor  14   1   2  11
 111 ben  14   1  15
 112 ben  14  13  23
 113 prop tor  15   1   2   3
 114 prop tor  15   1   2  11
 115 prop tor  15   1  14  13
 116 prop tor  15   1  14  24
 117 prop tor  16   3   4   5
 118 prop tor  16   3   4   9
 119 prop tor  17   5   6   7
 120 prop tor  17   5   6  18
 121 prop tor  18   6   7   8
 122 prop tor  18   6   7  19
 123 prop tor  19   7   8   9
 124 prop tor  19   7   8  20
 125 prop tor  20   8   9   4
 126 prop tor  20   8   9  10
 127 prop tor  21  10  11   2
 128 prop tor  21  10  11  12
 129 prop tor  22  12  13  14
 130 prop tor  22  12  13  23
 131 prop tor  23  13  14   1
 132 prop tor  23  13  14  24
 nber bend=              42
 nber lin bend=           0
 nber prop tor=          64
 nber impr tor=           0
 nber tot redund int=         132
 Eigenvalues of G in red int coords
    Gval -0.00000000 -0.00000000 -0.00000000 -0.00000000 -0.00000000 -0.00000000 -0.00000000 -0.00000000
    Gval -0.00000000 -0.00000000 -0.00000000 -0.00000000 -0.00000000 -0.00000000 -0.00000000 -0.00000000
    Gval -0.00000000 -0.00000000 -0.00000000 -0.00000000 -0.00000000 -0.00000000 -0.00000000 -0.00000000
    Gval -0.00000000 -0.00000000 -0.00000000 -0.00000000 -0.00000000 -0.00000000 -0.00000000 -0.00000000
    Gval -0.00000000 -0.00000000  0.00000000  0.00000000  0.00000000  0.00000000  0.00000000  0.00000000
    Gval  0.00000000  0.00000000  0.00000000  0.00000000  0.00000000  0.00000000  0.00000000  0.00000000
    Gval  0.00000000  0.00000000  0.00000000  0.00000000  0.00000000  0.00000000  0.00000000  0.00000000
    Gval  0.00000000  0.00000000  0.00000000  0.00000000  0.00000000  0.00000000  0.00000000  0.00000000
    Gval  0.00000000  0.00000000  0.00000846  0.00000982  0.00002851  0.00003511  0.00003539  0.00004269
    Gval  0.00004885  0.00005231  0.00005594  0.00006522  0.00007280  0.00007856  0.00009181  0.00010120
    Gval  0.00010302  0.00012397  0.00013434  0.00015060  0.00018765  0.00021085  0.00022485  0.00025645
    Gval  0.00029370  0.00031541  0.00032639  0.00037868  0.00039220  0.00041610  0.00041831  0.00048552
    Gval  0.00059308  0.00059313  0.00059670  0.00059710  0.00060868  0.00061707  0.00062824  0.00064106
    Gval  0.00065413  0.00065934  0.00074863  0.00076121  0.00083209  0.00103873  0.00104952  0.00105230
    Gval  0.00111199  0.00111451  0.00111942  0.00112480  0.00116107  0.00116152  0.00117026  0.00117026
    Gval  0.00175677  0.00175763  0.00178808  0.00197563  0.00254067  0.00264678  0.00301614  0.00318286
    Gval  0.00350939  0.00360694  0.00400084  0.00401095
  8.463930851332640E-006  8.463930851332640E-006
  9.823130745050917E-006  8.463930851332640E-006
  2.850987358778976E-005  8.463930851332640E-006
  3.510553257233437E-005  8.463930851332640E-006
  3.539413200312101E-005  8.463930851332640E-006
  4.268560679062913E-005  8.463930851332640E-006
  4.885059977326790E-005  8.463930851332640E-006
  5.231485510954204E-005  8.463930851332640E-006
  5.594453154776135E-005  8.463930851332640E-006
  6.522243219904755E-005  8.463930851332640E-006
  7.280397292825005E-005  8.463930851332640E-006
  7.855903666172585E-005  8.463930851332640E-006
  9.181469992213257E-005  8.463930851332640E-006
  1.011985956840579E-004  8.463930851332640E-006
  1.030158213504328E-004  8.463930851332640E-006
  1.239728214057765E-004  8.463930851332640E-006
  1.343376718354544E-004  8.463930851332640E-006
  1.506040725092544E-004  8.463930851332640E-006
  1.876462766705868E-004  8.463930851332640E-006
  2.108452889573017E-004  8.463930851332640E-006
  2.248453018731642E-004  8.463930851332640E-006
  2.564460044260415E-004  8.463930851332640E-006
  2.937029626585691E-004  8.463930851332640E-006
  3.154084661614618E-004  8.463930851332640E-006
  3.263909123945709E-004  8.463930851332640E-006
  3.786818951235360E-004  8.463930851332640E-006
  3.922036074954684E-004  8.463930851332640E-006
  4.161049937720917E-004  8.463930851332640E-006
  4.183110827734634E-004  8.463930851332640E-006
  4.855187769942199E-004  8.463930851332640E-006
  5.930837838646405E-004  8.463930851332640E-006
  5.931347710173095E-004  8.463930851332640E-006
  5.967019631275281E-004  8.463930851332640E-006
  5.971041248245499E-004  8.463930851332640E-006
  6.086822452354406E-004  8.463930851332640E-006
  6.170724017710819E-004  8.463930851332640E-006
  6.282410614622188E-004  8.463930851332640E-006
  6.410611999983146E-004  8.463930851332640E-006
  6.541342446418988E-004  8.463930851332640E-006
  6.593442597987419E-004  8.463930851332640E-006
  7.486286275367370E-004  8.463930851332640E-006
  7.612093316501948E-004  8.463930851332640E-006
  8.320878766210212E-004  8.463930851332640E-006
  1.038732996617454E-003  8.463930851332640E-006
  1.049516152053341E-003  8.463930851332640E-006
  1.052301352648371E-003  8.463930851332640E-006
  1.111993390415477E-003  8.463930851332640E-006
  1.114508953022926E-003  8.463930851332640E-006
  1.119423703098606E-003  8.463930851332640E-006
  1.124798910033490E-003  8.463930851332640E-006
  1.161066422685972E-003  8.463930851332640E-006
  1.161524342473124E-003  8.463930851332640E-006
  1.170259040700688E-003  8.463930851332640E-006
  1.170261213191257E-003  8.463930851332640E-006
  1.756766148731524E-003  8.463930851332640E-006
  1.757625451804582E-003  8.463930851332640E-006
  1.788083164253916E-003  8.463930851332640E-006
  1.975628043887917E-003  8.463930851332640E-006
  2.540669950668914E-003  8.463930851332640E-006
  2.646777466125556E-003  8.463930851332640E-006
  3.016140935836820E-003  8.463930851332640E-006
  3.182855948542838E-003  8.463930851332640E-006
  3.509390745282708E-003  8.463930851332640E-006
  3.606942394085755E-003  8.463930851332640E-006
  4.000841143319507E-003  8.463930851332640E-006
  4.010945858692723E-003  8.463930851332640E-006
 cut=1d-8, nber non-redundant internal coords=          66
 Check on Eigenvals of non-red overlap matrix:
  0.00000846  0.00000982  0.00002851  0.00003511  0.00003539  0.00004269  0.00004885  0.00005231
  0.00005594  0.00006522  0.00007280  0.00007856  0.00009181  0.00010120  0.00010302  0.00012397
  0.00013434  0.00015060  0.00018765  0.00021085  0.00022485  0.00025645  0.00029370  0.00031541
  0.00032639  0.00037868  0.00039220  0.00041610  0.00041831  0.00048552  0.00059308  0.00059313
  0.00059670  0.00059710  0.00060868  0.00061707  0.00062824  0.00064106  0.00065413  0.00065934
  0.00074863  0.00076121  0.00083209  0.00103873  0.00104952  0.00105230  0.00111199  0.00111451
  0.00111942  0.00112480  0.00116107  0.00116152  0.00117026  0.00117026  0.00175677  0.00175763
  0.00178808  0.00197563  0.00254067  0.00264678  0.00301614  0.00318286  0.00350939  0.00360694
  0.00400084  0.00401095
 Checking for correct frequencies
 recalc frequencies=
    -0.0   -0.0    0.0    0.0    0.0    0.0   90.9  121.0  235.6  235.8
   269.0  386.9  395.9  398.0  478.5  484.0  506.6  535.6  591.1  617.6
   642.4  661.3  740.4  758.9  763.3  769.6  781.9  820.9  844.0  865.9
   894.8  911.2  918.8  929.2  967.4  972.2  995.1  996.0 1026.2 1031.0
  1126.7 1158.7 1173.1 1188.6 1189.9 1210.6 1289.6 1290.6 1294.6 1339.0
  1375.8 1414.3 1414.6 1427.6 1482.0 1486.9 1516.7 1579.3 1593.7 1624.4
  1667.9 1670.3 3153.0 3155.1 3156.9 3157.8 3161.5 3163.0 3174.8 3175.1
  3187.0 3187.5
 recalc symmetries=
     B3g    B2u    B3u    B1g    B2g    B1u    B3u    Au     B1g    B1u
     B2g    B3u    B3g    Ag     B3u    B1g    Au     B3g    B2g    B2u
     Ag     B1u    B3u    Au     Ag     B1g    B2g    B2u    B2g    Au 
     B3u    B2g    B1u    B3g    B1g    B3u    Au     B2g    B2u    Ag 
     B3g    B2u    B1u    B2u    Ag     B3g    Ag     B1u    B3g    B1u
     B2u    B3g    B2u    Ag     B2u    B1u    Ag     B2u    Ag     B3g
     B3g    B1u    B1u    Ag     B3g    B1u    B2u    Ag     B3g    B1u
     B2u    Ag 
 recalc freqs check OK
 Zero-point lengths:
 10.0000 10.0000 10.0000 10.0000 10.0000 10.0000 26.0060 22.5395 16.1510 16.1439
 15.1150 12.6035 12.4593 12.4265 11.3338 11.2692 11.0146 10.7121 10.1966  9.9757
  9.7811  9.6406  9.1109  8.9991  8.9730  8.9365  8.8659  8.6529  8.5337  8.4248
  8.2876  8.2126  8.1788  8.1328  7.9705  7.9510  7.8590  7.8553  7.7388  7.7209
  7.3856  7.2829  7.2380  7.1908  7.1868  7.1251  6.9034  6.9007  6.8901  6.7750
  6.6837  6.5922  6.5913  6.5614  6.4398  6.4293  6.3657  6.2383  6.2100  6.1511
  6.0703  6.0659  4.4150  4.4136  4.4123  4.4117  4.4091  4.4081  4.3998  4.3996
  4.3914  4.3911
 highest evec of mol 1
  0.0000  0.0064 -0.0634
  0.0000  0.0027  0.0005
  0.0000  0.0000 -0.0093
  0.0000 -0.0027  0.0005
  0.0000 -0.0064 -0.0634
  0.0000  0.1175 -0.0660
  0.0000  0.1175  0.0660
  0.0000 -0.0064  0.0634
  0.0000 -0.0027 -0.0005
  0.0000  0.0000  0.0093
  0.0000  0.0027 -0.0005
  0.0000  0.0064  0.0634
  0.0000 -0.1175  0.0660
  0.0000 -0.1175 -0.0660
  0.0000 -0.0018  0.1977
  0.0000  0.0000  0.0312
  0.0000  0.0018  0.1977
  0.0000 -0.3774  0.2138
  0.0000 -0.3774 -0.2138
  0.0000  0.0018 -0.1977
  0.0000  0.0000 -0.0312
  0.0000 -0.0018 -0.1977
  0.0000  0.3774 -0.2138
  0.0000  0.3774  0.2138
 generating redundant internal coords
         300        3600          24
 Adding extra bonds for z output only
           6           6           6           6           6           6
           6           6           6           6           6           6
           6           6           1           1           1           1
           1           1           1           1           1           1
 search for int coords
   1 str   2   1   1.429
   2 str   3   2   1.398
   3 str   4   3   1.398
   4 str   5   4   1.429
   5 str   6   5   1.367
   6 str   7   6   1.424
   7 str   8   7   1.367
   8 str   9   4   1.443
   9 str   9   8   1.429
  10 str  10   9   1.398
  11 str  11   2   1.443
  12 str  11  10   1.398
  13 str  12  11   1.429
  14 str  13  12   1.367
  15 str  14   1   1.367
  16 str  14  13   1.424
  17 str  15   1   1.085
  18 str  16   3   1.086
  19 str  17   5   1.085
  20 str  18   6   1.084
  21 str  19   7   1.084
  22 str  20   8   1.085
  23 str  21  10   1.086
  24 str  22  12   1.085
  25 str  23  13   1.084
  26 str  24  14   1.084
 nber stretches=          26
  27 ben   1   2   3
  28 prop tor   1   2   3   4
  29 prop tor   1   2   3  16
  30 ben   1   2  11
  31 prop tor   1   2  11  10
  32 prop tor   1   2  11  12
  33 ben   1  14  13
  34 ben   1  14  24
  35 ben   2   1  14
  36 prop tor   2   1  14  13
  37 prop tor   2   1  14  24
  38 ben   2   1  15
  39 ben   2   3   4
  40 prop tor   2   3   4   5
  41 prop tor   2   3   4   9
  42 ben   2   3  16
  43 ben   2  11  10
  44 ben   2  11  12
  45 prop tor   2  11  12  13
  46 prop tor   2  11  12  22
  47 ben   3   2  11
  48 prop tor   3   2  11  10
  49 prop tor   3   2  11  12
  50 ben   3   4   5
  51 prop tor   3   4   5   6
  52 prop tor   3   4   5  17
  53 ben   3   4   9
  54 prop tor   3   4   9   8
  55 prop tor   3   4   9  10
  56 ben   4   3  16
  57 ben   4   5   6
  58 prop tor   4   5   6   7
  59 prop tor   4   5   6  18
  60 ben   4   5  17
  61 ben   4   9   8
  62 ben   4   9  10
  63 prop tor   4   9  10  11
  64 prop tor   4   9  10  21
  65 ben   5   4   9
  66 prop tor   5   4   9   8
  67 prop tor   5   4   9  10
  68 ben   5   6   7
  69 prop tor   5   6   7   8
  70 prop tor   5   6   7  19
  71 ben   5   6  18
  72 ben   6   5  17
  73 ben   6   7   8
  74 prop tor   6   7   8   9
  75 prop tor   6   7   8  20
  76 ben   6   7  19
  77 ben   7   6  18
  78 ben   7   8   9
  79 prop tor   7   8   9   4
  80 prop tor   7   8   9  10
  81 ben   7   8  20
  82 ben   8   7  19
  83 ben   8   9  10
  84 prop tor   8   9  10  11
  85 prop tor   8   9  10  21
  86 prop tor   9   4   5   6
  87 prop tor   9   4   5  17
  88 ben   9   8  20
  89 ben   9  10  11
  90 prop tor   9  10  11   2
  91 prop tor   9  10  11  12
  92 ben   9  10  21
  93 ben  10  11  12
  94 prop tor  10  11  12  13
  95 prop tor  10  11  12  22
  96 prop tor  11   2   3   4
  97 prop tor  11   2   3  16
  98 ben  11  10  21
  99 ben  11  12  13
 100 prop tor  11  12  13  14
 101 prop tor  11  12  13  23
 102 ben  11  12  22
 103 ben  12  13  14
 104 prop tor  12  13  14   1
 105 prop tor  12  13  14  24
 106 ben  12  13  23
 107 ben  13  12  22
 108 ben  13  14  24
 109 prop tor  14   1   2   3
 110 prop tor  14   1   2  11
 111 ben  14   1  15
 112 ben  14  13  23
 113 prop tor  15   1   2   3
 114 prop tor  15   1   2  11
 115 prop tor  15   1  14  13
 116 prop tor  15   1  14  24
 117 prop tor  16   3   4   5
 118 prop tor  16   3   4   9
 119 prop tor  17   5   6   7
 120 prop tor  17   5   6  18
 121 prop tor  18   6   7   8
 122 prop tor  18   6   7  19
 123 prop tor  19   7   8   9
 124 prop tor  19   7   8  20
 125 prop tor  20   8   9   4
 126 prop tor  20   8   9  10
 127 prop tor  21  10  11   2
 128 prop tor  21  10  11  12
 129 prop tor  22  12  13  14
 130 prop tor  22  12  13  23
 131 prop tor  23  13  14   1
 132 prop tor  23  13  14  24
 nber bend=              42
 nber lin bend=           0
 nber prop tor=          64
 nber impr tor=           0
 nber tot redund int=         132
 Reading file: 
 ./Benzene_Conj_2_C0S1.log                                                      
                                          
  Entering Gaussian System, Link 0=g16                                          
  
 Gaussian format, type: g94, g98, g03= F F F
  #P Geom=AllCheck Guess=TCheck SCRF=Check GenChk RB3LYP TD(FC,Read)/6-3    
 energy type= TD      
 Original G94 input coords:
  6  2.476243 -1.397320  0.000000
  6  1.242452 -0.720965  0.000000
  6  0.000000 -1.395527  0.000000
  6 -1.242452 -0.720965  0.000000
  6 -2.476243 -1.397320  0.000000
  6 -3.696437 -0.693659  0.000000
  6 -3.696437  0.693659  0.000000
  6 -2.476243  1.397320  0.000000
  6 -1.242452  0.720965  0.000000
  6  0.000000  1.395527  0.000000
  6  1.242452  0.720965  0.000000
  6  2.476243  1.397320  0.000000
  6  3.696437  0.693659  0.000000
  6  3.696437 -0.693659  0.000000
  1  2.480659 -2.482095  0.000000
  1  0.000000 -2.481716  0.000000
  1 -2.480659 -2.482095  0.000000
  1 -4.631428 -1.241407  0.000000
  1 -4.631428  1.241407  0.000000
  1 -2.480659  2.482095  0.000000
  1  0.000000  2.481716  0.000000
  1  2.480659  2.482095  0.000000
  1  4.631428  1.241407  0.000000
  1  4.631428 -1.241407  0.000000
 nber atoms=          24
 Original standard coords:
  6  0.000000  2.476243  1.397320
  6  0.000000  1.242452  0.720965
  6  0.000000  0.000000  1.395527
  6  0.000000 -1.242452  0.720965
  6  0.000000 -2.476243  1.397320
  6  0.000000 -3.696437  0.693659
  6  0.000000 -3.696437 -0.693659
  6  0.000000 -2.476243 -1.397320
  6  0.000000 -1.242452 -0.720965
  6  0.000000  0.000000 -1.395527
  6  0.000000  1.242452 -0.720965
  6  0.000000  2.476243 -1.397320
  6  0.000000  3.696437 -0.693659
  6  0.000000  3.696437  0.693659
  1  0.000000  2.480659  2.482095
  1  0.000000  0.000000  2.481716
  1  0.000000 -2.480659  2.482095
  1  0.000000 -4.631428  1.241407
  1  0.000000 -4.631428 -1.241407
  1  0.000000 -2.480659 -2.482095
  1  0.000000  0.000000 -2.481716
  1  0.000000  2.480659 -2.482095
  1  0.000000  4.631428 -1.241407
  1  0.000000  4.631428  1.241407
  Total Energy, E(TD-HF/TD-DFT) =  -539.544322654                               
  
          32          49 "  -539.544322654"
After scan for Atom:   Atom  AN      X      Y      Z        X      Y      Z        X      Y      Z   
After scan for Atom:   Atom  AN      X      Y      Z        X      Y      Z        X      Y      Z   
After scan for Atom:   Atom  AN      X      Y      Z        X      Y      Z        X      Y      Z   
After scan for Atom:   Atom  AN      X      Y      Z        X      Y      Z        X      Y      Z   
After scan for Atom:   Atom  AN      X      Y      Z        X      Y      Z        X      Y      Z   
After scan for Atom:   Atom  AN      X      Y      Z        X      Y      Z        X      Y      Z   
After scan for Atom:   Atom  AN      X      Y      Z        X      Y      Z        X      Y      Z   
After scan for Atom:   Atom  AN      X      Y      Z        X      Y      Z        X      Y      Z   
After scan for Atom:   Atom  AN      X      Y      Z        X      Y      Z        X      Y      Z   
After scan for Atom:   Atom  AN      X      Y      Z        X      Y      Z        X      Y      Z   
After scan for Atom:   Atom  AN      X      Y      Z        X      Y      Z        X      Y      Z   
After scan for Atom:   Atom  AN      X      Y      Z        X      Y      Z        X      Y      Z   
After scan for Atom:   Atom  AN      X      Y      Z        X      Y      Z        X      Y      Z   
After scan for Atom:   Atom  AN      X      Y      Z        X      Y      Z        X      Y      Z   
After scan for Atom:   Atom  AN      X      Y      Z        X      Y      Z        X      Y      Z   
After scan for Atom:   Atom  AN      X      Y      Z        X      Y      Z        X      Y      Z   
After scan for Atom:   Atom  AN      X      Y      Z        X      Y      Z        X      Y      Z   
After scan for Atom:   Atom  AN      X      Y      Z        X      Y      Z        X      Y      Z   
After scan for Atom:   Atom  AN      X      Y      Z        X      Y      Z        X      Y      Z   
After scan for Atom:   Atom  AN      X      Y      Z        X      Y      Z        X      Y      Z   
After scan for Atom:   Atom  AN      X      Y      Z        X      Y      Z        X      Y      Z   
After scan for Atom:   Atom  AN      X      Y      Z        X      Y      Z        X      Y      Z   
 g94    frequencies=
     0.0    0.0    0.0    0.0    0.0    0.0   86.5  109.5  233.3  234.4
   247.6  327.2  386.8  393.2  416.7  436.2  511.7  526.3  533.6  600.1
   607.2  665.3  705.2  712.0  718.0  721.5  751.2  774.0  822.3  834.4
   841.6  874.0  890.4  895.7  909.1  917.1  942.9  944.3 1045.4 1047.9
  1086.7 1123.6 1173.7 1184.9 1210.5 1213.3 1268.2 1287.3 1289.4 1302.7
  1362.8 1415.1 1415.3 1439.6 1460.6 1474.0 1523.4 1528.3 1562.7 1571.8
  1591.1 1603.0 3151.7 3153.1 3161.6 3162.3 3165.2 3166.5 3177.8 3178.2
  3192.7 3193.4
 g94    symmetries=
                                                B3     AU     B1     B1
      B2     B3     B3     AG     B3     B1     AU     B3     B2     B2
      AG     B1     AU     B2     B3     B1     AG     B2     B2     AU
      B3     B2     B1     B3     B1     B3     AU     B2     B2     AG
      B3     B1     B2     AG     B3     B2     AG     B1     B3     B1
      B2     B3     AG     B2     B1     B2     B3     AG     B3     B2
      AG     B1     B1     AG     B3     B1     B2     AG     B3     B1
      B2     AG
 atomic masses:
 12.0000 12.0000 12.0000 12.0000 12.0000 12.0000 12.0000 12.0000 12.0000 12.0000
 12.0000 12.0000 12.0000 12.0000  1.0078  1.0078  1.0078  1.0078  1.0078  1.0078
  1.0078  1.0078  1.0078  1.0078
 looking for force constants in 
 ./Benzene_Conj_2_C0S1.fchk                                                     
  
 Cartesian Force Constants                  R   N=        2628                  
  
 n3=          72        2628
 g94-fc frequencies=
    -4.1   -3.0   -1.4   -0.0    0.0    0.0   86.5  109.5  233.3  234.4
   247.6  327.2  386.8  393.2  416.7  436.2  511.7  526.3  533.6  600.1
   607.2  665.3  705.2  712.0  718.0  721.5  751.2  774.0  822.3  834.4
   841.6  874.1  890.4  895.7  909.1  917.1  942.9  944.3 1045.4 1047.9
  1086.7 1123.6 1173.8 1184.9 1210.6 1213.3 1268.2 1287.4 1289.5 1302.7
  1362.8 1415.1 1415.4 1439.6 1460.6 1474.1 1523.4 1528.4 1562.7 1571.8
  1591.1 1603.0 3151.8 3153.2 3161.7 3162.4 3165.3 3166.6 3177.8 3178.2
  3192.8 3193.4
 at 99999: n3=          72
 symm operator            1 :  T  nop=           1
 symm operator            2 :  T  nop=           2
 symm operator            3 :  T  nop=           3
 symm operator            4 :  T  nop=           4
 symm operator            5 :  T  nop=           5
 symm operator            6 :  T  nop=           6
 symm operator            7 :  T  nop=           7
 The point group of the molecule is D2H
 enforcing symm op           1  jsymt=          -1          -1           1
 enforcing symm op           2  jsymt=          -1           1          -1
 enforcing symm op           3  jsymt=           1          -1          -1
 enforcing symm op           4  jsymt=          -1          -1          -1
 enforcing symm op           5  jsymt=           1           1          -1
 enforcing symm op           6  jsymt=           1          -1           1
 enforcing symm op           7  jsymt=          -1           1           1
 cartesian coord symmetries:
 Ag :   12 Au :    5 B1g:    5 B1u:   12 B2g:    7 B2u:   12 B3g:   12 B3u:    7
 Symmetry rotation matrix:
   1.00000   0.00000   0.00000
   0.00000   1.00000   0.00000
   0.00000   0.00000   1.00000

 Projecting out zero-frequency components
 generating redundant internal coords
         300        3600          24
 search for int coords
   1 str   2   1   1.407
   2 str   3   2   1.414
   3 str   4   3   1.414
   4 str   5   4   1.407
   5 str   6   5   1.409
   6 str   7   6   1.387
   7 str   8   7   1.409
   8 str   9   4   1.442
   9 str   9   8   1.407
  10 str  10   9   1.414
  11 str  11   2   1.442
  12 str  11  10   1.414
  13 str  12  11   1.407
  14 str  13  12   1.409
  15 str  14   1   1.409
  16 str  14  13   1.387
  17 str  15   1   1.085
  18 str  16   3   1.086
  19 str  17   5   1.085
  20 str  18   6   1.084
  21 str  19   7   1.084
  22 str  20   8   1.085
  23 str  21  10   1.086
  24 str  22  12   1.085
  25 str  23  13   1.084
  26 str  24  14   1.084
 nber stretches=          26
  27 ben   1   2   3
  28 prop tor   1   2   3   4
  29 prop tor   1   2   3  16
  30 ben   1   2  11
  31 prop tor   1   2  11  10
  32 prop tor   1   2  11  12
  33 ben   1  14  13
  34 ben   1  14  24
  35 ben   2   1  14
  36 prop tor   2   1  14  13
  37 prop tor   2   1  14  24
  38 ben   2   1  15
  39 ben   2   3   4
  40 prop tor   2   3   4   5
  41 prop tor   2   3   4   9
  42 ben   2   3  16
  43 ben   2  11  10
  44 ben   2  11  12
  45 prop tor   2  11  12  13
  46 prop tor   2  11  12  22
  47 ben   3   2  11
  48 prop tor   3   2  11  10
  49 prop tor   3   2  11  12
  50 ben   3   4   5
  51 prop tor   3   4   5   6
  52 prop tor   3   4   5  17
  53 ben   3   4   9
  54 prop tor   3   4   9   8
  55 prop tor   3   4   9  10
  56 ben   4   3  16
  57 ben   4   5   6
  58 prop tor   4   5   6   7
  59 prop tor   4   5   6  18
  60 ben   4   5  17
  61 ben   4   9   8
  62 ben   4   9  10
  63 prop tor   4   9  10  11
  64 prop tor   4   9  10  21
  65 ben   5   4   9
  66 prop tor   5   4   9   8
  67 prop tor   5   4   9  10
  68 ben   5   6   7
  69 prop tor   5   6   7   8
  70 prop tor   5   6   7  19
  71 ben   5   6  18
  72 ben   6   5  17
  73 ben   6   7   8
  74 prop tor   6   7   8   9
  75 prop tor   6   7   8  20
  76 ben   6   7  19
  77 ben   7   6  18
  78 ben   7   8   9
  79 prop tor   7   8   9   4
  80 prop tor   7   8   9  10
  81 ben   7   8  20
  82 ben   8   7  19
  83 ben   8   9  10
  84 prop tor   8   9  10  11
  85 prop tor   8   9  10  21
  86 prop tor   9   4   5   6
  87 prop tor   9   4   5  17
  88 ben   9   8  20
  89 ben   9  10  11
  90 prop tor   9  10  11   2
  91 prop tor   9  10  11  12
  92 ben   9  10  21
  93 ben  10  11  12
  94 prop tor  10  11  12  13
  95 prop tor  10  11  12  22
  96 prop tor  11   2   3   4
  97 prop tor  11   2   3  16
  98 ben  11  10  21
  99 ben  11  12  13
 100 prop tor  11  12  13  14
 101 prop tor  11  12  13  23
 102 ben  11  12  22
 103 ben  12  13  14
 104 prop tor  12  13  14   1
 105 prop tor  12  13  14  24
 106 ben  12  13  23
 107 ben  13  12  22
 108 ben  13  14  24
 109 prop tor  14   1   2   3
 110 prop tor  14   1   2  11
 111 ben  14   1  15
 112 ben  14  13  23
 113 prop tor  15   1   2   3
 114 prop tor  15   1   2  11
 115 prop tor  15   1  14  13
 116 prop tor  15   1  14  24
 117 prop tor  16   3   4   5
 118 prop tor  16   3   4   9
 119 prop tor  17   5   6   7
 120 prop tor  17   5   6  18
 121 prop tor  18   6   7   8
 122 prop tor  18   6   7  19
 123 prop tor  19   7   8   9
 124 prop tor  19   7   8  20
 125 prop tor  20   8   9   4
 126 prop tor  20   8   9  10
 127 prop tor  21  10  11   2
 128 prop tor  21  10  11  12
 129 prop tor  22  12  13  14
 130 prop tor  22  12  13  23
 131 prop tor  23  13  14   1
 132 prop tor  23  13  14  24
 nber bend=              42
 nber lin bend=           0
 nber prop tor=          64
 nber impr tor=           0
 nber tot redund int=         132
 Eigenvalues of G in red int coords
    Gval -0.00000000 -0.00000000 -0.00000000 -0.00000000 -0.00000000 -0.00000000 -0.00000000 -0.00000000
    Gval -0.00000000 -0.00000000 -0.00000000 -0.00000000 -0.00000000 -0.00000000 -0.00000000 -0.00000000
    Gval -0.00000000 -0.00000000 -0.00000000 -0.00000000 -0.00000000 -0.00000000 -0.00000000 -0.00000000
    Gval -0.00000000 -0.00000000 -0.00000000 -0.00000000 -0.00000000 -0.00000000 -0.00000000 -0.00000000
    Gval -0.00000000 -0.00000000  0.00000000  0.00000000  0.00000000  0.00000000  0.00000000  0.00000000
    Gval  0.00000000  0.00000000  0.00000000  0.00000000  0.00000000  0.00000000  0.00000000  0.00000000
    Gval  0.00000000  0.00000000  0.00000000  0.00000000  0.00000000  0.00000000  0.00000000  0.00000000
    Gval  0.00000000  0.00000000  0.00000000  0.00000000  0.00000000  0.00000000  0.00000000  0.00000000
    Gval  0.00000000  0.00000000  0.00000840  0.00000979  0.00002874  0.00003506  0.00003539  0.00004249
    Gval  0.00004841  0.00005281  0.00005612  0.00006512  0.00007341  0.00007854  0.00009172  0.00010013
    Gval  0.00010293  0.00012336  0.00013371  0.00014917  0.00019011  0.00020711  0.00021631  0.00025730
    Gval  0.00029860  0.00031301  0.00032696  0.00037974  0.00039383  0.00041207  0.00041731  0.00048172
    Gval  0.00059313  0.00059318  0.00059679  0.00059721  0.00060836  0.00061693  0.00062699  0.00064026
    Gval  0.00065347  0.00065851  0.00074939  0.00076745  0.00081095  0.00101732  0.00105100  0.00105394
    Gval  0.00111264  0.00111534  0.00111772  0.00112297  0.00115493  0.00115556  0.00117167  0.00117167
    Gval  0.00176438  0.00176666  0.00179918  0.00197453  0.00254752  0.00267246  0.00298205  0.00316885
    Gval  0.00347957  0.00357978  0.00401485  0.00402359
  8.398366809373987E-006  8.398366809373987E-006
  9.789852921924134E-006  8.398366809373987E-006
  2.873739367877644E-005  8.398366809373987E-006
  3.505596940359126E-005  8.398366809373987E-006
  3.538600926403444E-005  8.398366809373987E-006
  4.249065160308374E-005  8.398366809373987E-006
  4.840979570378810E-005  8.398366809373987E-006
  5.281124692721325E-005  8.398366809373987E-006
  5.611804719126511E-005  8.398366809373987E-006
  6.512055801303992E-005  8.398366809373987E-006
  7.341480691637810E-005  8.398366809373987E-006
  7.853547130699782E-005  8.398366809373987E-006
  9.171793578208319E-005  8.398366809373987E-006
  1.001342517712656E-004  8.398366809373987E-006
  1.029295144752462E-004  8.398366809373987E-006
  1.233558820287195E-004  8.398366809373987E-006
  1.337131800138389E-004  8.398366809373987E-006
  1.491672654211193E-004  8.398366809373987E-006
  1.901074299196210E-004  8.398366809373987E-006
  2.071143737970930E-004  8.398366809373987E-006
  2.163148032339110E-004  8.398366809373987E-006
  2.573020268921360E-004  8.398366809373987E-006
  2.986022267710349E-004  8.398366809373987E-006
  3.130097771572443E-004  8.398366809373987E-006
  3.269603093032804E-004  8.398366809373987E-006
  3.797373219170310E-004  8.398366809373987E-006
  3.938342618035771E-004  8.398366809373987E-006
  4.120742823009725E-004  8.398366809373987E-006
  4.173083102161621E-004  8.398366809373987E-006
  4.817229316527292E-004  8.398366809373987E-006
  5.931269302471894E-004  8.398366809373987E-006
  5.931789281078638E-004  8.398366809373987E-006
  5.967865856377744E-004  8.398366809373987E-006
  5.972103510891927E-004  8.398366809373987E-006
  6.083581275146077E-004  8.398366809373987E-006
  6.169347714448359E-004  8.398366809373987E-006
  6.269875688829559E-004  8.398366809373987E-006
  6.402569751826604E-004  8.398366809373987E-006
  6.534689248452451E-004  8.398366809373987E-006
  6.585138267283996E-004  8.398366809373987E-006
  7.493946011062554E-004  8.398366809373987E-006
  7.674482592091831E-004  8.398366809373987E-006
  8.109483785586798E-004  8.398366809373987E-006
  1.017323988096874E-003  8.398366809373987E-006
  1.051000925238524E-003  8.398366809373987E-006
  1.053940233056134E-003  8.398366809373987E-006
  1.112638333219438E-003  8.398366809373987E-006
  1.115340754496344E-003  8.398366809373987E-006
  1.117721835324584E-003  8.398366809373987E-006
  1.122971479494338E-003  8.398366809373987E-006
  1.154927145570065E-003  8.398366809373987E-006
  1.155562938414339E-003  8.398366809373987E-006
  1.171668660546652E-003  8.398366809373987E-006
  1.171668937995682E-003  8.398366809373987E-006
  1.764379720027201E-003  8.398366809373987E-006
  1.766664370051414E-003  8.398366809373987E-006
  1.799182277633203E-003  8.398366809373987E-006
  1.974527045136479E-003  8.398366809373987E-006
  2.547515804350052E-003  8.398366809373987E-006
  2.672464086431683E-003  8.398366809373987E-006
  2.982046337180805E-003  8.398366809373987E-006
  3.168846259907416E-003  8.398366809373987E-006
  3.479572605991684E-003  8.398366809373987E-006
  3.579780475791213E-003  8.398366809373987E-006
  4.014846383461937E-003  8.398366809373987E-006
  4.023594074462137E-003  8.398366809373987E-006
 cut=1d-8, nber non-redundant internal coords=          66
 Check on Eigenvals of non-red overlap matrix:
  0.00000840  0.00000979  0.00002874  0.00003506  0.00003539  0.00004249  0.00004841  0.00005281
  0.00005612  0.00006512  0.00007341  0.00007854  0.00009172  0.00010013  0.00010293  0.00012336
  0.00013371  0.00014917  0.00019011  0.00020711  0.00021631  0.00025730  0.00029860  0.00031301
  0.00032696  0.00037974  0.00039383  0.00041207  0.00041731  0.00048172  0.00059313  0.00059318
  0.00059679  0.00059721  0.00060836  0.00061693  0.00062699  0.00064026  0.00065347  0.00065851
  0.00074939  0.00076745  0.00081095  0.00101732  0.00105100  0.00105394  0.00111264  0.00111534
  0.00111772  0.00112297  0.00115493  0.00115556  0.00117167  0.00117167  0.00176438  0.00176666
  0.00179918  0.00197453  0.00254752  0.00267246  0.00298205  0.00316885  0.00347957  0.00357978
  0.00401485  0.00402359
 Checking for correct frequencies
 recalc frequencies=
    -0.0   -0.0   -0.0    0.0    0.0    0.0   86.5  109.5  233.3  234.4
   247.6  327.2  386.8  393.2  416.7  436.2  511.7  526.3  533.6  600.1
   607.2  665.3  705.2  712.0  718.0  721.5  751.2  774.0  822.3  834.4
   841.6  874.1  890.4  895.7  909.1  917.1  942.9  944.3 1045.4 1047.9
  1086.7 1123.6 1173.8 1184.9 1210.6 1213.3 1268.2 1287.4 1289.5 1302.7
  1362.8 1415.1 1415.4 1439.6 1460.6 1474.1 1523.4 1528.4 1562.7 1571.8
  1591.1 1603.0 3151.8 3153.2 3161.7 3162.4 3165.3 3166.6 3177.8 3178.2
  3192.8 3193.4
 recalc symmetries=
     B3g    B1u    B1g    B3u    B2u    B2g    B3u    Au     B1u    B1g
     B2g    B3u    B3g    Ag     B3u    B1g    Au     B3g    B2g    B2u
     Ag     B1u    Au     B2g    B3u    B1g    Ag     B2g    B2u    Au 
     B3u    B2g    B1g    B3u    B1u    B3g    Au     B2g    B2u    Ag 
     B3g    B1u    B2u    Ag     B3g    B2u    Ag     B1u    B3g    B1u
     B2u    B3g    Ag     B2u    B1u    B2u    B3g    Ag     B3g    B2u
     Ag     B1u    B1u    Ag     B3g    B1u    B2u    Ag     B3g    B1u
     B2u    Ag 
 recalc freqs check OK
 Zero-point lengths:
 10.0000 10.0000 10.0000 10.0000 10.0000 10.0000 26.6535 23.6913 16.2298 16.1932
 15.7553 13.7055 12.6059 12.5021 12.1450 11.8701 10.9592 10.8064 10.7318 10.1198
 10.0609  9.6112  9.3357  9.2910  9.2519  9.2292  9.0451  8.9109  8.6451  8.5823
  8.5455  8.3854  8.3082  8.2836  8.2221  8.1861  8.0734  8.0675  7.6675  7.6584
  7.5203  7.3958  7.2361  7.2021  7.1253  7.1171  6.9615  6.9095  6.9039  6.8686
  6.7154  6.5902  6.5897  6.5339  6.4868  6.4571  6.3517  6.3413  6.2713  6.2531
  6.2150  6.1919  4.4159  4.4149  4.4090  4.4085  4.4064  4.4056  4.3977  4.3975
  4.3875  4.3870
 highest evec of mol 2
  0.0000  0.0049 -0.0505
  0.0000  0.0021  0.0006
  0.0000  0.0000 -0.0067
  0.0000 -0.0021  0.0006
  0.0000 -0.0049 -0.0505
  0.0000  0.1187 -0.0742
  0.0000  0.1187  0.0742
  0.0000 -0.0049  0.0505
  0.0000 -0.0021 -0.0006
  0.0000  0.0000  0.0067
  0.0000  0.0021 -0.0006
  0.0000  0.0049  0.0505
  0.0000 -0.1187  0.0742
  0.0000 -0.1187 -0.0742
  0.0000 -0.0013  0.1589
  0.0000  0.0000  0.0217
  0.0000  0.0013  0.1589
  0.0000 -0.3875  0.2284
  0.0000 -0.3875 -0.2284
  0.0000  0.0013 -0.1589
  0.0000  0.0000 -0.0217
  0.0000 -0.0013 -0.1589
  0.0000  0.3875 -0.2284
  0.0000  0.3875  0.2284
 Enter nber and list of atoms to keep of mol #2
 keep list:          24           1           2           3           4
           5           6           7           8           9          10
          11          12          13          14          15          16
          17          18          19          20          21          22
          23          24
 reordering atoms
           1  -2.47624300000000     
           2  -1.24245200000000     
           3  1.691768418476429E-016
           4   1.24245200000000     
           5   2.47624300000000     
           6   3.69643700000000     
           7   3.69643700000000     
           8   2.47624300000000     
           9   1.24245200000000     
          10  1.691768418476429E-016
          11  -1.24245200000000     
          12  -2.47624300000000     
          13  -3.69643700000000     
          14  -3.69643700000000     
          15  -2.48065900000000     
          16  1.691768418476429E-016
          17   2.48065900000000     
          18   4.63142800000000     
          19   4.63142800000000     
          20   2.48065900000000     
          21  1.691768418476429E-016
          22  -2.48065900000000     
          23  -4.63142800000000     
          24  -4.63142800000000     
           1           1
           2           2
           3           3
           4           4
           5           5
           6           6
           7           7
           8           8
           9           9
          10          10
          11          11
          12          12
          13          13
          14          14
          15          15
          16          16
          17          17
          18          18
          19          19
          20          20
          21          21
          22          22
          23          23
          24          24
 initial cartes coords mol 1
   6   0.00000   1.40483   2.47671
   6   0.00000   0.72155   1.22187
   6   0.00000   1.40160   0.00000
   6   0.00000   0.72155  -1.22187
   6   0.00000   1.40483  -2.47671
   6   0.00000   0.71222  -3.65489
   6   0.00000  -0.71222  -3.65489
   6   0.00000  -1.40483  -2.47671
   6   0.00000  -0.72155  -1.22187
   6   0.00000  -1.40160   0.00000
   6   0.00000  -0.72155   1.22187
   6   0.00000  -1.40483   2.47671
   6   0.00000  -0.71222   3.65489
   6   0.00000   0.71222   3.65489
   1   0.00000   2.48989   2.47615
   1   0.00000   2.48750   0.00000
   1   0.00000   2.48989  -2.47615
   1   0.00000   1.24447  -4.59942
   1   0.00000  -1.24447  -4.59942
   1   0.00000  -2.48989  -2.47615
   1   0.00000  -2.48750   0.00000
   1   0.00000  -2.48989   2.47615
   1   0.00000  -1.24447   4.59942
   1   0.00000   1.24447   4.59942
 initial cartes coords mol 2
   6   0.00000   1.39732  -2.47624
   6   0.00000   0.72097  -1.24245
   6   0.00000   1.39553   0.00000
   6   0.00000   0.72097   1.24245
   6   0.00000   1.39732   2.47624
   6   0.00000   0.69366   3.69644
   6   0.00000  -0.69366   3.69644
   6   0.00000  -1.39732   2.47624
   6   0.00000  -0.72096   1.24245
   6   0.00000  -1.39553   0.00000
   6   0.00000  -0.72096  -1.24245
   6   0.00000  -1.39732  -2.47624
   6   0.00000  -0.69366  -3.69644
   6   0.00000   0.69366  -3.69644
   1   0.00000   2.48210  -2.48066
   1   0.00000   2.48172   0.00000
   1   0.00000   2.48210   2.48066
   1   0.00000   1.24141   4.63143
   1   0.00000  -1.24141   4.63143
   1   0.00000  -2.48210   2.48066
   1   0.00000  -2.48172   0.00000
   1   0.00000  -2.48210  -2.48066
   1   0.00000  -1.24141  -4.63143
   1   0.00000   1.24141  -4.63143
 loop 1 0
 mod cartes coords mol 2
   6   0.00000   1.39732  -2.47624
   6   0.00000   0.72097  -1.24245
   6   0.00000   1.39553   0.00000
   6   0.00000   0.72097   1.24245
   6   0.00000   1.39732   2.47624
   6   0.00000   0.69366   3.69644
   6   0.00000  -0.69366   3.69644
   6   0.00000  -1.39732   2.47624
   6   0.00000  -0.72096   1.24245
   6   0.00000  -1.39553   0.00000
   6   0.00000  -0.72096  -1.24245
   6   0.00000  -1.39732  -2.47624
   6   0.00000  -0.69366  -3.69644
   6   0.00000   0.69366  -3.69644
   1   0.00000   2.48210  -2.48066
   1   0.00000   2.48172   0.00000
   1   0.00000   2.48210   2.48066
   1   0.00000   1.24141   4.63143
   1   0.00000  -1.24141   4.63143
   1   0.00000  -2.48210   2.48066
   1   0.00000  -2.48172   0.00000
   1   0.00000  -2.48210  -2.48066
   1   0.00000  -1.24141  -4.63143
   1   0.00000   1.24141  -4.63143
 read in order, maxerr=  9.23 for atom  18
 loop 1 1
 mod cartes coords mol 2
   6   0.00000   1.39732  -2.47624
   6   0.00000   0.72097  -1.24245
   6   0.00000   1.39553   0.00000
   6   0.00000   0.72097   1.24245
   6   0.00000   1.39732   2.47624
   6   0.00000   0.69366   3.69644
   6   0.00000  -0.69366   3.69644
   6   0.00000  -1.39732   2.47624
   6   0.00000  -0.72096   1.24245
   6   0.00000  -1.39553   0.00000
   6   0.00000  -0.72096  -1.24245
   6   0.00000  -1.39732  -2.47624
   6   0.00000  -0.69366  -3.69644
   6   0.00000   0.69366  -3.69644
   1   0.00000   2.48210  -2.48066
   1   0.00000   2.48172   0.00000
   1   0.00000   2.48210   2.48066
   1   0.00000   1.24141   4.63143
   1   0.00000  -1.24141   4.63143
   1   0.00000  -2.48210   2.48066
   1   0.00000  -2.48172   0.00000
   1   0.00000  -2.48210  -2.48066
   1   0.00000  -1.24141  -4.63143
   1   0.00000   1.24141  -4.63143
 read in order, maxerr=  9.23 for atom  18
 loop 1 2
 mod cartes coords mol 2
   6   0.00000  -1.39732  -2.47624
   6   0.00000  -0.72097  -1.24245
   6   0.00000  -1.39553   0.00000
   6   0.00000  -0.72097   1.24245
   6   0.00000  -1.39732   2.47624
   6   0.00000  -0.69366   3.69644
   6   0.00000   0.69366   3.69644
   6   0.00000   1.39732   2.47624
   6   0.00000   0.72096   1.24245
   6   0.00000   1.39553   0.00000
   6   0.00000   0.72096  -1.24245
   6   0.00000   1.39732  -2.47624
   6   0.00000   0.69366  -3.69644
   6   0.00000  -0.69366  -3.69644
   1   0.00000  -2.48210  -2.48066
   1   0.00000  -2.48172   0.00000
   1   0.00000  -2.48210   2.48066
   1   0.00000  -1.24141   4.63143
   1   0.00000   1.24141   4.63143
   1   0.00000   2.48210   2.48066
   1   0.00000   2.48172   0.00000
   1   0.00000   2.48210  -2.48066
   1   0.00000   1.24141  -4.63143
   1   0.00000  -1.24141  -4.63143
 read in order, maxerr=  9.56 for atom  18
 loop 1 3
 mod cartes coords mol 2
   6   0.00000  -1.39732  -2.47624
   6   0.00000  -0.72097  -1.24245
   6   0.00000  -1.39553   0.00000
   6   0.00000  -0.72097   1.24245
   6   0.00000  -1.39732   2.47624
   6   0.00000  -0.69366   3.69644
   6   0.00000   0.69366   3.69644
   6   0.00000   1.39732   2.47624
   6   0.00000   0.72096   1.24245
   6   0.00000   1.39553   0.00000
   6   0.00000   0.72096  -1.24245
   6   0.00000   1.39732  -2.47624
   6   0.00000   0.69366  -3.69644
   6   0.00000  -0.69366  -3.69644
   1   0.00000  -2.48210  -2.48066
   1   0.00000  -2.48172   0.00000
   1   0.00000  -2.48210   2.48066
   1   0.00000  -1.24141   4.63143
   1   0.00000   1.24141   4.63143
   1   0.00000   2.48210   2.48066
   1   0.00000   2.48172   0.00000
   1   0.00000   2.48210  -2.48066
   1   0.00000   1.24141  -4.63143
   1   0.00000  -1.24141  -4.63143
 read in order, maxerr=  9.56 for atom  18
 loop 1 4
 mod cartes coords mol 2
   6   0.00000   1.39732   2.47624
   6   0.00000   0.72097   1.24245
   6   0.00000   1.39553  -0.00000
   6   0.00000   0.72097  -1.24245
   6   0.00000   1.39732  -2.47624
   6   0.00000   0.69366  -3.69644
   6   0.00000  -0.69366  -3.69644
   6   0.00000  -1.39732  -2.47624
   6   0.00000  -0.72096  -1.24245
   6   0.00000  -1.39553  -0.00000
   6   0.00000  -0.72096   1.24245
   6   0.00000  -1.39732   2.47624
   6   0.00000  -0.69366   3.69644
   6   0.00000   0.69366   3.69644
   1   0.00000   2.48210   2.48066
   1   0.00000   2.48172  -0.00000
   1   0.00000   2.48210  -2.48066
   1   0.00000   1.24141  -4.63143
   1   0.00000  -1.24141  -4.63143
   1   0.00000  -2.48210  -2.48066
   1   0.00000  -2.48172  -0.00000
   1   0.00000  -2.48210   2.48066
   1   0.00000  -1.24141   4.63143
   1   0.00000   1.24141   4.63143
 read in order, maxerr=  0.05 for atom   7
 final axis swaps:           1           1          -1
 final xyz swap pattern=           1
 reorder list:
   1   2   3   4   5   6   7   8   9  10  11  12  13  14  15  16  17  18  19  20
  21  22  23  24
 axis signs=           1           1          -1
  6     0.000000  1.397320  2.476243     0.000000  1.404830  2.476712
  6     0.000000  0.720965  1.242452     0.000000  0.721547  1.221874
  6     0.000000  1.395527 -0.000000     0.000000  1.401596  0.000000
  6     0.000000  0.720965 -1.242452     0.000000  0.721547 -1.221874
  6     0.000000  1.397320 -2.476243     0.000000  1.404830 -2.476712
  6     0.000000  0.693659 -3.696437     0.000000  0.712222 -3.654888
  6     0.000000 -0.693659 -3.696437     0.000000 -0.712222 -3.654888
  6     0.000000 -1.397320 -2.476243     0.000000 -1.404830 -2.476712
  6     0.000000 -0.720965 -1.242452     0.000000 -0.721547 -1.221874
  6     0.000000 -1.395527 -0.000000     0.000000 -1.401596  0.000000
  6     0.000000 -0.720965  1.242452     0.000000 -0.721547  1.221874
  6     0.000000 -1.397320  2.476243     0.000000 -1.404830  2.476712
  6     0.000000 -0.693659  3.696437     0.000000 -0.712222  3.654888
  6     0.000000  0.693659  3.696437     0.000000  0.712222  3.654888
  1     0.000000  2.482095  2.480659     0.000000  2.489888  2.476147
  1     0.000000  2.481716 -0.000000     0.000000  2.487504  0.000000
  1     0.000000  2.482095 -2.480659     0.000000  2.489888 -2.476147
  1     0.000000  1.241407 -4.631428     0.000000  1.244469 -4.599423
  1     0.000000 -1.241407 -4.631428     0.000000 -1.244469 -4.599423
  1     0.000000 -2.482095 -2.480659     0.000000 -2.489888 -2.476147
  1     0.000000 -2.481716 -0.000000     0.000000 -2.487504  0.000000
  1     0.000000 -2.482095  2.480659     0.000000 -2.489888  2.476147
  1     0.000000 -1.241407  4.631428     0.000000 -1.244469  4.599423
  1     0.000000  1.241407  4.631428     0.000000  1.244469  4.599423
 generating redundant internal coords
         300        3600          24
 Adding extra bonds for z output only
           6           6           6           6           6           6
           6           6           6           6           6           6
           6           6           1           1           1           1
           1           1           1           1           1           1
 search for int coords
   1 str   2   1   1.407
   2 str   3   2   1.414
   3 str   4   3   1.414
   4 str   5   4   1.407
   5 str   6   5   1.409
   6 str   7   6   1.387
   7 str   8   7   1.409
   8 str   9   4   1.442
   9 str   9   8   1.407
  10 str  10   9   1.414
  11 str  11   2   1.442
  12 str  11  10   1.414
  13 str  12  11   1.407
  14 str  13  12   1.409
  15 str  14   1   1.409
  16 str  14  13   1.387
  17 str  15   1   1.085
  18 str  16   3   1.086
  19 str  17   5   1.085
  20 str  18   6   1.084
  21 str  19   7   1.084
  22 str  20   8   1.085
  23 str  21  10   1.086
  24 str  22  12   1.085
  25 str  23  13   1.084
  26 str  24  14   1.084
 nber stretches=          26
  27 ben   1   2   3
  28 prop tor   1   2   3   4
  29 prop tor   1   2   3  16
  30 ben   1   2  11
  31 prop tor   1   2  11  10
  32 prop tor   1   2  11  12
  33 ben   1  14  13
  34 ben   1  14  24
  35 ben   2   1  14
  36 prop tor   2   1  14  13
  37 prop tor   2   1  14  24
  38 ben   2   1  15
  39 ben   2   3   4
  40 prop tor   2   3   4   5
  41 prop tor   2   3   4   9
  42 ben   2   3  16
  43 ben   2  11  10
  44 ben   2  11  12
  45 prop tor   2  11  12  13
  46 prop tor   2  11  12  22
  47 ben   3   2  11
  48 prop tor   3   2  11  10
  49 prop tor   3   2  11  12
  50 ben   3   4   5
  51 prop tor   3   4   5   6
  52 prop tor   3   4   5  17
  53 ben   3   4   9
  54 prop tor   3   4   9   8
  55 prop tor   3   4   9  10
  56 ben   4   3  16
  57 ben   4   5   6
  58 prop tor   4   5   6   7
  59 prop tor   4   5   6  18
  60 ben   4   5  17
  61 ben   4   9   8
  62 ben   4   9  10
  63 prop tor   4   9  10  11
  64 prop tor   4   9  10  21
  65 ben   5   4   9
  66 prop tor   5   4   9   8
  67 prop tor   5   4   9  10
  68 ben   5   6   7
  69 prop tor   5   6   7   8
  70 prop tor   5   6   7  19
  71 ben   5   6  18
  72 ben   6   5  17
  73 ben   6   7   8
  74 prop tor   6   7   8   9
  75 prop tor   6   7   8  20
  76 ben   6   7  19
  77 ben   7   6  18
  78 ben   7   8   9
  79 prop tor   7   8   9   4
  80 prop tor   7   8   9  10
  81 ben   7   8  20
  82 ben   8   7  19
  83 ben   8   9  10
  84 prop tor   8   9  10  11
  85 prop tor   8   9  10  21
  86 prop tor   9   4   5   6
  87 prop tor   9   4   5  17
  88 ben   9   8  20
  89 ben   9  10  11
  90 prop tor   9  10  11   2
  91 prop tor   9  10  11  12
  92 ben   9  10  21
  93 ben  10  11  12
  94 prop tor  10  11  12  13
  95 prop tor  10  11  12  22
  96 prop tor  11   2   3   4
  97 prop tor  11   2   3  16
  98 ben  11  10  21
  99 ben  11  12  13
 100 prop tor  11  12  13  14
 101 prop tor  11  12  13  23
 102 ben  11  12  22
 103 ben  12  13  14
 104 prop tor  12  13  14   1
 105 prop tor  12  13  14  24
 106 ben  12  13  23
 107 ben  13  12  22
 108 ben  13  14  24
 109 prop tor  14   1   2   3
 110 prop tor  14   1   2  11
 111 ben  14   1  15
 112 ben  14  13  23
 113 prop tor  15   1   2   3
 114 prop tor  15   1   2  11
 115 prop tor  15   1  14  13
 116 prop tor  15   1  14  24
 117 prop tor  16   3   4   5
 118 prop tor  16   3   4   9
 119 prop tor  17   5   6   7
 120 prop tor  17   5   6  18
 121 prop tor  18   6   7   8
 122 prop tor  18   6   7  19
 123 prop tor  19   7   8   9
 124 prop tor  19   7   8  20
 125 prop tor  20   8   9   4
 126 prop tor  20   8   9  10
 127 prop tor  21  10  11   2
 128 prop tor  21  10  11  12
 129 prop tor  22  12  13  14
 130 prop tor  22  12  13  23
 131 prop tor  23  13  14   1
 132 prop tor  23  13  14  24
 nber bend=              42
 nber lin bend=           0
 nber prop tor=          64
 nber impr tor=           0
 nber tot redund int=         132
 generating redundant internal coords
         300        3600          24
 search for int coords
   1 str   2   1   1.429
   2 str   3   2   1.398
   3 str   4   3   1.398
   4 str   5   4   1.429
   5 str   6   5   1.367
   6 str   7   6   1.424
   7 str   8   7   1.367
   8 str   9   4   1.443
   9 str   9   8   1.429
  10 str  10   9   1.398
  11 str  11   2   1.443
  12 str  11  10   1.398
  13 str  12  11   1.429
  14 str  13  12   1.367
  15 str  14   1   1.367
  16 str  14  13   1.424
  17 str  15   1   1.085
  18 str  16   3   1.086
  19 str  17   5   1.085
  20 str  18   6   1.084
  21 str  19   7   1.084
  22 str  20   8   1.085
  23 str  21  10   1.086
  24 str  22  12   1.085
  25 str  23  13   1.084
  26 str  24  14   1.084
 nber stretches=          26
  27 ben   1   2   3
  28 prop tor   1   2   3   4
  29 prop tor   1   2   3  16
  30 ben   1   2  11
  31 prop tor   1   2  11  10
  32 prop tor   1   2  11  12
  33 ben   1  14  13
  34 ben   1  14  24
  35 ben   2   1  14
  36 prop tor   2   1  14  13
  37 prop tor   2   1  14  24
  38 ben   2   1  15
  39 ben   2   3   4
  40 prop tor   2   3   4   5
  41 prop tor   2   3   4   9
  42 ben   2   3  16
  43 ben   2  11  10
  44 ben   2  11  12
  45 prop tor   2  11  12  13
  46 prop tor   2  11  12  22
  47 ben   3   2  11
  48 prop tor   3   2  11  10
  49 prop tor   3   2  11  12
  50 ben   3   4   5
  51 prop tor   3   4   5   6
  52 prop tor   3   4   5  17
  53 ben   3   4   9
  54 prop tor   3   4   9   8
  55 prop tor   3   4   9  10
  56 ben   4   3  16
  57 ben   4   5   6
  58 prop tor   4   5   6   7
  59 prop tor   4   5   6  18
  60 ben   4   5  17
  61 ben   4   9   8
  62 ben   4   9  10
  63 prop tor   4   9  10  11
  64 prop tor   4   9  10  21
  65 ben   5   4   9
  66 prop tor   5   4   9   8
  67 prop tor   5   4   9  10
  68 ben   5   6   7
  69 prop tor   5   6   7   8
  70 prop tor   5   6   7  19
  71 ben   5   6  18
  72 ben   6   5  17
  73 ben   6   7   8
  74 prop tor   6   7   8   9
  75 prop tor   6   7   8  20
  76 ben   6   7  19
  77 ben   7   6  18
  78 ben   7   8   9
  79 prop tor   7   8   9   4
  80 prop tor   7   8   9  10
  81 ben   7   8  20
  82 ben   8   7  19
  83 ben   8   9  10
  84 prop tor   8   9  10  11
  85 prop tor   8   9  10  21
  86 prop tor   9   4   5   6
  87 prop tor   9   4   5  17
  88 ben   9   8  20
  89 ben   9  10  11
  90 prop tor   9  10  11   2
  91 prop tor   9  10  11  12
  92 ben   9  10  21
  93 ben  10  11  12
  94 prop tor  10  11  12  13
  95 prop tor  10  11  12  22
  96 prop tor  11   2   3   4
  97 prop tor  11   2   3  16
  98 ben  11  10  21
  99 ben  11  12  13
 100 prop tor  11  12  13  14
 101 prop tor  11  12  13  23
 102 ben  11  12  22
 103 ben  12  13  14
 104 prop tor  12  13  14   1
 105 prop tor  12  13  14  24
 106 ben  12  13  23
 107 ben  13  12  22
 108 ben  13  14  24
 109 prop tor  14   1   2   3
 110 prop tor  14   1   2  11
 111 ben  14   1  15
 112 ben  14  13  23
 113 prop tor  15   1   2   3
 114 prop tor  15   1   2  11
 115 prop tor  15   1  14  13
 116 prop tor  15   1  14  24
 117 prop tor  16   3   4   5
 118 prop tor  16   3   4   9
 119 prop tor  17   5   6   7
 120 prop tor  17   5   6  18
 121 prop tor  18   6   7   8
 122 prop tor  18   6   7  19
 123 prop tor  19   7   8   9
 124 prop tor  19   7   8  20
 125 prop tor  20   8   9   4
 126 prop tor  20   8   9  10
 127 prop tor  21  10  11   2
 128 prop tor  21  10  11  12
 129 prop tor  22  12  13  14
 130 prop tor  22  12  13  23
 131 prop tor  23  13  14   1
 132 prop tor  23  13  14  24
 nber bend=              42
 nber lin bend=           0
 nber prop tor=          64
 nber impr tor=           0
 nber tot redund int=         132
 Eigenvalues of G in red int coords
    Gval -0.00000000 -0.00000000 -0.00000000 -0.00000000 -0.00000000 -0.00000000 -0.00000000 -0.00000000
    Gval -0.00000000 -0.00000000 -0.00000000 -0.00000000 -0.00000000 -0.00000000 -0.00000000 -0.00000000
    Gval -0.00000000 -0.00000000 -0.00000000 -0.00000000 -0.00000000 -0.00000000 -0.00000000 -0.00000000
    Gval -0.00000000 -0.00000000 -0.00000000 -0.00000000 -0.00000000 -0.00000000 -0.00000000 -0.00000000
    Gval  0.00000000  0.00000000  0.00000000  0.00000000  0.00000000  0.00000000  0.00000000  0.00000000
    Gval  0.00000000  0.00000000  0.00000000  0.00000000  0.00000000  0.00000000  0.00000000  0.00000000
    Gval  0.00000000  0.00000000  0.00000000  0.00000000  0.00000000  0.00000000  0.00000000  0.00000000
    Gval  0.00000000  0.00000000  0.00000000  0.00000000  0.00000000  0.00000000  0.00000000  0.00000000
    Gval  0.00000000  0.00000000  0.00000846  0.00000982  0.00002851  0.00003511  0.00003539  0.00004269
    Gval  0.00004885  0.00005231  0.00005594  0.00006522  0.00007280  0.00007856  0.00009181  0.00010120
    Gval  0.00010302  0.00012397  0.00013434  0.00015060  0.00018765  0.00021085  0.00022485  0.00025645
    Gval  0.00029370  0.00031541  0.00032639  0.00037868  0.00039220  0.00041610  0.00041831  0.00048552
    Gval  0.00059308  0.00059313  0.00059670  0.00059710  0.00060868  0.00061707  0.00062824  0.00064106
    Gval  0.00065413  0.00065934  0.00074863  0.00076121  0.00083209  0.00103873  0.00104952  0.00105230
    Gval  0.00111199  0.00111451  0.00111942  0.00112480  0.00116107  0.00116152  0.00117026  0.00117026
    Gval  0.00175677  0.00175763  0.00178808  0.00197563  0.00254067  0.00264678  0.00301614  0.00318286
    Gval  0.00350939  0.00360694  0.00400084  0.00401095
  8.463930851332618E-006  8.463930851332618E-006
  9.823130745050815E-006  8.463930851332618E-006
  2.850987358778998E-005  8.463930851332618E-006
  3.510553257233437E-005  8.463930851332618E-006
  3.539413200312129E-005  8.463930851332618E-006
  4.268560679062900E-005  8.463930851332618E-006
  4.885059977326796E-005  8.463930851332618E-006
  5.231485510954214E-005  8.463930851332618E-006
  5.594453154776134E-005  8.463930851332618E-006
  6.522243219904759E-005  8.463930851332618E-006
  7.280397292825080E-005  8.463930851332618E-006
  7.855903666172605E-005  8.463930851332618E-006
  9.181469992213255E-005  8.463930851332618E-006
  1.011985956840578E-004  8.463930851332618E-006
  1.030158213504332E-004  8.463930851332618E-006
  1.239728214057766E-004  8.463930851332618E-006
  1.343376718354549E-004  8.463930851332618E-006
  1.506040725092548E-004  8.463930851332618E-006
  1.876462766705876E-004  8.463930851332618E-006
  2.108452889573023E-004  8.463930851332618E-006
  2.248453018731648E-004  8.463930851332618E-006
  2.564460044260418E-004  8.463930851332618E-006
  2.937029626585698E-004  8.463930851332618E-006
  3.154084661614617E-004  8.463930851332618E-006
  3.263909123945712E-004  8.463930851332618E-006
  3.786818951235358E-004  8.463930851332618E-006
  3.922036074954680E-004  8.463930851332618E-006
  4.161049937720921E-004  8.463930851332618E-006
  4.183110827734626E-004  8.463930851332618E-006
  4.855187769942207E-004  8.463930851332618E-006
  5.930837838646400E-004  8.463930851332618E-006
  5.931347710173090E-004  8.463930851332618E-006
  5.967019631275283E-004  8.463930851332618E-006
  5.971041248245501E-004  8.463930851332618E-006
  6.086822452354402E-004  8.463930851332618E-006
  6.170724017710820E-004  8.463930851332618E-006
  6.282410614622196E-004  8.463930851332618E-006
  6.410611999983148E-004  8.463930851332618E-006
  6.541342446418988E-004  8.463930851332618E-006
  6.593442597987424E-004  8.463930851332618E-006
  7.486286275367384E-004  8.463930851332618E-006
  7.612093316501937E-004  8.463930851332618E-006
  8.320878766210228E-004  8.463930851332618E-006
  1.038732996617453E-003  8.463930851332618E-006
  1.049516152053341E-003  8.463930851332618E-006
  1.052301352648371E-003  8.463930851332618E-006
  1.111993390415478E-003  8.463930851332618E-006
  1.114508953022927E-003  8.463930851332618E-006
  1.119423703098606E-003  8.463930851332618E-006
  1.124798910033492E-003  8.463930851332618E-006
  1.161066422685971E-003  8.463930851332618E-006
  1.161524342473123E-003  8.463930851332618E-006
  1.170259040700688E-003  8.463930851332618E-006
  1.170261213191258E-003  8.463930851332618E-006
  1.756766148731524E-003  8.463930851332618E-006
  1.757625451804580E-003  8.463930851332618E-006
  1.788083164253915E-003  8.463930851332618E-006
  1.975628043887922E-003  8.463930851332618E-006
  2.540669950668908E-003  8.463930851332618E-006
  2.646777466125553E-003  8.463930851332618E-006
  3.016140935836811E-003  8.463930851332618E-006
  3.182855948542820E-003  8.463930851332618E-006
  3.509390745282693E-003  8.463930851332618E-006
  3.606942394085753E-003  8.463930851332618E-006
  4.000841143319503E-003  8.463930851332618E-006
  4.010945858692719E-003  8.463930851332618E-006
 cut=1d-8, nber non-redundant internal coords=          66
 Check on Eigenvals of non-red overlap matrix:
  0.00000846  0.00000982  0.00002851  0.00003511  0.00003539  0.00004269  0.00004885  0.00005231
  0.00005594  0.00006522  0.00007280  0.00007856  0.00009181  0.00010120  0.00010302  0.00012397
  0.00013434  0.00015060  0.00018765  0.00021085  0.00022485  0.00025645  0.00029370  0.00031541
  0.00032639  0.00037868  0.00039220  0.00041610  0.00041831  0.00048552  0.00059308  0.00059313
  0.00059670  0.00059710  0.00060868  0.00061707  0.00062824  0.00064106  0.00065413  0.00065934
  0.00074863  0.00076121  0.00083209  0.00103873  0.00104952  0.00105230  0.00111199  0.00111451
  0.00111942  0.00112480  0.00116107  0.00116152  0.00117026  0.00117026  0.00175677  0.00175763
  0.00178808  0.00197563  0.00254067  0.00264678  0.00301614  0.00318286  0.00350939  0.00360694
  0.00400084  0.00401095
 generating redundant internal coords
         300        3600          24
 search for int coords
   1 str   2   1   1.407
   2 str   3   2   1.414
   3 str   4   3   1.414
   4 str   5   4   1.407
   5 str   6   5   1.409
   6 str   7   6   1.387
   7 str   8   7   1.409
   8 str   9   4   1.442
   9 str   9   8   1.407
  10 str  10   9   1.414
  11 str  11   2   1.442
  12 str  11  10   1.414
  13 str  12  11   1.407
  14 str  13  12   1.409
  15 str  14   1   1.409
  16 str  14  13   1.387
  17 str  15   1   1.085
  18 str  16   3   1.086
  19 str  17   5   1.085
  20 str  18   6   1.084
  21 str  19   7   1.084
  22 str  20   8   1.085
  23 str  21  10   1.086
  24 str  22  12   1.085
  25 str  23  13   1.084
  26 str  24  14   1.084
 nber stretches=          26
  27 ben   1   2   3
  28 prop tor   1   2   3   4
  29 prop tor   1   2   3  16
  30 ben   1   2  11
  31 prop tor   1   2  11  10
  32 prop tor   1   2  11  12
  33 ben   1  14  13
  34 ben   1  14  24
  35 ben   2   1  14
  36 prop tor   2   1  14  13
  37 prop tor   2   1  14  24
  38 ben   2   1  15
  39 ben   2   3   4
  40 prop tor   2   3   4   5
  41 prop tor   2   3   4   9
  42 ben   2   3  16
  43 ben   2  11  10
  44 ben   2  11  12
  45 prop tor   2  11  12  13
  46 prop tor   2  11  12  22
  47 ben   3   2  11
  48 prop tor   3   2  11  10
  49 prop tor   3   2  11  12
  50 ben   3   4   5
  51 prop tor   3   4   5   6
  52 prop tor   3   4   5  17
  53 ben   3   4   9
  54 prop tor   3   4   9   8
  55 prop tor   3   4   9  10
  56 ben   4   3  16
  57 ben   4   5   6
  58 prop tor   4   5   6   7
  59 prop tor   4   5   6  18
  60 ben   4   5  17
  61 ben   4   9   8
  62 ben   4   9  10
  63 prop tor   4   9  10  11
  64 prop tor   4   9  10  21
  65 ben   5   4   9
  66 prop tor   5   4   9   8
  67 prop tor   5   4   9  10
  68 ben   5   6   7
  69 prop tor   5   6   7   8
  70 prop tor   5   6   7  19
  71 ben   5   6  18
  72 ben   6   5  17
  73 ben   6   7   8
  74 prop tor   6   7   8   9
  75 prop tor   6   7   8  20
  76 ben   6   7  19
  77 ben   7   6  18
  78 ben   7   8   9
  79 prop tor   7   8   9   4
  80 prop tor   7   8   9  10
  81 ben   7   8  20
  82 ben   8   7  19
  83 ben   8   9  10
  84 prop tor   8   9  10  11
  85 prop tor   8   9  10  21
  86 prop tor   9   4   5   6
  87 prop tor   9   4   5  17
  88 ben   9   8  20
  89 ben   9  10  11
  90 prop tor   9  10  11   2
  91 prop tor   9  10  11  12
  92 ben   9  10  21
  93 ben  10  11  12
  94 prop tor  10  11  12  13
  95 prop tor  10  11  12  22
  96 prop tor  11   2   3   4
  97 prop tor  11   2   3  16
  98 ben  11  10  21
  99 ben  11  12  13
 100 prop tor  11  12  13  14
 101 prop tor  11  12  13  23
 102 ben  11  12  22
 103 ben  12  13  14
 104 prop tor  12  13  14   1
 105 prop tor  12  13  14  24
 106 ben  12  13  23
 107 ben  13  12  22
 108 ben  13  14  24
 109 prop tor  14   1   2   3
 110 prop tor  14   1   2  11
 111 ben  14   1  15
 112 ben  14  13  23
 113 prop tor  15   1   2   3
 114 prop tor  15   1   2  11
 115 prop tor  15   1  14  13
 116 prop tor  15   1  14  24
 117 prop tor  16   3   4   5
 118 prop tor  16   3   4   9
 119 prop tor  17   5   6   7
 120 prop tor  17   5   6  18
 121 prop tor  18   6   7   8
 122 prop tor  18   6   7  19
 123 prop tor  19   7   8   9
 124 prop tor  19   7   8  20
 125 prop tor  20   8   9   4
 126 prop tor  20   8   9  10
 127 prop tor  21  10  11   2
 128 prop tor  21  10  11  12
 129 prop tor  22  12  13  14
 130 prop tor  22  12  13  23
 131 prop tor  23  13  14   1
 132 prop tor  23  13  14  24
 nber bend=              42
 nber lin bend=           0
 nber prop tor=          64
 nber impr tor=           0
 nber tot redund int=         132
 Eigenvalues of G in red int coords
    Gval -0.00000000 -0.00000000 -0.00000000 -0.00000000 -0.00000000 -0.00000000 -0.00000000 -0.00000000
    Gval -0.00000000 -0.00000000 -0.00000000 -0.00000000 -0.00000000 -0.00000000 -0.00000000 -0.00000000
    Gval -0.00000000 -0.00000000 -0.00000000 -0.00000000 -0.00000000 -0.00000000 -0.00000000 -0.00000000
    Gval -0.00000000 -0.00000000 -0.00000000 -0.00000000 -0.00000000 -0.00000000 -0.00000000 -0.00000000
    Gval  0.00000000  0.00000000  0.00000000  0.00000000  0.00000000  0.00000000  0.00000000  0.00000000
    Gval  0.00000000  0.00000000  0.00000000  0.00000000  0.00000000  0.00000000  0.00000000  0.00000000
    Gval  0.00000000  0.00000000  0.00000000  0.00000000  0.00000000  0.00000000  0.00000000  0.00000000
    Gval  0.00000000  0.00000000  0.00000000  0.00000000  0.00000000  0.00000000  0.00000000  0.00000000
    Gval  0.00000000  0.00000000  0.00000840  0.00000979  0.00002874  0.00003506  0.00003539  0.00004249
    Gval  0.00004841  0.00005281  0.00005612  0.00006512  0.00007341  0.00007854  0.00009172  0.00010013
    Gval  0.00010293  0.00012336  0.00013371  0.00014917  0.00019011  0.00020711  0.00021631  0.00025730
    Gval  0.00029860  0.00031301  0.00032696  0.00037974  0.00039383  0.00041207  0.00041731  0.00048172
    Gval  0.00059313  0.00059318  0.00059679  0.00059721  0.00060836  0.00061693  0.00062699  0.00064026
    Gval  0.00065347  0.00065851  0.00074939  0.00076745  0.00081095  0.00101732  0.00105100  0.00105394
    Gval  0.00111264  0.00111534  0.00111772  0.00112297  0.00115493  0.00115556  0.00117167  0.00117167
    Gval  0.00176438  0.00176666  0.00179918  0.00197453  0.00254752  0.00267246  0.00298205  0.00316885
    Gval  0.00347957  0.00357978  0.00401485  0.00402359
  8.398366809374146E-006  8.398366809374146E-006
  9.789852921924124E-006  8.398366809374146E-006
  2.873739367877643E-005  8.398366809374146E-006
  3.505596940359128E-005  8.398366809374146E-006
  3.538600926403494E-005  8.398366809374146E-006
  4.249065160308371E-005  8.398366809374146E-006
  4.840979570378815E-005  8.398366809374146E-006
  5.281124692721332E-005  8.398366809374146E-006
  5.611804719126508E-005  8.398366809374146E-006
  6.512055801304000E-005  8.398366809374146E-006
  7.341480691637805E-005  8.398366809374146E-006
  7.853547130699778E-005  8.398366809374146E-006
  9.171793578208308E-005  8.398366809374146E-006
  1.001342517712654E-004  8.398366809374146E-006
  1.029295144752462E-004  8.398366809374146E-006
  1.233558820287195E-004  8.398366809374146E-006
  1.337131800138387E-004  8.398366809374146E-006
  1.491672654211191E-004  8.398366809374146E-006
  1.901074299196213E-004  8.398366809374146E-006
  2.071143737970938E-004  8.398366809374146E-006
  2.163148032339106E-004  8.398366809374146E-006
  2.573020268921360E-004  8.398366809374146E-006
  2.986022267710363E-004  8.398366809374146E-006
  3.130097771572439E-004  8.398366809374146E-006
  3.269603093032807E-004  8.398366809374146E-006
  3.797373219170304E-004  8.398366809374146E-006
  3.938342618035769E-004  8.398366809374146E-006
  4.120742823009722E-004  8.398366809374146E-006
  4.173083102161622E-004  8.398366809374146E-006
  4.817229316527288E-004  8.398366809374146E-006
  5.931269302471890E-004  8.398366809374146E-006
  5.931789281078633E-004  8.398366809374146E-006
  5.967865856377748E-004  8.398366809374146E-006
  5.972103510891931E-004  8.398366809374146E-006
  6.083581275146080E-004  8.398366809374146E-006
  6.169347714448356E-004  8.398366809374146E-006
  6.269875688829550E-004  8.398366809374146E-006
  6.402569751826601E-004  8.398366809374146E-006
  6.534689248452447E-004  8.398366809374146E-006
  6.585138267283985E-004  8.398366809374146E-006
  7.493946011062540E-004  8.398366809374146E-006
  7.674482592091829E-004  8.398366809374146E-006
  8.109483785586792E-004  8.398366809374146E-006
  1.017323988096870E-003  8.398366809374146E-006
  1.051000925238522E-003  8.398366809374146E-006
  1.053940233056132E-003  8.398366809374146E-006
  1.112638333219437E-003  8.398366809374146E-006
  1.115340754496343E-003  8.398366809374146E-006
  1.117721835324583E-003  8.398366809374146E-006
  1.122971479494337E-003  8.398366809374146E-006
  1.154927145570065E-003  8.398366809374146E-006
  1.155562938414338E-003  8.398366809374146E-006
  1.171668660546651E-003  8.398366809374146E-006
  1.171668937995682E-003  8.398366809374146E-006
  1.764379720027204E-003  8.398366809374146E-006
  1.766664370051414E-003  8.398366809374146E-006
  1.799182277633201E-003  8.398366809374146E-006
  1.974527045136476E-003  8.398366809374146E-006
  2.547515804350060E-003  8.398366809374146E-006
  2.672464086431679E-003  8.398366809374146E-006
  2.982046337180802E-003  8.398366809374146E-006
  3.168846259907416E-003  8.398366809374146E-006
  3.479572605991680E-003  8.398366809374146E-006
  3.579780475791206E-003  8.398366809374146E-006
  4.014846383461926E-003  8.398366809374146E-006
  4.023594074462126E-003  8.398366809374146E-006
 cut=1d-8, nber non-redundant internal coords=          66
 Check on Eigenvals of non-red overlap matrix:
  0.00000840  0.00000979  0.00002874  0.00003506  0.00003539  0.00004249  0.00004841  0.00005281
  0.00005612  0.00006512  0.00007341  0.00007854  0.00009172  0.00010013  0.00010293  0.00012336
  0.00013371  0.00014917  0.00019011  0.00020711  0.00021631  0.00025730  0.00029860  0.00031301
  0.00032696  0.00037974  0.00039383  0.00041207  0.00041731  0.00048172  0.00059313  0.00059318
  0.00059679  0.00059721  0.00060836  0.00061693  0.00062699  0.00064026  0.00065347  0.00065851
  0.00074939  0.00076745  0.00081095  0.00101732  0.00105100  0.00105394  0.00111264  0.00111534
  0.00111772  0.00112297  0.00115493  0.00115556  0.00117167  0.00117167  0.00176438  0.00176666
  0.00179918  0.00197453  0.00254752  0.00267246  0.00298205  0.00316885  0.00347957  0.00357978
  0.00401485  0.00402359
 d1=
   0.0 -10.7  -0.0  -0.0  -0.0  -5.0   0.0  -0.0   0.0   1.6  -0.0  -0.0   4.7   0.0   0.0   7.4   0.0   0.0   0.0  -2.9
   0.0  -0.0  -0.0   0.0  -0.0  -0.0  -0.0  -0.0   1.6  -0.0  -0.1   0.0  -0.0  -0.0   0.0   0.0   0.0  -0.8   0.0   0.0
   0.0   0.0  -0.0   0.0  -0.0   1.7   0.0  -0.0   0.0  -0.0   0.1   0.0  -0.0   0.0   0.0   0.0   0.0   0.0   0.0  -0.0
   0.0  -0.0  -0.0   0.0  -0.0  -0.0
 d2=
  -0.0 -10.8  -0.0   0.0   0.0   5.1   0.0   0.0   0.0  -1.7   0.0   0.0  -4.8  -0.0  -0.0  -7.2   0.0   0.0   0.0  -3.1
  -0.0  -0.0   0.0  -0.0  -0.0   0.0   0.0  -0.0  -1.6   0.0  -0.1   0.0  -0.0   0.0   0.0   0.0  -0.0  -0.8   0.0   0.0
  -0.0  -0.0   0.0  -0.0  -0.0   1.7   0.0  -0.0  -0.0   0.0  -0.1   0.0   0.0  -0.0   0.0   0.0  -0.0   0.0  -0.0   0.0
  -0.0   0.0   0.0  -0.0   0.0   0.0
 curvilinear- renormalizn of Dush matrix done
  mol 1 sym            1  -> mol 2 sym            1
  mol 1 sym            2  -> mol 2 sym            2
  mol 1 sym            3  -> mol 2 sym            3
  mol 1 sym            4  -> mol 2 sym            4
  mol 1 sym            5  -> mol 2 sym            5
  mol 1 sym            6  -> mol 2 sym            6
  mol 1 sym            7  -> mol 2 sym            7
  mol 1 sym            8  -> mol 2 sym            8

 Dushinsky matrix, ncs 2 in terms of ncs 1

   mode   freq    coeff     %      %tot     of    at

   1 B3g    -0.  0.0000     0.0     0.0  13 B3g   396.
   2 B1u    -0. -0.0000     0.0     0.0  10 B1u   236.
   3 B1g    -0. -0.0000     0.0     0.0   9 B1g   236.
   4 B3u     0.  0.0000     0.0     0.0   7 B3u    91.
   5 B2u     0. -0.0000     0.0     0.0  20 B2u   618.
   6 B2g     0. -0.0000     0.0     0.0  11 B2g   269.
   7 B3u    87.  0.9985    99.7   100.2   7 B3u    91.
   8 Au    109.  0.9998   100.0   100.8   8 Au    121.
   9 B1u   233.  0.9999   100.0    99.8  10 B1u   236.
  10 B1g   234.  0.9983    99.7    96.3   9 B1g   236.
  11 B2g   248. -0.9878    97.6   101.5  11 B2g   269.
  12 B3u   327.  0.9919    98.4    99.2  12 B3u   387.
  13 B3g   387. -0.9990    99.8    98.5  13 B3g   396.
  14 Ag    393.  0.9997    99.9   100.0  14 Ag    398.
  15 B3u   417. -0.9951    99.0   100.2  15 B3u   478.
  16 B1g   436.  0.9808    96.2   101.0  16 B1g   484.
  17 Au    512. -0.9789    95.8    97.8  17 Au    507.
  18 B3g   526. -0.9992    99.8   101.3  18 B3g   536.
  19 B2g   534.  0.9607    92.3    98.1  19 B2g   591.
  20 B2u   600. -0.9989    99.8    98.7  20 B2u   618.
  21 Ag    607.  0.9976    99.5    98.7  21 Ag    642.
  22 B1u   665. -0.9990    99.8   101.6  22 B1u   661.
  23 Au    705.  0.9834    96.7   100.5  24 Au    759.
  24 B2g   712. -0.9695    94.0   100.4  27 B2g   782.
  25 B3u   718.  0.9788    95.8   100.3  23 B3u   740.
[...]
                 0.5335    28.5          59 Ag   1594.
  59 B3g  1563. -0.4387    19.2   100.1  60 B3g  1624.
                 0.8835    78.1          61 B3g  1668.
  60 B2u  1572. -0.5094    26.0    98.8  55 B2u  1482.
                 0.8242    67.9          58 B2u  1579.
  61 Ag   1591.  0.5191    26.9    99.2  57 Ag   1517.
                -0.8409    70.7          59 Ag   1594.
  62 B1u  1603. -0.3400    11.6   100.2  56 B1u  1487.
                -0.9312    86.7          62 B1u  1670.
  63 B1u  3152.  0.9615    92.4   100.0  63 B1u  3153.
  64 Ag   3153.  0.9885    97.7   100.0  64 Ag   3155.
  65 B3g  3162.  0.9979    99.6   100.0  65 B3g  3157.
  66 B1u  3162.  0.9579    91.8   100.0  66 B1u  3158.
  67 B2u  3165.  0.9966    99.3   100.0  67 B2u  3161.
  68 Ag   3166.  0.9847    97.0   100.0  68 Ag   3163.
  69 B3g  3178.  0.9978    99.6   100.0  69 B3g  3175.
  70 B1u  3178.  0.9964    99.3   100.0  70 B1u  3175.
  71 B2u  3193.  0.9965    99.3   100.0  71 B2u  3187.
  72 Ag   3193.  0.9959    99.2   100.0  72 Ag   3187.
 nber times 1st assigned=           1           0
 nber times 1st assigned=           2           0
 nber times 1st assigned=           3           0
 nber times 1st assigned=           4           0
 nber times 1st assigned=           5           0
 nber times 1st assigned=           6           0
 nber times 1st assigned=           8           0
 nber times 1st assigned=          12           0
 nber times 1st assigned=          14           0
 nber times 1st assigned=          15           0
 nber times 1st assigned=          16           0
 nber times 1st assigned=          17           0
 nber times 1st assigned=          18           0
 nber times 1st assigned=          19           0
 nber times 1st assigned=          21           0
 nber times 1st assigned=          22           0
 nber times 1st assigned=          23           0
 nber times 1st assigned=          24           0
 nber times 1st assigned=          25           0
 nber times 1st assigned=          26           0
 nber times 1st assigned=          27           0
 nber times 1st assigned=          28           0
 nber times 1st assigned=          29           0
 nber times 1st assigned=          30           0
 nber times 1st assigned=          31           0
 nber times 1st assigned=          32           0
 nber times 1st assigned=          33           0
 nber times 1st assigned=          34           0
 nber times 1st assigned=          35           0
 nber times 1st assigned=          36           0
 nber times 1st assigned=          37           0
 nber times 1st assigned=          38           0
 nber times 1st assigned=          39           0
 nber times 1st assigned=          40           0
 nber times 1st assigned=          41           0
 nber times 1st assigned=          42           0
 nber times 1st assigned=          43           0
 nber times 1st assigned=          44           0
 nber times 1st assigned=          45           0
 nber times 1st assigned=          46           0
 nber times 1st assigned=          47           0
 nber times 1st assigned=          48           0
 nber times 1st assigned=          49           0
 nber times 1st assigned=          50           0
 nber times 1st assigned=          51           0
 nber times 1st assigned=          52           0
 nber times 1st assigned=          53           0
 nber times 1st assigned=          54           0
 nber times 1st assigned=          55           0
 nber times 1st assigned=          56           0
 nber times 1st assigned=          57           0
 nber times 1st assigned=          58           0
 nber times 1st assigned=          59           0
 nber times 1st assigned=          60           0
 nber times 1st assigned=          61           0
 nber times 1st assigned=          62           0
 nber times 1st assigned=          63           0
 nber times 1st assigned=          64           0
 nber times 1st assigned=          65           0
 nber times 1st assigned=          66           0
 nber times 1st assigned=          67           0
 nber times 1st assigned=          68           0
 nber times 1st assigned=          69           0
 nber times 1st assigned=          70           0
 nber times 1st assigned=          71           0
 nber times 1st assigned=          72           0
 Dushinsky matrix written to .out file
 modes represented=   65.8966246616326     

 Dushinsky matrix, ncs 1 in terms of ncs 2

   mode   freq    coeff     %      %tot     of    at

   7 B3u    91.  0.9985    99.7   100.2   7 B3u    87.
   8 Au    121.  0.9998   100.0   101.2   8 Au    109.
   9 B1g   236.  0.9983    99.7    96.4  10 B1g   234.
  10 B1u   236.  0.9999   100.0   100.0   9 B1u   233.
  11 B2g   269. -0.9878    97.6   101.7  11 B2g   248.
  12 B3u   387.  0.9919    98.4    99.3  12 B3u   327.
  13 B3g   396. -0.9990    99.8    98.5  13 B3g   387.
  14 Ag    398.  0.9997    99.9   100.2  14 Ag    393.
  15 B3u   478. -0.9951    99.0   100.2  15 B3u   417.
  16 B1g   484.  0.9808    96.2   100.6  16 B1g   436.
  17 Au    507. -0.9789    95.8    97.7  17 Au    512.
  18 B3g   536. -0.9992    99.8   101.6  18 B3g   526.
  19 B2g   591.  0.9607    92.3    97.9  19 B2g   534.
  20 B2u   618. -0.9989    99.8    98.8  20 B2u   600.
  21 Ag    642.  0.9976    99.5    98.8  21 Ag    607.
  22 B1u   661. -0.9990    99.8   101.6  22 B1u   665.
  23 B3u   740.  0.9788    95.8   100.5  25 B3u   718.
  24 Au    759.  0.9834    96.7   100.3  23 Au    705.
  25 Ag    763. -0.9978    99.6    98.3  27 Ag    751.
  26 B1g   770.  0.9740    94.9   100.9  26 B1g   722.
  27 B2g   782. -0.9695    94.0    99.9  24 B2g   712.
  28 B2u   821.  0.9922    98.4    99.4  29 B2u   822.
  29 B2g   844.  0.8901    79.2   100.5  28 B2g   774.
  30 Au    866. -0.9593    92.0   101.3  30 Au    834.
  31 B3u   895.  0.9792    95.9    99.2  31 B3u   842.
  32 B2g   911. -0.3410    11.6    99.7  28 B2g   774.
                -0.9146    83.6          32 B2g   874.
  33 B1u   919.  0.9987    99.7    98.3  35 B1u   909.
  34 B3g   929.  0.9964    99.3   100.3  36 B3g   917.
  35 B1g   967.  0.9867    97.4    98.9  33 B1g   890.
  36 B3u   972.  0.9800    96.0    98.9  34 B3u   896.
  37 Au    995.  0.9599    92.1   100.0  37 Au    943.
  38 B2g   996.  0.9626    92.7   100.0  38 B2g   944.
  39 B2u  1026.  0.9314    86.7   100.2  39 B2u  1045.
  40 Ag   1031. -0.9557    91.3   100.2  40 Ag   1048.
  41 B3g  1127.  0.9544    91.1    99.6  41 B3g  1087.
  42 B2u  1159. -0.5365    28.8   100.1  43 B2u  1174.
                -0.7794    60.8          46 B2u  1213.
  43 B1u  1173. -0.9809    96.2    99.6  42 B1u  1124.
  44 B2u  1189.  0.7870    61.9   100.1  43 B2u  1174.
                -0.5415    29.3          46 B2u  1213.
  45 Ag   1190.  0.9726    94.6   100.0  44 Ag   1185.
  46 B3g  1211. -0.9579    91.8   100.1  45 B3g  1211.
  47 Ag   1290. -0.8790    77.3   100.1  47 Ag   1268.
                -0.4611    21.3          53 Ag   1415.
  48 B1u  1291.  0.4300    18.5    99.9  48 B1u  1287.
                -0.8976    80.6          50 B1u  1303.
  49 B3g  1295.  0.9821    96.4   100.1  49 B3g  1289.
  50 B1u  1339. -0.8738    76.4    99.4  48 B1u  1287.
                -0.4330    18.7          50 B1u  1303.
  51 B2u  1376.  0.9261    85.8   100.2  54 B2u  1440.
  52 B3g  1414.  0.9886    97.7    99.5  52 B3g  1415.
  53 B2u  1415.  0.7849    61.6    99.8  51 B2u  1363.
                 0.5163    26.7          56 B2u  1474.
  54 Ag   1428. -0.4381    19.2    99.5  47 Ag   1268.
                 0.8695    75.6          53 Ag   1415.
  55 B2u  1482.  0.3282    10.8    99.1  51 B2u  1363.
                -0.7587    57.6          56 B2u  1474.
                -0.5094    26.0          60 B2u  1572.
  56 B1u  1487. -0.9137    83.5   100.4  55 B1u  1461.
                -0.3400    11.6          62 B1u  1603.
  57 Ag   1517.  0.8431    71.1    98.9  58 Ag   1528.
                 0.5191    26.9          61 Ag   1591.
  58 B2u  1579.  0.4016    16.1    99.4  51 B2u  1363.
                -0.3268    10.7          56 B2u  1474.
                 0.8242    67.9          60 B2u  1572.
  59 Ag   1594.  0.5335    28.5   100.1  58 Ag   1528.
                -0.8409    70.7          61 Ag   1591.
  60 B3g  1624. -0.8874    78.8   100.8  57 B3g  1523.
                -0.4387    19.2          59 B3g  1563.
  61 B3g  1668. -0.4248    18.0   100.5  57 B3g  1523.
                 0.8835    78.1          59 B3g  1563.
  62 B1u  1670.  0.3348    11.2   100.9  55 B1u  1461.
                -0.9312    86.7          62 B1u  1603.
  63 B1u  3153.  0.9615    92.4   100.0  63 B1u  3152.
  64 Ag   3155.  0.9885    97.7   100.0  64 Ag   3153.
  65 B3g  3157.  0.9979    99.6   100.0  65 B3g  3162.
  66 B1u  3158.  0.9579    91.8   100.0  66 B1u  3162.
  67 B2u  3161.  0.9966    99.3   100.0  67 B2u  3165.
  68 Ag   3163.  0.9847    97.0   100.0  68 Ag   3166.
  69 B3g  3175.  0.9978    99.6   100.0  69 B3g  3178.
  70 B1u  3175.  0.9964    99.3   100.0  70 B1u  3178.
  71 B2u  3187.  0.9965    99.3   100.0  71 B2u  3193.
  72 Ag   3187.  0.9959    99.2   100.0  72 Ag   3193.
 nber times 1st assigned=           1           0
 nber times 1st assigned=           2           0
 nber times 1st assigned=           3           0
 nber times 1st assigned=           4           0
 nber times 1st assigned=           5           0
 nber times 1st assigned=           6           0
 nber times 1st assigned=           7           0
 nber times 1st assigned=           8           0
 nber times 1st assigned=           9           0
 nber times 1st assigned=          10           0
 nber times 1st assigned=          11           0
 nber times 1st assigned=          12           0
 nber times 1st assigned=          13           0
 nber times 1st assigned=          14           0
 nber times 1st assigned=          15           0
 nber times 1st assigned=          16           0
 nber times 1st assigned=          17           0
 nber times 1st assigned=          18           0
 nber times 1st assigned=          19           0
 nber times 1st assigned=          20           0
 nber times 1st assigned=          21           0
 nber times 1st assigned=          22           0
 nber times 1st assigned=          23           0
 nber times 1st assigned=          24           0
 nber times 1st assigned=          25           0
 nber times 1st assigned=          26           0
 nber times 1st assigned=          27           0
 nber times 1st assigned=          28           0
 nber times 1st assigned=          29           0
 nber times 1st assigned=          30           0
 nber times 1st assigned=          31           0
 nber times 1st assigned=          32           0
 nber times 1st assigned=          33           0
 nber times 1st assigned=          34           0
 nber times 1st assigned=          35           0
 nber times 1st assigned=          36           0
 nber times 1st assigned=          37           0
 nber times 1st assigned=          38           0
 nber times 1st assigned=          39           0
 nber times 1st assigned=          40           0
 nber times 1st assigned=          41           0
 nber times 1st assigned=          42           0
 nber times 1st assigned=          43           0
 nber times 1st assigned=          44           0
 nber times 1st assigned=          45           0
 nber times 1st assigned=          46           0
 nber times 1st assigned=          47           0
 nber times 1st assigned=          48           0
 nber times 1st assigned=          49           0
 nber times 1st assigned=          50           0
 nber times 1st assigned=          51           0
 nber times 1st assigned=          52           0
 nber times 1st assigned=          53           0
 nber times 1st assigned=          54           0
 nber times 1st assigned=          55           0
 nber times 1st assigned=          56           0
 nber times 1st assigned=          57           0
 nber times 1st assigned=          58           0
 nber times 1st assigned=          59           0
 nber times 1st assigned=          60           0
 nber times 1st assigned=          61           0
 nber times 1st assigned=          62           0
 nber times 1st assigned=          63           0
 nber times 1st assigned=          64           0
 nber times 1st assigned=          65           0
 nber times 1st assigned=          66           0
 nber times 1st assigned=          67           0
 nber times 1st assigned=          68           0
 nber times 1st assigned=          69           0
 nber times 1st assigned=          70           0
 nber times 1st assigned=          71           0
 nber times 1st assigned=          72           0
 modes represented=   65.8966246616326     
 p1=
   -0.   -0.    0.    0.    0.    0.   -0.    0.   -0.    0.   -0.   -0.   -0.   11.   -0.    0.    0.   -0.   -0.   -0.
    2.    0.   -0.    0.   -2.    0.    0.    0.    0.    0.    0.    0.    0.   -0.   -0.   -0.    0.    0.    0.    0.
    0.   -0.    0.   -0.   -3.   -0.    3.   -0.   -0.    0.   -0.    0.   -0.   -6.    0.   -0.    1.    0.    6.   -0.
   -0.   -0.   -0.   -0.    0.    0.    0.   -0.    0.   -0.   -0.   -0.
 p2=
   -0.   -0.   -0.    0.    0.   -0.    0.   -0.    0.    0.   -0.    0.   -0.  -12.   -0.   -0.    0.    0.    0.   -0.
   -2.    0.   -0.    0.    0.   -0.   -2.    0.   -0.    0.    0.    0.    0.    0.   -0.   -0.   -0.   -0.   -0.   -2.
   -0.    0.    0.    3.    0.   -0.    0.    0.   -0.    0.    0.   -0.    7.   -0.    0.    0.   -0.   -4.    0.   -0.
    4.   -0.   -0.    0.   -0.   -0.   -0.    0.    0.    0.    0.    0.

 Displacement: in terms of nc of 1 THEN of nc of 2

   1 B3g freq=    -0. Q= -0.000 lam=    -0.0 B3g freq=    -0. Q= -0.000 lam=    -0.0
   2 B2u freq=    -0. Q= -0.000 lam=    -0.0 B1u freq=    -0. Q= -0.000 lam=    -0.0
   3 B3u freq=     0. Q=  0.000 lam=     0.0 B1g freq=    -0. Q=  0.000 lam=    -0.0
   4 B1g freq=     0. Q=  0.000 lam=     0.0 B3u freq=     0. Q=  0.000 lam=     0.0
   5 B2g freq=     0. Q=  0.000 lam=     0.0 B2u freq=     0. Q=  0.000 lam=     0.0
   6 B1u freq=     0. Q=  0.000 lam=     0.0 B2g freq=     0. Q=  0.000 lam=     0.0
   7 B3u freq=    91. Q= -0.000 lam=     0.0 B3u freq=    87. Q= -0.000 lam=     0.0
   8 Au  freq=   121. Q=  0.000 lam=     0.0 Au  freq=   109. Q=  0.000 lam=     0.0
   9 B1g freq=   236. Q= -0.000 lam=     0.0 B1u freq=   233. Q= -0.000 lam=     0.0
  10 B1u freq=   236. Q=  0.000 lam=     0.0 B1g freq=   234. Q=  0.000 lam=     0.0
  11 B2g freq=   269. Q= -0.000 lam=     0.0 B2g freq=   248. Q= -0.000 lam=     0.0
  12 B3u freq=   387. Q= -0.000 lam=     0.0 B3u freq=   327. Q= -0.000 lam=     0.0
  13 B3g freq=   396. Q= -0.000 lam=     0.0 B3g freq=   387. Q= -0.000 lam=     0.0
  14 Ag  freq=   398. Q=  0.911 lam=   165.3 Ag  freq=   393. Q=  0.927 lam=   168.9
  15 B3u freq=   478. Q= -0.000 lam=     0.0 B3u freq=   417. Q= -0.000 lam=     0.0
  16 B1g freq=   484. Q=  0.000 lam=     0.0 B1g freq=   436. Q=  0.000 lam=     0.0
  17 Au  freq=   507. Q=  0.000 lam=     0.0 Au  freq=   512. Q=  0.000 lam=     0.0
  18 B3g freq=   536. Q= -0.000 lam=     0.0 B3g freq=   526. Q= -0.000 lam=     0.0
  19 B2g freq=   591. Q= -0.000 lam=     0.0 B2g freq=   534. Q= -0.000 lam=     0.0
  20 B2u freq=   618. Q= -0.000 lam=     0.0 B2u freq=   600. Q= -0.000 lam=     0.0
  21 Ag  freq=   642. Q=  0.170 lam=     9.3 Ag  freq=   607. Q=  0.152 lam=     7.0
  22 B1u freq=   661. Q=  0.000 lam=     0.0 B1u freq=   665. Q=  0.000 lam=     0.0
  23 B3u freq=   740. Q= -0.000 lam=     0.0 Au  freq=   705. Q= -0.000 lam=     0.0
  24 Au  freq=   759. Q=  0.000 lam=     0.0 B2g freq=   712. Q=  0.000 lam=     0.0
  25 Ag  freq=   763. Q= -0.259 lam=    25.6 B3u freq=   718. Q= -0.000 lam=     0.0
  26 B1g freq=   770. Q=  0.000 lam=     0.0 B1g freq=   722. Q=  0.000 lam=     0.0
  27 B2g freq=   782. Q=  0.000 lam=     0.0 Ag  freq=   751. Q=  0.243 lam=    22.1
  28 B2u freq=   821. Q=  0.000 lam=     0.0 B2g freq=   774. Q=  0.000 lam=     0.0
  29 B2g freq=   844. Q=  0.000 lam=     0.0 B2u freq=   822. Q=  0.000 lam=     0.0
  30 Au  freq=   866. Q=  0.000 lam=     0.0 Au  freq=   834. Q=  0.000 lam=     0.0
  31 B3u freq=   895. Q=  0.000 lam=     0.0 B3u freq=   842. Q=  0.000 lam=     0.0
  32 B2g freq=   911. Q=  0.000 lam=     0.0 B2g freq=   874. Q=  0.000 lam=     0.0
  33 B1u freq=   919. Q=  0.000 lam=     0.0 B1g freq=   890. Q=  0.000 lam=     0.0
  34 B3g freq=   929. Q= -0.000 lam=     0.0 B3u freq=   896. Q= -0.000 lam=     0.0
  35 B1g freq=   967. Q= -0.000 lam=     0.0 B1u freq=   909. Q= -0.000 lam=     0.0
  36 B3u freq=   972. Q= -0.000 lam=     0.0 B3g freq=   917. Q= -0.000 lam=     0.0
  37 Au  freq=   995. Q=  0.000 lam=     0.0 Au  freq=   943. Q=  0.000 lam=     0.0
  38 B2g freq=   996. Q=  0.000 lam=     0.0 B2g freq=   944. Q=  0.000 lam=     0.0
  39 B2u freq=  1026. Q=  0.000 lam=     0.0 B2u freq=  1045. Q=  0.000 lam=     0.0
  40 Ag  freq=  1031. Q=  0.044 lam=     1.0 Ag  freq=  1048. Q=  0.246 lam=    31.7
  41 B3g freq=  1127. Q=  0.000 lam=     0.0 B3g freq=  1087. Q=  0.000 lam=     0.0
  42 B2u freq=  1159. Q= -0.000 lam=     0.0 B1u freq=  1124. Q= -0.000 lam=     0.0
  43 B1u freq=  1173. Q=  0.000 lam=     0.0 B2u freq=  1174. Q=  0.000 lam=     0.0
  44 B2u freq=  1189. Q= -0.000 lam=     0.0 Ag  freq=  1185. Q= -0.442 lam=   115.6
  45 Ag  freq=  1190. Q= -0.456 lam=   123.8 B3g freq=  1211. Q= -0.000 lam=     0.0
  46 B3g freq=  1211. Q= -0.000 lam=     0.0 B2u freq=  1213. Q= -0.000 lam=     0.0
  47 Ag  freq=  1290. Q=  0.497 lam=   159.5 Ag  freq=  1268. Q=  0.057 lam=     2.1
  48 B1u freq=  1291. Q= -0.000 lam=     0.0 B1u freq=  1287. Q= -0.000 lam=     0.0
  49 B3g freq=  1295. Q= -0.000 lam=     0.0 B3g freq=  1289. Q= -0.000 lam=     0.0
  50 B1u freq=  1339. Q=  0.000 lam=     0.0 B1u freq=  1303. Q=  0.000 lam=     0.0
  51 B2u freq=  1376. Q= -0.000 lam=     0.0 B2u freq=  1363. Q= -0.000 lam=     0.0
  52 B3g freq=  1414. Q=  0.000 lam=     0.0 B3g freq=  1415. Q=  0.000 lam=     0.0
  53 B2u freq=  1415. Q= -0.000 lam=     0.0 Ag  freq=  1415. Q= -1.079 lam=   823.5
  54 Ag  freq=  1428. Q= -0.965 lam=   665.2 B2u freq=  1440. Q= -0.000 lam=     0.0
  55 B2u freq=  1482. Q=  0.000 lam=     0.0 B1u freq=  1461. Q=  0.000 lam=     0.0
  56 B1u freq=  1487. Q= -0.000 lam=     0.0 B2u freq=  1474. Q= -0.000 lam=     0.0
  57 Ag  freq=  1517. Q=  0.097 lam=     7.2 B3g freq=  1523. Q=  0.000 lam=     0.0
  58 B2u freq=  1579. Q=  0.000 lam=     0.0 Ag  freq=  1528. Q=  0.567 lam=   246.0
  59 Ag  freq=  1594. Q=  0.913 lam=   663.8 B3g freq=  1563. Q=  0.000 lam=     0.0
  60 B3g freq=  1624. Q= -0.000 lam=     0.0 B2u freq=  1572. Q= -0.000 lam=     0.0
  61 B3g freq=  1668. Q= -0.000 lam=     0.0 Ag  freq=  1591. Q= -0.641 lam=   327.1
  62 B1u freq=  1670. Q= -0.000 lam=     0.0 B1u freq=  1603. Q= -0.000 lam=     0.0
  63 B1u freq=  3153. Q= -0.000 lam=     0.0 B1u freq=  3152. Q= -0.000 lam=     0.0
  64 Ag  freq=  3155. Q= -0.001 lam=     0.0 Ag  freq=  3153. Q= -0.007 lam=     0.1
  65 B3g freq=  3157. Q=  0.000 lam=     0.0 B3g freq=  3162. Q=  0.000 lam=     0.0
  66 B1u freq=  3158. Q=  0.000 lam=     0.0 B1u freq=  3162. Q=  0.000 lam=     0.0
  67 B2u freq=  3161. Q=  0.000 lam=     0.0 B2u freq=  3165. Q=  0.000 lam=     0.0
  68 Ag  freq=  3163. Q= -0.007 lam=     0.1 Ag  freq=  3166. Q= -0.007 lam=     0.1
  69 B3g freq=  3175. Q=  0.000 lam=     0.0 B3g freq=  3178. Q=  0.000 lam=     0.0
  70 B1u freq=  3175. Q= -0.000 lam=     0.0 B1u freq=  3178. Q= -0.000 lam=     0.0
  71 B2u freq=  3187. Q= -0.000 lam=     0.0 B2u freq=  3193. Q= -0.000 lam=     0.0
  72 Ag  freq=  3187. Q= -0.033 lam=     1.7 Ag  freq=  3193. Q= -0.017 lam=     0.4

 total reorg energy (cm**-1, kcal/mol)=     1822.     1745.      5.21      4.99
 Nber of molecules processed=           2
