 Enter ifcurve (0=recti, 1=orth curvi, 2=apprx curvi, -1 = skip
 And atom ordering flag, 0= never changes, 1= use the first order thenceforth,
  2= deduce it (does read on fail), 3= always read it
 Reading file: 
 ./CDT-BT_0_C0S1.log                                                            
                                          
  Entering Gaussian System, Link 0=g16                                          
  
 Gaussian format, type: g94, g98, g03= F F F
  #P Geom=AllCheck Guess=TCheck SCRF=Check GenChk RB3LYP TD(FC,Read)/6-3    
 energy type= TD      
 Original G94 input coords:
  6 -2.159956 -1.563460 -0.494514
  6 -2.330691 -1.645088  0.903122
  6 -1.376930 -1.120306  1.770855
  6 -0.250906 -0.513117  1.226079
 16  1.101109  0.227763  2.048537
  6  1.812828  0.601683  0.429936
  6  3.038597  1.267032  0.301738
  6  3.682997  1.607511 -0.920904
  6  4.877602  2.258625 -0.719325
  6  5.978387  2.850571 -1.582378
  6  6.934687  3.380035 -0.532158
  6  8.165118  4.050363 -0.502333
  6  8.598784  4.296881  0.786300
 16  7.491244  3.703760  2.005713
  6  6.427849  3.114566  0.758612
  6  5.199433  2.444820  0.660809
 16  3.990414  1.796176  1.729175
  7  1.075526  0.193143 -0.601909
  6 -0.056723 -0.418772 -0.192819
  6 -1.046154 -0.962937 -1.045885
  1 -2.920182 -1.981525 -1.144657
  1 -3.215438 -2.122256  1.308066
  1 -1.512356 -1.185263  2.843791
  1  3.229613  1.353453 -1.868106
  1  6.444111  2.096148 -2.227830
  1  5.602313  3.642456 -2.241224
  1  8.731743  4.351906 -1.373942
  1  9.504637  4.792676  1.099898
  1 -0.904045 -0.894255 -2.117278
 nber atoms=          29
  Total Energy, E(TD-HF/TD-DFT) =  -1864.54761562                               
  
          32          49 "  -1864.54761562"
After scan for Atom:   Atom  AN      X      Y      Z        X      Y      Z        X      Y      Z   
After scan for Atom:   Atom  AN      X      Y      Z        X      Y      Z        X      Y      Z   
After scan for Atom:   Atom  AN      X      Y      Z        X      Y      Z        X      Y      Z   
After scan for Atom:   Atom  AN      X      Y      Z        X      Y      Z        X      Y      Z   
After scan for Atom:   Atom  AN      X      Y      Z        X      Y      Z        X      Y      Z   
After scan for Atom:   Atom  AN      X      Y      Z        X      Y      Z        X      Y      Z   
After scan for Atom:   Atom  AN      X      Y      Z        X      Y      Z        X      Y      Z   
After scan for Atom:   Atom  AN      X      Y      Z        X      Y      Z        X      Y      Z   
After scan for Atom:   Atom  AN      X      Y      Z        X      Y      Z        X      Y      Z   
After scan for Atom:   Atom  AN      X      Y      Z        X      Y      Z        X      Y      Z   
After scan for Atom:   Atom  AN      X      Y      Z        X      Y      Z        X      Y      Z   
After scan for Atom:   Atom  AN      X      Y      Z        X      Y      Z        X      Y      Z   
After scan for Atom:   Atom  AN      X      Y      Z        X      Y      Z        X      Y      Z   
After scan for Atom:   Atom  AN      X      Y      Z        X      Y      Z        X      Y      Z   
After scan for Atom:   Atom  AN      X      Y      Z        X      Y      Z        X      Y      Z   
After scan for Atom:   Atom  AN      X      Y      Z        X      Y      Z        X      Y      Z   
After scan for Atom:   Atom  AN      X      Y      Z        X      Y      Z        X      Y      Z   
After scan for Atom:   Atom  AN      X      Y      Z        X      Y      Z        X      Y      Z   
After scan for Atom:   Atom  AN      X      Y      Z        X      Y      Z        X      Y      Z   
After scan for Atom:   Atom  AN      X      Y      Z        X      Y      Z        X      Y      Z   
After scan for Atom:   Atom  AN      X      Y      Z        X      Y      Z        X      Y      Z   
After scan for Atom:   Atom  AN      X      Y      Z        X      Y      Z        X      Y      Z   
After scan for Atom:   Atom  AN      X      Y      Z        X      Y      Z        X      Y      Z   
After scan for Atom:   Atom  AN      X      Y      Z        X      Y      Z        X      Y      Z   
After scan for Atom:   Atom  AN      X      Y      Z        X      Y      Z        X      Y      Z   
After scan for Atom:   Atom  AN      X      Y      Z        X      Y      Z        X      Y      Z   
After scan for Atom:   Atom  AN      X      Y      Z        X      Y      Z        X      Y      Z   
 g94    frequencies=
     0.0    0.0    0.0    0.0    0.0    0.0   25.0   50.4   54.0   71.2
   127.5  149.8  166.6  190.4  216.4  232.5  252.5  289.6  294.0  396.5
   412.1  428.0  435.4  453.3  494.0  500.3  520.9  549.4  551.0  562.5
   579.3  585.4  622.5  625.2  669.6  672.4  697.1  704.9  724.2  764.6
   792.6  813.4  818.9  852.3  871.4  910.7  937.1  937.3  948.6  974.2
   980.4  992.2 1028.3 1064.8 1097.4 1132.2 1146.3 1152.4 1163.1 1181.5
  1207.5 1257.4 1270.9 1277.7 1327.1 1340.1 1359.6 1370.2 1427.0 1443.0
  1458.5 1465.8 1478.8 1492.9 1514.0 1534.0 1563.8 1612.3 3005.9 3025.7
  3167.4 3178.2 3190.4 3197.7 3198.4 3227.5 3243.1
 g94    symmetries=
                                                 A      A      A      A
       A      A      A      A      A      A      A      A      A      A
       A      A      A      A      A      A      A      A      A      A
       A      A      A      A      A      A      A      A      A      A
       A      A      A      A      A      A      A      A      A      A
       A      A      A      A      A      A      A      A      A      A
       A      A      A      A      A      A      A      A      A      A
       A      A      A      A      A      A      A      A      A      A
       A      A      A      A      A      A      A
 atomic masses:
 12.0000 12.0000 12.0000 12.0000 31.9721 12.0000 12.0000 12.0000 12.0000 12.0000
 12.0000 12.0000 12.0000 31.9721 12.0000 12.0000 31.9721 14.0031 12.0000 12.0000
  1.0078  1.0078  1.0078  1.0078  1.0078  1.0078  1.0078  1.0078  1.0078
 looking for force constants in 
 ./CDT-BT_0_C0S1.fchk                                                           
  
 Cartesian Force Constants                  R   N=        3828                  
  
 n3=          87        3828
 g94-fc frequencies=
    -3.9   -1.1   -0.0   -0.0    0.0    1.0   25.0   50.4   54.0   71.2
   127.5  149.8  166.6  190.4  216.4  232.5  252.5  289.6  294.0  396.5
   412.1  428.0  435.4  453.3  494.1  500.3  520.9  549.4  551.0  562.6
   579.3  585.4  622.5  625.2  669.7  672.4  697.1  705.0  724.2  764.6
   792.6  813.4  818.9  852.3  871.4  910.7  937.2  937.3  948.7  974.3
   980.4  992.2 1028.3 1064.8 1097.5 1132.3 1146.3 1152.5 1163.1 1181.5
  1207.5 1257.4 1270.9 1277.8 1327.1 1340.2 1359.6 1370.2 1427.0 1443.1
  1458.5 1465.8 1478.9 1492.9 1514.0 1534.0 1563.8 1612.3 3005.9 3025.8
  3167.4 3178.3 3190.5 3197.8 3198.5 3227.6 3243.2
 at 99999: n3=          87
 symm operator            1 :  F  nop=           0
 symm operator            2 :  F  nop=           0
 symm operator            3 :  F  nop=           0
 symm operator            4 :  F  nop=           0
 symm operator            5 :  F  nop=           0
 symm operator            6 :  F  nop=           0
 symm operator            7 :  F  nop=           0
 The point group of the molecule is  C1
 Symmetry rotation matrix:
   1.00000   0.00000   0.00000
   0.00000   1.00000   0.00000
   0.00000   0.00000   1.00000

 Projecting out zero-frequency components
 generating redundant internal coords
         300        3600          29
 search for int coords
   1 str   2   1   1.410
   2 str   3   2   1.392
   3 str   4   3   1.390
   4 str   5   4   1.747
   5 str   6   5   1.807
   6 str   7   6   1.401
   7 str   8   7   1.423
   8 str   9   8   1.375
   9 str  10   9   1.519
  10 str  11  10   1.516
  11 str  12  11   1.401
  12 str  13  12   1.382
  13 str  14  13   1.751
  14 str  15  11   1.412
  15 str  15  14   1.742
  16 str  16   9   1.429
  17 str  16  15   1.403
  18 str  17   7   1.795
  19 str  17  16   1.739
  20 str  18   6   1.332
  21 str  19   4   1.435
  22 str  19  18   1.350
  23 str  20   1   1.380
  24 str  20  19   1.415
  25 str  21   1   1.084
  26 str  22   2   1.084
  27 str  23   3   1.083
  28 str  24   8   1.080
  29 str  25  10   1.097
  30 str  26  10   1.097
  31 str  27  12   1.082
  32 str  28  13   1.079
  33 str  29  20   1.083
 nber stretches=          33
  34 ben   1   2   3
  35 prop tor   1   2   3   4
  36 prop tor   1   2   3  23
  37 ben   1   2  22
  38 ben   1  20  19
  39 ben   1  20  29
  40 ben   2   1  20
  41 prop tor   2   1  20  19
  42 prop tor   2   1  20  29
  43 ben   2   1  21
  44 ben   2   3   4
  45 prop tor   2   3   4   5
  46 prop tor   2   3   4  19
  47 ben   2   3  23
  48 ben   3   2  22
  49 ben   3   4   5
  50 prop tor   3   4   5   6
  51 ben   3   4  19
  52 prop tor   3   4  19  18
  53 prop tor   3   4  19  20
  54 ben   4   3  23
  55 ben   4   5   6
  56 prop tor   4   5   6   7
  57 prop tor   4   5   6  18
  58 ben   4  19  18
  59 ben   4  19  20
  60 prop tor   4  19  20   1
  61 prop tor   4  19  20  29
  62 ben   5   4  19
  63 prop tor   5   4  19  18
  64 prop tor   5   4  19  20
  65 ben   5   6   7
  66 prop tor   5   6   7   8
  67 prop tor   5   6   7  17
  68 ben   5   6  18
  69 prop tor   5   6  18  19
  70 ben   6   7   8
  71 prop tor   6   7   8   9
  72 prop tor   6   7   8  24
  73 ben   6   7  17
  74 prop tor   6   7  17  16
  75 ben   6  18  19
  76 prop tor   6  18  19   4
  77 prop tor   6  18  19  20
  78 ben   7   6  18
  79 prop tor   7   6  18  19
  80 ben   7   8   9
  81 prop tor   7   8   9  10
  82 prop tor   7   8   9  16
  83 ben   7   8  24
  84 ben   7  17  16
  85 ben   8   7  17
  86 prop tor   8   7  17  16
  87 ben   8   9  10
  88 prop tor   8   9  10  11
  89 prop tor   8   9  10  25
  90 prop tor   8   9  10  26
  91 ben   8   9  16
  92 prop tor   8   9  16  15
  93 prop tor   8   9  16  17
  94 ben   9   8  24
  95 ben   9  10  11
  96 prop tor   9  10  11  12
  97 prop tor   9  10  11  15
  98 ben   9  10  25
  99 ben   9  10  26
 100 ben   9  16  15
 101 ben   9  16  17
 102 prop tor   9  16  17   7
 103 ben  10   9  16
 104 prop tor  10   9  16  15
 105 prop tor  10   9  16  17
 106 ben  10  11  12
 107 prop tor  10  11  12  13
 108 prop tor  10  11  12  27
 109 ben  10  11  15
 110 prop tor  10  11  15  14
 111 prop tor  10  11  15  16
 112 ben  11  10  25
 113 ben  11  10  26
 114 ben  11  12  13
 115 prop tor  11  12  13  14
 116 prop tor  11  12  13  28
 117 ben  11  12  27
 118 ben  11  15  14
 119 ben  11  15  16
 120 prop tor  11  15  16   9
 121 prop tor  11  15  16  17
 122 ben  12  11  15
 123 prop tor  12  11  15  14
 124 prop tor  12  11  15  16
 125 ben  12  13  14
 126 prop tor  12  13  14  15
 127 ben  12  13  28
 128 ben  13  12  27
 129 ben  13  14  15
 130 prop tor  13  14  15  11
 131 prop tor  13  14  15  16
 132 ben  14  13  28
 133 ben  14  15  16
 134 prop tor  14  15  16   9
 135 prop tor  14  15  16  17
 136 prop tor  15  11  12  13
 137 prop tor  15  11  12  27
 138 ben  15  16  17
 139 prop tor  15  16  17   7
 140 prop tor  16   9  10  11
 141 prop tor  16   9  10  25
 142 prop tor  16   9  10  26
 143 prop tor  17   7   8   9
 144 prop tor  17   7   8  24
 145 prop tor  18   6   7   8
 146 prop tor  18   6   7  17
 147 ben  18  19  20
 148 prop tor  18  19  20   1
 149 prop tor  18  19  20  29
 150 prop tor  19   4   5   6
 151 ben  19  20  29
 152 prop tor  20   1   2   3
 153 prop tor  20   1   2  22
 154 ben  20   1  21
 155 prop tor  21   1   2   3
 156 prop tor  21   1   2  22
 157 prop tor  21   1  20  19
 158 prop tor  21   1  20  29
 159 prop tor  22   2   3   4
 160 prop tor  22   2   3  23
 161 prop tor  23   3   4   5
 162 prop tor  23   3   4  19
 163 prop tor  24   8   9  10
 164 prop tor  24   8   9  16
 165 prop tor  25  10  11  12
 166 prop tor  25  10  11  15
 167 ben  25  10  26
 168 prop tor  26  10  11  12
 169 prop tor  26  10  11  15
 170 prop tor  27  12  13  14
 171 prop tor  27  12  13  28
 172 prop tor  28  13  14  15
 nber bend=              55
 nber lin bend=           0
 nber prop tor=          84
 nber impr tor=           0
 nber tot redund int=         172
 Eigenvalues of G in red int coords
    Gval -0.00000000 -0.00000000 -0.00000000 -0.00000000 -0.00000000 -0.00000000 -0.00000000 -0.00000000
    Gval -0.00000000 -0.00000000 -0.00000000 -0.00000000 -0.00000000 -0.00000000 -0.00000000 -0.00000000
    Gval -0.00000000 -0.00000000 -0.00000000 -0.00000000 -0.00000000 -0.00000000 -0.00000000 -0.00000000
    Gval -0.00000000 -0.00000000 -0.00000000 -0.00000000 -0.00000000 -0.00000000 -0.00000000 -0.00000000
    Gval -0.00000000 -0.00000000 -0.00000000 -0.00000000 -0.00000000 -0.00000000 -0.00000000 -0.00000000
    Gval -0.00000000 -0.00000000 -0.00000000 -0.00000000  0.00000000  0.00000000  0.00000000  0.00000000
    Gval  0.00000000  0.00000000  0.00000000  0.00000000  0.00000000  0.00000000  0.00000000  0.00000000
    Gval  0.00000000  0.00000000  0.00000000  0.00000000  0.00000000  0.00000000  0.00000000  0.00000000
    Gval  0.00000000  0.00000000  0.00000000  0.00000000  0.00000000  0.00000000  0.00000000  0.00000000
    Gval  0.00000000  0.00000000  0.00000000  0.00000000  0.00000000  0.00000000  0.00000000  0.00000000
    Gval  0.00000000  0.00000000  0.00000000  0.00000000  0.00000000  0.00000000  0.00000000  0.00000000
    Gval  0.00000000  0.00000000  0.00000000  0.00000098  0.00000282  0.00000376  0.00000688  0.00001235
    Gval  0.00001486  0.00001976  0.00002408  0.00002577  0.00003003  0.00003456  0.00003681  0.00003880
    Gval  0.00004672  0.00004940  0.00005392  0.00006121  0.00006391  0.00007085  0.00007861  0.00008600
    Gval  0.00009234  0.00009634  0.00010406  0.00011814  0.00012309  0.00012894  0.00013470  0.00015339
    Gval  0.00015935  0.00016253  0.00018614  0.00021536  0.00024263  0.00027775  0.00028120  0.00029739
    Gval  0.00029934  0.00031424  0.00034849  0.00036301  0.00038032  0.00038592  0.00039510  0.00042179
    Gval  0.00043929  0.00052892  0.00058346  0.00059314  0.00059672  0.00059745  0.00061687  0.00061831
    Gval  0.00062419  0.00062858  0.00065462  0.00066279  0.00085684  0.00105402  0.00108159  0.00108974
    Gval  0.00112134  0.00114434  0.00116295  0.00117079  0.00118126  0.00129971  0.00132705  0.00139733
    Gval  0.00162056  0.00166250  0.00179841  0.00195105  0.00208172  0.00266637  0.00269192  0.00302138
    Gval  0.00356300  0.00376490  0.00401387  0.00406173
  9.820668799576928E-007  9.820668799576928E-007
  2.815956144022649E-006  9.820668799576928E-007
  3.759813566264337E-006  9.820668799576928E-007
  6.880470943542506E-006  9.820668799576928E-007
  1.234618948168134E-005  9.820668799576928E-007
  1.485794306625808E-005  9.820668799576928E-007
  1.975896326620141E-005  9.820668799576928E-007
  2.407708233380969E-005  9.820668799576928E-007
  2.577027675771775E-005  9.820668799576928E-007
  3.003285852965849E-005  9.820668799576928E-007
  3.455836501722405E-005  9.820668799576928E-007
  3.681136064344254E-005  9.820668799576928E-007
  3.879958644914443E-005  9.820668799576928E-007
  4.671698990840549E-005  9.820668799576928E-007
  4.940329012566307E-005  9.820668799576928E-007
  5.392359740172017E-005  9.820668799576928E-007
  6.120681675580615E-005  9.820668799576928E-007
  6.391141589885570E-005  9.820668799576928E-007
  7.084561820594690E-005  9.820668799576928E-007
  7.861248235668180E-005  9.820668799576928E-007
  8.600032655130858E-005  9.820668799576928E-007
  9.234447316541330E-005  9.820668799576928E-007
  9.633756573157771E-005  9.820668799576928E-007
  1.040594540184374E-004  9.820668799576928E-007
  1.181435876342286E-004  9.820668799576928E-007
  1.230925118642259E-004  9.820668799576928E-007
  1.289356692298655E-004  9.820668799576928E-007
  1.347002575260711E-004  9.820668799576928E-007
  1.533889905458895E-004  9.820668799576928E-007
  1.593502567645447E-004  9.820668799576928E-007
  1.625330972244783E-004  9.820668799576928E-007
  1.861361323588095E-004  9.820668799576928E-007
  2.153558215584619E-004  9.820668799576928E-007
  2.426337967147945E-004  9.820668799576928E-007
  2.777520705777823E-004  9.820668799576928E-007
  2.811985589160663E-004  9.820668799576928E-007
  2.973854675648111E-004  9.820668799576928E-007
  2.993379375481194E-004  9.820668799576928E-007
  3.142353584150032E-004  9.820668799576928E-007
  3.484872655714562E-004  9.820668799576928E-007
  3.630081099711857E-004  9.820668799576928E-007
  3.803214837427549E-004  9.820668799576928E-007
  3.859175009952948E-004  9.820668799576928E-007
  3.950954540115658E-004  9.820668799576928E-007
  4.217899341047627E-004  9.820668799576928E-007
  4.392893775301041E-004  9.820668799576928E-007
  5.289242712026771E-004  9.820668799576928E-007
  5.834568607293095E-004  9.820668799576928E-007
  5.931408962086064E-004  9.820668799576928E-007
  5.967179394896759E-004  9.820668799576928E-007
  5.974499037084932E-004  9.820668799576928E-007
  6.168650220099758E-004  9.820668799576928E-007
  6.183065756218264E-004  9.820668799576928E-007
  6.241902199558528E-004  9.820668799576928E-007
  6.285779662459326E-004  9.820668799576928E-007
  6.546201427958076E-004  9.820668799576928E-007
  6.627873357807195E-004  9.820668799576928E-007
  8.568399097321161E-004  9.820668799576928E-007
  1.054015707225253E-003  9.820668799576928E-007
  1.081588751154790E-003  9.820668799576928E-007
  1.089741553132992E-003  9.820668799576928E-007
  1.121338783608028E-003  9.820668799576928E-007
  1.144344357394339E-003  9.820668799576928E-007
  1.162954588681327E-003  9.820668799576928E-007
  1.170786444997488E-003  9.820668799576928E-007
  1.181263902040040E-003  9.820668799576928E-007
  1.299710266752799E-003  9.820668799576928E-007
  1.327048567212183E-003  9.820668799576928E-007
  1.397333290298597E-003  9.820668799576928E-007
  1.620555521576935E-003  9.820668799576928E-007
  1.662500553605286E-003  9.820668799576928E-007
  1.798414647935202E-003  9.820668799576928E-007
  1.951051957081728E-003  9.820668799576928E-007
  2.081717802213876E-003  9.820668799576928E-007
  2.666366934742688E-003  9.820668799576928E-007
  2.691917166123809E-003  9.820668799576928E-007
  3.021377872387848E-003  9.820668799576928E-007
  3.563002607930252E-003  9.820668799576928E-007
  3.764895585757009E-003  9.820668799576928E-007
  4.013868030134629E-003  9.820668799576928E-007
  4.061734758177108E-003  9.820668799576928E-007
 cut=1d-8, nber non-redundant internal coords=          81
 Check on Eigenvals of non-red overlap matrix:
  0.00000098  0.00000282  0.00000376  0.00000688  0.00001235  0.00001486  0.00001976  0.00002408
  0.00002577  0.00003003  0.00003456  0.00003681  0.00003880  0.00004672  0.00004940  0.00005392
  0.00006121  0.00006391  0.00007085  0.00007861  0.00008600  0.00009234  0.00009634  0.00010406
  0.00011814  0.00012309  0.00012894  0.00013470  0.00015339  0.00015935  0.00016253  0.00018614
  0.00021536  0.00024263  0.00027775  0.00028120  0.00029739  0.00029934  0.00031424  0.00034849
  0.00036301  0.00038032  0.00038592  0.00039510  0.00042179  0.00043929  0.00052892  0.00058346
  0.00059314  0.00059672  0.00059745  0.00061687  0.00061831  0.00062419  0.00062858  0.00065462
  0.00066279  0.00085684  0.00105402  0.00108159  0.00108974  0.00112134  0.00114434  0.00116295
  0.00117079  0.00118126  0.00129971  0.00132705  0.00139733  0.00162056  0.00166250  0.00179841
  0.00195105  0.00208172  0.00266637  0.00269192  0.00302138  0.00356300  0.00376490  0.00401387
  0.00406173
 Checking for correct frequencies
 recalc frequencies=
    -0.0    0.0    0.0    0.0    0.0    0.0   25.0   50.4   54.0   71.2
   127.5  149.8  166.6  190.4  216.4  232.5  252.5  289.6  294.0  396.5
   412.1  428.0  435.4  453.3  494.1  500.3  520.9  549.4  551.0  562.6
   579.3  585.4  622.5  625.2  669.7  672.4  697.1  705.0  724.2  764.6
   792.6  813.4  818.9  852.3  871.4  910.7  937.2  937.3  948.7  974.3
   980.4  992.2 1028.3 1064.8 1097.5 1132.3 1146.3 1152.5 1163.1 1181.5
  1207.5 1257.4 1270.9 1277.8 1327.1 1340.2 1359.6 1370.2 1427.0 1443.1
  1458.5 1465.8 1478.9 1492.9 1514.0 1534.0 1563.8 1612.3 3005.9 3025.8
  3167.4 3178.3 3190.5 3197.8 3198.5 3227.6 3243.2
 recalc symmetries=
                                                                       
                                                                       
                                                                       
                                                                       
                                                                       
                                                                       
                                                                       
                                                                       
                                                  
 recalc freqs check OK
 Zero-point lengths:
 10.0000 10.0000 10.0000 10.0000 10.0000 10.0000 49.5590 34.9135 33.7242 29.3797
 21.9568 20.2570 19.2094 17.9671 16.8510 16.2591 15.6003 14.5681 14.4582 12.4506
 12.2122 11.9825 11.8812 11.6442 11.1534 11.0831 10.8620 10.5765 10.5610 10.4523
 10.3000 10.2463  9.9365  9.9146  9.5800  9.5605  9.3894  9.3372  9.2121  8.9658
  8.8056  8.6924  8.6632  8.4916  8.3983  8.2150  8.0982  8.0976  8.0490  7.9425
  7.9177  7.8703  7.7310  7.5972  7.4834  7.3675  7.3223  7.3027  7.2691  7.2122
  7.1342  6.9912  6.9541  6.9354  6.8052  6.7720  6.7234  6.6974  6.5628  6.5261
  6.4914  6.4752  6.4466  6.4161  6.3713  6.3297  6.2690  6.1740  4.5217  4.5069
  4.4050  4.3974  4.3890  4.3840  4.3835  4.3637  4.3532
 highest evec of mol 1
 -0.0001 -0.0001 -0.0002
 -0.0000 -0.0000  0.0001
 -0.0001 -0.0000  0.0002
  0.0001  0.0000  0.0000
 -0.0000 -0.0000 -0.0000
 -0.0002 -0.0001 -0.0001
  0.0003  0.0001 -0.0000
  0.0005  0.0003  0.0013
 -0.0003 -0.0001 -0.0002
 -0.0002 -0.0001 -0.0003
  0.0058  0.0031 -0.0004
 -0.0255 -0.0134  0.0595
 -0.2388 -0.1308 -0.0952
  0.0011  0.0006 -0.0016
  0.0030  0.0016  0.0008
 -0.0001 -0.0001  0.0001
 -0.0000 -0.0000 -0.0001
  0.0002  0.0001  0.0001
 -0.0001 -0.0001  0.0000
  0.0001  0.0000 -0.0001
  0.0005  0.0003  0.0004
  0.0002  0.0001 -0.0001
  0.0001  0.0000 -0.0005
 -0.0018 -0.0010 -0.0039
 -0.0006  0.0005  0.0006
  0.0001 -0.0008  0.0006
  0.0910  0.0484 -0.1447
  0.7868  0.4307  0.2760
 -0.0001 -0.0000  0.0004
 generating redundant internal coords
         300        3600          29
 Adding extra bonds for z output only
           6           6           6           6          16           6
           6           6           6           6           6           6
           6          16           6           6          16           7
           6           6           1           1           1           1
           1           1           1           1           1
 search for int coords
   1 str   2   1   1.410
   2 str   3   2   1.392
   3 str   4   3   1.390
   4 str   5   4   1.747
   5 str   6   5   1.807
   6 str   7   6   1.401
   7 str   8   7   1.423
   8 str   9   8   1.375
   9 str  10   9   1.519
  10 str  11  10   1.516
  11 str  12  11   1.401
  12 str  13  12   1.382
  13 str  14  13   1.751
  14 str  15  11   1.412
  15 str  15  14   1.742
  16 str  16   9   1.429
  17 str  16  15   1.403
  18 str  17   7   1.795
  19 str  17  16   1.739
  20 str  18   6   1.332
  21 str  19   4   1.435
  22 str  19  18   1.350
  23 str  20   1   1.380
  24 str  20  19   1.415
  25 str  21   1   1.084
  26 str  22   2   1.084
  27 str  23   3   1.083
  28 str  24   8   1.080
  29 str  25  10   1.097
  30 str  26  10   1.097
  31 str  27  12   1.082
  32 str  28  13   1.079
  33 str  29  20   1.083
 nber stretches=          33
  34 ben   1   2   3
  35 prop tor   1   2   3   4
  36 prop tor   1   2   3  23
  37 ben   1   2  22
  38 ben   1  20  19
  39 ben   1  20  29
  40 ben   2   1  20
  41 prop tor   2   1  20  19
  42 prop tor   2   1  20  29
  43 ben   2   1  21
  44 ben   2   3   4
  45 prop tor   2   3   4   5
  46 prop tor   2   3   4  19
  47 ben   2   3  23
  48 ben   3   2  22
  49 ben   3   4   5
  50 prop tor   3   4   5   6
  51 ben   3   4  19
  52 prop tor   3   4  19  18
  53 prop tor   3   4  19  20
  54 ben   4   3  23
  55 ben   4   5   6
  56 prop tor   4   5   6   7
  57 prop tor   4   5   6  18
  58 ben   4  19  18
  59 ben   4  19  20
  60 prop tor   4  19  20   1
  61 prop tor   4  19  20  29
  62 ben   5   4  19
  63 prop tor   5   4  19  18
  64 prop tor   5   4  19  20
  65 ben   5   6   7
  66 prop tor   5   6   7   8
  67 prop tor   5   6   7  17
  68 ben   5   6  18
  69 prop tor   5   6  18  19
  70 ben   6   7   8
  71 prop tor   6   7   8   9
  72 prop tor   6   7   8  24
  73 ben   6   7  17
  74 prop tor   6   7  17  16
  75 ben   6  18  19
  76 prop tor   6  18  19   4
  77 prop tor   6  18  19  20
  78 ben   7   6  18
  79 prop tor   7   6  18  19
  80 ben   7   8   9
  81 prop tor   7   8   9  10
  82 prop tor   7   8   9  16
  83 ben   7   8  24
  84 ben   7  17  16
  85 ben   8   7  17
  86 prop tor   8   7  17  16
  87 ben   8   9  10
  88 prop tor   8   9  10  11
  89 prop tor   8   9  10  25
  90 prop tor   8   9  10  26
  91 ben   8   9  16
  92 prop tor   8   9  16  15
  93 prop tor   8   9  16  17
  94 ben   9   8  24
  95 ben   9  10  11
  96 prop tor   9  10  11  12
  97 prop tor   9  10  11  15
  98 ben   9  10  25
  99 ben   9  10  26
 100 ben   9  16  15
 101 ben   9  16  17
 102 prop tor   9  16  17   7
 103 ben  10   9  16
 104 prop tor  10   9  16  15
 105 prop tor  10   9  16  17
 106 ben  10  11  12
 107 prop tor  10  11  12  13
 108 prop tor  10  11  12  27
 109 ben  10  11  15
 110 prop tor  10  11  15  14
 111 prop tor  10  11  15  16
 112 ben  11  10  25
 113 ben  11  10  26
 114 ben  11  12  13
 115 prop tor  11  12  13  14
 116 prop tor  11  12  13  28
 117 ben  11  12  27
 118 ben  11  15  14
 119 ben  11  15  16
 120 prop tor  11  15  16   9
 121 prop tor  11  15  16  17
 122 ben  12  11  15
 123 prop tor  12  11  15  14
 124 prop tor  12  11  15  16
 125 ben  12  13  14
 126 prop tor  12  13  14  15
 127 ben  12  13  28
 128 ben  13  12  27
 129 ben  13  14  15
 130 prop tor  13  14  15  11
 131 prop tor  13  14  15  16
 132 ben  14  13  28
 133 ben  14  15  16
 134 prop tor  14  15  16   9
 135 prop tor  14  15  16  17
 136 prop tor  15  11  12  13
 137 prop tor  15  11  12  27
 138 ben  15  16  17
 139 prop tor  15  16  17   7
 140 prop tor  16   9  10  11
 141 prop tor  16   9  10  25
 142 prop tor  16   9  10  26
 143 prop tor  17   7   8   9
 144 prop tor  17   7   8  24
 145 prop tor  18   6   7   8
 146 prop tor  18   6   7  17
 147 ben  18  19  20
 148 prop tor  18  19  20   1
 149 prop tor  18  19  20  29
 150 prop tor  19   4   5   6
 151 ben  19  20  29
 152 prop tor  20   1   2   3
 153 prop tor  20   1   2  22
 154 ben  20   1  21
 155 prop tor  21   1   2   3
 156 prop tor  21   1   2  22
 157 prop tor  21   1  20  19
 158 prop tor  21   1  20  29
 159 prop tor  22   2   3   4
 160 prop tor  22   2   3  23
 161 prop tor  23   3   4   5
 162 prop tor  23   3   4  19
 163 prop tor  24   8   9  10
 164 prop tor  24   8   9  16
 165 prop tor  25  10  11  12
 166 prop tor  25  10  11  15
 167 ben  25  10  26
 168 prop tor  26  10  11  12
 169 prop tor  26  10  11  15
 170 prop tor  27  12  13  14
 171 prop tor  27  12  13  28
 172 prop tor  28  13  14  15
 nber bend=              55
 nber lin bend=           0
 nber prop tor=          84
 nber impr tor=           0
 nber tot redund int=         172
 Reading file: 
 ./CDT-BT_0_C0S0.log                                                            
                                          
  Entering Gaussian System, Link 0=g16                                          
  
 Gaussian format, type: g94, g98, g03= F F F
  #P Geom=AllCheck Guess=TCheck SCRF=Check GenChk RB3LYP/6-311G(d,p) Fre    
 energy type= B3LYP   
 Original G94 input coords:
  6 -2.177667 -1.574202 -0.495959
  6 -2.353679 -1.656339  0.893921
  6 -1.405948 -1.133343  1.766495
  6 -0.276780 -0.525482  1.221615
 16  1.081088  0.219933  2.039110
  6  1.785280  0.586885  0.434723
  6  3.049653  1.272874  0.298344
  6  3.670880  1.600614 -0.893691
  6  4.892589  2.266830 -0.698168
  6  5.988453  2.855800 -1.562874
  6  6.951444  3.388651 -0.522139
  6  8.195657  4.066214 -0.508279
  6  8.629886  4.313770  0.767474
 16  7.523034  3.721445  1.982133
  6  6.464534  3.134455  0.748568
  6  5.204245  2.447801  0.641900
 16  3.998492  1.800666  1.690039
  7  1.075089  0.191192 -0.578446
  6 -0.084519 -0.434655 -0.177771
  6 -1.053891 -0.969324 -1.037744
  1 -2.932096 -1.990178 -1.153636
  1 -3.240001 -2.133682  1.295365
  1 -1.545171 -1.198571  2.838750
  1  3.223454  1.349268 -1.845226
  1  6.453772  2.100530 -2.205724
  1  5.611635  3.648207 -2.218863
  1  8.753584  4.362430 -1.386895
  1  9.534999  4.809313  1.082432
  1 -0.904407 -0.898509 -2.108082
 nber atoms=          29
  SCF Done:  E(RB3LYP) =  -1864.65571517     A.U. after    1 cycles             
  
          23          40 "  -1864.65571517"
After scan for Atom:   Atom  AN      X      Y      Z        X      Y      Z        X      Y      Z   
After scan for Atom:   Atom  AN      X      Y      Z        X      Y      Z        X      Y      Z   
After scan for Atom:   Atom  AN      X      Y      Z        X      Y      Z        X      Y      Z   
After scan for Atom:   Atom  AN      X      Y      Z        X      Y      Z        X      Y      Z   
After scan for Atom:   Atom  AN      X      Y      Z        X      Y      Z        X      Y      Z   
After scan for Atom:   Atom  AN      X      Y      Z        X      Y      Z        X      Y      Z   
After scan for Atom:   Atom  AN      X      Y      Z        X      Y      Z        X      Y      Z   
After scan for Atom:   Atom  AN      X      Y      Z        X      Y      Z        X      Y      Z   
After scan for Atom:   Atom  AN      X      Y      Z        X      Y      Z        X      Y      Z   
After scan for Atom:   Atom  AN      X      Y      Z        X      Y      Z        X      Y      Z   
After scan for Atom:   Atom  AN      X      Y      Z        X      Y      Z        X      Y      Z   
After scan for Atom:   Atom  AN      X      Y      Z        X      Y      Z        X      Y      Z   
After scan for Atom:   Atom  AN      X      Y      Z        X      Y      Z        X      Y      Z   
After scan for Atom:   Atom  AN      X      Y      Z        X      Y      Z        X      Y      Z   
After scan for Atom:   Atom  AN      X      Y      Z        X      Y      Z        X      Y      Z   
After scan for Atom:   Atom  AN      X      Y      Z        X      Y      Z        X      Y      Z   
After scan for Atom:   Atom  AN      X      Y      Z        X      Y      Z        X      Y      Z   
After scan for Atom:   Atom  AN      X      Y      Z        X      Y      Z        X      Y      Z   
After scan for Atom:   Atom  AN      X      Y      Z        X      Y      Z        X      Y      Z   
After scan for Atom:   Atom  AN      X      Y      Z        X      Y      Z        X      Y      Z   
After scan for Atom:   Atom  AN      X      Y      Z        X      Y      Z        X      Y      Z   
After scan for Atom:   Atom  AN      X      Y      Z        X      Y      Z        X      Y      Z   
After scan for Atom:   Atom  AN      X      Y      Z        X      Y      Z        X      Y      Z   
After scan for Atom:   Atom  AN      X      Y      Z        X      Y      Z        X      Y      Z   
After scan for Atom:   Atom  AN      X      Y      Z        X      Y      Z        X      Y      Z   
After scan for Atom:   Atom  AN      X      Y      Z        X      Y      Z        X      Y      Z   
After scan for Atom:   Atom  AN      X      Y      Z        X      Y      Z        X      Y      Z   
 g94    frequencies=
     0.0    0.0    0.0    0.0    0.0    0.0   24.2   33.6   57.7   88.7
   142.1  168.1  171.4  191.9  217.2  252.5  263.6  288.2  316.0  399.8
   434.8  436.3  467.3  492.3  496.5  509.2  553.1  570.9  578.8  580.7
   605.5  615.4  637.2  656.1  691.5  702.1  714.1  716.4  735.9  771.0
   812.3  833.6  865.6  874.1  884.4  925.1  941.1  949.1  955.3  988.2
  1002.1 1023.9 1038.1 1078.5 1110.5 1143.5 1150.8 1166.0 1183.3 1189.9
  1210.7 1267.2 1274.7 1311.1 1343.2 1356.7 1405.9 1415.3 1439.5 1458.8
  1460.7 1470.5 1487.8 1519.9 1530.1 1545.6 1595.9 1635.4 3030.8 3058.9
  3168.3 3180.0 3191.0 3197.9 3201.4 3221.1 3246.4
 g94    symmetries=
                                                 A      A      A      A
       A      A      A      A      A      A      A      A      A      A
       A      A      A      A      A      A      A      A      A      A
       A      A      A      A      A      A      A      A      A      A
       A      A      A      A      A      A      A      A      A      A
       A      A      A      A      A      A      A      A      A      A
       A      A      A      A      A      A      A      A      A      A
       A      A      A      A      A      A      A      A      A      A
       A      A      A      A      A      A      A
 atomic masses:
 12.0000 12.0000 12.0000 12.0000 31.9721 12.0000 12.0000 12.0000 12.0000 12.0000
 12.0000 12.0000 12.0000 31.9721 12.0000 12.0000 31.9721 14.0031 12.0000 12.0000
  1.0078  1.0078  1.0078  1.0078  1.0078  1.0078  1.0078  1.0078  1.0078
 looking for force constants in 
 ./CDT-BT_0_C0S0.fchk                                                           
  
 Cartesian Force Constants                  R   N=        3828                  
  
 n3=          87        3828
 g94-fc frequencies=
    -1.6   -0.0    0.0    0.0    0.5    1.2   24.2   33.6   57.7   88.7
   142.1  168.1  171.4  191.9  217.3  252.5  263.6  288.2  316.0  399.8
   434.8  436.3  467.3  492.3  496.5  509.2  553.1  570.9  578.8  580.7
   605.5  615.4  637.2  656.1  691.5  702.2  714.1  716.4  735.9  771.0
   812.4  833.7  865.7  874.1  884.4  925.2  941.1  949.2  955.3  988.2
  1002.1 1023.9 1038.2 1078.6 1110.5 1143.5 1150.8 1166.1 1183.3 1189.9
  1210.8 1267.2 1274.7 1311.1 1343.2 1356.7 1405.9 1415.4 1439.5 1458.9
  1460.8 1470.5 1487.8 1519.9 1530.1 1545.7 1595.9 1635.5 3030.8 3059.0
  3168.4 3180.1 3191.1 3198.0 3201.5 3221.2 3246.5
 at 99999: n3=          87
 symm operator            1 :  F  nop=           0
 symm operator            2 :  F  nop=           0
 symm operator            3 :  F  nop=           0
 symm operator            4 :  F  nop=           0
 symm operator            5 :  F  nop=           0
 symm operator            6 :  F  nop=           0
 symm operator            7 :  F  nop=           0
 The point group of the molecule is  C1
 Symmetry rotation matrix:
   1.00000   0.00000   0.00000
   0.00000   1.00000   0.00000
   0.00000   0.00000   1.00000

 Projecting out zero-frequency components
 generating redundant internal coords
         300        3600          29
 search for int coords
   1 str   2   1   1.403
   2 str   3   2   1.390
   3 str   4   3   1.393
   4 str   5   4   1.751
   5 str   6   5   1.790
   6 str   7   6   1.445
   7 str   8   7   1.384
   8 str   9   8   1.405
   9 str  10   9   1.515
  10 str  11  10   1.515
  11 str  12  11   1.417
  12 str  13  12   1.370
  13 str  14  13   1.747
  14 str  15  11   1.384
  15 str  15  14   1.728
  16 str  16   9   1.388
  17 str  16  15   1.439
  18 str  17   7   1.765
  19 str  17  16   1.724
  20 str  18   6   1.299
  21 str  19   4   1.415
  22 str  19  18   1.377
  23 str  20   1   1.386
  24 str  20  19   1.402
  25 str  21   1   1.084
  26 str  22   2   1.084
  27 str  23   3   1.083
  28 str  24   8   1.081
  29 str  25  10   1.096
  30 str  26  10   1.096
  31 str  27  12   1.082
  32 str  28  13   1.079
  33 str  29  20   1.083
 nber stretches=          33
  34 ben   1   2   3
  35 prop tor   1   2   3   4
  36 prop tor   1   2   3  23
  37 ben   1   2  22
  38 ben   1  20  19
  39 ben   1  20  29
  40 ben   2   1  20
  41 prop tor   2   1  20  19
  42 prop tor   2   1  20  29
  43 ben   2   1  21
  44 ben   2   3   4
  45 prop tor   2   3   4   5
  46 prop tor   2   3   4  19
  47 ben   2   3  23
  48 ben   3   2  22
  49 ben   3   4   5
  50 prop tor   3   4   5   6
  51 ben   3   4  19
  52 prop tor   3   4  19  18
  53 prop tor   3   4  19  20
  54 ben   4   3  23
  55 ben   4   5   6
  56 prop tor   4   5   6   7
  57 prop tor   4   5   6  18
  58 ben   4  19  18
  59 ben   4  19  20
  60 prop tor   4  19  20   1
  61 prop tor   4  19  20  29
  62 ben   5   4  19
  63 prop tor   5   4  19  18
  64 prop tor   5   4  19  20
  65 ben   5   6   7
  66 prop tor   5   6   7   8
  67 prop tor   5   6   7  17
  68 ben   5   6  18
  69 prop tor   5   6  18  19
  70 ben   6   7   8
  71 prop tor   6   7   8   9
  72 prop tor   6   7   8  24
  73 ben   6   7  17
  74 prop tor   6   7  17  16
  75 ben   6  18  19
  76 prop tor   6  18  19   4
  77 prop tor   6  18  19  20
  78 ben   7   6  18
  79 prop tor   7   6  18  19
  80 ben   7   8   9
  81 prop tor   7   8   9  10
  82 prop tor   7   8   9  16
  83 ben   7   8  24
  84 ben   7  17  16
  85 ben   8   7  17
  86 prop tor   8   7  17  16
  87 ben   8   9  10
  88 prop tor   8   9  10  11
  89 prop tor   8   9  10  25
  90 prop tor   8   9  10  26
  91 ben   8   9  16
  92 prop tor   8   9  16  15
  93 prop tor   8   9  16  17
  94 ben   9   8  24
  95 ben   9  10  11
  96 prop tor   9  10  11  12
  97 prop tor   9  10  11  15
  98 ben   9  10  25
  99 ben   9  10  26
 100 ben   9  16  15
 101 ben   9  16  17
 102 prop tor   9  16  17   7
 103 ben  10   9  16
 104 prop tor  10   9  16  15
 105 prop tor  10   9  16  17
 106 ben  10  11  12
 107 prop tor  10  11  12  13
 108 prop tor  10  11  12  27
 109 ben  10  11  15
 110 prop tor  10  11  15  14
 111 prop tor  10  11  15  16
 112 ben  11  10  25
 113 ben  11  10  26
 114 ben  11  12  13
 115 prop tor  11  12  13  14
 116 prop tor  11  12  13  28
 117 ben  11  12  27
 118 ben  11  15  14
 119 ben  11  15  16
 120 prop tor  11  15  16   9
 121 prop tor  11  15  16  17
 122 ben  12  11  15
 123 prop tor  12  11  15  14
 124 prop tor  12  11  15  16
 125 ben  12  13  14
 126 prop tor  12  13  14  15
 127 ben  12  13  28
 128 ben  13  12  27
 129 ben  13  14  15
 130 prop tor  13  14  15  11
 131 prop tor  13  14  15  16
 132 ben  14  13  28
 133 ben  14  15  16
 134 prop tor  14  15  16   9
 135 prop tor  14  15  16  17
 136 prop tor  15  11  12  13
 137 prop tor  15  11  12  27
 138 ben  15  16  17
 139 prop tor  15  16  17   7
 140 prop tor  16   9  10  11
 141 prop tor  16   9  10  25
 142 prop tor  16   9  10  26
 143 prop tor  17   7   8   9
 144 prop tor  17   7   8  24
 145 prop tor  18   6   7   8
 146 prop tor  18   6   7  17
 147 ben  18  19  20
 148 prop tor  18  19  20   1
 149 prop tor  18  19  20  29
 150 prop tor  19   4   5   6
 151 ben  19  20  29
 152 prop tor  20   1   2   3
 153 prop tor  20   1   2  22
 154 ben  20   1  21
 155 prop tor  21   1   2   3
 156 prop tor  21   1   2  22
 157 prop tor  21   1  20  19
 158 prop tor  21   1  20  29
 159 prop tor  22   2   3   4
 160 prop tor  22   2   3  23
 161 prop tor  23   3   4   5
 162 prop tor  23   3   4  19
 163 prop tor  24   8   9  10
 164 prop tor  24   8   9  16
 165 prop tor  25  10  11  12
 166 prop tor  25  10  11  15
 167 ben  25  10  26
 168 prop tor  26  10  11  12
 169 prop tor  26  10  11  15
 170 prop tor  27  12  13  14
 171 prop tor  27  12  13  28
 172 prop tor  28  13  14  15
 nber bend=              55
 nber lin bend=           0
 nber prop tor=          84
 nber impr tor=           0
 nber tot redund int=         172
 Eigenvalues of G in red int coords
    Gval -0.00000000 -0.00000000 -0.00000000 -0.00000000 -0.00000000 -0.00000000 -0.00000000 -0.00000000
    Gval -0.00000000 -0.00000000 -0.00000000 -0.00000000 -0.00000000 -0.00000000 -0.00000000 -0.00000000
    Gval -0.00000000 -0.00000000 -0.00000000 -0.00000000 -0.00000000 -0.00000000 -0.00000000 -0.00000000
    Gval -0.00000000 -0.00000000 -0.00000000 -0.00000000 -0.00000000 -0.00000000 -0.00000000 -0.00000000
    Gval -0.00000000 -0.00000000 -0.00000000 -0.00000000 -0.00000000 -0.00000000 -0.00000000 -0.00000000
    Gval -0.00000000 -0.00000000 -0.00000000 -0.00000000 -0.00000000 -0.00000000  0.00000000  0.00000000
    Gval  0.00000000  0.00000000  0.00000000  0.00000000  0.00000000  0.00000000  0.00000000  0.00000000
    Gval  0.00000000  0.00000000  0.00000000  0.00000000  0.00000000  0.00000000  0.00000000  0.00000000
    Gval  0.00000000  0.00000000  0.00000000  0.00000000  0.00000000  0.00000000  0.00000000  0.00000000
    Gval  0.00000000  0.00000000  0.00000000  0.00000000  0.00000000  0.00000000  0.00000000  0.00000000
    Gval  0.00000000  0.00000000  0.00000000  0.00000000  0.00000000  0.00000000  0.00000000  0.00000000
    Gval  0.00000000  0.00000000  0.00000000  0.00000098  0.00000283  0.00000373  0.00000683  0.00001232
    Gval  0.00001499  0.00001979  0.00002412  0.00002599  0.00002995  0.00003450  0.00003716  0.00003897
    Gval  0.00004673  0.00004948  0.00005408  0.00006133  0.00006365  0.00007151  0.00007842  0.00008591
    Gval  0.00009286  0.00009634  0.00010405  0.00011788  0.00012316  0.00012987  0.00013466  0.00015372
    Gval  0.00016042  0.00016326  0.00018988  0.00021437  0.00024318  0.00027665  0.00028308  0.00030178
    Gval  0.00030288  0.00031526  0.00034597  0.00037211  0.00038043  0.00038488  0.00039873  0.00041778
    Gval  0.00043512  0.00054607  0.00058330  0.00059316  0.00059676  0.00059751  0.00061830  0.00061832
    Gval  0.00062395  0.00062875  0.00065506  0.00066158  0.00085153  0.00105446  0.00108148  0.00108325
    Gval  0.00112259  0.00114313  0.00116310  0.00117166  0.00118433  0.00129328  0.00133519  0.00139425
    Gval  0.00163629  0.00166097  0.00180160  0.00195361  0.00208525  0.00266228  0.00270145  0.00302669
    Gval  0.00356850  0.00373831  0.00402226  0.00408019
  9.760187237267724E-007  9.760187237267724E-007
  2.826340496532067E-006  9.760187237267724E-007
  3.734787664984660E-006  9.760187237267724E-007
  6.833870033986446E-006  9.760187237267724E-007
  1.232102845031008E-005  9.760187237267724E-007
  1.499116849232085E-005  9.760187237267724E-007
  1.978682166796387E-005  9.760187237267724E-007
  2.411810903717199E-005  9.760187237267724E-007
  2.599063711911894E-005  9.760187237267724E-007
  2.995106221739131E-005  9.760187237267724E-007
  3.449734399729847E-005  9.760187237267724E-007
  3.716205474278310E-005  9.760187237267724E-007
  3.897424322613604E-005  9.760187237267724E-007
  4.673115230142822E-005  9.760187237267724E-007
  4.947521815554497E-005  9.760187237267724E-007
  5.408014694086295E-005  9.760187237267724E-007
  6.132805401320989E-005  9.760187237267724E-007
  6.364790230092176E-005  9.760187237267724E-007
  7.151471307172052E-005  9.760187237267724E-007
  7.842393332044096E-005  9.760187237267724E-007
  8.591046120787974E-005  9.760187237267724E-007
  9.285538387904665E-005  9.760187237267724E-007
  9.634457377059715E-005  9.760187237267724E-007
  1.040516732353402E-004  9.760187237267724E-007
  1.178799002078245E-004  9.760187237267724E-007
  1.231554972820846E-004  9.760187237267724E-007
  1.298739611460861E-004  9.760187237267724E-007
  1.346607889092444E-004  9.760187237267724E-007
  1.537160201930553E-004  9.760187237267724E-007
  1.604247577120234E-004  9.760187237267724E-007
  1.632603795080265E-004  9.760187237267724E-007
  1.898786565700028E-004  9.760187237267724E-007
  2.143701580456065E-004  9.760187237267724E-007
  2.431769439497481E-004  9.760187237267724E-007
  2.766544308383654E-004  9.760187237267724E-007
  2.830799495496015E-004  9.760187237267724E-007
  3.017785325217429E-004  9.760187237267724E-007
  3.028838969133661E-004  9.760187237267724E-007
  3.152610075107747E-004  9.760187237267724E-007
  3.459733429711926E-004  9.760187237267724E-007
  3.721145973400140E-004  9.760187237267724E-007
  3.804336672518209E-004  9.760187237267724E-007
  3.848807781451391E-004  9.760187237267724E-007
  3.987296205875769E-004  9.760187237267724E-007
  4.177787747810628E-004  9.760187237267724E-007
  4.351233458607094E-004  9.760187237267724E-007
  5.460659899442490E-004  9.760187237267724E-007
  5.833036774579866E-004  9.760187237267724E-007
  5.931553092178274E-004  9.760187237267724E-007
  5.967569266205209E-004  9.760187237267724E-007
  5.975085619549512E-004  9.760187237267724E-007
  6.183039236419894E-004  9.760187237267724E-007
  6.183185733341954E-004  9.760187237267724E-007
  6.239540387871818E-004  9.760187237267724E-007
  6.287514173306292E-004  9.760187237267724E-007
  6.550573002074951E-004  9.760187237267724E-007
  6.615819491101580E-004  9.760187237267724E-007
  8.515321114618660E-004  9.760187237267724E-007
  1.054456652381441E-003  9.760187237267724E-007
  1.081480862135007E-003  9.760187237267724E-007
  1.083250614742944E-003  9.760187237267724E-007
  1.122585947605572E-003  9.760187237267724E-007
  1.143127403355276E-003  9.760187237267724E-007
  1.163102481238161E-003  9.760187237267724E-007
  1.171655531486177E-003  9.760187237267724E-007
  1.184332835562169E-003  9.760187237267724E-007
  1.293282263251615E-003  9.760187237267724E-007
  1.335190963479030E-003  9.760187237267724E-007
  1.394248995083809E-003  9.760187237267724E-007
  1.636288248497074E-003  9.760187237267724E-007
  1.660965944003256E-003  9.760187237267724E-007
  1.801595333071001E-003  9.760187237267724E-007
  1.953611482730240E-003  9.760187237267724E-007
  2.085248652392468E-003  9.760187237267724E-007
  2.662277816415700E-003  9.760187237267724E-007
  2.701452118568818E-003  9.760187237267724E-007
  3.026692245980536E-003  9.760187237267724E-007
  3.568502063337808E-003  9.760187237267724E-007
  3.738310176218838E-003  9.760187237267724E-007
  4.022263983164312E-003  9.760187237267724E-007
  4.080189485798140E-003  9.760187237267724E-007
 cut=1d-8, nber non-redundant internal coords=          81
 Check on Eigenvals of non-red overlap matrix:
  0.00000098  0.00000283  0.00000373  0.00000683  0.00001232  0.00001499  0.00001979  0.00002412
  0.00002599  0.00002995  0.00003450  0.00003716  0.00003897  0.00004673  0.00004948  0.00005408
  0.00006133  0.00006365  0.00007151  0.00007842  0.00008591  0.00009286  0.00009634  0.00010405
  0.00011788  0.00012316  0.00012987  0.00013466  0.00015372  0.00016042  0.00016326  0.00018988
  0.00021437  0.00024318  0.00027665  0.00028308  0.00030178  0.00030288  0.00031526  0.00034597
  0.00037211  0.00038043  0.00038488  0.00039873  0.00041778  0.00043512  0.00054607  0.00058330
  0.00059316  0.00059676  0.00059751  0.00061830  0.00061832  0.00062395  0.00062875  0.00065506
  0.00066158  0.00085153  0.00105446  0.00108148  0.00108325  0.00112259  0.00114313  0.00116310
  0.00117166  0.00118433  0.00129328  0.00133519  0.00139425  0.00163629  0.00166097  0.00180160
  0.00195361  0.00208525  0.00266228  0.00270145  0.00302669  0.00356850  0.00373831  0.00402226
  0.00408019
 Checking for correct frequencies
 recalc frequencies=
    -0.0   -0.0   -0.0    0.0    0.0    0.0   24.2   33.6   57.7   88.7
   142.1  168.1  171.4  191.9  217.3  252.5  263.6  288.2  316.0  399.8
   434.8  436.3  467.3  492.3  496.5  509.2  553.1  570.9  578.8  580.7
   605.5  615.4  637.2  656.1  691.5  702.2  714.1  716.4  735.9  771.0
   812.4  833.7  865.7  874.1  884.4  925.2  941.1  949.2  955.3  988.2
  1002.1 1023.9 1038.2 1078.6 1110.5 1143.5 1150.8 1166.1 1183.3 1189.9
  1210.8 1267.2 1274.7 1311.1 1343.2 1356.7 1405.9 1415.4 1439.5 1458.9
  1460.8 1470.5 1487.8 1519.9 1530.1 1545.7 1595.9 1635.5 3030.8 3059.0
  3168.4 3180.1 3191.1 3198.0 3201.5 3221.2 3246.5
 recalc symmetries=
                                                                       
                                                                       
                                                                       
                                                                       
                                                                       
                                                                       
                                                                       
                                                                       
                                                  
 recalc freqs check OK
 Zero-point lengths:
 10.0000 10.0000 10.0000 10.0000 10.0000 10.0000 50.4337 42.7795 32.6315 26.3177
 20.7941 19.1197 18.9364 17.8970 16.8195 15.6028 15.2693 14.6029 13.9458 12.3986
 11.8888 11.8681 11.4678 11.1728 11.1263 10.9866 10.5411 10.3757 10.3044 10.2876
 10.0750  9.9931  9.8208  9.6788  9.4275  9.3558  9.2770  9.2620  9.1386  8.9282
  8.6980  8.5862  8.4260  8.3852  8.3363  8.1505  8.0811  8.0469  8.0209  7.8861
  7.8312  7.7476  7.6942  7.5487  7.4393  7.3312  7.3080  7.2599  7.2068  7.1867
  7.1247  6.9643  6.9437  6.8466  6.7643  6.7306  6.6118  6.5896  6.5341  6.4906
  6.4865  6.4649  6.4272  6.3590  6.3378  6.3057  6.2057  6.1302  4.5031  4.4823
  4.4043  4.3962  4.3886  4.3839  4.3815  4.3680  4.3510
 highest evec of mol 2
 -0.0000 -0.0000 -0.0001
 -0.0000 -0.0000  0.0000
 -0.0000 -0.0000  0.0001
  0.0000  0.0000  0.0000
 -0.0000 -0.0000 -0.0000
 -0.0001 -0.0001  0.0000
  0.0002  0.0001  0.0001
 -0.0001 -0.0001 -0.0003
 -0.0001 -0.0001 -0.0003
 -0.0002 -0.0001  0.0000
  0.0058  0.0032 -0.0012
 -0.0258 -0.0135  0.0640
 -0.2390 -0.1310 -0.0969
  0.0010  0.0006 -0.0018
  0.0029  0.0016  0.0014
  0.0001  0.0001  0.0003
 -0.0001 -0.0000  0.0000
  0.0000  0.0000  0.0000
  0.0000  0.0000 -0.0000
 -0.0000 -0.0000 -0.0001
  0.0002  0.0001  0.0002
  0.0001  0.0001 -0.0000
  0.0000  0.0000 -0.0003
  0.0004  0.0003  0.0009
 -0.0002 -0.0002 -0.0002
 -0.0003 -0.0001 -0.0002
  0.0945  0.0501 -0.1535
  0.7845  0.4295  0.2765
 -0.0000 -0.0000  0.0002
 Enter nber and list of atoms to keep of mol #2
 keep list:          29           1           2           3           4
           5           6           7           8           9          10
          11          12          13          14          15          16
          17          18          19          20          21          22
          23          24          25          26          27          28
          29
 reordering atoms
           1   6.21075023572675     
           2   6.39971956173510     
           3   5.31421324956797     
           4   4.03376564810889     
           5   2.48189193316029     
           6   1.69360766868373     
           7  0.255619350821607     
           8 -0.442500005475946     
           9  -1.83473111713696     
          10  -3.07576948238065     
          11  -4.17998215507251     
          12  -5.59676377736630     
          13  -6.10099319810037     
          14  -4.84993201189095     
          15  -3.63527158538739     
          16  -2.19969716458844     
          17 -0.834980423250584     
          18   2.51011398689709     
          19   3.82640359311232     
          20   4.93645366394227     
          21   7.07455706259009     
          22   7.40497998110380     
          23   5.46390448949655     
          24  7.399138640634864E-002
          25  -3.12154022082180     
          26  -3.12091245409845     
          27  -6.22531831274699     
          28  -7.13397996413101     
          29   4.77507230738459     
           1           1
           2           2
           3           3
           4           4
           5           5
           6           6
           7           7
           8           8
           9           9
          10          10
          11          11
          12          12
          13          13
          14          14
          15          15
          16          16
          17          17
          18          18
          19          19
          20          20
          21          21
          22          22
          23          23
          24          24
          25          25
          26          26
          27          27
          28          28
          29          29
 initial cartes coords mol 1
   6  -0.00136  -1.08254   6.18970
   6  -0.00133   0.31604   6.37187
   6  -0.00063   1.17847   5.27906
   6  -0.00003   0.62744   4.00244
  16   0.00074   1.44238   2.45675
   6   0.00078  -0.18017   1.66077
   6   0.00088  -0.31517   0.26671
   6   0.00094  -1.54139  -0.45608
   6   0.00099  -1.34645  -1.81757
   6   0.00068  -2.21561  -3.06318
   6  -0.00024  -1.17070  -4.16135
   6  -0.00117  -1.14770  -5.56266
   6  -0.00148   0.13851  -6.06769
  16  -0.00084   1.36407  -4.81732
   6  -0.00000   0.12288  -3.59557
   6   0.00090   0.03189  -2.19598
  16   0.00077   1.10697  -0.82921
   7   0.00020  -1.20791   2.50869
   6  -0.00018  -0.79253   3.79370
   6  -0.00078  -1.64010   4.92704
   1  -0.00182  -1.72845   7.06045
   1  -0.00189   0.72590   7.37509
   1  -0.00067   2.25215   5.42383
   1   0.00087  -2.48607   0.06821
   1   0.88135  -2.86753  -3.10878
   1  -0.87929  -2.86848  -3.10788
   1  -0.00157  -2.02245  -6.20024
   1  -0.00212   0.44708  -7.10186
   1  -0.00081  -2.71227   4.77461
 initial cartes coords mol 2
   6  -0.00068  -1.08692   6.21075
   6  -0.00161   0.30369   6.39972
   6  -0.00152   1.17247   5.31421
   6  -0.00053   0.62305   4.03377
  16  -0.00038   1.43510   2.48189
   6   0.00090  -0.17213   1.69361
   6   0.00106  -0.31358   0.25562
   6   0.00043  -1.50812  -0.44250
   6   0.00020  -1.31749  -1.83473
   6  -0.00065  -2.18660  -3.07577
   6  -0.00060  -1.14971  -4.17998
   6  -0.00148  -1.14084  -5.59676
   6  -0.00148   0.13319  -6.10099
  16  -0.00017   1.35229  -4.84993
   6   0.00020   0.12295  -3.63527
   6   0.00066   0.02134  -2.19970
  16   0.00157   1.07432  -0.83498
   7   0.00132  -1.18246   2.51011
   6   0.00045  -0.77713   3.82640
   6   0.00038  -1.63322   4.93645
   1  -0.00077  -1.74157   7.07456
   1  -0.00241   0.70870   7.40498
   1  -0.00224   2.24530   5.46390
   1   0.00002  -2.45787   0.07399
   1   0.88005  -2.83659  -3.12154
   1  -0.88196  -2.83580  -3.12091
   1  -0.00217  -2.02170  -6.22532
   1  -0.00203   0.44452  -7.13398
   1   0.00110  -2.70417   4.77507
 loop 1 0
 mod cartes coords mol 2
   6  -0.00068  -1.08692   6.21075
   6  -0.00161   0.30369   6.39972
   6  -0.00152   1.17247   5.31421
   6  -0.00053   0.62305   4.03377
  16  -0.00038   1.43510   2.48189
   6   0.00090  -0.17213   1.69361
   6   0.00106  -0.31358   0.25562
   6   0.00043  -1.50812  -0.44250
   6   0.00020  -1.31749  -1.83473
   6  -0.00065  -2.18660  -3.07577
   6  -0.00060  -1.14971  -4.17998
   6  -0.00148  -1.14084  -5.59676
   6  -0.00148   0.13319  -6.10099
  16  -0.00017   1.35229  -4.84993
   6   0.00020   0.12295  -3.63527
   6   0.00066   0.02134  -2.19970
  16   0.00157   1.07432  -0.83498
   7   0.00132  -1.18246   2.51011
   6   0.00045  -0.77713   3.82640
   6   0.00038  -1.63322   4.93645
   1  -0.00077  -1.74157   7.07456
   1  -0.00241   0.70870   7.40498
   1  -0.00224   2.24530   5.46390
   1   0.00002  -2.45787   0.07399
   1   0.88005  -2.83659  -3.12154
   1  -0.88196  -2.83580  -3.12091
   1  -0.00217  -2.02170  -6.22532
   1  -0.00203   0.44452  -7.13398
   1   0.00110  -2.70417   4.77507
 read in order, maxerr=  0.04 for atom  23
 final axis swaps:           1           1           1
 final xyz swap pattern=           1
 reorder list:
   1   2   3   4   5   6   7   8   9  10  11  12  13  14  15  16  17  18  19  20
  21  22  23  24  25  26  27  28  29
 axis signs=           1           1           1
  6    -0.000683 -1.086918  6.210750    -0.001358 -1.082539  6.189701
  6    -0.001607  0.303687  6.399720    -0.001326  0.316037  6.371868
  6    -0.001517  1.172468  5.314213    -0.000631  1.178465  5.279057
  6    -0.000527  0.623048  4.033766    -0.000027  0.627436  4.002439
 16    -0.000381  1.435104  2.481892     0.000740  1.442376  2.456749
  6     0.000902 -0.172131  1.693608     0.000781 -0.180168  1.660773
  6     0.001061 -0.313583  0.255619     0.000880 -0.315174  0.266712
  6     0.000426 -1.508118 -0.442500     0.000941 -1.541388 -0.456081
  6     0.000202 -1.317492 -1.834731     0.000990 -1.346445 -1.817573
  6    -0.000646 -2.186596 -3.075769     0.000680 -2.215606 -3.063185
  6    -0.000596 -1.149714 -4.179982    -0.000236 -1.170699 -4.161353
  6    -0.001477 -1.140839 -5.596764    -0.001167 -1.147704 -5.562659
  6    -0.001481  0.133185 -6.100993    -0.001477  0.138515 -6.067688
 16    -0.000169  1.352288 -4.849932    -0.000843  1.364069 -4.817320
  6     0.000203  0.122954 -3.635272    -0.000002  0.122878 -3.595574
  6     0.000659  0.021337 -2.199697     0.000900  0.031894 -2.195984
 16     0.001569  1.074317 -0.834980     0.000770  1.106969 -0.829205
  7     0.001317 -1.182464  2.510114     0.000204 -1.207910  2.508694
  6     0.000449 -0.777129  3.826404    -0.000181 -0.792532  3.793702
  6     0.000378 -1.633222  4.936454    -0.000783 -1.640095  4.927036
  1    -0.000768 -1.741575  7.074557    -0.001820 -1.728454  7.060449
  1    -0.002406  0.708695  7.404980    -0.001891  0.725895  7.375094
  1    -0.002236  2.245297  5.463904    -0.000674  2.252147  5.423825
  1     0.000019 -2.457865  0.073991     0.000869 -2.486066  0.068207
  1     0.880048 -2.836592 -3.121540     0.881350 -2.867528 -3.108778
  1    -0.881959 -2.835804 -3.120912    -0.879295 -2.868475 -3.107881
  1    -0.002174 -2.021697 -6.225318    -0.001571 -2.022453 -6.200239
  1    -0.002035  0.444520 -7.133980    -0.002117  0.447083 -7.101860
  1     0.001104 -2.704174  4.775072    -0.000810 -2.712271  4.774610
 generating redundant internal coords
         300        3600          29
 Adding extra bonds for z output only
           6           6           6           6          16           6
           6           6           6           6           6           6
           6          16           6           6          16           7
           6           6           1           1           1           1
           1           1           1           1           1
 search for int coords
   1 str   2   1   1.403
   2 str   3   2   1.390
   3 str   4   3   1.393
   4 str   5   4   1.751
   5 str   6   5   1.790
   6 str   7   6   1.445
   7 str   8   7   1.384
   8 str   9   8   1.405
   9 str  10   9   1.515
  10 str  11  10   1.515
  11 str  12  11   1.417
  12 str  13  12   1.370
  13 str  14  13   1.747
  14 str  15  11   1.384
  15 str  15  14   1.728
  16 str  16   9   1.388
  17 str  16  15   1.439
  18 str  17   7   1.765
  19 str  17  16   1.724
  20 str  18   6   1.299
  21 str  19   4   1.415
  22 str  19  18   1.377
  23 str  20   1   1.386
  24 str  20  19   1.402
  25 str  21   1   1.084
  26 str  22   2   1.084
  27 str  23   3   1.083
  28 str  24   8   1.081
  29 str  25  10   1.096
  30 str  26  10   1.096
  31 str  27  12   1.082
  32 str  28  13   1.079
  33 str  29  20   1.083
 nber stretches=          33
  34 ben   1   2   3
  35 prop tor   1   2   3   4
  36 prop tor   1   2   3  23
  37 ben   1   2  22
  38 ben   1  20  19
  39 ben   1  20  29
  40 ben   2   1  20
  41 prop tor   2   1  20  19
  42 prop tor   2   1  20  29
  43 ben   2   1  21
  44 ben   2   3   4
  45 prop tor   2   3   4   5
  46 prop tor   2   3   4  19
  47 ben   2   3  23
  48 ben   3   2  22
  49 ben   3   4   5
  50 prop tor   3   4   5   6
  51 ben   3   4  19
  52 prop tor   3   4  19  18
  53 prop tor   3   4  19  20
  54 ben   4   3  23
  55 ben   4   5   6
  56 prop tor   4   5   6   7
  57 prop tor   4   5   6  18
  58 ben   4  19  18
  59 ben   4  19  20
  60 prop tor   4  19  20   1
  61 prop tor   4  19  20  29
  62 ben   5   4  19
  63 prop tor   5   4  19  18
  64 prop tor   5   4  19  20
  65 ben   5   6   7
  66 prop tor   5   6   7   8
  67 prop tor   5   6   7  17
  68 ben   5   6  18
  69 prop tor   5   6  18  19
  70 ben   6   7   8
  71 prop tor   6   7   8   9
  72 prop tor   6   7   8  24
  73 ben   6   7  17
  74 prop tor   6   7  17  16
  75 ben   6  18  19
  76 prop tor   6  18  19   4
  77 prop tor   6  18  19  20
  78 ben   7   6  18
  79 prop tor   7   6  18  19
  80 ben   7   8   9
  81 prop tor   7   8   9  10
  82 prop tor   7   8   9  16
  83 ben   7   8  24
  84 ben   7  17  16
  85 ben   8   7  17
  86 prop tor   8   7  17  16
  87 ben   8   9  10
  88 prop tor   8   9  10  11
  89 prop tor   8   9  10  25
  90 prop tor   8   9  10  26
  91 ben   8   9  16
  92 prop tor   8   9  16  15
  93 prop tor   8   9  16  17
  94 ben   9   8  24
  95 ben   9  10  11
  96 prop tor   9  10  11  12
  97 prop tor   9  10  11  15
  98 ben   9  10  25
  99 ben   9  10  26
 100 ben   9  16  15
 101 ben   9  16  17
 102 prop tor   9  16  17   7
 103 ben  10   9  16
 104 prop tor  10   9  16  15
 105 prop tor  10   9  16  17
 106 ben  10  11  12
 107 prop tor  10  11  12  13
 108 prop tor  10  11  12  27
 109 ben  10  11  15
 110 prop tor  10  11  15  14
 111 prop tor  10  11  15  16
 112 ben  11  10  25
 113 ben  11  10  26
 114 ben  11  12  13
 115 prop tor  11  12  13  14
 116 prop tor  11  12  13  28
 117 ben  11  12  27
 118 ben  11  15  14
 119 ben  11  15  16
 120 prop tor  11  15  16   9
 121 prop tor  11  15  16  17
 122 ben  12  11  15
 123 prop tor  12  11  15  14
 124 prop tor  12  11  15  16
 125 ben  12  13  14
 126 prop tor  12  13  14  15
 127 ben  12  13  28
 128 ben  13  12  27
 129 ben  13  14  15
 130 prop tor  13  14  15  11
 131 prop tor  13  14  15  16
 132 ben  14  13  28
 133 ben  14  15  16
 134 prop tor  14  15  16   9
 135 prop tor  14  15  16  17
 136 prop tor  15  11  12  13
 137 prop tor  15  11  12  27
 138 ben  15  16  17
 139 prop tor  15  16  17   7
 140 prop tor  16   9  10  11
 141 prop tor  16   9  10  25
 142 prop tor  16   9  10  26
 143 prop tor  17   7   8   9
 144 prop tor  17   7   8  24
 145 prop tor  18   6   7   8
 146 prop tor  18   6   7  17
 147 ben  18  19  20
 148 prop tor  18  19  20   1
 149 prop tor  18  19  20  29
 150 prop tor  19   4   5   6
 151 ben  19  20  29
 152 prop tor  20   1   2   3
 153 prop tor  20   1   2  22
 154 ben  20   1  21
 155 prop tor  21   1   2   3
 156 prop tor  21   1   2  22
 157 prop tor  21   1  20  19
 158 prop tor  21   1  20  29
 159 prop tor  22   2   3   4
 160 prop tor  22   2   3  23
 161 prop tor  23   3   4   5
 162 prop tor  23   3   4  19
 163 prop tor  24   8   9  10
 164 prop tor  24   8   9  16
 165 prop tor  25  10  11  12
 166 prop tor  25  10  11  15
 167 ben  25  10  26
 168 prop tor  26  10  11  12
 169 prop tor  26  10  11  15
 170 prop tor  27  12  13  14
 171 prop tor  27  12  13  28
 172 prop tor  28  13  14  15
 nber bend=              55
 nber lin bend=           0
 nber prop tor=          84
 nber impr tor=           0
 nber tot redund int=         172
 generating redundant internal coords
         300        3600          29
 search for int coords
   1 str   2   1   1.410
   2 str   3   2   1.392
   3 str   4   3   1.390
   4 str   5   4   1.747
   5 str   6   5   1.807
   6 str   7   6   1.401
   7 str   8   7   1.423
   8 str   9   8   1.375
   9 str  10   9   1.519
  10 str  11  10   1.516
  11 str  12  11   1.401
  12 str  13  12   1.382
  13 str  14  13   1.751
  14 str  15  11   1.412
  15 str  15  14   1.742
  16 str  16   9   1.429
  17 str  16  15   1.403
  18 str  17   7   1.795
  19 str  17  16   1.739
  20 str  18   6   1.332
  21 str  19   4   1.435
  22 str  19  18   1.350
  23 str  20   1   1.380
  24 str  20  19   1.415
  25 str  21   1   1.084
  26 str  22   2   1.084
  27 str  23   3   1.083
  28 str  24   8   1.080
  29 str  25  10   1.097
  30 str  26  10   1.097
  31 str  27  12   1.082
  32 str  28  13   1.079
  33 str  29  20   1.083
 nber stretches=          33
  34 ben   1   2   3
  35 prop tor   1   2   3   4
  36 prop tor   1   2   3  23
  37 ben   1   2  22
  38 ben   1  20  19
  39 ben   1  20  29
  40 ben   2   1  20
  41 prop tor   2   1  20  19
  42 prop tor   2   1  20  29
  43 ben   2   1  21
  44 ben   2   3   4
  45 prop tor   2   3   4   5
  46 prop tor   2   3   4  19
  47 ben   2   3  23
  48 ben   3   2  22
  49 ben   3   4   5
  50 prop tor   3   4   5   6
  51 ben   3   4  19
  52 prop tor   3   4  19  18
  53 prop tor   3   4  19  20
  54 ben   4   3  23
  55 ben   4   5   6
  56 prop tor   4   5   6   7
  57 prop tor   4   5   6  18
  58 ben   4  19  18
  59 ben   4  19  20
  60 prop tor   4  19  20   1
  61 prop tor   4  19  20  29
  62 ben   5   4  19
  63 prop tor   5   4  19  18
  64 prop tor   5   4  19  20
  65 ben   5   6   7
  66 prop tor   5   6   7   8
  67 prop tor   5   6   7  17
  68 ben   5   6  18
  69 prop tor   5   6  18  19
  70 ben   6   7   8
  71 prop tor   6   7   8   9
  72 prop tor   6   7   8  24
  73 ben   6   7  17
  74 prop tor   6   7  17  16
  75 ben   6  18  19
  76 prop tor   6  18  19   4
  77 prop tor   6  18  19  20
  78 ben   7   6  18
  79 prop tor   7   6  18  19
  80 ben   7   8   9
  81 prop tor   7   8   9  10
  82 prop tor   7   8   9  16
  83 ben   7   8  24
  84 ben   7  17  16
  85 ben   8   7  17
  86 prop tor   8   7  17  16
  87 ben   8   9  10
  88 prop tor   8   9  10  11
  89 prop tor   8   9  10  25
  90 prop tor   8   9  10  26
  91 ben   8   9  16
  92 prop tor   8   9  16  15
  93 prop tor   8   9  16  17
  94 ben   9   8  24
  95 ben   9  10  11
  96 prop tor   9  10  11  12
  97 prop tor   9  10  11  15
  98 ben   9  10  25
  99 ben   9  10  26
 100 ben   9  16  15
 101 ben   9  16  17
 102 prop tor   9  16  17   7
 103 ben  10   9  16
 104 prop tor  10   9  16  15
 105 prop tor  10   9  16  17
 106 ben  10  11  12
 107 prop tor  10  11  12  13
 108 prop tor  10  11  12  27
 109 ben  10  11  15
 110 prop tor  10  11  15  14
 111 prop tor  10  11  15  16
 112 ben  11  10  25
 113 ben  11  10  26
 114 ben  11  12  13
 115 prop tor  11  12  13  14
 116 prop tor  11  12  13  28
 117 ben  11  12  27
 118 ben  11  15  14
 119 ben  11  15  16
 120 prop tor  11  15  16   9
 121 prop tor  11  15  16  17
 122 ben  12  11  15
 123 prop tor  12  11  15  14
 124 prop tor  12  11  15  16
 125 ben  12  13  14
 126 prop tor  12  13  14  15
 127 ben  12  13  28
 128 ben  13  12  27
 129 ben  13  14  15
 130 prop tor  13  14  15  11
 131 prop tor  13  14  15  16
 132 ben  14  13  28
 133 ben  14  15  16
 134 prop tor  14  15  16   9
 135 prop tor  14  15  16  17
 136 prop tor  15  11  12  13
 137 prop tor  15  11  12  27
 138 ben  15  16  17
 139 prop tor  15  16  17   7
 140 prop tor  16   9  10  11
 141 prop tor  16   9  10  25
 142 prop tor  16   9  10  26
 143 prop tor  17   7   8   9
 144 prop tor  17   7   8  24
 145 prop tor  18   6   7   8
 146 prop tor  18   6   7  17
 147 ben  18  19  20
 148 prop tor  18  19  20   1
 149 prop tor  18  19  20  29
 150 prop tor  19   4   5   6
 151 ben  19  20  29
 152 prop tor  20   1   2   3
 153 prop tor  20   1   2  22
 154 ben  20   1  21
 155 prop tor  21   1   2   3
 156 prop tor  21   1   2  22
 157 prop tor  21   1  20  19
 158 prop tor  21   1  20  29
 159 prop tor  22   2   3   4
 160 prop tor  22   2   3  23
 161 prop tor  23   3   4   5
 162 prop tor  23   3   4  19
 163 prop tor  24   8   9  10
 164 prop tor  24   8   9  16
 165 prop tor  25  10  11  12
 166 prop tor  25  10  11  15
 167 ben  25  10  26
 168 prop tor  26  10  11  12
 169 prop tor  26  10  11  15
 170 prop tor  27  12  13  14
 171 prop tor  27  12  13  28
 172 prop tor  28  13  14  15
 nber bend=              55
 nber lin bend=           0
 nber prop tor=          84
 nber impr tor=           0
 nber tot redund int=         172
 Eigenvalues of G in red int coords
    Gval -0.00000000 -0.00000000 -0.00000000 -0.00000000 -0.00000000 -0.00000000 -0.00000000 -0.00000000
    Gval -0.00000000 -0.00000000 -0.00000000 -0.00000000 -0.00000000 -0.00000000 -0.00000000 -0.00000000
    Gval -0.00000000 -0.00000000 -0.00000000 -0.00000000 -0.00000000 -0.00000000 -0.00000000 -0.00000000
    Gval -0.00000000 -0.00000000 -0.00000000 -0.00000000 -0.00000000 -0.00000000 -0.00000000 -0.00000000
    Gval -0.00000000 -0.00000000 -0.00000000 -0.00000000 -0.00000000 -0.00000000 -0.00000000 -0.00000000
    Gval -0.00000000 -0.00000000 -0.00000000  0.00000000  0.00000000  0.00000000  0.00000000  0.00000000
    Gval  0.00000000  0.00000000  0.00000000  0.00000000  0.00000000  0.00000000  0.00000000  0.00000000
    Gval  0.00000000  0.00000000  0.00000000  0.00000000  0.00000000  0.00000000  0.00000000  0.00000000
    Gval  0.00000000  0.00000000  0.00000000  0.00000000  0.00000000  0.00000000  0.00000000  0.00000000
    Gval  0.00000000  0.00000000  0.00000000  0.00000000  0.00000000  0.00000000  0.00000000  0.00000000
    Gval  0.00000000  0.00000000  0.00000000  0.00000000  0.00000000  0.00000000  0.00000000  0.00000000
    Gval  0.00000000  0.00000000  0.00000000  0.00000098  0.00000282  0.00000376  0.00000688  0.00001235
    Gval  0.00001486  0.00001976  0.00002408  0.00002577  0.00003003  0.00003456  0.00003681  0.00003880
    Gval  0.00004672  0.00004940  0.00005392  0.00006121  0.00006391  0.00007085  0.00007861  0.00008600
    Gval  0.00009234  0.00009634  0.00010406  0.00011814  0.00012309  0.00012894  0.00013470  0.00015339
    Gval  0.00015935  0.00016253  0.00018614  0.00021536  0.00024263  0.00027775  0.00028120  0.00029739
    Gval  0.00029934  0.00031424  0.00034849  0.00036301  0.00038032  0.00038592  0.00039510  0.00042179
    Gval  0.00043929  0.00052892  0.00058346  0.00059314  0.00059672  0.00059745  0.00061687  0.00061831
    Gval  0.00062419  0.00062858  0.00065462  0.00066279  0.00085684  0.00105402  0.00108159  0.00108974
    Gval  0.00112134  0.00114434  0.00116295  0.00117079  0.00118126  0.00129971  0.00132705  0.00139733
    Gval  0.00162056  0.00166250  0.00179841  0.00195105  0.00208172  0.00266637  0.00269192  0.00302138
    Gval  0.00356300  0.00376490  0.00401387  0.00406173
  9.820668799578282E-007  9.820668799578282E-007
  2.815956144022719E-006  9.820668799578282E-007
  3.759813566264525E-006  9.820668799578282E-007
  6.880470943542526E-006  9.820668799578282E-007
  1.234618948168138E-005  9.820668799578282E-007
  1.485794306625818E-005  9.820668799578282E-007
  1.975896326620146E-005  9.820668799578282E-007
  2.407708233380978E-005  9.820668799578282E-007
  2.577027675771781E-005  9.820668799578282E-007
  3.003285852965850E-005  9.820668799578282E-007
  3.455836501722412E-005  9.820668799578282E-007
  3.681136064344262E-005  9.820668799578282E-007
  3.879958644914456E-005  9.820668799578282E-007
  4.671698990840552E-005  9.820668799578282E-007
  4.940329012566310E-005  9.820668799578282E-007
  5.392359740172025E-005  9.820668799578282E-007
  6.120681675580625E-005  9.820668799578282E-007
  6.391141589885591E-005  9.820668799578282E-007
  7.084561820594721E-005  9.820668799578282E-007
  7.861248235668182E-005  9.820668799578282E-007
  8.600032655130851E-005  9.820668799578282E-007
  9.234447316541353E-005  9.820668799578282E-007
  9.633756573157764E-005  9.820668799578282E-007
  1.040594540184374E-004  9.820668799578282E-007
  1.181435876342287E-004  9.820668799578282E-007
  1.230925118642260E-004  9.820668799578282E-007
  1.289356692298655E-004  9.820668799578282E-007
  1.347002575260713E-004  9.820668799578282E-007
  1.533889905458897E-004  9.820668799578282E-007
  1.593502567645451E-004  9.820668799578282E-007
  1.625330972244785E-004  9.820668799578282E-007
  1.861361323588098E-004  9.820668799578282E-007
  2.153558215584620E-004  9.820668799578282E-007
  2.426337967147950E-004  9.820668799578282E-007
  2.777520705777832E-004  9.820668799578282E-007
  2.811985589160670E-004  9.820668799578282E-007
  2.973854675648113E-004  9.820668799578282E-007
  2.993379375481198E-004  9.820668799578282E-007
  3.142353584150037E-004  9.820668799578282E-007
  3.484872655714568E-004  9.820668799578282E-007
  3.630081099711860E-004  9.820668799578282E-007
  3.803214837427555E-004  9.820668799578282E-007
  3.859175009952941E-004  9.820668799578282E-007
  3.950954540115662E-004  9.820668799578282E-007
  4.217899341047632E-004  9.820668799578282E-007
  4.392893775301059E-004  9.820668799578282E-007
  5.289242712026782E-004  9.820668799578282E-007
  5.834568607293102E-004  9.820668799578282E-007
  5.931408962086065E-004  9.820668799578282E-007
  5.967179394896769E-004  9.820668799578282E-007
  5.974499037084940E-004  9.820668799578282E-007
  6.168650220099782E-004  9.820668799578282E-007
  6.183065756218270E-004  9.820668799578282E-007
  6.241902199558551E-004  9.820668799578282E-007
  6.285779662459347E-004  9.820668799578282E-007
  6.546201427958087E-004  9.820668799578282E-007
  6.627873357807207E-004  9.820668799578282E-007
  8.568399097321147E-004  9.820668799578282E-007
  1.054015707225255E-003  9.820668799578282E-007
  1.081588751154792E-003  9.820668799578282E-007
  1.089741553132990E-003  9.820668799578282E-007
  1.121338783608029E-003  9.820668799578282E-007
  1.144344357394347E-003  9.820668799578282E-007
  1.162954588681328E-003  9.820668799578282E-007
  1.170786444997488E-003  9.820668799578282E-007
  1.181263902040041E-003  9.820668799578282E-007
  1.299710266752802E-003  9.820668799578282E-007
  1.327048567212184E-003  9.820668799578282E-007
  1.397333290298597E-003  9.820668799578282E-007
  1.620555521576932E-003  9.820668799578282E-007
  1.662500553605287E-003  9.820668799578282E-007
  1.798414647935201E-003  9.820668799578282E-007
  1.951051957081721E-003  9.820668799578282E-007
  2.081717802213875E-003  9.820668799578282E-007
  2.666366934742693E-003  9.820668799578282E-007
  2.691917166123802E-003  9.820668799578282E-007
  3.021377872387847E-003  9.820668799578282E-007
  3.563002607930247E-003  9.820668799578282E-007
  3.764895585757012E-003  9.820668799578282E-007
  4.013868030134636E-003  9.820668799578282E-007
  4.061734758177110E-003  9.820668799578282E-007
 cut=1d-8, nber non-redundant internal coords=          81
 Check on Eigenvals of non-red overlap matrix:
  0.00000098  0.00000282  0.00000376  0.00000688  0.00001235  0.00001486  0.00001976  0.00002408
  0.00002577  0.00003003  0.00003456  0.00003681  0.00003880  0.00004672  0.00004940  0.00005392
  0.00006121  0.00006391  0.00007085  0.00007861  0.00008600  0.00009234  0.00009634  0.00010406
  0.00011814  0.00012309  0.00012894  0.00013470  0.00015339  0.00015935  0.00016253  0.00018614
  0.00021536  0.00024263  0.00027775  0.00028120  0.00029739  0.00029934  0.00031424  0.00034849
  0.00036301  0.00038032  0.00038592  0.00039510  0.00042179  0.00043929  0.00052892  0.00058346
  0.00059314  0.00059672  0.00059745  0.00061687  0.00061831  0.00062419  0.00062858  0.00065462
  0.00066279  0.00085684  0.00105402  0.00108159  0.00108974  0.00112134  0.00114434  0.00116295
  0.00117079  0.00118126  0.00129971  0.00132705  0.00139733  0.00162056  0.00166250  0.00179841
  0.00195105  0.00208172  0.00266637  0.00269192  0.00302138  0.00356300  0.00376490  0.00401387
  0.00406173
 generating redundant internal coords
         300        3600          29
 search for int coords
   1 str   2   1   1.403
   2 str   3   2   1.390
   3 str   4   3   1.393
   4 str   5   4   1.751
   5 str   6   5   1.790
   6 str   7   6   1.445
   7 str   8   7   1.384
   8 str   9   8   1.405
   9 str  10   9   1.515
  10 str  11  10   1.515
  11 str  12  11   1.417
  12 str  13  12   1.370
  13 str  14  13   1.747
  14 str  15  11   1.384
  15 str  15  14   1.728
  16 str  16   9   1.388
  17 str  16  15   1.439
  18 str  17   7   1.765
  19 str  17  16   1.724
  20 str  18   6   1.299
  21 str  19   4   1.415
  22 str  19  18   1.377
  23 str  20   1   1.386
  24 str  20  19   1.402
  25 str  21   1   1.084
  26 str  22   2   1.084
  27 str  23   3   1.083
  28 str  24   8   1.081
  29 str  25  10   1.096
  30 str  26  10   1.096
  31 str  27  12   1.082
  32 str  28  13   1.079
  33 str  29  20   1.083
 nber stretches=          33
  34 ben   1   2   3
  35 prop tor   1   2   3   4
  36 prop tor   1   2   3  23
  37 ben   1   2  22
  38 ben   1  20  19
  39 ben   1  20  29
  40 ben   2   1  20
  41 prop tor   2   1  20  19
  42 prop tor   2   1  20  29
  43 ben   2   1  21
  44 ben   2   3   4
  45 prop tor   2   3   4   5
  46 prop tor   2   3   4  19
  47 ben   2   3  23
  48 ben   3   2  22
  49 ben   3   4   5
  50 prop tor   3   4   5   6
  51 ben   3   4  19
  52 prop tor   3   4  19  18
  53 prop tor   3   4  19  20
  54 ben   4   3  23
  55 ben   4   5   6
  56 prop tor   4   5   6   7
  57 prop tor   4   5   6  18
  58 ben   4  19  18
  59 ben   4  19  20
  60 prop tor   4  19  20   1
  61 prop tor   4  19  20  29
  62 ben   5   4  19
  63 prop tor   5   4  19  18
  64 prop tor   5   4  19  20
  65 ben   5   6   7
  66 prop tor   5   6   7   8
  67 prop tor   5   6   7  17
  68 ben   5   6  18
  69 prop tor   5   6  18  19
  70 ben   6   7   8
  71 prop tor   6   7   8   9
  72 prop tor   6   7   8  24
  73 ben   6   7  17
  74 prop tor   6   7  17  16
  75 ben   6  18  19
  76 prop tor   6  18  19   4
  77 prop tor   6  18  19  20
  78 ben   7   6  18
  79 prop tor   7   6  18  19
  80 ben   7   8   9
  81 prop tor   7   8   9  10
  82 prop tor   7   8   9  16
  83 ben   7   8  24
  84 ben   7  17  16
  85 ben   8   7  17
  86 prop tor   8   7  17  16
  87 ben   8   9  10
  88 prop tor   8   9  10  11
  89 prop tor   8   9  10  25
  90 prop tor   8   9  10  26
  91 ben   8   9  16
  92 prop tor   8   9  16  15
  93 prop tor   8   9  16  17
  94 ben   9   8  24
  95 ben   9  10  11
  96 prop tor   9  10  11  12
  97 prop tor   9  10  11  15
  98 ben   9  10  25
  99 ben   9  10  26
 100 ben   9  16  15
 101 ben   9  16  17
 102 prop tor   9  16  17   7
 103 ben  10   9  16
 104 prop tor  10   9  16  15
 105 prop tor  10   9  16  17
 106 ben  10  11  12
 107 prop tor  10  11  12  13
 108 prop tor  10  11  12  27
 109 ben  10  11  15
 110 prop tor  10  11  15  14
 111 prop tor  10  11  15  16
 112 ben  11  10  25
 113 ben  11  10  26
 114 ben  11  12  13
 115 prop tor  11  12  13  14
 116 prop tor  11  12  13  28
 117 ben  11  12  27
 118 ben  11  15  14
 119 ben  11  15  16
 120 prop tor  11  15  16   9
 121 prop tor  11  15  16  17
 122 ben  12  11  15
 123 prop tor  12  11  15  14
 124 prop tor  12  11  15  16
 125 ben  12  13  14
 126 prop tor  12  13  14  15
 127 ben  12  13  28
 128 ben  13  12  27
 129 ben  13  14  15
 130 prop tor  13  14  15  11
 131 prop tor  13  14  15  16
 132 ben  14  13  28
 133 ben  14  15  16
 134 prop tor  14  15  16   9
 135 prop tor  14  15  16  17
 136 prop tor  15  11  12  13
 137 prop tor  15  11  12  27
 138 ben  15  16  17
 139 prop tor  15  16  17   7
 140 prop tor  16   9  10  11
 141 prop tor  16   9  10  25
 142 prop tor  16   9  10  26
 143 prop tor  17   7   8   9
 144 prop tor  17   7   8  24
 145 prop tor  18   6   7   8
 146 prop tor  18   6   7  17
 147 ben  18  19  20
 148 prop tor  18  19  20   1
 149 prop tor  18  19  20  29
 150 prop tor  19   4   5   6
 151 ben  19  20  29
 152 prop tor  20   1   2   3
 153 prop tor  20   1   2  22
 154 ben  20   1  21
 155 prop tor  21   1   2   3
 156 prop tor  21   1   2  22
 157 prop tor  21   1  20  19
 158 prop tor  21   1  20  29
 159 prop tor  22   2   3   4
 160 prop tor  22   2   3  23
 161 prop tor  23   3   4   5
 162 prop tor  23   3   4  19
 163 prop tor  24   8   9  10
 164 prop tor  24   8   9  16
 165 prop tor  25  10  11  12
 166 prop tor  25  10  11  15
 167 ben  25  10  26
 168 prop tor  26  10  11  12
 169 prop tor  26  10  11  15
 170 prop tor  27  12  13  14
 171 prop tor  27  12  13  28
 172 prop tor  28  13  14  15
 nber bend=              55
 nber lin bend=           0
 nber prop tor=          84
 nber impr tor=           0
 nber tot redund int=         172
 Eigenvalues of G in red int coords
    Gval -0.00000000 -0.00000000 -0.00000000 -0.00000000 -0.00000000 -0.00000000 -0.00000000 -0.00000000
    Gval -0.00000000 -0.00000000 -0.00000000 -0.00000000 -0.00000000 -0.00000000 -0.00000000 -0.00000000
[...]
  14       190.  0.9758    95.2   100.8  14       192.
  15       216. -0.9989    99.8   101.0  15       217.
  16       232.  0.9738    94.8   100.8  16       252.
  17       253.  0.9034    81.6    99.7  17       264.
                 0.3881    15.1          19       316.
  18       290. -0.9990    99.8    99.4  18       288.
  19       294.  0.3748    14.0    98.3  17       264.
                -0.9004    81.1          19       316.
  20       396.  0.9957    99.1   100.1  20       400.
  21       412.  0.5406    29.2   102.9  21       435.
                 0.6512    42.4          23       467.
                 0.5140    26.4          24       492.
  22       428. -0.9923    98.5   100.0  22       436.
  23       435. -0.8324    69.3    99.9  21       435.
                 0.4947    24.5          23       467.
  24       453. -0.5471    29.9   100.5  23       467.
                 0.8141    66.3          24       492.
  25       494.  0.8657    75.0   100.2  25       496.
                -0.4891    23.9          26       509.
  26       500.  0.4861    23.6    99.7  25       496.
                 0.8627    74.4          26       509.
  27       521.  0.9565    91.5    99.8  27       553.
  28       549. -0.9171    84.1   100.4  29       579.
  29       551. -0.9528    90.8   101.1  28       571.
  30       563. -0.9329    87.0   100.7  30       581.
  31       579.  0.9416    88.7   100.6  31       605.
  32       585.  0.3192    10.2   100.3  29       579.
                 0.9027    81.5          32       615.
  33       622.  0.9523    90.7    99.8  34       656.
  34       625. -0.9465    89.6   100.2  33       637.
  35       670.  0.9888    97.8   100.1  36       702.
  36       672.  0.9544    91.1    98.9  35       691.
  37       697.  0.6734    45.3    99.7  37       714.
                 0.6828    46.6          38       716.
  38       705. -0.7195    51.8   100.0  37       714.
                 0.6727    45.3          38       716.
  39       724.  0.9973    99.5   100.4  39       736.
  40       765.  0.9959    99.2   100.4  40       771.
  41       793.  0.9573    91.6   100.4  41       812.
  42       813.  0.9532    90.9   100.6  42       834.
  43       819.  0.7681    59.0    99.6  44       874.
                 0.6097    37.2          45       884.
  44       852.  0.9908    98.2   100.4  43       866.
  45       871. -0.6185    38.3   100.7  44       874.
                 0.7787    60.6          45       884.
  46       911.  0.9713    94.3   100.9  46       925.
  47       937. -0.9825    96.5   100.1  48       949.
  48       937.  0.9669    93.5   101.9  49       955.
  49       949.  0.9849    97.0   100.0  47       941.
  50       974.  0.8643    74.7   100.4  51      1002.
                 0.4544    20.6          52      1024.
  51       980.  0.9885    97.7   100.2  50       988.
  52       992. -0.4578    21.0    99.1  51      1002.
                 0.8598    73.9          52      1024.
  53      1028.  0.9958    99.2   100.2  53      1038.
  54      1065. -0.9895    97.9   100.0  54      1079.
  55      1097. -0.9899    98.0   100.0  55      1110.
  56      1132.  0.4336    18.8   100.4  56      1143.
                 0.7696    59.2          60      1190.
  57      1146.  0.8923    79.6   100.1  56      1143.
                -0.3756    14.1          60      1190.
  58      1152. -0.9995    99.9   100.3  57      1151.
  59      1163. -0.9022    81.4   100.2  58      1166.
                -0.3439    11.8          61      1211.
  60      1182. -0.9700    94.1   100.0  59      1183.
  61      1208. -0.3215    10.3   100.1  60      1190.
                -0.8691    75.5          61      1211.
  62      1257. -0.9355    87.5   100.1  62      1267.
  63      1271. -0.7294    53.2    99.7  63      1275.
                 0.4339    18.8          66      1357.
                 0.3904    15.2          68      1415.
  64      1278. -0.5850    34.2   100.1  63      1275.
                 0.4816    23.2          64      1311.
                -0.4344    18.9          66      1357.
                -0.3641    13.3          68      1415.
  65      1327.  0.5049    25.5    99.8  64      1311.
                 0.5047    25.5          66      1357.
                -0.4132    17.1          67      1406.
                -0.3395    11.5          68      1415.
  66      1340. -0.3689    13.6    99.7  64      1311.
                 0.6887    47.4          65      1343.
                -0.4126    17.0          68      1415.
  67      1360.  0.3703    13.7    99.9  64      1311.
                 0.6459    41.7          65      1343.
                 0.3799    14.4          68      1415.
  68      1370. -0.4542    20.6    99.8  64      1311.
                 0.3566    12.7          70      1459.
                 0.5985    35.8          74      1520.
  69      1427.  0.4233    17.9   100.7  66      1357.
                -0.4088    16.7          69      1439.
                 0.3680    13.5          70      1459.
                -0.3599    13.0          71      1461.
  70      1443.  0.4664    21.8   100.1  67      1406.
                 0.5352    28.6          69      1439.
                 0.4823    23.3          75      1530.
  71      1458. -0.4392    19.3   100.2  67      1406.
                 0.3334    11.1          69      1439.
                 0.4100    16.8          70      1459.
                -0.5206    27.1          72      1470.
  72      1466. -0.4059    16.5   100.2  69      1439.
                -0.6690    44.8          71      1461.
                -0.3504    12.3          73      1488.
  73      1479.  0.4244    18.0   100.2  67      1406.
                -0.5679    32.3          73      1488.
                -0.4353    18.9          75      1530.
  74      1493. -0.3941    15.5   100.4  70      1459.
                -0.3363    11.3          71      1461.
                 0.5987    35.8          73      1488.
                -0.4148    17.2          75      1530.
                 0.3410    11.6          76      1546.
  75      1514. -0.3242    10.5   100.7  75      1530.
                -0.6174    38.1          76      1546.
  76      1534. -0.3685    13.6   101.1  70      1459.
                -0.6291    39.6          72      1470.
                 0.5213    27.2          74      1520.
  77      1564. -0.9422    88.8   100.0  77      1596.
  78      1612.  0.9618    92.5   100.2  78      1635.
  79      3006.  0.9999   100.0   100.0  79      3031.
  80      3026. -0.9999   100.0   100.0  80      3059.
  81      3167. -0.9932    98.6   100.0  81      3168.
  82      3178. -0.9911    98.2   100.0  82      3180.
  83      3190. -0.9930    98.6   100.0  83      3191.
  84      3198. -0.9950    99.0   100.0  84      3198.
  85      3198. -0.9978    99.6   100.0  85      3201.
  86      3228.  0.9999   100.0   100.0  86      3221.
  87      3243.  0.9999   100.0   100.0  87      3246.
 nber times 1st assigned=           1           0
 nber times 1st assigned=           2           0
 nber times 1st assigned=           3           0
 nber times 1st assigned=           4           0
 nber times 1st assigned=           5           0
 nber times 1st assigned=           6           0
 nber times 1st assigned=           7           0
 nber times 1st assigned=           8           0
 nber times 1st assigned=           9           0
 nber times 1st assigned=          10           0
 nber times 1st assigned=          11           0
 nber times 1st assigned=          12           0
 nber times 1st assigned=          13           0
 nber times 1st assigned=          14           0
 nber times 1st assigned=          15           0
 nber times 1st assigned=          16           0
 nber times 1st assigned=          17           0
 nber times 1st assigned=          18           0
 nber times 1st assigned=          19           0
 nber times 1st assigned=          20           0
 nber times 1st assigned=          21           0
 nber times 1st assigned=          22           0
 nber times 1st assigned=          23           0
 nber times 1st assigned=          24           0
 nber times 1st assigned=          25           0
 nber times 1st assigned=          26           0
 nber times 1st assigned=          27           0
 nber times 1st assigned=          28           0
 nber times 1st assigned=          29           0
 nber times 1st assigned=          30           0
 nber times 1st assigned=          31           0
 nber times 1st assigned=          32           0
 nber times 1st assigned=          33           0
 nber times 1st assigned=          34           0
 nber times 1st assigned=          35           0
 nber times 1st assigned=          36           0
 nber times 1st assigned=          37           0
 nber times 1st assigned=          38           0
 nber times 1st assigned=          39           0
 nber times 1st assigned=          40           0
 nber times 1st assigned=          41           0
 nber times 1st assigned=          42           0
 nber times 1st assigned=          43           0
 nber times 1st assigned=          44           0
 nber times 1st assigned=          45           0
 nber times 1st assigned=          46           0
 nber times 1st assigned=          47           0
 nber times 1st assigned=          48           0
 nber times 1st assigned=          49           0
 nber times 1st assigned=          50           0
 nber times 1st assigned=          51           0
 nber times 1st assigned=          52           0
 nber times 1st assigned=          53           0
 nber times 1st assigned=          54           0
 nber times 1st assigned=          55           0
 nber times 1st assigned=          56           0
 nber times 1st assigned=          57           0
 nber times 1st assigned=          58           0
 nber times 1st assigned=          59           0
 nber times 1st assigned=          60           0
 nber times 1st assigned=          61           0
 nber times 1st assigned=          62           0
 nber times 1st assigned=          63           0
 nber times 1st assigned=          64           0
 nber times 1st assigned=          65           0
 nber times 1st assigned=          66           0
 nber times 1st assigned=          67           0
 nber times 1st assigned=          68           0
 nber times 1st assigned=          69           0
 nber times 1st assigned=          70           0
 nber times 1st assigned=          71           0
 nber times 1st assigned=          72           0
 nber times 1st assigned=          73           0
 nber times 1st assigned=          74           0
 nber times 1st assigned=          75           0
 nber times 1st assigned=          76           0
 nber times 1st assigned=          77           0
 nber times 1st assigned=          78           0
 nber times 1st assigned=          79           0
 nber times 1st assigned=          80           0
 nber times 1st assigned=          81           0
 nber times 1st assigned=          82           0
 nber times 1st assigned=          83           0
 nber times 1st assigned=          84           0
 nber times 1st assigned=          85           0
 nber times 1st assigned=          86           0
 nber times 1st assigned=          87           0
 modes represented=   81.1966101750112     
 p1=
    0.   -0.   -0.   -0.   -0.   -0.   -0.   -1.    5.    0.    0.   -0.   11.    0.  -13.    0.    0.    3.    0.    1.
   -0.   -0.   -0.    0.   -2.   -3.   -0.    0.    5.    1.   -9.    0.   -3.   -0.   -0.   -1.   -0.    2.    0.   -0.
   -0.   -1.    0.    0.   -0.   -2.    0.   -0.   -0.   -1.   -0.    0.   -0.   -1.   -0.    2.   -2.   -0.   -0.    0.
   -1.   -0.   -2.    2.   -0.    1.    1.   -3.   -1.   -1.   -1.   -0.    3.   -1.   -5.    1.   -1.    0.   -0.   -0.
   -0.    0.   -0.    0.    0.   -0.    0.
 p2=
    0.   -0.    0.    0.   -0.    0.    1.    0.   -5.    0.    0.   10.    0.   -0.  -13.   -0.   -0.    3.    0.   -0.
    0.   -0.    0.   -0.    2.    2.    0.    2.    0.    2.   10.   -0.    0.    3.    2.    0.    1.   -0.   -0.    0.
    0.    1.   -0.   -0.   -0.    1.   -0.   -0.    1.    0.    1.    1.    0.   -1.   -0.    1.    0.   -0.    0.   -2.
    0.   -0.   -1.   -2.   -2.    2.   -2.    3.    2.    1.   -3.    3.    1.    1.   -1.   -3.   -1.    0.    0.   -0.
   -0.    0.    0.    0.    0.    0.   -0.

 Displacement: in terms of nc of 1 THEN of nc of 2

   1     freq=    -0. Q=  0.000 lam=    -0.0     freq=    -0. Q=  0.000 lam=    -0.0
   2     freq=     0. Q= -0.000 lam=     0.0     freq=    -0. Q= -0.000 lam=    -0.0
   3     freq=     0. Q= -0.000 lam=     0.0     freq=    -0. Q= -0.000 lam=    -0.0
   4     freq=     0. Q= -0.000 lam=     0.0     freq=     0. Q= -0.000 lam=     0.0
   5     freq=     0. Q= -0.000 lam=     0.0     freq=     0. Q= -0.000 lam=     0.0
   6     freq=     0. Q= -0.000 lam=     0.0     freq=     0. Q= -0.000 lam=     0.0
   7     freq=    25. Q= -0.001 lam=     0.0     freq=    24. Q= -0.011 lam=     0.0
   8     freq=    50. Q= -0.017 lam=     0.0     freq=    34. Q= -0.005 lam=     0.0
   9     freq=    54. Q=  0.161 lam=     0.7     freq=    58. Q=  0.161 lam=     0.7
  10     freq=    71. Q=  0.002 lam=     0.0     freq=    89. Q=  0.002 lam=     0.0
  11     freq=   127. Q=  0.003 lam=     0.0     freq=   142. Q=  0.003 lam=     0.0
  12     freq=   150. Q= -0.003 lam=     0.0     freq=   168. Q= -0.543 lam=    24.8
  13     freq=   167. Q=  0.571 lam=    27.1     freq=   171. Q=  0.002 lam=     0.0
  14     freq=   190. Q=  0.004 lam=     0.0     freq=   192. Q=  0.001 lam=     0.0
  15     freq=   216. Q= -0.774 lam=    64.8     freq=   217. Q= -0.797 lam=    69.0
  16     freq=   232. Q=  0.003 lam=     0.0     freq=   252. Q=  0.005 lam=     0.0
  17     freq=   253. Q=  0.002 lam=     0.0     freq=   264. Q=  0.003 lam=     0.0
  18     freq=   290. Q=  0.178 lam=     4.6     freq=   288. Q=  0.172 lam=     4.3
  19     freq=   294. Q=  0.002 lam=     0.0     freq=   316. Q=  0.002 lam=     0.0
  20     freq=   396. Q=  0.041 lam=     0.3     freq=   400. Q=  0.033 lam=     0.2
  21     freq=   412. Q= -0.002 lam=     0.0     freq=   435. Q= -0.001 lam=     0.0
  22     freq=   428. Q= -0.009 lam=     0.0     freq=   436. Q= -0.015 lam=     0.1
  23     freq=   435. Q= -0.001 lam=     0.0     freq=   467. Q= -0.002 lam=     0.0
  24     freq=   453. Q=  0.000 lam=     0.0     freq=   492. Q=  0.001 lam=     0.0
  25     freq=   494. Q= -0.172 lam=     7.3     freq=   496. Q= -0.218 lam=    11.8
  26     freq=   500. Q= -0.244 lam=    14.9     freq=   509. Q= -0.203 lam=    10.5
  27     freq=   521. Q= -0.001 lam=     0.0     freq=   553. Q= -0.001 lam=     0.0
  28     freq=   549. Q=  0.002 lam=     0.0     freq=   571. Q=  0.208 lam=    12.3
  29     freq=   551. Q=  0.437 lam=    52.5     freq=   579. Q=  0.001 lam=     0.0
  30     freq=   563. Q=  0.067 lam=     1.3     freq=   581. Q=  0.167 lam=     8.1
  31     freq=   579. Q= -0.891 lam=   229.7     freq=   605. Q= -0.949 lam=   272.7
  32     freq=   585. Q=  0.003 lam=     0.0     freq=   615. Q=  0.003 lam=     0.0
  33     freq=   622. Q= -0.252 lam=    19.7     freq=   637. Q= -0.000 lam=     0.0
  34     freq=   625. Q= -0.003 lam=     0.0     freq=   656. Q= -0.335 lam=    36.8
  35     freq=   670. Q= -0.001 lam=     0.0     freq=   691. Q= -0.230 lam=    18.3
  36     freq=   672. Q= -0.139 lam=     6.5     freq=   702. Q= -0.001 lam=     0.0
  37     freq=   697. Q= -0.050 lam=     0.9     freq=   714. Q= -0.136 lam=     6.6
  38     freq=   705. Q=  0.167 lam=     9.9     freq=   716. Q=  0.039 lam=     0.5
  39     freq=   724. Q=  0.000 lam=     0.0     freq=   736. Q=  0.000 lam=     0.0
  40     freq=   765. Q= -0.000 lam=     0.0     freq=   771. Q= -0.000 lam=     0.0
  41     freq=   793. Q= -0.027 lam=     0.3     freq=   812. Q= -0.004 lam=     0.0
  42     freq=   813. Q= -0.094 lam=     3.6     freq=   834. Q= -0.087 lam=     3.2
  43     freq=   819. Q=  0.001 lam=     0.0     freq=   866. Q=  0.000 lam=     0.0
  44     freq=   852. Q=  0.000 lam=     0.0     freq=   874. Q=  0.000 lam=     0.0
  45     freq=   871. Q= -0.000 lam=     0.0     freq=   884. Q= -0.000 lam=     0.0
  46     freq=   911. Q= -0.203 lam=    18.8     freq=   925. Q= -0.177 lam=    14.5
  47     freq=   937. Q=  0.000 lam=     0.0     freq=   941. Q=  0.000 lam=     0.0
  48     freq=   937. Q= -0.061 lam=     1.7     freq=   949. Q= -0.000 lam=     0.0
  49     freq=   949. Q= -0.000 lam=     0.0     freq=   955. Q= -0.132 lam=     8.3
  50     freq=   974. Q= -0.131 lam=     8.3     freq=   988. Q= -0.000 lam=     0.0
  51     freq=   980. Q= -0.000 lam=     0.0     freq=  1002. Q= -0.133 lam=     8.9
  52     freq=   992. Q=  0.037 lam=     0.7     freq=  1024. Q=  0.126 lam=     8.2
  53     freq=  1028. Q= -0.048 lam=     1.2     freq=  1038. Q= -0.032 lam=     0.5
  54     freq=  1065. Q= -0.141 lam=    10.6     freq=  1079. Q= -0.163 lam=    14.3
  55     freq=  1097. Q= -0.015 lam=     0.1     freq=  1110. Q= -0.032 lam=     0.6
  56     freq=  1132. Q=  0.305 lam=    52.5     freq=  1143. Q=  0.134 lam=    10.2
  57     freq=  1146. Q= -0.242 lam=    33.6     freq=  1151. Q= -0.000 lam=     0.0
  58     freq=  1152. Q= -0.000 lam=     0.0     freq=  1166. Q= -0.019 lam=     0.2
  59     freq=  1163. Q= -0.012 lam=     0.1     freq=  1183. Q= -0.012 lam=     0.1
  60     freq=  1182. Q=  0.059 lam=     2.1     freq=  1190. Q=  0.231 lam=    31.7
  61     freq=  1208. Q= -0.117 lam=     8.3     freq=  1211. Q= -0.037 lam=     0.8
  62     freq=  1257. Q= -0.045 lam=     1.3     freq=  1267. Q= -0.030 lam=     0.6
  63     freq=  1271. Q= -0.234 lam=    34.9     freq=  1275. Q= -0.182 lam=    21.1
  64     freq=  1278. Q=  0.240 lam=    36.8     freq=  1311. Q=  0.345 lam=    77.9
  65     freq=  1327. Q= -0.060 lam=     2.4     freq=  1343. Q= -0.274 lam=    50.5
  66     freq=  1340. Q=  0.106 lam=     7.5     freq=  1357. Q=  0.329 lam=    73.4
  67     freq=  1360. Q=  0.171 lam=    19.9     freq=  1406. Q=  0.360 lam=    91.2
  68     freq=  1370. Q= -0.459 lam=   144.0     freq=  1415. Q= -0.410 lam=   119.0
  69     freq=  1427. Q= -0.128 lam=    11.6     freq=  1439. Q= -0.259 lam=    48.1
  70     freq=  1443. Q= -0.110 lam=     8.7     freq=  1459. Q= -0.150 lam=    16.3
  71     freq=  1458. Q= -0.193 lam=    27.3     freq=  1461. Q= -0.527 lam=   202.7
  72     freq=  1466. Q= -0.057 lam=     2.4     freq=  1470. Q= -0.401 lam=   118.5
  73     freq=  1479. Q=  0.459 lam=   155.9     freq=  1488. Q=  0.103 lam=     7.9
  74     freq=  1493. Q= -0.169 lam=    21.2     freq=  1520. Q= -0.080 lam=     4.9
  75     freq=  1514. Q= -0.788 lam=   470.1     freq=  1530. Q= -0.127 lam=    12.4
  76     freq=  1534. Q=  0.188 lam=    27.2     freq=  1546. Q=  0.529 lam=   216.5
  77     freq=  1564. Q= -0.115 lam=    10.3     freq=  1596. Q= -0.092 lam=     6.8
  78     freq=  1612. Q=  0.066 lam=     3.5     freq=  1635. Q=  0.009 lam=     0.1
  79     freq=  3006. Q= -0.005 lam=     0.0     freq=  3031. Q= -0.011 lam=     0.2
  80     freq=  3026. Q= -0.000 lam=     0.0     freq=  3059. Q= -0.000 lam=     0.0
  81     freq=  3167. Q= -0.003 lam=     0.0     freq=  3168. Q= -0.002 lam=     0.0
  82     freq=  3178. Q=  0.002 lam=     0.0     freq=  3180. Q=  0.002 lam=     0.0
  83     freq=  3190. Q= -0.000 lam=     0.0     freq=  3191. Q= -0.000 lam=     0.0
  84     freq=  3198. Q=  0.004 lam=     0.0     freq=  3198. Q=  0.005 lam=     0.0
  85     freq=  3198. Q=  0.001 lam=     0.0     freq=  3201. Q=  0.001 lam=     0.0
  86     freq=  3228. Q= -0.016 lam=     0.4     freq=  3221. Q= -0.016 lam=     0.4
  87     freq=  3243. Q=  0.003 lam=     0.0     freq=  3246. Q=  0.002 lam=     0.0

 total reorg energy (cm**-1, kcal/mol)=     1568.     1647.      4.48      4.71
 Nber of molecules processed=           2
