 Enter ifcurve (0=recti, 1=orth curvi, 2=apprx curvi, -1 = skip
 And atom ordering flag, 0= never changes, 1= use the first order thenceforth,
  2= deduce it (does read on fail), 3= always read it
 Reading file: 
 ./Circulene_0_C0S0.log                                                         
                                          
  Entering Gaussian System, Link 0=g16                                          
  
 Gaussian format, type: g94, g98, g03= F F F
  #P Geom=AllCheck Guess=TCheck SCRF=Check GenChk RB3LYP/6-311G(d,p) Fre    
 energy type= B3LYP   
 Original G94 input coords:
  6  2.360186 -0.970145  0.000000
  6  3.360224  0.095448  0.000000
  6  3.029547  1.457044  0.000000
  6  1.652099  1.945124  0.000000
  6  0.947621  3.225385  0.000000
  6 -0.449558  3.331529  0.000000
  6 -1.339304  2.172370  0.000000
  6 -2.774676  1.897946  0.000000
  6 -3.307282  0.601962  0.000000
  6 -2.479730 -0.602537  0.000000
  6 -1.153918 -0.280317  0.000000
  6 -0.089917 -1.184006  0.000000
  6  1.098327 -0.451374  0.000000
  6  0.768796  0.905156  0.000000
  6 -0.623208  1.010878  0.000000
  6 -0.193248 -2.544680  0.000000
  6 -1.594405 -2.959589  0.000000
  6 -2.662330 -2.052399  0.000000
  6  1.129094 -3.166559  0.000000
  6  2.321660 -2.430971  0.000000
  1  4.416102 -0.156064  0.000000
  1  3.852402  2.164874  0.000000
  1  1.512970  4.151915  0.000000
  1 -0.868515  4.332821  0.000000
  1 -3.481157  2.721967  0.000000
  1 -4.389031  0.512885  0.000000
  1 -1.844039 -4.015900  0.000000
  1 -3.664326 -2.469696  0.000000
  1  1.216402 -4.248336  0.000000
  1  3.249214 -2.994730  0.000000
 nber atoms=          30
 Original standard coords:
  6  0.788630  2.426880  0.000000
  6 -0.349638  3.343348  0.000000
  6 -1.682282  2.910505  0.000000
  6 -2.064643  1.500050  0.000000
  6 -3.287877  0.700638  0.000000
  6 -3.287906 -0.700566  0.000000
  6 -2.064694 -1.499973  0.000000
  6 -1.682355 -2.910440  0.000000
  6 -0.349758 -3.343370  0.000000
  6  0.788610 -2.426977  0.000000
  6  0.366910 -1.129374  0.000000
  6  1.187426  0.000009  0.000000
  6  0.366910  1.129358  0.000000
  6 -0.960768  0.698041  0.000000
  6 -0.960768 -0.697971  0.000000
  6  2.552017  0.000021  0.000000
  6  3.071847 -1.365691  0.000000
  6  2.248137 -2.499252  0.000000
  6  3.071967  1.365661  0.000000
  6  2.248177  2.499095  0.000000
  1 -0.178812  4.415240  0.000000
  1 -2.450395  3.677392  0.000000
  1 -4.254561  1.194197  0.000000
  1 -4.254594 -1.194150  0.000000
  1 -2.450507 -3.677297  0.000000
  1 -0.179014 -4.415267  0.000000
  1  4.144029 -1.534612  0.000000
  1  2.740119 -3.466768  0.000000
  1  4.144026  1.534643  0.000000
  1  2.740073  3.466680  0.000000
  SCF Done:  E(RB3LYP) =  -768.298943943     A.U. after    1 cycles             
  
          23          40 "  -768.298943943"
After scan for Atom:   Atom  AN      X      Y      Z        X      Y      Z        X      Y      Z   
After scan for Atom:   Atom  AN      X      Y      Z        X      Y      Z        X      Y      Z   
After scan for Atom:   Atom  AN      X      Y      Z        X      Y      Z        X      Y      Z   
After scan for Atom:   Atom  AN      X      Y      Z        X      Y      Z        X      Y      Z   
After scan for Atom:   Atom  AN      X      Y      Z        X      Y      Z        X      Y      Z   
After scan for Atom:   Atom  AN      X      Y      Z        X      Y      Z        X      Y      Z   
After scan for Atom:   Atom  AN      X      Y      Z        X      Y      Z        X      Y      Z   
After scan for Atom:   Atom  AN      X      Y      Z        X      Y      Z        X      Y      Z   
After scan for Atom:   Atom  AN      X      Y      Z        X      Y      Z        X      Y      Z   
After scan for Atom:   Atom  AN      X      Y      Z        X      Y      Z        X      Y      Z   
After scan for Atom:   Atom  AN      X      Y      Z        X      Y      Z        X      Y      Z   
After scan for Atom:   Atom  AN      X      Y      Z        X      Y      Z        X      Y      Z   
After scan for Atom:   Atom  AN      X      Y      Z        X      Y      Z        X      Y      Z   
After scan for Atom:   Atom  AN      X      Y      Z        X      Y      Z        X      Y      Z   
After scan for Atom:   Atom  AN      X      Y      Z        X      Y      Z        X      Y      Z   
After scan for Atom:   Atom  AN      X      Y      Z        X      Y      Z        X      Y      Z   
After scan for Atom:   Atom  AN      X      Y      Z        X      Y      Z        X      Y      Z   
After scan for Atom:   Atom  AN      X      Y      Z        X      Y      Z        X      Y      Z   
After scan for Atom:   Atom  AN      X      Y      Z        X      Y      Z        X      Y      Z   
After scan for Atom:   Atom  AN      X      Y      Z        X      Y      Z        X      Y      Z   
After scan for Atom:   Atom  AN      X      Y      Z        X      Y      Z        X      Y      Z   
After scan for Atom:   Atom  AN      X      Y      Z        X      Y      Z        X      Y      Z   
After scan for Atom:   Atom  AN      X      Y      Z        X      Y      Z        X      Y      Z   
After scan for Atom:   Atom  AN      X      Y      Z        X      Y      Z        X      Y      Z   
After scan for Atom:   Atom  AN      X      Y      Z        X      Y      Z        X      Y      Z   
After scan for Atom:   Atom  AN      X      Y      Z        X      Y      Z        X      Y      Z   
After scan for Atom:   Atom  AN      X      Y      Z        X      Y      Z        X      Y      Z   
After scan for Atom:   Atom  AN      X      Y      Z        X      Y      Z        X      Y      Z   
 g94    frequencies=
     0.0    0.0    0.0    0.0    0.0    0.0 -114.7  156.3  156.3  286.2
   286.3  305.0  305.0  388.9  389.0  434.0  434.1  452.6  452.7  552.6
   554.9  558.5  562.0  562.0  614.1  614.1  614.2  614.2  659.9  676.4
   676.5  750.9  750.9  770.0  770.1  830.5  830.6  839.3  839.3  847.9
   869.2  869.2  953.5  957.8  962.6  962.8  969.7  969.7 1034.5 1093.4
  1093.4 1139.9 1140.0 1158.7 1158.7 1161.2 1161.3 1201.1 1201.2 1231.3
  1239.9 1320.0 1320.1 1365.8 1365.8 1411.2 1411.3 1433.4 1433.5 1449.0
  1450.1 1450.2 1479.7 1518.2 1518.3 1718.3 1718.6 1721.2 1721.3 1741.0
  3153.8 3154.2 3154.3 3154.5 3154.7 3171.0 3171.1 3171.6 3171.8 3172.9
 g94    symmetries=
                                                A"     A"     A"     A"
      A"     A"     A"     A'     A'     A'     A'     A"     A"     A"
      A'     A"     A'     A'     A'     A'     A"     A"     A'     A"
      A"     A'     A'     A"     A"     A"     A"     A"     A"     A"
      A'     A'     A'     A"     A"     A"     A"     A"     A'     A'
      A'     A'     A'     A'     A'     A'     A'     A'     A'     A'
      A'     A'     A'     A'     A'     A'     A'     A'     A'     A'
      A'     A'     A'     A'     A'     A'     A'     A'     A'     A'
      A'     A'     A'     A'     A'     A'     A'     A'     A'     A'
 atomic masses:
 12.0000 12.0000 12.0000 12.0000 12.0000 12.0000 12.0000 12.0000 12.0000 12.0000
 12.0000 12.0000 12.0000 12.0000 12.0000 12.0000 12.0000 12.0000 12.0000 12.0000
  1.0078  1.0078  1.0078  1.0078  1.0078  1.0078  1.0078  1.0078  1.0078  1.0078
 looking for force constants in 
 ./Circulene_0_C0S0.fchk                                                        
  
 Cartesian Force Constants                  R   N=        4095                  
  
 n3=          90        4095
 g94-fc frequencies=
  -114.7   -0.0   -0.0    0.0    3.1    3.4    3.6  156.3  156.3  286.2
   286.3  305.0  305.0  388.9  389.0  434.1  434.1  452.6  452.7  552.6
   554.9  558.5  562.0  562.0  614.1  614.1  614.2  614.2  659.9  676.4
   676.5  750.9  750.9  770.0  770.1  830.5  830.6  839.3  839.3  847.9
   869.2  869.2  953.5  957.8  962.7  962.8  969.7  969.7 1034.5 1093.4
  1093.4 1140.0 1140.0 1158.7 1158.7 1161.2 1161.3 1201.2 1201.3 1231.3
  1239.9 1320.1 1320.2 1365.8 1365.9 1411.3 1411.3 1433.5 1433.5 1449.1
  1450.2 1450.3 1479.7 1518.3 1518.3 1718.4 1718.7 1721.2 1721.3 1741.0
  3153.8 3154.3 3154.4 3154.5 3154.7 3171.1 3171.2 3171.7 3171.9 3172.9
 at 99999: n3=          90
 symm operator            1 :  F  nop=           0
 symm operator            2 :  F  nop=           0
 symm operator            3 :  F  nop=           0
 symm operator            4 :  F  nop=           0
 symm operator            5 :  T  nop=           1
 symm operator            6 :  F  nop=           1
 symm operator            7 :  F  nop=           1
 The point group of the molecule is  CS
 enforcing symm op           5  jsymt=           1           1          -1
 cartesian coord symmetries:
 A' :   60 A" :   30
 Symmetry rotation matrix:
   1.00000   0.00000   0.00000
   0.00000   1.00000   0.00000
   0.00000   0.00000   1.00000

 Projecting out zero-frequency components
 generating redundant internal coords
         300        3600          30
 search for int coords
   1 str   2   1   1.461
   2 str   3   2   1.401
   3 str   4   3   1.461
   4 str   5   4   1.461
   5 str   6   5   1.401
   6 str   7   6   1.461
   7 str   8   7   1.461
   8 str   9   8   1.401
   9 str  10   9   1.461
  10 str  11  10   1.364
  11 str  12  11   1.396
  12 str  13   1   1.364
  13 str  13  12   1.396
  14 str  14   4   1.364
  15 str  14  13   1.396
  16 str  15   7   1.364
  17 str  15  11   1.396
  18 str  15  14   1.396
  19 str  16  12   1.365
  20 str  17  16   1.461
  21 str  18  10   1.461
  22 str  18  17   1.401
  23 str  19  16   1.461
  24 str  20   1   1.461
  25 str  20  19   1.401
  26 str  21   2   1.085
  27 str  22   3   1.085
  28 str  23   5   1.085
  29 str  24   6   1.085
  30 str  25   8   1.085
  31 str  26   9   1.085
  32 str  27  17   1.085
  33 str  28  18   1.085
  34 str  29  19   1.085
  35 str  30  20   1.085
 nber stretches=          35
  36 ben   1   2   3
  37 prop tor   1   2   3   4
  38 prop tor   1   2   3  22
  39 ben   1   2  21
  40 ben   1  13  12
  41 ben   1  13  14
  42 prop tor   1  13  14   4
  43 prop tor   1  13  14  15
  44 ben   1  20  19
  45 ben   1  20  30
  46 ben   2   1  13
  47 prop tor   2   1  13  12
  48 prop tor   2   1  13  14
  49 ben   2   1  20
  50 prop tor   2   1  20  19
  51 prop tor   2   1  20  30
  52 ben   2   3   4
  53 prop tor   2   3   4   5
  54 prop tor   2   3   4  14
  55 ben   2   3  22
  56 ben   3   2  21
  57 ben   3   4   5
  58 prop tor   3   4   5   6
  59 prop tor   3   4   5  23
  60 ben   3   4  14
  61 prop tor   3   4  14  13
  62 prop tor   3   4  14  15
  63 ben   4   3  22
  64 ben   4   5   6
  65 prop tor   4   5   6   7
  66 prop tor   4   5   6  24
  67 ben   4   5  23
  68 ben   4  14  13
  69 ben   4  14  15
  70 prop tor   4  14  15   7
  71 prop tor   4  14  15  11
  72 ben   5   4  14
  73 prop tor   5   4  14  13
  74 prop tor   5   4  14  15
  75 ben   5   6   7
  76 prop tor   5   6   7   8
  77 prop tor   5   6   7  15
  78 ben   5   6  24
  79 ben   6   5  23
  80 ben   6   7   8
  81 prop tor   6   7   8   9
  82 prop tor   6   7   8  25
  83 ben   6   7  15
  84 prop tor   6   7  15  11
  85 prop tor   6   7  15  14
  86 ben   7   6  24
  87 ben   7   8   9
  88 prop tor   7   8   9  10
  89 prop tor   7   8   9  26
  90 ben   7   8  25
  91 ben   7  15  11
  92 ben   7  15  14
  93 ben   8   7  15
  94 prop tor   8   7  15  11
  95 prop tor   8   7  15  14
  96 ben   8   9  10
  97 prop tor   8   9  10  11
  98 prop tor   8   9  10  18
  99 ben   8   9  26
 100 ben   9   8  25
 101 ben   9  10  11
 102 prop tor   9  10  11  12
 103 prop tor   9  10  11  15
 104 ben   9  10  18
 105 prop tor   9  10  18  17
 106 prop tor   9  10  18  28
 107 ben  10   9  26
 108 ben  10  11  12
 109 prop tor  10  11  12  13
 110 prop tor  10  11  12  16
 111 ben  10  11  15
 112 prop tor  10  11  15   7
 113 prop tor  10  11  15  14
 114 ben  10  18  17
 115 ben  10  18  28
 116 ben  11  10  18
 117 prop tor  11  10  18  17
 118 prop tor  11  10  18  28
 119 ben  11  12  13
 120 prop tor  11  12  13   1
 121 prop tor  11  12  13  14
 122 ben  11  12  16
 123 prop tor  11  12  16  17
 124 prop tor  11  12  16  19
 125 ben  11  15  14
 126 ben  12  11  15
 127 prop tor  12  11  15   7
 128 prop tor  12  11  15  14
 129 ben  12  13  14
 130 prop tor  12  13  14   4
 131 prop tor  12  13  14  15
 132 ben  12  16  17
 133 prop tor  12  16  17  18
 134 prop tor  12  16  17  27
 135 ben  12  16  19
 136 prop tor  12  16  19  20
 137 prop tor  12  16  19  29
 138 prop tor  13   1   2   3
 139 prop tor  13   1   2  21
 140 ben  13   1  20
 141 prop tor  13   1  20  19
 142 prop tor  13   1  20  30
 143 ben  13  12  16
 144 prop tor  13  12  16  17
 145 prop tor  13  12  16  19
 146 ben  13  14  15
 147 prop tor  13  14  15   7
 148 prop tor  13  14  15  11
 149 prop tor  14   4   5   6
 150 prop tor  14   4   5  23
 151 prop tor  15   7   8   9
 152 prop tor  15   7   8  25
 153 prop tor  15  11  12  13
 154 prop tor  15  11  12  16
 155 prop tor  16  12  13   1
 156 prop tor  16  12  13  14
 157 ben  16  17  18
 158 prop tor  16  17  18  10
 159 prop tor  16  17  18  28
 160 ben  16  17  27
 161 ben  16  19  20
 162 prop tor  16  19  20   1
 163 prop tor  16  19  20  30
 164 ben  16  19  29
 165 ben  17  16  19
 166 prop tor  17  16  19  20
 167 prop tor  17  16  19  29
 168 ben  17  18  28
 169 prop tor  18  10  11  12
 170 prop tor  18  10  11  15
 171 ben  18  17  27
 172 prop tor  19  16  17  18
 173 prop tor  19  16  17  27
 174 ben  19  20  30
 175 prop tor  20   1   2   3
 176 prop tor  20   1   2  21
 177 prop tor  20   1  13  12
 178 prop tor  20   1  13  14
 179 ben  20  19  29
 180 prop tor  21   2   3   4
 181 prop tor  21   2   3  22
 182 prop tor  22   3   4   5
 183 prop tor  22   3   4  14
 184 prop tor  23   5   6   7
 185 prop tor  23   5   6  24
 186 prop tor  24   6   7   8
 187 prop tor  24   6   7  15
 188 prop tor  25   8   9  10
 189 prop tor  25   8   9  26
 190 prop tor  26   9  10  11
 191 prop tor  26   9  10  18
 192 prop tor  27  17  18  10
 193 prop tor  27  17  18  28
 194 prop tor  29  19  20   1
 195 prop tor  29  19  20  30
 nber bend=              60
 nber lin bend=           0
 nber prop tor=         100
 nber impr tor=           0
 nber tot redund int=         195
 Eigenvalues of G in red int coords
    Gval -0.00000000 -0.00000000 -0.00000000 -0.00000000 -0.00000000 -0.00000000 -0.00000000 -0.00000000
    Gval -0.00000000 -0.00000000 -0.00000000 -0.00000000 -0.00000000 -0.00000000 -0.00000000 -0.00000000
    Gval -0.00000000 -0.00000000 -0.00000000 -0.00000000 -0.00000000 -0.00000000 -0.00000000 -0.00000000
    Gval -0.00000000 -0.00000000 -0.00000000 -0.00000000 -0.00000000 -0.00000000 -0.00000000 -0.00000000
    Gval -0.00000000 -0.00000000 -0.00000000 -0.00000000 -0.00000000 -0.00000000 -0.00000000 -0.00000000
    Gval -0.00000000 -0.00000000 -0.00000000 -0.00000000 -0.00000000 -0.00000000 -0.00000000 -0.00000000
    Gval -0.00000000 -0.00000000 -0.00000000 -0.00000000 -0.00000000 -0.00000000 -0.00000000 -0.00000000
    Gval -0.00000000  0.00000000  0.00000000  0.00000000  0.00000000  0.00000000  0.00000000  0.00000000
    Gval  0.00000000  0.00000000  0.00000000  0.00000000  0.00000000  0.00000000  0.00000000  0.00000000
    Gval  0.00000000  0.00000000  0.00000000  0.00000000  0.00000000  0.00000000  0.00000000  0.00000000
    Gval  0.00000000  0.00000000  0.00000000  0.00000000  0.00000000  0.00000000  0.00000000  0.00000000
    Gval  0.00000000  0.00000000  0.00000000  0.00000000  0.00000000  0.00000000  0.00000000  0.00000000
    Gval  0.00000000  0.00000000  0.00000000  0.00000000  0.00000000  0.00000000  0.00000000  0.00000000
    Gval  0.00000000  0.00000000  0.00000000  0.00000000  0.00000000  0.00000000  0.00000000  0.00001400
    Gval  0.00001874  0.00001875  0.00001905  0.00001906  0.00003872  0.00003872  0.00005223  0.00005223
    Gval  0.00005782  0.00005783  0.00006087  0.00006087  0.00008614  0.00008615  0.00008850  0.00008850
    Gval  0.00008943  0.00009524  0.00011362  0.00012306  0.00012309  0.00012310  0.00015746  0.00015747
    Gval  0.00018447  0.00018447  0.00022584  0.00028009  0.00028009  0.00029087  0.00029090  0.00029247
    Gval  0.00035333  0.00035333  0.00039612  0.00039612  0.00043445  0.00047405  0.00047409  0.00047584
    Gval  0.00047585  0.00047949  0.00047953  0.00059558  0.00059558  0.00059818  0.00059818  0.00060054
    Gval  0.00062423  0.00063491  0.00063492  0.00065331  0.00065331  0.00069577  0.00069582  0.00083041
    Gval  0.00107178  0.00107181  0.00107588  0.00108791  0.00108795  0.00109824  0.00114324  0.00114703
    Gval  0.00114707  0.00115142  0.00115145  0.00117467  0.00117473  0.00170971  0.00170976  0.00216082
    Gval  0.00216096  0.00267269  0.00267291  0.00277045  0.00277057  0.00295656  0.00341969  0.00365507
    Gval  0.00365527  0.00386980  0.00386984
  1.400207195601514E-005  1.400207195601514E-005
  1.874473421005119E-005  1.400207195601514E-005
  1.874598711821548E-005  1.400207195601514E-005
  1.905461986997186E-005  1.400207195601514E-005
  1.905502641375354E-005  1.400207195601514E-005
  3.871837978378145E-005  1.400207195601514E-005
  3.871850514794988E-005  1.400207195601514E-005
  5.222802593306539E-005  1.400207195601514E-005
  5.222901094054983E-005  1.400207195601514E-005
  5.781915079392445E-005  1.400207195601514E-005
  5.782508790152687E-005  1.400207195601514E-005
  6.086550849837890E-005  1.400207195601514E-005
  6.086586345955632E-005  1.400207195601514E-005
  8.614338981349911E-005  1.400207195601514E-005
  8.614509040218816E-005  1.400207195601514E-005
  8.849815941567552E-005  1.400207195601514E-005
  8.849906343389325E-005  1.400207195601514E-005
  8.942748454259273E-005  1.400207195601514E-005
  9.523832638008105E-005  1.400207195601514E-005
  1.136227118871936E-004  1.400207195601514E-005
  1.230603003117768E-004  1.400207195601514E-005
  1.230944945450794E-004  1.400207195601514E-005
  1.230955029871245E-004  1.400207195601514E-005
  1.574638933197872E-004  1.400207195601514E-005
  1.574709391155520E-004  1.400207195601514E-005
  1.844661947638553E-004  1.400207195601514E-005
  1.844724675112828E-004  1.400207195601514E-005
  2.258439213244530E-004  1.400207195601514E-005
  2.800873231673054E-004  1.400207195601514E-005
  2.800934695597312E-004  1.400207195601514E-005
  2.908693392788353E-004  1.400207195601514E-005
  2.908959741250234E-004  1.400207195601514E-005
  2.924729619285200E-004  1.400207195601514E-005
  3.533280349969048E-004  1.400207195601514E-005
  3.533320069490060E-004  1.400207195601514E-005
  3.961158357510520E-004  1.400207195601514E-005
  3.961204494358777E-004  1.400207195601514E-005
  4.344517481314954E-004  1.400207195601514E-005
  4.740498451624500E-004  1.400207195601514E-005
  4.740893305123385E-004  1.400207195601514E-005
  4.758435096087380E-004  1.400207195601514E-005
  4.758531533431380E-004  1.400207195601514E-005
  4.794880452666398E-004  1.400207195601514E-005
  4.795268851023164E-004  1.400207195601514E-005
  5.955823289725681E-004  1.400207195601514E-005
  5.955826075867574E-004  1.400207195601514E-005
  5.981772640614859E-004  1.400207195601514E-005
  5.981781900926501E-004  1.400207195601514E-005
  6.005373708800860E-004  1.400207195601514E-005
  6.242331267132269E-004  1.400207195601514E-005
  6.349121581162507E-004  1.400207195601514E-005
  6.349150122883444E-004  1.400207195601514E-005
  6.533120397795839E-004  1.400207195601514E-005
  6.533147839135791E-004  1.400207195601514E-005
  6.957710875428008E-004  1.400207195601514E-005
  6.958217491697613E-004  1.400207195601514E-005
  8.304087834834368E-004  1.400207195601514E-005
  1.071781670614652E-003  1.400207195601514E-005
  1.071813082113982E-003  1.400207195601514E-005
  1.075880884756894E-003  1.400207195601514E-005
  1.087911657990223E-003  1.400207195601514E-005
  1.087948988213561E-003  1.400207195601514E-005
  1.098239845693451E-003  1.400207195601514E-005
  1.143240184664986E-003  1.400207195601514E-005
  1.147027401637268E-003  1.400207195601514E-005
  1.147069097597102E-003  1.400207195601514E-005
  1.151423769527657E-003  1.400207195601514E-005
  1.151452953628994E-003  1.400207195601514E-005
  1.174672754358476E-003  1.400207195601514E-005
  1.174731258198030E-003  1.400207195601514E-005
  1.709706715300089E-003  1.400207195601514E-005
  1.709761878700626E-003  1.400207195601514E-005
  2.160822934654531E-003  1.400207195601514E-005
  2.160962995689365E-003  1.400207195601514E-005
  2.672687398398794E-003  1.400207195601514E-005
  2.672909522993545E-003  1.400207195601514E-005
  2.770453890446147E-003  1.400207195601514E-005
  2.770567733101754E-003  1.400207195601514E-005
  2.956556788288365E-003  1.400207195601514E-005
  3.419685722847487E-003  1.400207195601514E-005
  3.655065193322736E-003  1.400207195601514E-005
  3.655274147910804E-003  1.400207195601514E-005
  3.869802604050141E-003  1.400207195601514E-005
  3.869836761561516E-003  1.400207195601514E-005
 cut=1d-8, nber non-redundant internal coords=          84
 Check on Eigenvals of non-red overlap matrix:
  0.00001400  0.00001874  0.00001875  0.00001905  0.00001906  0.00003872  0.00003872  0.00005223
  0.00005223  0.00005782  0.00005783  0.00006087  0.00006087  0.00008614  0.00008615  0.00008850
  0.00008850  0.00008943  0.00009524  0.00011362  0.00012306  0.00012309  0.00012310  0.00015746
  0.00015747  0.00018447  0.00018447  0.00022584  0.00028009  0.00028009  0.00029087  0.00029090
  0.00029247  0.00035333  0.00035333  0.00039612  0.00039612  0.00043445  0.00047405  0.00047409
  0.00047584  0.00047585  0.00047949  0.00047953  0.00059558  0.00059558  0.00059818  0.00059818
  0.00060054  0.00062423  0.00063491  0.00063492  0.00065331  0.00065331  0.00069577  0.00069582
  0.00083041  0.00107178  0.00107181  0.00107588  0.00108791  0.00108795  0.00109824  0.00114324
  0.00114703  0.00114707  0.00115142  0.00115145  0.00117467  0.00117473  0.00170971  0.00170976
  0.00216082  0.00216096  0.00267269  0.00267291  0.00277045  0.00277057  0.00295656  0.00341969
  0.00365507  0.00365527  0.00386980  0.00386984
 Checking for correct frequencies
 recalc frequencies=
  -114.7   -0.0   -0.0   -0.0    0.0    0.0    0.0  156.3  156.3  286.2
   286.3  305.0  305.0  388.9  389.0  434.1  434.1  452.6  452.7  552.6
   554.9  558.5  562.0  562.0  614.1  614.1  614.2  614.2  659.9  676.4
   676.5  750.9  750.9  770.0  770.1  830.5  830.6  839.3  839.3  847.9
   869.2  869.2  953.5  957.8  962.7  962.8  969.7  969.7 1034.5 1093.4
  1093.4 1140.0 1140.0 1158.7 1158.7 1161.2 1161.3 1201.2 1201.3 1231.3
  1239.9 1320.1 1320.2 1365.8 1365.9 1411.3 1411.3 1433.5 1433.5 1449.1
  1450.2 1450.3 1479.7 1518.3 1518.3 1718.4 1718.7 1721.2 1721.3 1741.0
  3153.8 3154.3 3154.4 3154.5 3154.7 3171.1 3171.2 3171.7 3171.9 3172.9
 recalc symmetries=
     A"     A'     A'     A"     A"     A"     A'     A"     A"     A" 
     A"     A"     A"     A'     A'     A'     A'     A"     A"     A" 
     A'     A"     A'     A'     A'     A'     A"     A"     A'     A" 
     A"     A'     A'     A"     A"     A"     A"     A"     A"     A" 
     A'     A'     A'     A"     A"     A"     A"     A"     A'     A' 
     A'     A'     A'     A'     A'     A'     A'     A'     A'     A' 
     A'     A'     A'     A'     A'     A'     A'     A'     A'     A' 
     A'     A'     A'     A'     A'     A'     A'     A'     A'     A' 
     A'     A'     A'     A'     A'     A'     A'     A'     A'     A' 
 recalc freqs check OK
 Zero-point lengths:
 23.1515 10.0000 10.0000 10.0000 10.0000 10.0000 10.0000 19.8289 19.8285 14.6541
 14.6523 14.1954 14.1951 12.5708 12.5700 11.8993 11.8993 11.6524 11.6521 10.5458
 10.5243 10.4905 10.4574 10.4571 10.0040 10.0040 10.0030 10.0029  9.6505  9.5319
  9.5316  9.0468  9.0467  8.9340  8.9335  8.6026  8.6020  8.5573  8.5572  8.5136
  8.4089  8.4088  8.0283  8.0103  7.9902  7.9897  7.9612  7.9610  7.7077  7.4973
  7.4972  7.3426  7.3425  7.2830  7.2829  7.2751  7.2749  7.1531  7.1528  7.0650
  7.0405  6.8234  6.8231  6.7080  6.7080  6.5992  6.5991  6.5479  6.5478  6.5125
  6.5101  6.5099  6.4448  6.3624  6.3623  5.9805  5.9800  5.9755  5.9753  5.9415
  4.4145  4.4141  4.4141  4.4140  4.4138  4.4024  4.4024  4.4020  4.4019  4.4011
 highest evec of mol 1
  0.0011  0.0011  0.0000
 -0.0165 -0.0848  0.0000
  0.0630 -0.0587  0.0000
 -0.0010  0.0007  0.0000
  0.0755 -0.0419  0.0000
  0.0749  0.0416  0.0000
 -0.0010 -0.0006  0.0000
  0.0600  0.0560  0.0000
 -0.0157  0.0805  0.0000
  0.0005 -0.0011  0.0000
  0.0004 -0.0012  0.0000
  0.0017  0.0000  0.0000
  0.0005  0.0016  0.0000
 -0.0011  0.0008  0.0000
 -0.0012 -0.0008  0.0000
  0.0013  0.0008  0.0000
 -0.0864  0.0106  0.0000
 -0.0360  0.0773  0.0000
 -0.1176 -0.0146  0.0000
 -0.0463 -0.1000  0.0000
  0.0441  0.2813  0.0000
 -0.2009  0.2013  0.0000
 -0.2540  0.1290  0.0000
 -0.2519 -0.1280  0.0000
 -0.1912 -0.1917  0.0000
  0.0420 -0.2673  0.0000
  0.2834 -0.0455  0.0000
  0.1280 -0.2507  0.0000
  0.3864  0.0616  0.0000
  0.1648  0.3232  0.0000
 generating redundant internal coords
         300        3600          30
 Adding extra bonds for z output only
           6           6           6           6           6           6
           6           6           6           6           6           6
           6           6           6           6           6           6
           6           6           1           1           1           1
           1           1           1           1           1           1
 search for int coords
   1 str   2   1   1.461
   2 str   3   2   1.401
   3 str   4   3   1.461
   4 str   5   4   1.461
   5 str   6   5   1.401
   6 str   7   6   1.461
   7 str   8   7   1.461
   8 str   9   8   1.401
   9 str  10   9   1.461
  10 str  11  10   1.364
  11 str  12  11   1.396
  12 str  13   1   1.364
  13 str  13  12   1.396
  14 str  14   4   1.364
  15 str  14  13   1.396
  16 str  15   7   1.364
  17 str  15  11   1.396
  18 str  15  14   1.396
  19 str  16  12   1.365
  20 str  17  16   1.461
  21 str  18  10   1.461
  22 str  18  17   1.401
  23 str  19  16   1.461
  24 str  20   1   1.461
  25 str  20  19   1.401
  26 str  21   2   1.085
  27 str  22   3   1.085
  28 str  23   5   1.085
  29 str  24   6   1.085
  30 str  25   8   1.085
  31 str  26   9   1.085
  32 str  27  17   1.085
  33 str  28  18   1.085
  34 str  29  19   1.085
  35 str  30  20   1.085
 nber stretches=          35
  36 ben   1   2   3
  37 prop tor   1   2   3   4
  38 prop tor   1   2   3  22
  39 ben   1   2  21
  40 ben   1  13  12
  41 ben   1  13  14
  42 prop tor   1  13  14   4
  43 prop tor   1  13  14  15
  44 ben   1  20  19
  45 ben   1  20  30
  46 ben   2   1  13
  47 prop tor   2   1  13  12
  48 prop tor   2   1  13  14
  49 ben   2   1  20
  50 prop tor   2   1  20  19
  51 prop tor   2   1  20  30
  52 ben   2   3   4
  53 prop tor   2   3   4   5
  54 prop tor   2   3   4  14
  55 ben   2   3  22
  56 ben   3   2  21
  57 ben   3   4   5
  58 prop tor   3   4   5   6
  59 prop tor   3   4   5  23
  60 ben   3   4  14
  61 prop tor   3   4  14  13
  62 prop tor   3   4  14  15
  63 ben   4   3  22
  64 ben   4   5   6
  65 prop tor   4   5   6   7
  66 prop tor   4   5   6  24
  67 ben   4   5  23
  68 ben   4  14  13
  69 ben   4  14  15
  70 prop tor   4  14  15   7
  71 prop tor   4  14  15  11
  72 ben   5   4  14
  73 prop tor   5   4  14  13
  74 prop tor   5   4  14  15
  75 ben   5   6   7
  76 prop tor   5   6   7   8
  77 prop tor   5   6   7  15
  78 ben   5   6  24
  79 ben   6   5  23
  80 ben   6   7   8
  81 prop tor   6   7   8   9
  82 prop tor   6   7   8  25
  83 ben   6   7  15
  84 prop tor   6   7  15  11
  85 prop tor   6   7  15  14
  86 ben   7   6  24
  87 ben   7   8   9
  88 prop tor   7   8   9  10
  89 prop tor   7   8   9  26
  90 ben   7   8  25
  91 ben   7  15  11
  92 ben   7  15  14
  93 ben   8   7  15
  94 prop tor   8   7  15  11
  95 prop tor   8   7  15  14
  96 ben   8   9  10
  97 prop tor   8   9  10  11
  98 prop tor   8   9  10  18
  99 ben   8   9  26
 100 ben   9   8  25
 101 ben   9  10  11
 102 prop tor   9  10  11  12
 103 prop tor   9  10  11  15
 104 ben   9  10  18
 105 prop tor   9  10  18  17
 106 prop tor   9  10  18  28
 107 ben  10   9  26
 108 ben  10  11  12
 109 prop tor  10  11  12  13
 110 prop tor  10  11  12  16
 111 ben  10  11  15
 112 prop tor  10  11  15   7
 113 prop tor  10  11  15  14
 114 ben  10  18  17
 115 ben  10  18  28
 116 ben  11  10  18
 117 prop tor  11  10  18  17
 118 prop tor  11  10  18  28
 119 ben  11  12  13
 120 prop tor  11  12  13   1
 121 prop tor  11  12  13  14
 122 ben  11  12  16
 123 prop tor  11  12  16  17
 124 prop tor  11  12  16  19
 125 ben  11  15  14
 126 ben  12  11  15
 127 prop tor  12  11  15   7
 128 prop tor  12  11  15  14
 129 ben  12  13  14
 130 prop tor  12  13  14   4
 131 prop tor  12  13  14  15
 132 ben  12  16  17
 133 prop tor  12  16  17  18
 134 prop tor  12  16  17  27
 135 ben  12  16  19
 136 prop tor  12  16  19  20
 137 prop tor  12  16  19  29
 138 prop tor  13   1   2   3
 139 prop tor  13   1   2  21
 140 ben  13   1  20
 141 prop tor  13   1  20  19
 142 prop tor  13   1  20  30
 143 ben  13  12  16
 144 prop tor  13  12  16  17
 145 prop tor  13  12  16  19
 146 ben  13  14  15
 147 prop tor  13  14  15   7
 148 prop tor  13  14  15  11
 149 prop tor  14   4   5   6
 150 prop tor  14   4   5  23
 151 prop tor  15   7   8   9
 152 prop tor  15   7   8  25
 153 prop tor  15  11  12  13
 154 prop tor  15  11  12  16
 155 prop tor  16  12  13   1
 156 prop tor  16  12  13  14
 157 ben  16  17  18
 158 prop tor  16  17  18  10
 159 prop tor  16  17  18  28
 160 ben  16  17  27
 161 ben  16  19  20
 162 prop tor  16  19  20   1
 163 prop tor  16  19  20  30
 164 ben  16  19  29
 165 ben  17  16  19
 166 prop tor  17  16  19  20
 167 prop tor  17  16  19  29
 168 ben  17  18  28
 169 prop tor  18  10  11  12
 170 prop tor  18  10  11  15
 171 ben  18  17  27
 172 prop tor  19  16  17  18
 173 prop tor  19  16  17  27
 174 ben  19  20  30
 175 prop tor  20   1   2   3
 176 prop tor  20   1   2  21
 177 prop tor  20   1  13  12
 178 prop tor  20   1  13  14
 179 ben  20  19  29
 180 prop tor  21   2   3   4
 181 prop tor  21   2   3  22
 182 prop tor  22   3   4   5
 183 prop tor  22   3   4  14
 184 prop tor  23   5   6   7
 185 prop tor  23   5   6  24
 186 prop tor  24   6   7   8
 187 prop tor  24   6   7  15
 188 prop tor  25   8   9  10
 189 prop tor  25   8   9  26
 190 prop tor  26   9  10  11
 191 prop tor  26   9  10  18
 192 prop tor  27  17  18  10
 193 prop tor  27  17  18  28
 194 prop tor  29  19  20   1
 195 prop tor  29  19  20  30
 nber bend=              60
 nber lin bend=           0
 nber prop tor=         100
 nber impr tor=           0
 nber tot redund int=         195
 Reading file: 
 ./Circulene_0_C-1S0.log                                                        
                                          
  Entering Gaussian System, Link 0=g16                                          
  
 Gaussian format, type: g94, g98, g03= F F F
  #P Geom=AllCheck Guess=TCheck SCRF=Check GenChk UB3LYP/6-311G(d,p) Fre    
 energy type= B3LYP   
 Original G94 input coords:
  6  2.389407 -0.969281  0.000000
  6  3.368084  0.091481  0.000000
  6  3.026964  1.465462  0.000000
  6  1.644169  1.956399  0.000000
  6  0.942279  3.227170  0.000000
  6 -0.484830  3.331600  0.000000
  6 -1.351563  2.189577  0.000000
  6 -2.788677  1.891718  0.000000
  6 -3.315178  0.595929  0.000000
  6 -2.490677 -0.625030  0.000000
  6 -1.155098 -0.275130  0.000000
  6 -0.077838 -1.181510  0.000000
  6  1.102666 -0.450817  0.000000
  6  0.765220  0.901935  0.000000
  6 -0.635171  1.005518  0.000000
  6 -0.191525 -2.551793  0.000000
  6 -1.571504 -2.972642  0.000000
  6 -2.670439 -2.047235  0.000000
  6  1.148944 -3.162609  0.000000
  6  2.344788 -2.420806  0.000000
  1  4.429929 -0.147554  0.000000
  1  3.850018  2.176222  0.000000
  1  1.503748  4.158202  0.000000
  1 -0.901856  4.336463  0.000000
  1 -3.506374  2.710221  0.000000
  1 -4.400097  0.508936  0.000000
  1 -1.820179 -4.031251  0.000000
  1 -3.670804 -2.474198  0.000000
  1  1.243567 -4.246131  0.000000
  1  3.272028 -2.990845  0.000000
 nber atoms=          30
 Original standard coords:
  6 -2.449077 -0.806712  0.000000
  6 -2.509095 -2.248731  0.000000
  6 -1.360086 -3.075753  0.000000
  6  0.011953 -2.555514  0.000000
  6  1.369291 -3.070435  0.000000
  6  2.525072 -2.226803  0.000000
  6  2.447157 -0.795239  0.000000
  6  3.350307  0.361625  0.000000
  6  2.913475  1.690328  0.000000
  6  1.494868  2.087942  0.000000
  6  0.702810  0.957083  0.000000
  6 -0.705018  0.951298  0.000000
  6 -1.132473 -0.369604  0.000000
  6  0.000000 -1.182815  0.000000
  6  1.134860 -0.355821  0.000000
  6 -1.504829  2.069736  0.000000
  6 -0.724815  3.283422  0.000000
  6  0.711851  3.288719  0.000000
  6 -2.922149  1.668291  0.000000
  6 -3.354114  0.328992  0.000000
  1 -3.473432 -2.753417  0.000000
  1 -1.527869 -4.150205  0.000000
  1  1.543480 -4.143620  0.000000
  1  3.493162 -2.723252  0.000000
  1  4.427104  0.201801  0.000000
  1  3.684483  2.458548  0.000000
  1 -1.220056  4.251527  0.000000
  1  1.198442  4.261478  0.000000
  1 -3.695284  2.433298  0.000000
  1 -4.429952  0.163792  0.000000
  SCF Done:  E(UB3LYP) =  -768.321235977     A.U. after    1 cycles             
  
          23          40 "  -768.321235977"
After scan for Atom:   Atom  AN      X      Y      Z        X      Y      Z        X      Y      Z   
After scan for Atom:   Atom  AN      X      Y      Z        X      Y      Z        X      Y      Z   
After scan for Atom:   Atom  AN      X      Y      Z        X      Y      Z        X      Y      Z   
After scan for Atom:   Atom  AN      X      Y      Z        X      Y      Z        X      Y      Z   
After scan for Atom:   Atom  AN      X      Y      Z        X      Y      Z        X      Y      Z   
After scan for Atom:   Atom  AN      X      Y      Z        X      Y      Z        X      Y      Z   
After scan for Atom:   Atom  AN      X      Y      Z        X      Y      Z        X      Y      Z   
After scan for Atom:   Atom  AN      X      Y      Z        X      Y      Z        X      Y      Z   
After scan for Atom:   Atom  AN      X      Y      Z        X      Y      Z        X      Y      Z   
After scan for Atom:   Atom  AN      X      Y      Z        X      Y      Z        X      Y      Z   
After scan for Atom:   Atom  AN      X      Y      Z        X      Y      Z        X      Y      Z   
After scan for Atom:   Atom  AN      X      Y      Z        X      Y      Z        X      Y      Z   
After scan for Atom:   Atom  AN      X      Y      Z        X      Y      Z        X      Y      Z   
After scan for Atom:   Atom  AN      X      Y      Z        X      Y      Z        X      Y      Z   
After scan for Atom:   Atom  AN      X      Y      Z        X      Y      Z        X      Y      Z   
After scan for Atom:   Atom  AN      X      Y      Z        X      Y      Z        X      Y      Z   
After scan for Atom:   Atom  AN      X      Y      Z        X      Y      Z        X      Y      Z   
After scan for Atom:   Atom  AN      X      Y      Z        X      Y      Z        X      Y      Z   
After scan for Atom:   Atom  AN      X      Y      Z        X      Y      Z        X      Y      Z   
After scan for Atom:   Atom  AN      X      Y      Z        X      Y      Z        X      Y      Z   
After scan for Atom:   Atom  AN      X      Y      Z        X      Y      Z        X      Y      Z   
After scan for Atom:   Atom  AN      X      Y      Z        X      Y      Z        X      Y      Z   
After scan for Atom:   Atom  AN      X      Y      Z        X      Y      Z        X      Y      Z   
After scan for Atom:   Atom  AN      X      Y      Z        X      Y      Z        X      Y      Z   
After scan for Atom:   Atom  AN      X      Y      Z        X      Y      Z        X      Y      Z   
After scan for Atom:   Atom  AN      X      Y      Z        X      Y      Z        X      Y      Z   
After scan for Atom:   Atom  AN      X      Y      Z        X      Y      Z        X      Y      Z   
After scan for Atom:   Atom  AN      X      Y      Z        X      Y      Z        X      Y      Z   
 g94    frequencies=
     0.0    0.0    0.0    0.0    0.0    0.0 -106.6   -5.8  156.4  156.7
   244.9  282.9  305.0  306.0  383.4  393.3  419.5  430.4  460.9  463.7
   531.9  552.6  554.3  561.1  564.9  592.0  593.9  618.1  635.1  655.7
   658.2  707.6  714.2  717.5  742.5  752.0  757.3  774.4  785.9  817.7
   820.3  832.4  845.3  859.2  862.8  882.2  904.0  925.5  948.8 1015.9
  1075.6 1090.1 1100.0 1106.9 1122.5 1143.1 1179.5 1191.2 1195.6 1225.3
  1234.8 1267.6 1285.8 1306.8 1351.0 1378.1 1390.2 1405.4 1429.2 1434.4
  1440.8 1443.1 1450.6 1484.6 1488.3 1596.3 1659.6 1674.8 1690.6 1704.3
  3106.2 3109.7 3111.0 3114.1 3114.9 3129.6 3132.5 3134.1 3136.5 3138.4
 g94    symmetries=
                                                A"     A'     A"     A"
      A"     A"     A"     A"     A'     A'     A"     A'     A'     A"
      A"     A"     A'     A'     A'     A"     A"     A'     A"     A'
      A"     A'     A"     A"     A'     A'     A"     A"     A"     A"
      A"     A"     A"     A'     A'     A"     A"     A"     A'     A'
      A'     A'     A'     A'     A'     A'     A'     A'     A'     A'
      A'     A'     A'     A'     A'     A'     A'     A'     A'     A'
      A'     A'     A'     A'     A'     A'     A'     A'     A'     A'
      A'     A'     A'     A'     A'     A'     A'     A'     A'     A'
 atomic masses:
 12.0000 12.0000 12.0000 12.0000 12.0000 12.0000 12.0000 12.0000 12.0000 12.0000
 12.0000 12.0000 12.0000 12.0000 12.0000 12.0000 12.0000 12.0000 12.0000 12.0000
  1.0078  1.0078  1.0078  1.0078  1.0078  1.0078  1.0078  1.0078  1.0078  1.0078
 looking for force constants in 
 ./Circulene_0_C-1S0.fchk                                                       
  
 Cartesian Force Constants                  R   N=        4095                  
  
 n3=          90        4095
 g94-fc frequencies=
  -106.6   -6.0   -3.2   -0.0    0.0    0.0    0.3    1.9  156.4  156.8
   244.9  282.9  305.0  306.0  383.4  393.4  419.5  430.4  460.9  463.7
   531.9  552.6  554.3  561.1  564.9  592.0  593.9  618.1  635.1  655.7
   658.2  707.6  714.2  717.5  742.5  752.0  757.3  774.4  785.9  817.7
   820.3  832.4  845.4  859.2  862.8  882.2  904.0  925.5  948.8 1015.9
  1075.6 1090.1 1100.0 1106.9 1122.5 1143.1 1179.5 1191.2 1195.6 1225.3
  1234.8 1267.6 1285.8 1306.9 1351.1 1378.2 1390.2 1405.4 1429.3 1434.5
  1440.8 1443.2 1450.6 1484.6 1488.3 1596.3 1659.7 1674.9 1690.7 1704.4
  3106.3 3109.7 3111.1 3114.2 3114.9 3129.6 3132.6 3134.1 3136.5 3138.5
 at 99999: n3=          90
 symm operator            1 :  F  nop=           0
 symm operator            2 :  F  nop=           0
 symm operator            3 :  F  nop=           0
 symm operator            4 :  F  nop=           0
 symm operator            5 :  T  nop=           1
 symm operator            6 :  F  nop=           1
 symm operator            7 :  F  nop=           1
 The point group of the molecule is  CS
 enforcing symm op           5  jsymt=           1           1          -1
 cartesian coord symmetries:
 A' :   60 A" :   30
 Symmetry rotation matrix:
   1.00000   0.00000   0.00000
   0.00000   1.00000   0.00000
   0.00000   0.00000   1.00000

 Projecting out zero-frequency components
 generating redundant internal coords
         300        3600          30
 search for int coords
   1 str   2   1   1.443
   2 str   3   2   1.416
   3 str   4   3   1.467
   4 str   5   4   1.452
   5 str   6   5   1.431
   6 str   7   6   1.434
   7 str   8   7   1.468
   8 str   9   8   1.399
   9 str  10   9   1.473
  10 str  11  10   1.381
  11 str  12  11   1.408
  12 str  13   1   1.387
  13 str  13  12   1.388
  14 str  14   4   1.373
  15 str  14  13   1.394
  16 str  15   7   1.384
  17 str  15  11   1.382
  18 str  15  14   1.404
  19 str  16  12   1.375
  20 str  17  16   1.443
  21 str  18  10   1.434
  22 str  18  17   1.437
  23 str  19  16   1.473
  24 str  20   1   1.452
  25 str  20  19   1.407
  26 str  21   2   1.088
  27 str  22   3   1.087
  28 str  23   5   1.087
  29 str  24   6   1.088
  30 str  25   8   1.089
  31 str  26   9   1.088
  32 str  27  17   1.087
  33 str  28  18   1.088
  34 str  29  19   1.088
  35 str  30  20   1.088
 nber stretches=          35
  36 ben   1   2   3
  37 prop tor   1   2   3   4
  38 prop tor   1   2   3  22
  39 ben   1   2  21
  40 ben   1  13  12
  41 ben   1  13  14
  42 prop tor   1  13  14   4
  43 prop tor   1  13  14  15
  44 ben   1  20  19
  45 ben   1  20  30
  46 ben   2   1  13
  47 prop tor   2   1  13  12
  48 prop tor   2   1  13  14
  49 ben   2   1  20
  50 prop tor   2   1  20  19
  51 prop tor   2   1  20  30
  52 ben   2   3   4
  53 prop tor   2   3   4   5
  54 prop tor   2   3   4  14
  55 ben   2   3  22
  56 ben   3   2  21
  57 ben   3   4   5
  58 prop tor   3   4   5   6
  59 prop tor   3   4   5  23
  60 ben   3   4  14
  61 prop tor   3   4  14  13
  62 prop tor   3   4  14  15
  63 ben   4   3  22
  64 ben   4   5   6
  65 prop tor   4   5   6   7
  66 prop tor   4   5   6  24
  67 ben   4   5  23
  68 ben   4  14  13
  69 ben   4  14  15
  70 prop tor   4  14  15   7
  71 prop tor   4  14  15  11
  72 ben   5   4  14
  73 prop tor   5   4  14  13
  74 prop tor   5   4  14  15
  75 ben   5   6   7
  76 prop tor   5   6   7   8
  77 prop tor   5   6   7  15
  78 ben   5   6  24
  79 ben   6   5  23
  80 ben   6   7   8
  81 prop tor   6   7   8   9
  82 prop tor   6   7   8  25
  83 ben   6   7  15
  84 prop tor   6   7  15  11
  85 prop tor   6   7  15  14
  86 ben   7   6  24
  87 ben   7   8   9
  88 prop tor   7   8   9  10
  89 prop tor   7   8   9  26
  90 ben   7   8  25
  91 ben   7  15  11
  92 ben   7  15  14
  93 ben   8   7  15
  94 prop tor   8   7  15  11
  95 prop tor   8   7  15  14
  96 ben   8   9  10
  97 prop tor   8   9  10  11
  98 prop tor   8   9  10  18
  99 ben   8   9  26
 100 ben   9   8  25
 101 ben   9  10  11
 102 prop tor   9  10  11  12
 103 prop tor   9  10  11  15
 104 ben   9  10  18
 105 prop tor   9  10  18  17
 106 prop tor   9  10  18  28
 107 ben  10   9  26
 108 ben  10  11  12
 109 prop tor  10  11  12  13
 110 prop tor  10  11  12  16
 111 ben  10  11  15
 112 prop tor  10  11  15   7
 113 prop tor  10  11  15  14
 114 ben  10  18  17
 115 ben  10  18  28
 116 ben  11  10  18
 117 prop tor  11  10  18  17
 118 prop tor  11  10  18  28
 119 ben  11  12  13
 120 prop tor  11  12  13   1
 121 prop tor  11  12  13  14
 122 ben  11  12  16
 123 prop tor  11  12  16  17
 124 prop tor  11  12  16  19
 125 ben  11  15  14
 126 ben  12  11  15
 127 prop tor  12  11  15   7
 128 prop tor  12  11  15  14
 129 ben  12  13  14
 130 prop tor  12  13  14   4
 131 prop tor  12  13  14  15
 132 ben  12  16  17
 133 prop tor  12  16  17  18
 134 prop tor  12  16  17  27
 135 ben  12  16  19
 136 prop tor  12  16  19  20
 137 prop tor  12  16  19  29
 138 prop tor  13   1   2   3
 139 prop tor  13   1   2  21
 140 ben  13   1  20
 141 prop tor  13   1  20  19
 142 prop tor  13   1  20  30
 143 ben  13  12  16
 144 prop tor  13  12  16  17
 145 prop tor  13  12  16  19
 146 ben  13  14  15
 147 prop tor  13  14  15   7
 148 prop tor  13  14  15  11
 149 prop tor  14   4   5   6
 150 prop tor  14   4   5  23
 151 prop tor  15   7   8   9
 152 prop tor  15   7   8  25
 153 prop tor  15  11  12  13
 154 prop tor  15  11  12  16
 155 prop tor  16  12  13   1
 156 prop tor  16  12  13  14
 157 ben  16  17  18
 158 prop tor  16  17  18  10
 159 prop tor  16  17  18  28
 160 ben  16  17  27
 161 ben  16  19  20
 162 prop tor  16  19  20   1
 163 prop tor  16  19  20  30
 164 ben  16  19  29
 165 ben  17  16  19
 166 prop tor  17  16  19  20
 167 prop tor  17  16  19  29
 168 ben  17  18  28
 169 prop tor  18  10  11  12
 170 prop tor  18  10  11  15
 171 ben  18  17  27
 172 prop tor  19  16  17  18
 173 prop tor  19  16  17  27
 174 ben  19  20  30
 175 prop tor  20   1   2   3
 176 prop tor  20   1   2  21
 177 prop tor  20   1  13  12
 178 prop tor  20   1  13  14
 179 ben  20  19  29
 180 prop tor  21   2   3   4
 181 prop tor  21   2   3  22
 182 prop tor  22   3   4   5
 183 prop tor  22   3   4  14
 184 prop tor  23   5   6   7
 185 prop tor  23   5   6  24
 186 prop tor  24   6   7   8
 187 prop tor  24   6   7  15
 188 prop tor  25   8   9  10
 189 prop tor  25   8   9  26
 190 prop tor  26   9  10  11
 191 prop tor  26   9  10  18
 192 prop tor  27  17  18  10
 193 prop tor  27  17  18  28
 194 prop tor  29  19  20   1
 195 prop tor  29  19  20  30
 nber bend=              60
 nber lin bend=           0
 nber prop tor=         100
 nber impr tor=           0
 nber tot redund int=         195
 Eigenvalues of G in red int coords
    Gval -0.00000000 -0.00000000 -0.00000000 -0.00000000 -0.00000000 -0.00000000 -0.00000000 -0.00000000
    Gval -0.00000000 -0.00000000 -0.00000000 -0.00000000 -0.00000000 -0.00000000 -0.00000000 -0.00000000
    Gval -0.00000000 -0.00000000 -0.00000000 -0.00000000 -0.00000000 -0.00000000 -0.00000000 -0.00000000
    Gval -0.00000000 -0.00000000 -0.00000000 -0.00000000 -0.00000000 -0.00000000 -0.00000000 -0.00000000
    Gval -0.00000000 -0.00000000 -0.00000000 -0.00000000 -0.00000000 -0.00000000 -0.00000000 -0.00000000
    Gval -0.00000000 -0.00000000 -0.00000000 -0.00000000 -0.00000000 -0.00000000 -0.00000000 -0.00000000
    Gval -0.00000000 -0.00000000 -0.00000000 -0.00000000 -0.00000000 -0.00000000 -0.00000000  0.00000000
    Gval  0.00000000  0.00000000  0.00000000  0.00000000  0.00000000  0.00000000  0.00000000  0.00000000
    Gval  0.00000000  0.00000000  0.00000000  0.00000000  0.00000000  0.00000000  0.00000000  0.00000000
    Gval  0.00000000  0.00000000  0.00000000  0.00000000  0.00000000  0.00000000  0.00000000  0.00000000
    Gval  0.00000000  0.00000000  0.00000000  0.00000000  0.00000000  0.00000000  0.00000000  0.00000000
    Gval  0.00000000  0.00000000  0.00000000  0.00000000  0.00000000  0.00000000  0.00000000  0.00000000
    Gval  0.00000000  0.00000000  0.00000000  0.00000000  0.00000000  0.00000000  0.00000000  0.00000000
    Gval  0.00000000  0.00000000  0.00000000  0.00000000  0.00000000  0.00000000  0.00000000  0.00001400
    Gval  0.00001871  0.00001877  0.00001904  0.00001904  0.00003886  0.00003886  0.00005193  0.00005235
    Gval  0.00005792  0.00005794  0.00006045  0.00006047  0.00008603  0.00008610  0.00008848  0.00008850
    Gval  0.00008953  0.00009548  0.00011369  0.00012279  0.00012286  0.00012314  0.00015559  0.00015767
    Gval  0.00018348  0.00018575  0.00022384  0.00027807  0.00027828  0.00028825  0.00028865  0.00029474
    Gval  0.00035295  0.00035519  0.00039607  0.00039629  0.00042884  0.00047027  0.00047037  0.00047144
    Gval  0.00047732  0.00047882  0.00048430  0.00059553  0.00059554  0.00059804  0.00059826  0.00060058
    Gval  0.00062376  0.00063439  0.00063483  0.00065328  0.00065332  0.00068592  0.00070398  0.00082934
    Gval  0.00106610  0.00106721  0.00106753  0.00108309  0.00108556  0.00109508  0.00113579  0.00113992
    Gval  0.00114006  0.00114456  0.00114472  0.00118594  0.00118605  0.00168001  0.00170437  0.00215361
    Gval  0.00215376  0.00267706  0.00267900  0.00275068  0.00275165  0.00297789  0.00339022  0.00362774
    Gval  0.00365217  0.00385871  0.00385907
  1.399917556560686E-005  1.399917556560686E-005
  1.870714270803271E-005  1.399917556560686E-005
  1.877040164027492E-005  1.399917556560686E-005
  1.903502722112413E-005  1.399917556560686E-005
  1.903627194131426E-005  1.399917556560686E-005
  3.885586577963340E-005  1.399917556560686E-005
  3.885976874628656E-005  1.399917556560686E-005
  5.193105854061202E-005  1.399917556560686E-005
  5.235376758026545E-005  1.399917556560686E-005
  5.791502361320175E-005  1.399917556560686E-005
  5.793746434502139E-005  1.399917556560686E-005
  6.045220085608386E-005  1.399917556560686E-005
  6.046578058953860E-005  1.399917556560686E-005
  8.603007348199954E-005  1.399917556560686E-005
  8.610466712279322E-005  1.399917556560686E-005
  8.848174425704190E-005  1.399917556560686E-005
  8.850300992777734E-005  1.399917556560686E-005
  8.952644680956231E-005  1.399917556560686E-005
  9.548280796790671E-005  1.399917556560686E-005
  1.136889957091569E-004  1.399917556560686E-005
  1.227926662356053E-004  1.399917556560686E-005
  1.228579642361928E-004  1.399917556560686E-005
  1.231395838607811E-004  1.399917556560686E-005
  1.555862888035792E-004  1.399917556560686E-005
  1.576739263102638E-004  1.399917556560686E-005
  1.834753277392761E-004  1.399917556560686E-005
  1.857508996925980E-004  1.399917556560686E-005
  2.238364758052635E-004  1.399917556560686E-005
  2.780659516664442E-004  1.399917556560686E-005
  2.782831902113406E-004  1.399917556560686E-005
  2.882532088286742E-004  1.399917556560686E-005
  2.886502486943757E-004  1.399917556560686E-005
  2.947377023386272E-004  1.399917556560686E-005
  3.529500097847017E-004  1.399917556560686E-005
  3.551909545769544E-004  1.399917556560686E-005
  3.960683873735937E-004  1.399917556560686E-005
  3.962915480011593E-004  1.399917556560686E-005
  4.288397060708470E-004  1.399917556560686E-005
  4.702713701951039E-004  1.399917556560686E-005
  4.703736147825192E-004  1.399917556560686E-005
  4.714379915654891E-004  1.399917556560686E-005
  4.773245917977036E-004  1.399917556560686E-005
  4.788160928731566E-004  1.399917556560686E-005
  4.842952557425758E-004  1.399917556560686E-005
  5.955325149664195E-004  1.399917556560686E-005
  5.955356454468985E-004  1.399917556560686E-005
  5.980369909618336E-004  1.399917556560686E-005
  5.982574084739485E-004  1.399917556560686E-005
  6.005801050008632E-004  1.399917556560686E-005
  6.237630890923872E-004  1.399917556560686E-005
  6.343949076813779E-004  1.399917556560686E-005
  6.348311405603767E-004  1.399917556560686E-005
  6.532841848958284E-004  1.399917556560686E-005
  6.533152245689905E-004  1.399917556560686E-005
  6.859176800089238E-004  1.399917556560686E-005
  7.039792874464666E-004  1.399917556560686E-005
  8.293420049265884E-004  1.399917556560686E-005
  1.066096773421896E-003  1.399917556560686E-005
  1.067205427992461E-003  1.399917556560686E-005
  1.067527959737122E-003  1.399917556560686E-005
  1.083094166731209E-003  1.399917556560686E-005
  1.085560851376896E-003  1.399917556560686E-005
  1.095083858029409E-003  1.399917556560686E-005
  1.135794786984457E-003  1.399917556560686E-005
  1.139923818206437E-003  1.399917556560686E-005
  1.140063391242982E-003  1.399917556560686E-005
  1.144558843966785E-003  1.399917556560686E-005
  1.144724927266480E-003  1.399917556560686E-005
  1.185936465204262E-003  1.399917556560686E-005
  1.186054165143527E-003  1.399917556560686E-005
  1.680005830879045E-003  1.399917556560686E-005
  1.704371446056830E-003  1.399917556560686E-005
  2.153614748808163E-003  1.399917556560686E-005
  2.153759463369386E-003  1.399917556560686E-005
  2.677055978933244E-003  1.399917556560686E-005
  2.678995542592798E-003  1.399917556560686E-005
  2.750679076055971E-003  1.399917556560686E-005
  2.751654544021175E-003  1.399917556560686E-005
  2.977893058134378E-003  1.399917556560686E-005
  3.390224052709325E-003  1.399917556560686E-005
  3.627736939910832E-003  1.399917556560686E-005
  3.652167667922664E-003  1.399917556560686E-005
  3.858713490144028E-003  1.399917556560686E-005
  3.859074905309008E-003  1.399917556560686E-005
 cut=1d-8, nber non-redundant internal coords=          84
 Check on Eigenvals of non-red overlap matrix:
  0.00001400  0.00001871  0.00001877  0.00001904  0.00001904  0.00003886  0.00003886  0.00005193
  0.00005235  0.00005792  0.00005794  0.00006045  0.00006047  0.00008603  0.00008610  0.00008848
  0.00008850  0.00008953  0.00009548  0.00011369  0.00012279  0.00012286  0.00012314  0.00015559
  0.00015767  0.00018348  0.00018575  0.00022384  0.00027807  0.00027828  0.00028825  0.00028865
  0.00029474  0.00035295  0.00035519  0.00039607  0.00039629  0.00042884  0.00047027  0.00047037
  0.00047144  0.00047732  0.00047882  0.00048430  0.00059553  0.00059554  0.00059804  0.00059826
  0.00060058  0.00062376  0.00063439  0.00063483  0.00065328  0.00065332  0.00068592  0.00070398
  0.00082934  0.00106610  0.00106721  0.00106753  0.00108309  0.00108556  0.00109508  0.00113579
  0.00113992  0.00114006  0.00114456  0.00114472  0.00118594  0.00118605  0.00168001  0.00170437
  0.00215361  0.00215376  0.00267706  0.00267900  0.00275068  0.00275165  0.00297789  0.00339022
  0.00362774  0.00365217  0.00385871  0.00385907
 Checking for correct frequencies
 recalc frequencies=
  -106.6   -5.8   -0.0   -0.0   -0.0   -0.0    0.0    0.0  156.4  156.8
   244.9  282.9  305.0  306.0  383.4  393.4  419.5  430.4  460.9  463.7
   531.9  552.6  554.3  561.1  564.9  592.0  593.9  618.1  635.1  655.7
   658.2  707.6  714.2  717.5  742.5  752.0  757.3  774.4  785.9  817.7
   820.3  832.4  845.4  859.2  862.8  882.2  904.0  925.5  948.8 1015.9
  1075.6 1090.1 1100.0 1106.9 1122.5 1143.1 1179.5 1191.2 1195.6 1225.3
  1234.8 1267.6 1285.8 1306.9 1351.1 1378.2 1390.2 1405.4 1429.3 1434.5
  1440.8 1443.2 1450.6 1484.6 1488.3 1596.3 1659.7 1674.9 1690.7 1704.4
  3106.3 3109.7 3111.1 3114.2 3114.9 3129.6 3132.6 3134.1 3136.5 3138.5
 recalc symmetries=
     A"     A'     A'     A'     A"     A'     A"     A"     A"     A" 
     A"     A"     A"     A"     A'     A'     A"     A'     A'     A" 
     A"     A"     A'     A'     A'     A"     A"     A'     A"     A' 
     A"     A'     A"     A"     A'     A'     A"     A"     A"     A" 
     A"     A"     A"     A'     A'     A"     A"     A"     A'     A' 
     A'     A'     A'     A'     A'     A'     A'     A'     A'     A' 
     A'     A'     A'     A'     A'     A'     A'     A'     A'     A' 
     A'     A'     A'     A'     A'     A'     A'     A'     A'     A' 
     A'     A'     A'     A'     A'     A'     A'     A'     A'     A' 
 recalc freqs check OK
 Zero-point lengths:
 24.0089102.7923 10.0000 10.0000 10.0000 10.0000 10.0000 10.0000 19.8244 19.8011
 15.8410 14.7405 14.1956 14.1726 12.6604 12.4998 12.1041 11.9497 11.5477 11.5131
 10.7493 10.5463 10.5302 10.4658 10.4302 10.1891 10.1729  9.9713  9.8372  9.6817
  9.6632  9.3194  9.2764  9.2550  9.0977  9.0405  9.0086  8.9088  8.8432  8.6694
  8.6558  8.5925  8.5266  8.4575  8.4401  8.3465  8.2453  8.1491  8.0483  7.7781
  7.5591  7.5085  7.4747  7.4514  7.3996  7.3325  7.2184  7.1830  7.1698  7.0822
  7.0549  6.9630  6.9136  6.8578  6.7446  6.6780  6.6490  6.6129  6.5575  6.5456
  6.5312  6.5259  6.5090  6.4341  6.4261  6.2049  6.0854  6.0576  6.0293  6.0050
  4.4481  4.4456  4.4447  4.4425  4.4419  4.4315  4.4294  4.4283  4.4266  4.4252
 highest evec of mol 2
 -0.0003  0.0003  0.0000
 -0.0602 -0.0289  0.0000
 -0.0130 -0.0966  0.0000
 -0.0015 -0.0001  0.0000
  0.0214 -0.1453  0.0000
  0.0983 -0.0478  0.0000
  0.0008  0.0025  0.0000
  0.0372 -0.0066  0.0000
  0.0274  0.0287  0.0000
  0.0015 -0.0012  0.0000
 -0.0008 -0.0014  0.0000
  0.0012 -0.0020  0.0000
  0.0013  0.0006  0.0000
  0.0000  0.0028  0.0000
 -0.0017  0.0006  0.0000
 -0.0009 -0.0005  0.0000
 -0.0527  0.0990  0.0000
  0.0467  0.0894  0.0000
 -0.0526  0.0545  0.0000
 -0.0551 -0.0104  0.0000
  0.1967  0.1029  0.0000
  0.0518  0.3220  0.0000
 -0.0803  0.4861  0.0000
 -0.3236  0.1659  0.0000
 -0.1250  0.0178  0.0000
 -0.0946 -0.0933  0.0000
  0.1703 -0.3349  0.0000
 -0.1505 -0.3016  0.0000
  0.1808 -0.1774  0.0000
  0.1844  0.0281  0.0000
 Enter nber and list of atoms to keep of mol #2
 keep list:          30           1           2           3           4
           5           6           7           8           9          10
          11          12          13          14          15          16
          17          18          19          20          21          22
          23          24          25          26          27          28
          29          30
 reordering atoms
           1  -2.56086279613500     
           2  -2.90772420756486     
           3  -1.94707612522444     
           4 -0.498768605121515     
           5  0.728353998427156     
           6   2.02936202461511     
           7   2.23898194744630     
           8   3.35502083029777     
           9   3.19241035967975     
          10   1.88182073492278     
          11  0.879829524769555     
          12 -0.500780022361292     
          13  -1.18347899146773     
          14 -0.236274793982268     
          15   1.04091033117624     
          16  -1.06105569396164     
          17 -5.432049005828410E-002
          18   1.35444836078820     
          19  -2.53000169437300     
          20  -3.22079469187283     
          21  -3.95343993387595     
          22  -2.32610659579807     
          23  0.684656350751426     
          24   2.87877162729630     
          25   4.37818961888966     
          26   4.10133623003860     
          27 -0.346194645587091     
          28   2.02554755670516     
          29  -3.13473923838580     
          30  -4.30794954975423     
           1           1
           2           2
           3           3
           4           4
           5           5
           6           6
           7           7
           8           8
           9           9
          10          10
          11          11
          12          12
          13          13
          14          14
          15          15
          16          16
          17          17
          18          18
          19          19
          20          20
          21          21
          22          22
          23          23
          24          24
          25          25
          26          26
          27          27
          28          28
          29          29
          30          30
 initial cartes coords mol 1
   6   0.00000   2.42231   0.80255
   6   0.00000   3.34530  -0.33044
   6   0.00000   2.92011  -1.66554
   6   0.00000   1.51188  -2.05600
   6   0.00000   0.71950  -3.28380
   6   0.00000  -0.68168  -3.29187
   6   0.00000  -1.48810  -2.07327
   6   0.00000  -2.90073  -1.69903
   6   0.00000  -3.34131  -0.36894
   6   0.00000  -2.43146   0.77467
   6   0.00000  -1.13146   0.36042
   6   0.00000  -0.00681   1.18741
   6   0.00000   1.12723   0.37339
   6   0.00000   0.70355  -0.95674
   6   0.00000  -0.69244  -0.96476
   6   0.00000  -0.01463   2.55198
   6   0.00000  -1.38330   3.06396
   6   0.00000  -2.51212   2.23376
   6   0.00000   1.34800   3.07976
   6   0.00000   2.48615   2.26249
   1   0.00000   4.41619  -0.15346
   1   0.00000   3.69140  -2.42924
   1   0.00000   1.21860  -4.24763
   1   0.00000  -1.16971  -4.26138
   1   0.00000  -3.66317  -2.47157
   1   0.00000  -4.41417  -0.20435
   1   0.00000  -1.55837   4.13515
   1   0.00000  -3.48244   2.72018
   1   0.00000   1.51083   4.15277
   1   0.00000   3.45089   2.75993
 initial cartes coords mol 2
   6   0.00000  -0.30123  -2.56086
   6   0.00000  -1.70220  -2.90772
   6   0.00000  -2.74208  -1.94708
   6   0.00000  -2.50640  -0.49877
   6   0.00000  -3.28208   0.72835
   6   0.00000  -2.68632   2.02936
   6   0.00000  -1.26805   2.23898
   6   0.00000  -0.31491   3.35502
   6   0.00000   1.07427   3.19241
   6   0.00000   1.74725   1.88182
   6   0.00000   0.79740   0.87983
   6   0.00000   1.07296  -0.50078
   6   0.00000  -0.13594  -1.18348
   6   0.00000  -1.15898  -0.23627
   6   0.00000  -0.57535   1.04091
   6   0.00000   2.32862  -1.06106
   6   0.00000   3.36203  -0.05432
   6   0.00000   3.08024   1.35445
   6   0.00000   2.21839  -2.53000
   6   0.00000   0.99237  -3.22079
   1   0.00000  -2.00408  -3.95344
   1   0.00000  -3.76136  -2.32611
   1   0.00000  -4.36843   0.68466
   1   0.00000  -3.36615   2.87877
   1   0.00000  -0.68661   4.37819
   1   0.00000   1.67300   4.10134
   1   0.00000   4.40955  -0.34619
   1   0.00000   3.93619   2.02555
   1   0.00000   3.12241  -3.13474
   1   0.00000   1.04540  -4.30795
 loop 1 0
 mod cartes coords mol 2
   6   0.00000  -0.30123  -2.56086
   6   0.00000  -1.70220  -2.90772
   6   0.00000  -2.74208  -1.94708
   6   0.00000  -2.50640  -0.49877
   6   0.00000  -3.28208   0.72835
   6   0.00000  -2.68632   2.02936
   6   0.00000  -1.26805   2.23898
   6   0.00000  -0.31491   3.35502
   6   0.00000   1.07427   3.19241
   6   0.00000   1.74725   1.88182
   6   0.00000   0.79740   0.87983
   6   0.00000   1.07296  -0.50078
   6   0.00000  -0.13594  -1.18348
   6   0.00000  -1.15898  -0.23627
   6   0.00000  -0.57535   1.04091
   6   0.00000   2.32862  -1.06106
   6   0.00000   3.36203  -0.05432
   6   0.00000   3.08024   1.35445
   6   0.00000   2.21839  -2.53000
   6   0.00000   0.99237  -3.22079
   1   0.00000  -2.00408  -3.95344
   1   0.00000  -3.76136  -2.32611
   1   0.00000  -4.36843   0.68466
   1   0.00000  -3.36615   2.87877
   1   0.00000  -0.68661   4.37819
   1   0.00000   1.67300   4.10134
   1   0.00000   4.40955  -0.34619
   1   0.00000   3.93619   2.02555
   1   0.00000   3.12241  -3.13474
   1   0.00000   1.04540  -4.30795
 read in order, maxerr=  7.47 for atom  24
 loop 1 1
 mod cartes coords mol 2
   6   0.00000  -0.30123  -2.56086
   6   0.00000  -1.70220  -2.90772
   6   0.00000  -2.74208  -1.94708
   6   0.00000  -2.50640  -0.49877
   6   0.00000  -3.28208   0.72835
   6   0.00000  -2.68632   2.02936
   6   0.00000  -1.26805   2.23898
   6   0.00000  -0.31491   3.35502
   6   0.00000   1.07427   3.19241
   6   0.00000   1.74725   1.88182
   6   0.00000   0.79740   0.87983
   6   0.00000   1.07296  -0.50078
   6   0.00000  -0.13594  -1.18348
   6   0.00000  -1.15898  -0.23627
   6   0.00000  -0.57535   1.04091
   6   0.00000   2.32862  -1.06106
   6   0.00000   3.36203  -0.05432
   6   0.00000   3.08024   1.35445
   6   0.00000   2.21839  -2.53000
   6   0.00000   0.99237  -3.22079
   1   0.00000  -2.00408  -3.95344
   1   0.00000  -3.76136  -2.32611
   1   0.00000  -4.36843   0.68466
   1   0.00000  -3.36615   2.87877
   1   0.00000  -0.68661   4.37819
   1   0.00000   1.67300   4.10134
   1   0.00000   4.40955  -0.34619
   1   0.00000   3.93619   2.02555
   1   0.00000   3.12241  -3.13474
   1   0.00000   1.04540  -4.30795
 read in order, maxerr=  7.47 for atom  24
 loop 1 2
 mod cartes coords mol 2
   6   0.00000   0.30123  -2.56086
   6   0.00000   1.70220  -2.90772
   6   0.00000   2.74208  -1.94708
   6   0.00000   2.50640  -0.49877
   6   0.00000   3.28208   0.72835
   6   0.00000   2.68632   2.02936
   6   0.00000   1.26805   2.23898
   6   0.00000   0.31491   3.35502
   6   0.00000  -1.07427   3.19241
   6   0.00000  -1.74725   1.88182
   6   0.00000  -0.79740   0.87983
   6   0.00000  -1.07296  -0.50078
   6   0.00000   0.13594  -1.18348
   6   0.00000   1.15898  -0.23627
   6   0.00000   0.57535   1.04091
   6   0.00000  -2.32862  -1.06106
   6   0.00000  -3.36203  -0.05432
   6   0.00000  -3.08024   1.35445
   6   0.00000  -2.21839  -2.53000
   6   0.00000  -0.99237  -3.22079
   1   0.00000   2.00408  -3.95344
   1   0.00000   3.76136  -2.32611
   1   0.00000   4.36843   0.68466
   1   0.00000   3.36615   2.87877
   1   0.00000   0.68661   4.37819
   1   0.00000  -1.67300   4.10134
   1   0.00000  -4.40955  -0.34619
   1   0.00000  -3.93619   2.02555
   1   0.00000  -3.12241  -3.13474
   1   0.00000  -1.04540  -4.30795
 read in order, maxerr=  8.64 for atom  29
 loop 1 3
 mod cartes coords mol 2
   6   0.00000   0.30123  -2.56086
   6   0.00000   1.70220  -2.90772
   6   0.00000   2.74208  -1.94708
   6   0.00000   2.50640  -0.49877
   6   0.00000   3.28208   0.72835
   6   0.00000   2.68632   2.02936
   6   0.00000   1.26805   2.23898
   6   0.00000   0.31491   3.35502
   6   0.00000  -1.07427   3.19241
   6   0.00000  -1.74725   1.88182
   6   0.00000  -0.79740   0.87983
   6   0.00000  -1.07296  -0.50078
   6   0.00000   0.13594  -1.18348
   6   0.00000   1.15898  -0.23627
   6   0.00000   0.57535   1.04091
   6   0.00000  -2.32862  -1.06106
   6   0.00000  -3.36203  -0.05432
   6   0.00000  -3.08024   1.35445
   6   0.00000  -2.21839  -2.53000
   6   0.00000  -0.99237  -3.22079
   1   0.00000   2.00408  -3.95344
   1   0.00000   3.76136  -2.32611
   1   0.00000   4.36843   0.68466
   1   0.00000   3.36615   2.87877
   1   0.00000   0.68661   4.37819
   1   0.00000  -1.67300   4.10134
   1   0.00000  -4.40955  -0.34619
   1   0.00000  -3.93619   2.02555
   1   0.00000  -3.12241  -3.13474
   1   0.00000  -1.04540  -4.30795
 read in order, maxerr=  8.64 for atom  29
 loop 1 4
 mod cartes coords mol 2
   6   0.00000  -0.30123   2.56086
   6   0.00000  -1.70220   2.90772
   6   0.00000  -2.74208   1.94708
   6   0.00000  -2.50640   0.49877
   6   0.00000  -3.28208  -0.72835
   6   0.00000  -2.68632  -2.02936
   6   0.00000  -1.26805  -2.23898
   6   0.00000  -0.31491  -3.35502
   6   0.00000   1.07427  -3.19241
   6   0.00000   1.74725  -1.88182
   6   0.00000   0.79740  -0.87983
   6   0.00000   1.07296   0.50078
   6   0.00000  -0.13594   1.18348
   6   0.00000  -1.15898   0.23627
   6   0.00000  -0.57535  -1.04091
   6   0.00000   2.32862   1.06106
   6   0.00000   3.36203   0.05432
   6   0.00000   3.08024  -1.35445
   6   0.00000   2.21839   2.53000
   6   0.00000   0.99237   3.22079
   1   0.00000  -2.00408   3.95344
   1   0.00000  -3.76136   2.32611
   1   0.00000  -4.36843  -0.68466
   1   0.00000  -3.36615  -2.87877
   1   0.00000  -0.68661  -4.37819
   1   0.00000   1.67300  -4.10134
   1   0.00000   4.40955   0.34619
   1   0.00000   3.93619  -2.02555
   1   0.00000   3.12241   3.13474
   1   0.00000   1.04540   4.30795
 read in order, maxerr=  8.84 for atom  22
 loop 1 5
 mod cartes coords mol 2
   6   0.00000  -0.30123   2.56086
   6   0.00000  -1.70220   2.90772
   6   0.00000  -2.74208   1.94708
   6   0.00000  -2.50640   0.49877
   6   0.00000  -3.28208  -0.72835
   6   0.00000  -2.68632  -2.02936
   6   0.00000  -1.26805  -2.23898
   6   0.00000  -0.31491  -3.35502
   6   0.00000   1.07427  -3.19241
   6   0.00000   1.74725  -1.88182
   6   0.00000   0.79740  -0.87983
   6   0.00000   1.07296   0.50078
   6   0.00000  -0.13594   1.18348
   6   0.00000  -1.15898   0.23627
   6   0.00000  -0.57535  -1.04091
   6   0.00000   2.32862   1.06106
   6   0.00000   3.36203   0.05432
   6   0.00000   3.08024  -1.35445
   6   0.00000   2.21839   2.53000
   6   0.00000   0.99237   3.22079
   1   0.00000  -2.00408   3.95344
   1   0.00000  -3.76136   2.32611
   1   0.00000  -4.36843  -0.68466
   1   0.00000  -3.36615  -2.87877
   1   0.00000  -0.68661  -4.37819
   1   0.00000   1.67300  -4.10134
   1   0.00000   4.40955   0.34619
   1   0.00000   3.93619  -2.02555
   1   0.00000   3.12241   3.13474
   1   0.00000   1.04540   4.30795
 read in order, maxerr=  8.84 for atom  22
 loop 1 6
 mod cartes coords mol 2
   6   0.00000   0.30123   2.56086
   6   0.00000   1.70220   2.90772
   6   0.00000   2.74208   1.94708
   6   0.00000   2.50640   0.49877
   6   0.00000   3.28208  -0.72835
   6   0.00000   2.68632  -2.02936
   6   0.00000   1.26805  -2.23898
   6   0.00000   0.31491  -3.35502
   6   0.00000  -1.07427  -3.19241
   6   0.00000  -1.74725  -1.88182
   6   0.00000  -0.79740  -0.87983
   6   0.00000  -1.07296   0.50078
   6   0.00000   0.13594   1.18348
   6   0.00000   1.15898   0.23627
   6   0.00000   0.57535  -1.04091
   6   0.00000  -2.32862   1.06106
   6   0.00000  -3.36203   0.05432
   6   0.00000  -3.08024  -1.35445
   6   0.00000  -2.21839   2.53000
   6   0.00000  -0.99237   3.22079
   1   0.00000   2.00408   3.95344
   1   0.00000   3.76136   2.32611
   1   0.00000   4.36843  -0.68466
   1   0.00000   3.36615  -2.87877
   1   0.00000   0.68661  -4.37819
   1   0.00000  -1.67300  -4.10134
   1   0.00000  -4.40955   0.34619
   1   0.00000  -3.93619  -2.02555
   1   0.00000  -3.12241   3.13474
   1   0.00000  -1.04540   4.30795
 read in order, maxerr=  4.77 for atom  28
 loop 1 7
 mod cartes coords mol 2
   6   0.00000   0.30123   2.56086
   6   0.00000   1.70220   2.90772
   6   0.00000   2.74208   1.94708
   6   0.00000   2.50640   0.49877
   6   0.00000   3.28208  -0.72835
   6   0.00000   2.68632  -2.02936
   6   0.00000   1.26805  -2.23898
   6   0.00000   0.31491  -3.35502
   6   0.00000  -1.07427  -3.19241
   6   0.00000  -1.74725  -1.88182
   6   0.00000  -0.79740  -0.87983
   6   0.00000  -1.07296   0.50078
   6   0.00000   0.13594   1.18348
   6   0.00000   1.15898   0.23627
   6   0.00000   0.57535  -1.04091
   6   0.00000  -2.32862   1.06106
   6   0.00000  -3.36203   0.05432
   6   0.00000  -3.08024  -1.35445
   6   0.00000  -2.21839   2.53000
   6   0.00000  -0.99237   3.22079
   1   0.00000   2.00408   3.95344
   1   0.00000   3.76136   2.32611
   1   0.00000   4.36843  -0.68466
   1   0.00000   3.36615  -2.87877
   1   0.00000   0.68661  -4.37819
   1   0.00000  -1.67300  -4.10134
   1   0.00000  -4.40955   0.34619
   1   0.00000  -3.93619  -2.02555
   1   0.00000  -3.12241   3.13474
   1   0.00000  -1.04540   4.30795
 read in order, maxerr=  4.77 for atom  28
 loop 2 0
 mod cartes coords mol 2
   6   0.00000  -2.56086  -0.30123
   6   0.00000  -2.90772  -1.70220
   6   0.00000  -1.94708  -2.74208
   6   0.00000  -0.49877  -2.50640
   6   0.00000   0.72835  -3.28208
   6   0.00000   2.02936  -2.68632
   6   0.00000   2.23898  -1.26805
   6   0.00000   3.35502  -0.31491
   6   0.00000   3.19241   1.07427
   6   0.00000   1.88182   1.74725
   6   0.00000   0.87983   0.79740
   6   0.00000  -0.50078   1.07296
   6   0.00000  -1.18348  -0.13594
   6   0.00000  -0.23627  -1.15898
   6   0.00000   1.04091  -0.57535
   6   0.00000  -1.06106   2.32862
   6   0.00000  -0.05432   3.36203
   6   0.00000   1.35445   3.08024
   6   0.00000  -2.53000   2.21839
   6   0.00000  -3.22079   0.99237
   1   0.00000  -3.95344  -2.00408
   1   0.00000  -2.32611  -3.76136
   1   0.00000   0.68466  -4.36843
   1   0.00000   2.87877  -3.36615
   1   0.00000   4.37819  -0.68661
   1   0.00000   4.10134   1.67300
   1   0.00000  -0.34619   4.40955
   1   0.00000   2.02555   3.93619
   1   0.00000  -3.13474   3.12241
   1   0.00000  -4.30795   1.04540
 read in order, maxerr=  8.72 for atom  26
 loop 2 1
 mod cartes coords mol 2
   6   0.00000  -2.56086  -0.30123
   6   0.00000  -2.90772  -1.70220
   6   0.00000  -1.94708  -2.74208
   6   0.00000  -0.49877  -2.50640
   6   0.00000   0.72835  -3.28208
   6   0.00000   2.02936  -2.68632
   6   0.00000   2.23898  -1.26805
   6   0.00000   3.35502  -0.31491
   6   0.00000   3.19241   1.07427
   6   0.00000   1.88182   1.74725
   6   0.00000   0.87983   0.79740
   6   0.00000  -0.50078   1.07296
   6   0.00000  -1.18348  -0.13594
   6   0.00000  -0.23627  -1.15898
   6   0.00000   1.04091  -0.57535
   6   0.00000  -1.06106   2.32862
   6   0.00000  -0.05432   3.36203
   6   0.00000   1.35445   3.08024
   6   0.00000  -2.53000   2.21839
   6   0.00000  -3.22079   0.99237
   1   0.00000  -3.95344  -2.00408
   1   0.00000  -2.32611  -3.76136
   1   0.00000   0.68466  -4.36843
   1   0.00000   2.87877  -3.36615
   1   0.00000   4.37819  -0.68661
   1   0.00000   4.10134   1.67300
   1   0.00000  -0.34619   4.40955
   1   0.00000   2.02555   3.93619
   1   0.00000  -3.13474   3.12241
   1   0.00000  -4.30795   1.04540
 read in order, maxerr=  8.72 for atom  26
 loop 2 2
 mod cartes coords mol 2
   6   0.00000  -2.56086   0.30123
   6   0.00000  -2.90772   1.70220
   6   0.00000  -1.94708   2.74208
   6   0.00000  -0.49877   2.50640
   6   0.00000   0.72835   3.28208
   6   0.00000   2.02936   2.68632
   6   0.00000   2.23898   1.26805
   6   0.00000   3.35502   0.31491
   6   0.00000   3.19241  -1.07427
   6   0.00000   1.88182  -1.74725
   6   0.00000   0.87983  -0.79740
   6   0.00000  -0.50078  -1.07296
   6   0.00000  -1.18348   0.13594
   6   0.00000  -0.23627   1.15898
   6   0.00000   1.04091   0.57535
   6   0.00000  -1.06106  -2.32862
   6   0.00000  -0.05432  -3.36203
   6   0.00000   1.35445  -3.08024
   6   0.00000  -2.53000  -2.21839
   6   0.00000  -3.22079  -0.99237
   1   0.00000  -3.95344   2.00408
   1   0.00000  -2.32611   3.76136
   1   0.00000   0.68466   4.36843
   1   0.00000   2.87877   3.36615
   1   0.00000   4.37819   0.68661
   1   0.00000   4.10134  -1.67300
   1   0.00000  -0.34619  -4.40955
   1   0.00000   2.02555  -3.93619
   1   0.00000  -3.13474  -3.12241
   1   0.00000  -4.30795  -1.04540
 read in order, maxerr=  8.64 for atom  21
 loop 2 3
 mod cartes coords mol 2
   6   0.00000  -2.56086   0.30123
   6   0.00000  -2.90772   1.70220
   6   0.00000  -1.94708   2.74208
   6   0.00000  -0.49877   2.50640
   6   0.00000   0.72835   3.28208
   6   0.00000   2.02936   2.68632
   6   0.00000   2.23898   1.26805
   6   0.00000   3.35502   0.31491
   6   0.00000   3.19241  -1.07427
   6   0.00000   1.88182  -1.74725
   6   0.00000   0.87983  -0.79740
   6   0.00000  -0.50078  -1.07296
   6   0.00000  -1.18348   0.13594
   6   0.00000  -0.23627   1.15898
   6   0.00000   1.04091   0.57535
   6   0.00000  -1.06106  -2.32862
   6   0.00000  -0.05432  -3.36203
   6   0.00000   1.35445  -3.08024
   6   0.00000  -2.53000  -2.21839
   6   0.00000  -3.22079  -0.99237
   1   0.00000  -3.95344   2.00408
   1   0.00000  -2.32611   3.76136
   1   0.00000   0.68466   4.36843
   1   0.00000   2.87877   3.36615
   1   0.00000   4.37819   0.68661
   1   0.00000   4.10134  -1.67300
   1   0.00000  -0.34619  -4.40955
   1   0.00000   2.02555  -3.93619
   1   0.00000  -3.13474  -3.12241
   1   0.00000  -4.30795  -1.04540
 read in order, maxerr=  8.64 for atom  21
 loop 2 4
 mod cartes coords mol 2
   6   0.00000   2.56086  -0.30123
   6   0.00000   2.90772  -1.70220
   6   0.00000   1.94708  -2.74208
   6   0.00000   0.49877  -2.50640
   6   0.00000  -0.72835  -3.28208
   6   0.00000  -2.02936  -2.68632
   6   0.00000  -2.23898  -1.26805
   6   0.00000  -3.35502  -0.31491
   6   0.00000  -3.19241   1.07427
   6   0.00000  -1.88182   1.74725
   6   0.00000  -0.87983   0.79740
   6   0.00000   0.50078   1.07296
   6   0.00000   1.18348  -0.13594
   6   0.00000   0.23627  -1.15898
   6   0.00000  -1.04091  -0.57535
   6   0.00000   1.06106   2.32862
   6   0.00000   0.05432   3.36203
   6   0.00000  -1.35445   3.08024
   6   0.00000   2.53000   2.21839
   6   0.00000   3.22079   0.99237
   1   0.00000   3.95344  -2.00408
   1   0.00000   2.32611  -3.76136
   1   0.00000  -0.68466  -4.36843
   1   0.00000  -2.87877  -3.36615
   1   0.00000  -4.37819  -0.68661
   1   0.00000  -4.10134   1.67300
   1   0.00000   0.34619   4.40955
   1   0.00000  -2.02555   3.93619
   1   0.00000   3.13474   3.12241
   1   0.00000   4.30795   1.04540
 read in order, maxerr=  1.93 for atom  24
 loop 2 5
 mod cartes coords mol 2
   6   0.00000   2.56086  -0.30123
   6   0.00000   2.90772  -1.70220
   6   0.00000   1.94708  -2.74208
   6   0.00000   0.49877  -2.50640
   6   0.00000  -0.72835  -3.28208
   6   0.00000  -2.02936  -2.68632
   6   0.00000  -2.23898  -1.26805
   6   0.00000  -3.35502  -0.31491
   6   0.00000  -3.19241   1.07427
   6   0.00000  -1.88182   1.74725
   6   0.00000  -0.87983   0.79740
   6   0.00000   0.50078   1.07296
   6   0.00000   1.18348  -0.13594
   6   0.00000   0.23627  -1.15898
   6   0.00000  -1.04091  -0.57535
   6   0.00000   1.06106   2.32862
   6   0.00000   0.05432   3.36203
   6   0.00000  -1.35445   3.08024
   6   0.00000   2.53000   2.21839
   6   0.00000   3.22079   0.99237
   1   0.00000   3.95344  -2.00408
   1   0.00000   2.32611  -3.76136
   1   0.00000  -0.68466  -4.36843
   1   0.00000  -2.87877  -3.36615
   1   0.00000  -4.37819  -0.68661
   1   0.00000  -4.10134   1.67300
   1   0.00000   0.34619   4.40955
   1   0.00000  -2.02555   3.93619
   1   0.00000   3.13474   3.12241
   1   0.00000   4.30795   1.04540
 read in order, maxerr=  1.93 for atom  24
 loop 2 6
 mod cartes coords mol 2
   6   0.00000   2.56086   0.30123
   6   0.00000   2.90772   1.70220
   6   0.00000   1.94708   2.74208
   6   0.00000   0.49877   2.50640
   6   0.00000  -0.72835   3.28208
   6   0.00000  -2.02936   2.68632
   6   0.00000  -2.23898   1.26805
   6   0.00000  -3.35502   0.31491
   6   0.00000  -3.19241  -1.07427
   6   0.00000  -1.88182  -1.74725
   6   0.00000  -0.87983  -0.79740
   6   0.00000   0.50078  -1.07296
   6   0.00000   1.18348   0.13594
   6   0.00000   0.23627   1.15898
   6   0.00000  -1.04091   0.57535
   6   0.00000   1.06106  -2.32862
   6   0.00000   0.05432  -3.36203
   6   0.00000  -1.35445  -3.08024
   6   0.00000   2.53000  -2.21839
   6   0.00000   3.22079  -0.99237
   1   0.00000   3.95344   2.00408
   1   0.00000   2.32611   3.76136
   1   0.00000  -0.68466   4.36843
   1   0.00000  -2.87877   3.36615
   1   0.00000  -4.37819   0.68661
   1   0.00000  -4.10134  -1.67300
   1   0.00000   0.34619  -4.40955
   1   0.00000  -2.02555  -3.93619
   1   0.00000   3.13474  -3.12241
   1   0.00000   4.30795  -1.04540
 read in order, maxerr=  8.82 for atom  23
 loop 2 7
 mod cartes coords mol 2
   6   0.00000   2.56086   0.30123
   6   0.00000   2.90772   1.70220
   6   0.00000   1.94708   2.74208
   6   0.00000   0.49877   2.50640
   6   0.00000  -0.72835   3.28208
   6   0.00000  -2.02936   2.68632
   6   0.00000  -2.23898   1.26805
   6   0.00000  -3.35502   0.31491
   6   0.00000  -3.19241  -1.07427
   6   0.00000  -1.88182  -1.74725
   6   0.00000  -0.87983  -0.79740
   6   0.00000   0.50078  -1.07296
   6   0.00000   1.18348   0.13594
   6   0.00000   0.23627   1.15898
   6   0.00000  -1.04091   0.57535
   6   0.00000   1.06106  -2.32862
   6   0.00000   0.05432  -3.36203
   6   0.00000  -1.35445  -3.08024
   6   0.00000   2.53000  -2.21839
   6   0.00000   3.22079  -0.99237
   1   0.00000   3.95344   2.00408
   1   0.00000   2.32611   3.76136
   1   0.00000  -0.68466   4.36843
   1   0.00000  -2.87877   3.36615
   1   0.00000  -4.37819   0.68661
   1   0.00000  -4.10134  -1.67300
   1   0.00000   0.34619  -4.40955
   1   0.00000  -2.02555  -3.93619
   1   0.00000   3.13474  -3.12241
   1   0.00000   4.30795  -1.04540
 read in order, maxerr=  8.82 for atom  23
 loop 3 0
 mod cartes coords mol 2
   6  -0.30123   0.00000  -2.56086
   6  -1.70220   0.00000  -2.90772
   6  -2.74208   0.00000  -1.94708
   6  -2.50640   0.00000  -0.49877
   6  -3.28208   0.00000   0.72835
   6  -2.68632   0.00000   2.02936
   6  -1.26805   0.00000   2.23898
   6  -0.31491   0.00000   3.35502
   6   1.07427   0.00000   3.19241
   6   1.74725   0.00000   1.88182
   6   0.79740   0.00000   0.87983
   6   1.07296   0.00000  -0.50078
   6  -0.13594   0.00000  -1.18348
   6  -1.15898   0.00000  -0.23627
   6  -0.57535   0.00000   1.04091
   6   2.32862   0.00000  -1.06106
   6   3.36203   0.00000  -0.05432
   6   3.08024   0.00000   1.35445
   6   2.21839   0.00000  -2.53000
   6   0.99237   0.00000  -3.22079
   1  -2.00408   0.00000  -3.95344
   1  -3.76136   0.00000  -2.32611
   1  -4.36843   0.00000   0.68466
   1  -3.36615   0.00000   2.87877
   1  -0.68661   0.00000   4.37819
   1   1.67300   0.00000   4.10134
   1   4.40955   0.00000  -0.34619
   1   3.93619   0.00000   2.02555
   1   3.12241   0.00000  -3.13474
   1   1.04540   0.00000  -4.30795
 read in order, maxerr=  8.07 for atom  29
 loop 3 1
 mod cartes coords mol 2
   6  -0.30123   0.00000  -2.56086
   6  -1.70220   0.00000  -2.90772
   6  -2.74208   0.00000  -1.94708
   6  -2.50640   0.00000  -0.49877
   6  -3.28208   0.00000   0.72835
   6  -2.68632   0.00000   2.02936
   6  -1.26805   0.00000   2.23898
   6  -0.31491   0.00000   3.35502
   6   1.07427   0.00000   3.19241
   6   1.74725   0.00000   1.88182
   6   0.79740   0.00000   0.87983
   6   1.07296   0.00000  -0.50078
   6  -0.13594   0.00000  -1.18348
   6  -1.15898   0.00000  -0.23627
   6  -0.57535   0.00000   1.04091
   6   2.32862   0.00000  -1.06106
   6   3.36203   0.00000  -0.05432
[...]
  43 A'    954. -0.9993    99.9    99.0  49 A'    949.
  44 A"    958. -0.4320    18.7    99.1  42 A"    832.
                -0.4800    23.0          43 A"    845.
                 0.4666    21.8          46 A"    882.
                 0.3381    11.4          47 A"    904.
                 0.4145    17.2          48 A"    925.
  45 A"    963. -0.3418    11.7    99.2  42 A"    832.
                 0.6053    36.6          43 A"    845.
                 0.5596    31.3          47 A"    904.
                -0.3165    10.0          48 A"    925.
  46 A"    963.  0.4001    16.0    99.1  42 A"    832.
                 0.6388    40.8          46 A"    882.
                -0.5164    26.7          48 A"    925.
  47 A"    970. -0.3462    12.0    99.2  40 A"    818.
                -0.3377    11.4          42 A"    832.
                 0.3506    12.3          46 A"    882.
                -0.7096    50.3          47 A"    904.
  48 A"    970.  0.4534    20.6    99.2  43 A"    845.
                 0.4168    17.4          46 A"    882.
                 0.6221    38.7          48 A"    925.
  49 A'   1034. -0.9846    96.9   100.3  50 A'   1016.
  50 A'   1093. -0.4032    16.3    99.7  51 A'   1076.
                -0.3510    12.3          52 A'   1090.
                 0.6852    46.9          53 A'   1100.
                -0.3988    15.9          54 A'   1107.
  51 A'   1093.  0.3211    10.3    99.7  52 A'   1090.
                -0.3218    10.4          53 A'   1100.
                -0.8192    67.1          54 A'   1107.
  52 A'   1140. -0.3739    14.0    99.5  51 A'   1076.
                 0.4801    23.1          52 A'   1090.
                 0.3477    12.1          54 A'   1107.
                -0.6421    41.2          55 A'   1122.
  53 A'   1140. -0.4907    24.1    99.5  51 A'   1076.
                -0.4787    22.9          52 A'   1090.
                -0.5820    33.9          53 A'   1100.
  54 A'   1159. -0.6484    42.0    99.9  57 A'   1180.
                -0.3486    12.2          59 A'   1196.
  55 A'   1159.  0.4550    20.7   100.0   2 A'     -6.
                 0.3605    13.0          32 A'    708.
                -0.3749    14.1          57 A'   1180.
                 0.4532    20.5          62 A'   1268.
  56 A'   1161.  0.5140    26.4    99.5  51 A'   1076.
                -0.4752    22.6          52 A'   1090.
                -0.5792    33.5          55 A'   1122.
                 0.3357    11.3          56 A'   1143.
  57 A'   1161. -0.8723    76.1    99.6  56 A'   1143.
  58 A'   1201. -0.7933    62.9    99.8  58 A'   1191.
                -0.5380    28.9          59 A'   1196.
  59 A'   1201. -0.5492    30.2    99.9  57 A'   1180.
                -0.4482    20.1          58 A'   1191.
                 0.6549    42.9          59 A'   1196.
  60 A'   1231.  0.9877    97.6    99.5  60 A'   1225.
  61 A'   1240.  0.9123    83.2    99.9  61 A'   1235.
  62 A'   1320.  0.4723    22.3    99.5  62 A'   1268.
                -0.7382    54.5          63 A'   1286.
  63 A'   1320. -0.9084    82.5    99.9  64 A'   1307.
  64 A'   1366. -0.7638    58.3    99.9  65 A'   1351.
  65 A'   1366.  0.4741    22.5    99.9  62 A'   1268.
                 0.4098    16.8          65 A'   1351.
                -0.3468    12.0          67 A'   1390.
  66 A'   1411.  0.4219    17.8    99.2  67 A'   1390.
                 0.8202    67.3          68 A'   1405.
  67 A'   1411. -0.6724    45.2    99.2  67 A'   1390.
                 0.4555    20.8          68 A'   1405.
  68 A'   1433.  0.8363    69.9   100.3  66 A'   1378.
                 0.3198    10.2          67 A'   1390.
  69 A'   1433. -0.7586    57.5    99.8  69 A'   1429.
                 0.5330    28.4          72 A'   1443.
  70 A'   1449. -0.5378    28.9   100.0  69 A'   1429.
                -0.6214    38.6          71 A'   1441.
                -0.4418    19.5          72 A'   1443.
  71 A'   1450.  0.5145    26.5    99.3  70 A'   1434.
                -0.3319    11.0          72 A'   1443.
                -0.7464    55.7          73 A'   1451.
  72 A'   1450.  0.6612    43.7    99.4  70 A'   1434.
                -0.4854    23.6          71 A'   1441.
                 0.4514    20.4          72 A'   1443.
  73 A'   1480. -0.9410    88.6    99.3  74 A'   1485.
  74 A'   1518. -0.3232    10.4    99.6  73 A'   1451.
                -0.6903    47.6          75 A'   1488.
  75 A'   1518. -0.7017    49.2    99.6  75 A'   1488.
  76 A'   1718.  0.9502    90.3   100.1  78 A'   1675.
  77 A'   1719. -0.8393    70.4   100.1  77 A'   1660.
                 0.5185    26.9          79 A'   1691.
  78 A'   1721.  0.3352    11.2   100.1   2 A'     -6.
                -0.8465    71.7          76 A'   1596.
  79 A'   1721.  0.4849    23.5   100.1  77 A'   1660.
                 0.8006    64.1          79 A'   1691.
  80 A'   1741. -0.9897    97.9   100.2  80 A'   1704.
  81 A'   3154. -0.5587    31.2   100.0  81 A'   3106.
                 0.4992    24.9          82 A'   3110.
                 0.5209    27.1          85 A'   3115.
  82 A'   3154. -0.3637    13.2   100.0  81 A'   3106.
                -0.4006    16.0          82 A'   3110.
                -0.6268    39.3          83 A'   3111.
                 0.4861    23.6          85 A'   3115.
  83 A'   3154. -0.5583    31.2   100.0  81 A'   3106.
                -0.4000    16.0          82 A'   3110.
                -0.5261    27.7          84 A'   3114.
                -0.4897    24.0          85 A'   3115.
  84 A'   3154. -0.4923    24.2   100.0  81 A'   3106.
                 0.7330    53.7          84 A'   3114.
                -0.3872    15.0          85 A'   3115.
  85 A'   3155. -0.6193    38.4   100.0  82 A'   3110.
                 0.6923    47.9          83 A'   3111.
  86 A'   3171.  0.7726    59.7   100.0  86 A'   3130.
                 0.5297    28.1          88 A'   3134.
                -0.3217    10.3          90 A'   3138.
  87 A'   3171. -0.8986    80.7   100.0  87 A'   3132.
                -0.3248    10.6          89 A'   3136.
  88 A'   3172. -0.4071    16.6   100.0  86 A'   3130.
                 0.5284    27.9          88 A'   3134.
                -0.7271    52.9          89 A'   3136.
  89 A'   3172.  0.3913    15.3   100.0  86 A'   3130.
                 0.3792    14.4          87 A'   3132.
                -0.5739    32.9          88 A'   3134.
                -0.5756    33.1          89 A'   3136.
  90 A'   3173. -0.9147    83.7   100.0  90 A'   3138.
 nber times 1st assigned=           1           0
 nber times 1st assigned=           2           0
 nber times 1st assigned=           3           0
 nber times 1st assigned=           4           0
 nber times 1st assigned=           5           0
 nber times 1st assigned=           6           0
 nber times 1st assigned=           7           0
 nber times 1st assigned=           8           0
 nber times 1st assigned=           9           0
 nber times 1st assigned=          10           0
 nber times 1st assigned=          11           0
 nber times 1st assigned=          12           0
 nber times 1st assigned=          13           0
 nber times 1st assigned=          14           0
 nber times 1st assigned=          15           0
 nber times 1st assigned=          16           0
 nber times 1st assigned=          17           0
 nber times 1st assigned=          18           0
 nber times 1st assigned=          19           0
 nber times 1st assigned=          20           0
 nber times 1st assigned=          21           0
 nber times 1st assigned=          22           0
 nber times 1st assigned=          23           0
 nber times 1st assigned=          24           0
 nber times 1st assigned=          25           0
 nber times 1st assigned=          26           0
 nber times 1st assigned=          27           0
 nber times 1st assigned=          28           0
 nber times 1st assigned=          29           0
 nber times 1st assigned=          30           0
 nber times 1st assigned=          31           0
 nber times 1st assigned=          32           0
 nber times 1st assigned=          33           0
 nber times 1st assigned=          34           0
 nber times 1st assigned=          35           0
 nber times 1st assigned=          36           0
 nber times 1st assigned=          37           0
 nber times 1st assigned=          38           0
 nber times 1st assigned=          39           0
 nber times 1st assigned=          40           0
 nber times 1st assigned=          41           0
 nber times 1st assigned=          42           0
 nber times 1st assigned=          43           0
 nber times 1st assigned=          44           0
 nber times 1st assigned=          45           0
 nber times 1st assigned=          46           0
 nber times 1st assigned=          47           0
 nber times 1st assigned=          48           0
 nber times 1st assigned=          49           0
 nber times 1st assigned=          50           0
 nber times 1st assigned=          51           0
 nber times 1st assigned=          52           0
 nber times 1st assigned=          53           0
 nber times 1st assigned=          54           0
 nber times 1st assigned=          55           0
 nber times 1st assigned=          56           0
 nber times 1st assigned=          57           0
 nber times 1st assigned=          58           0
 nber times 1st assigned=          59           0
 nber times 1st assigned=          60           0
 nber times 1st assigned=          61           0
 nber times 1st assigned=          62           0
 nber times 1st assigned=          63           0
 nber times 1st assigned=          64           0
 nber times 1st assigned=          65           0
 nber times 1st assigned=          66           0
 nber times 1st assigned=          67           0
 nber times 1st assigned=          68           0
 nber times 1st assigned=          69           0
 nber times 1st assigned=          70           0
 nber times 1st assigned=          71           0
 nber times 1st assigned=          72           0
 nber times 1st assigned=          73           0
 nber times 1st assigned=          74           0
 nber times 1st assigned=          75           0
 nber times 1st assigned=          76           0
 nber times 1st assigned=          77           0
 nber times 1st assigned=          78           0
 nber times 1st assigned=          79           0
 nber times 1st assigned=          80           0
 nber times 1st assigned=          81           0
 nber times 1st assigned=          82           0
 nber times 1st assigned=          83           0
 nber times 1st assigned=          84           0
 nber times 1st assigned=          85           0
 nber times 1st assigned=          86           0
 nber times 1st assigned=          87           0
 nber times 1st assigned=          88           0
 nber times 1st assigned=          89           0
 nber times 1st assigned=          90           0
 modes represented=   83.8444991436025     
 p1=
    0.    0.    0.    0.    0.   -0.    0.    0.   -0.   -0.    0.    0.   -0.   -0.    0.    2.   -2.    0.   -0.    0.
    4.   -0.    1.    1.   -3.    1.   -0.   -0.    0.    0.   -0.    0.   -0.    0.   -0.   -0.    0.   -0.   -0.    0.
    0.    0.    0.    0.    0.   -0.   -0.    0.   -1.    1.   -0.    0.    0.    3.    2.   -0.    0.    0.   -0.   -0.
   -4.    0.    0.    1.   -1.    1.    0.    0.    0.   -3.   -0.    0.    0.    2.    2.   -0.   -0.    0.   -2.   -2.
   -0.    0.    0.   -0.   -0.   -0.    0.    0.   -0.    0.
 p2=
    0.   -0.    0.    0.   -0.    0.    0.   -0.   -0.   -0.   -0.   -0.   -0.   -0.    0.    0.    0.   -3.   -0.    0.
    0.   -0.   -4.   -1.   -0.    0.    0.   -3.   -0.   -0.   -0.    0.    0.    0.    0.    0.    0.    0.   -0.    0.
    0.   -0.   -0.    0.   -0.   -0.   -0.   -0.    0.   -0.    2.    2.   -0.   -0.    1.    0.    2.   -0.    0.   -0.
    4.   -0.    0.    0.    3.    1.    0.   -2.   -1.    0.   -1.   -0.    0.    0.    2.    0.    1.    1.    2.   -2.
   -0.   -0.    0.    0.    0.    0.   -0.    0.    0.    0.

 Displacement: in terms of nc of 1 THEN of nc of 2

   1 A"  freq=  -115. Q=  0.000 lam=    -0.0 A"  freq=  -107. Q=  0.000 lam=    -0.0
   2 A'  freq=    -0. Q=  0.000 lam=    -0.0 A'  freq=    -6. Q=  0.000 lam=    -0.0
   3 A'  freq=    -0. Q=  0.000 lam=    -0.0 A'  freq=    -0. Q=  0.000 lam=    -0.0
   4 A"  freq=    -0. Q=  0.000 lam=    -0.0 A'  freq=    -0. Q=  0.000 lam=    -0.0
   5 A"  freq=     0. Q=  0.000 lam=     0.0 A"  freq=    -0. Q=  0.000 lam=    -0.0
   6 A"  freq=     0. Q= -0.000 lam=     0.0 A'  freq=    -0. Q= -0.000 lam=    -0.0
   7 A'  freq=     0. Q=  0.000 lam=     0.0 A"  freq=     0. Q=  0.000 lam=     0.0
   8 A"  freq=   156. Q=  0.000 lam=     0.0 A"  freq=     0. Q=  0.000 lam=     0.0
   9 A"  freq=   156. Q= -0.000 lam=     0.0 A"  freq=   156. Q= -0.000 lam=     0.0
  10 A"  freq=   286. Q= -0.000 lam=     0.0 A"  freq=   157. Q= -0.000 lam=     0.0
  11 A"  freq=   286. Q=  0.000 lam=     0.0 A"  freq=   245. Q=  0.000 lam=     0.0
  12 A"  freq=   305. Q=  0.000 lam=     0.0 A"  freq=   283. Q=  0.000 lam=     0.0
  13 A"  freq=   305. Q= -0.000 lam=     0.0 A"  freq=   305. Q= -0.000 lam=     0.0
  14 A'  freq=   389. Q= -0.005 lam=     0.0 A"  freq=   306. Q= -0.000 lam=     0.0
  15 A'  freq=   389. Q=  0.003 lam=     0.0 A'  freq=   383. Q=  0.005 lam=     0.0
  16 A'  freq=   434. Q=  0.197 lam=     8.4 A'  freq=   393. Q=  0.001 lam=     0.0
  17 A'  freq=   434. Q= -0.169 lam=     6.2 A"  freq=   419. Q= -0.000 lam=     0.0
  18 A"  freq=   453. Q=  0.000 lam=     0.0 A'  freq=   430. Q=  0.261 lam=    14.7
  19 A"  freq=   453. Q= -0.000 lam=     0.0 A'  freq=   461. Q= -0.001 lam=     0.0
  20 A"  freq=   553. Q=  0.000 lam=     0.0 A"  freq=   464. Q=  0.000 lam=     0.0
  21 A'  freq=   555. Q=  0.367 lam=    37.3 A"  freq=   532. Q=  0.000 lam=     0.0
  22 A"  freq=   558. Q= -0.000 lam=     0.0 A"  freq=   553. Q= -0.000 lam=     0.0
  23 A'  freq=   562. Q=  0.074 lam=     1.5 A'  freq=   554. Q=  0.362 lam=    36.3
  24 A'  freq=   562. Q=  0.056 lam=     0.9 A'  freq=   561. Q=  0.130 lam=     4.7
  25 A'  freq=   614. Q= -0.290 lam=    25.8 A'  freq=   565. Q= -0.001 lam=     0.0
  26 A'  freq=   614. Q=  0.144 lam=     6.3 A"  freq=   592. Q=  0.000 lam=     0.0
  27 A"  freq=   614. Q= -0.000 lam=     0.0 A"  freq=   594. Q= -0.000 lam=     0.0
  28 A"  freq=   614. Q= -0.000 lam=     0.0 A'  freq=   618. Q= -0.329 lam=    33.4
  29 A'  freq=   660. Q=  0.000 lam=     0.0 A"  freq=   635. Q=  0.000 lam=     0.0
  30 A"  freq=   676. Q=  0.000 lam=     0.0 A'  freq=   656. Q=  0.000 lam=     0.0
  31 A"  freq=   676. Q= -0.000 lam=     0.0 A"  freq=   658. Q= -0.000 lam=     0.0
  32 A'  freq=   751. Q=  0.007 lam=     0.0 A'  freq=   708. Q=  0.001 lam=     0.0
  33 A'  freq=   751. Q= -0.000 lam=     0.0 A"  freq=   714. Q= -0.000 lam=     0.0
  34 A"  freq=   770. Q=  0.000 lam=     0.0 A"  freq=   718. Q=  0.000 lam=     0.0
  35 A"  freq=   770. Q= -0.000 lam=     0.0 A'  freq=   743. Q= -0.021 lam=     0.2
  36 A"  freq=   830. Q= -0.000 lam=     0.0 A'  freq=   752. Q= -0.009 lam=     0.0
  37 A"  freq=   831. Q=  0.000 lam=     0.0 A"  freq=   757. Q=  0.000 lam=     0.0
  38 A"  freq=   839. Q= -0.000 lam=     0.0 A"  freq=   774. Q= -0.000 lam=     0.0
  39 A"  freq=   839. Q= -0.000 lam=     0.0 A"  freq=   786. Q= -0.000 lam=     0.0
  40 A"  freq=   848. Q=  0.000 lam=     0.0 A"  freq=   818. Q=  0.000 lam=     0.0
  41 A'  freq=   869. Q=  0.000 lam=     0.0 A"  freq=   820. Q=  0.000 lam=     0.0
  42 A'  freq=   869. Q=  0.004 lam=     0.0 A"  freq=   832. Q=  0.000 lam=     0.0
  43 A'  freq=   954. Q=  0.001 lam=     0.0 A"  freq=   845. Q=  0.000 lam=     0.0
  44 A"  freq=   958. Q=  0.000 lam=     0.0 A'  freq=   859. Q=  0.012 lam=     0.1
  45 A"  freq=   963. Q=  0.000 lam=     0.0 A'  freq=   863. Q=  0.006 lam=     0.0
  46 A"  freq=   963. Q= -0.000 lam=     0.0 A"  freq=   882. Q= -0.000 lam=     0.0
  47 A"  freq=   970. Q= -0.000 lam=     0.0 A"  freq=   904. Q= -0.000 lam=     0.0
  48 A"  freq=   970. Q=  0.000 lam=     0.0 A"  freq=   925. Q=  0.000 lam=     0.0
  49 A'  freq=  1034. Q= -0.178 lam=    16.4 A'  freq=   949. Q= -0.001 lam=     0.0
  50 A'  freq=  1093. Q=  0.088 lam=     4.2 A'  freq=  1016. Q=  0.060 lam=     1.8
  51 A'  freq=  1093. Q= -0.040 lam=     0.9 A'  freq=  1076. Q= -0.229 lam=    28.1
  52 A'  freq=  1140. Q=  0.008 lam=     0.0 A'  freq=  1090. Q=  0.210 lam=    24.1
  53 A'  freq=  1140. Q=  0.054 lam=     1.7 A'  freq=  1100. Q=  0.022 lam=     0.3
  54 A'  freq=  1159. Q=  0.433 lam=   108.5 A'  freq=  1107. Q=  0.017 lam=     0.2
  55 A'  freq=  1159. Q=  0.249 lam=    36.0 A'  freq=  1122. Q=  0.087 lam=     4.3
  56 A'  freq=  1161. Q= -0.006 lam=     0.0 A'  freq=  1143. Q= -0.043 lam=     1.1
  57 A'  freq=  1161. Q=  0.001 lam=     0.0 A'  freq=  1180. Q=  0.254 lam=    38.0
  58 A'  freq=  1201. Q=  0.001 lam=     0.0 A'  freq=  1191. Q=  0.048 lam=     1.4
  59 A'  freq=  1201. Q= -0.001 lam=     0.0 A'  freq=  1196. Q= -0.046 lam=     1.2
  60 A'  freq=  1231. Q= -0.001 lam=     0.0 A'  freq=  1225. Q= -0.002 lam=     0.0
  61 A'  freq=  1240. Q= -0.525 lam=   171.0 A'  freq=  1235. Q= -0.586 lam=   212.0
  62 A'  freq=  1320. Q=  0.002 lam=     0.0 A'  freq=  1268. Q=  0.020 lam=     0.3
  63 A'  freq=  1320. Q=  0.004 lam=     0.0 A'  freq=  1286. Q=  0.046 lam=     1.4
  64 A'  freq=  1366. Q=  0.216 lam=    31.9 A'  freq=  1307. Q=  0.026 lam=     0.4
  65 A'  freq=  1366. Q= -0.123 lam=    10.4 A'  freq=  1351. Q= -0.390 lam=   102.6
  66 A'  freq=  1411. Q=  0.131 lam=    12.0 A'  freq=  1378. Q=  0.091 lam=     5.6
  67 A'  freq=  1411. Q=  0.063 lam=     2.8 A'  freq=  1390. Q=  0.021 lam=     0.3
  68 A'  freq=  1433. Q=  0.002 lam=     0.0 A'  freq=  1405. Q=  0.237 lam=    39.6
  69 A'  freq=  1433. Q=  0.008 lam=     0.0 A'  freq=  1429. Q=  0.211 lam=    31.9
  70 A'  freq=  1449. Q= -0.480 lam=   166.9 A'  freq=  1434. Q= -0.063 lam=     2.8
  71 A'  freq=  1450. Q= -0.010 lam=     0.1 A'  freq=  1441. Q= -0.219 lam=    34.6
  72 A'  freq=  1450. Q=  0.007 lam=     0.0 A'  freq=  1443. Q=  0.063 lam=     2.9
  73 A'  freq=  1480. Q=  0.001 lam=     0.0 A'  freq=  1451. Q=  0.041 lam=     1.2
  74 A'  freq=  1518. Q=  0.238 lam=    43.2 A'  freq=  1485. Q=  0.010 lam=     0.1
  75 A'  freq=  1518. Q=  0.238 lam=    43.1 A'  freq=  1488. Q=  0.281 lam=    58.8
  76 A'  freq=  1718. Q= -0.017 lam=     0.2 A'  freq=  1596. Q= -0.001 lam=     0.0
  77 A'  freq=  1719. Q= -0.018 lam=     0.3 A'  freq=  1660. Q= -0.174 lam=    25.2
  78 A'  freq=  1721. Q=  0.074 lam=     4.7 A'  freq=  1675. Q=  0.135 lam=    15.4
  79 A'  freq=  1721. Q= -0.388 lam=   129.9 A'  freq=  1691. Q= -0.366 lam=   113.5
  80 A'  freq=  1741. Q= -0.261 lam=    59.3 A'  freq=  1704. Q= -0.272 lam=    62.8
  81 A'  freq=  3154. Q= -0.001 lam=     0.0 A'  freq=  3106. Q= -0.002 lam=     0.0
  82 A'  freq=  3154. Q=  0.001 lam=     0.0 A'  freq=  3110. Q=  0.002 lam=     0.0
  83 A'  freq=  3154. Q=  0.003 lam=     0.0 A'  freq=  3111. Q=  0.012 lam=     0.2
  84 A'  freq=  3154. Q= -0.006 lam=     0.1 A'  freq=  3114. Q= -0.011 lam=     0.2
  85 A'  freq=  3155. Q= -0.009 lam=     0.1 A'  freq=  3115. Q= -0.002 lam=     0.0
  86 A'  freq=  3171. Q= -0.012 lam=     0.2 A'  freq=  3130. Q= -0.026 lam=     1.1
  87 A'  freq=  3171. Q=  0.001 lam=     0.0 A'  freq=  3132. Q=  0.005 lam=     0.0
  88 A'  freq=  3172. Q=  0.003 lam=     0.0 A'  freq=  3134. Q=  0.011 lam=     0.2
  89 A'  freq=  3172. Q= -0.006 lam=     0.1 A'  freq=  3136. Q= -0.007 lam=     0.1
  90 A'  freq=  3173. Q=  0.062 lam=     6.1 A'  freq=  3138. Q=  0.056 lam=     4.9

 total reorg energy (cm**-1, kcal/mol)=      937.      908.      2.68      2.60
 Nber of molecules processed=           2
