 Enter ifcurve (0=recti, 1=orth curvi, 2=apprx curvi, -1 = skip
 And atom ordering flag, 0= never changes, 1= use the first order thenceforth,
  2= deduce it (does read on fail), 3= always read it
 Reading file: 
 ./Non-cov-phenyl-N_2_C0S0.log                                                  
                                          
  Entering Gaussian System, Link 0=g16                                          
  
 Gaussian format, type: g94, g98, g03= F F F
  #P Geom=AllCheck Guess=TCheck SCRF=Check GenChk RB3LYP/6-311G(d,p) Fre    
 energy type= B3LYP   
 Original G94 input coords:
  6  7.482966  0.000000  0.000000
  6  6.776026 -1.199154  0.000000
  6  5.385820 -1.197805  0.000000
  6  4.649542  0.000000  0.000000
  6  3.158659  0.000000  0.000000
  6  2.419303  1.196911  0.000000
  6  1.033388  1.200949  0.000000
  6  0.313217  0.000000  0.000000
  6 -1.163980  0.000000  0.000000
  7 -1.788210  1.191967  0.000000
  6 -3.115764  1.182695  0.000000
  6 -3.864072  0.000000  0.000000
  6 -5.339610  0.000000  0.000000
  7 -5.956436  1.192962  0.000000
  6 -7.288318  1.180727  0.000000
  6 -8.023925  0.000000  0.000000
  6 -7.288318 -1.180727  0.000000
  7 -5.956436 -1.192962  0.000000
  6 -3.115764 -1.182695  0.000000
  7 -1.788210 -1.191967  0.000000
  6  1.033388 -1.200949  0.000000
  6  2.419303 -1.196911  0.000000
  6  5.385820  1.197805  0.000000
  6  6.776026  1.199154  0.000000
  1  8.567219  0.000000  0.000000
  1  7.308026 -2.144374  0.000000
  1  4.876275 -2.151974  0.000000
  1  2.925648  2.152500  0.000000
  1  0.487685  2.135222  0.000000
  1 -3.621024  2.142174  0.000000
  1 -7.779347  2.150242  0.000000
  1 -9.106159  0.000000  0.000000
  1 -7.779347 -2.150242  0.000000
  1 -3.621024 -2.142174  0.000000
  1  0.487685 -2.135222  0.000000
  1  2.925648 -2.152500  0.000000
  1  4.876275  2.151974  0.000000
  1  7.308026  2.144374  0.000000
 nber atoms=          38
 Original standard coords:
  6  0.000000  0.000000  7.821035
  6  0.000000  1.199154  7.114095
  6  0.000000  1.197805  5.723889
  6  0.000000  0.000000  4.987611
  6  0.000000  0.000000  3.496729
  6  0.000000 -1.196911  2.757372
  6  0.000000 -1.200949  1.371457
  6  0.000000  0.000000  0.651286
  6  0.000000  0.000000 -0.825910
  7  0.000000 -1.191967 -1.450140
  6  0.000000 -1.182695 -2.777694
  6  0.000000  0.000000 -3.526002
  6  0.000000  0.000000 -5.001541
  7  0.000000 -1.192962 -5.618367
  6  0.000000 -1.180727 -6.950249
  6  0.000000  0.000000 -7.685856
  6  0.000000  1.180727 -6.950249
  7  0.000000  1.192962 -5.618367
  6  0.000000  1.182695 -2.777694
  7  0.000000  1.191967 -1.450140
  6  0.000000  1.200949  1.371457
  6  0.000000  1.196911  2.757372
  6  0.000000 -1.197805  5.723889
  6  0.000000 -1.199154  7.114095
  1  0.000000  0.000000  8.905288
  1  0.000000  2.144374  7.646095
  1  0.000000  2.151974  5.214345
  1  0.000000 -2.152500  3.263717
  1  0.000000 -2.135222  0.825754
  1  0.000000 -2.142174 -3.282955
  1  0.000000 -2.150242 -7.441278
  1  0.000000  0.000000 -8.768090
  1  0.000000  2.150242 -7.441278
  1  0.000000  2.142174 -3.282955
  1  0.000000  2.135222  0.825754
  1  0.000000  2.152500  3.263717
  1  0.000000 -2.151974  5.214345
  1  0.000000 -2.144374  7.646095
  SCF Done:  E(RB3LYP) =  -989.811722137     A.U. after    1 cycles             
  
          23          40 "  -989.811722137"
After scan for Atom:   Atom  AN      X      Y      Z        X      Y      Z        X      Y      Z   
After scan for Atom:   Atom  AN      X      Y      Z        X      Y      Z        X      Y      Z   
After scan for Atom:   Atom  AN      X      Y      Z        X      Y      Z        X      Y      Z   
After scan for Atom:   Atom  AN      X      Y      Z        X      Y      Z        X      Y      Z   
After scan for Atom:   Atom  AN      X      Y      Z        X      Y      Z        X      Y      Z   
After scan for Atom:   Atom  AN      X      Y      Z        X      Y      Z        X      Y      Z   
After scan for Atom:   Atom  AN      X      Y      Z        X      Y      Z        X      Y      Z   
After scan for Atom:   Atom  AN      X      Y      Z        X      Y      Z        X      Y      Z   
After scan for Atom:   Atom  AN      X      Y      Z        X      Y      Z        X      Y      Z   
After scan for Atom:   Atom  AN      X      Y      Z        X      Y      Z        X      Y      Z   
After scan for Atom:   Atom  AN      X      Y      Z        X      Y      Z        X      Y      Z   
After scan for Atom:   Atom  AN      X      Y      Z        X      Y      Z        X      Y      Z   
After scan for Atom:   Atom  AN      X      Y      Z        X      Y      Z        X      Y      Z   
After scan for Atom:   Atom  AN      X      Y      Z        X      Y      Z        X      Y      Z   
After scan for Atom:   Atom  AN      X      Y      Z        X      Y      Z        X      Y      Z   
After scan for Atom:   Atom  AN      X      Y      Z        X      Y      Z        X      Y      Z   
After scan for Atom:   Atom  AN      X      Y      Z        X      Y      Z        X      Y      Z   
After scan for Atom:   Atom  AN      X      Y      Z        X      Y      Z        X      Y      Z   
After scan for Atom:   Atom  AN      X      Y      Z        X      Y      Z        X      Y      Z   
After scan for Atom:   Atom  AN      X      Y      Z        X      Y      Z        X      Y      Z   
After scan for Atom:   Atom  AN      X      Y      Z        X      Y      Z        X      Y      Z   
After scan for Atom:   Atom  AN      X      Y      Z        X      Y      Z        X      Y      Z   
After scan for Atom:   Atom  AN      X      Y      Z        X      Y      Z        X      Y      Z   
After scan for Atom:   Atom  AN      X      Y      Z        X      Y      Z        X      Y      Z   
After scan for Atom:   Atom  AN      X      Y      Z        X      Y      Z        X      Y      Z   
After scan for Atom:   Atom  AN      X      Y      Z        X      Y      Z        X      Y      Z   
After scan for Atom:   Atom  AN      X      Y      Z        X      Y      Z        X      Y      Z   
After scan for Atom:   Atom  AN      X      Y      Z        X      Y      Z        X      Y      Z   
After scan for Atom:   Atom  AN      X      Y      Z        X      Y      Z        X      Y      Z   
After scan for Atom:   Atom  AN      X      Y      Z        X      Y      Z        X      Y      Z   
After scan for Atom:   Atom  AN      X      Y      Z        X      Y      Z        X      Y      Z   
After scan for Atom:   Atom  AN      X      Y      Z        X      Y      Z        X      Y      Z   
After scan for Atom:   Atom  AN      X      Y      Z        X      Y      Z        X      Y      Z   
After scan for Atom:   Atom  AN      X      Y      Z        X      Y      Z        X      Y      Z   
After scan for Atom:   Atom  AN      X      Y      Z        X      Y      Z        X      Y      Z   
After scan for Atom:   Atom  AN      X      Y      Z        X      Y      Z        X      Y      Z   
 g94    frequencies=
     0.0    0.0    0.0    0.0    0.0    0.0  -78.9   20.8   33.5   52.6
    59.3   66.8  119.2  132.9  165.8  173.7  212.6  258.5  336.8  338.2
   380.7  396.1  406.9  413.5  417.7  441.7  445.8  481.0  508.5  514.7
   560.6  593.4  631.1  645.4  655.5  656.1  671.1  695.9  721.2  739.9
   775.9  779.2  819.2  823.7  827.5  830.1  843.3  854.1  879.4  922.8
   970.5  992.9  997.5  999.3 1003.0 1004.2 1008.5 1012.8 1014.3 1015.9
  1022.4 1032.9 1045.1 1064.0 1074.7 1092.8 1111.7 1113.8 1129.2 1147.0
  1187.7 1204.0 1224.8 1235.4 1237.6 1271.9 1285.7 1289.9 1303.0 1330.6
  1341.1 1345.7 1357.2 1373.3 1412.5 1434.0 1438.0 1467.3 1483.9 1485.9
  1523.8 1557.7 1561.7 1598.8 1605.7 1607.9 1624.5 1629.5 1642.1 1655.7
  3148.0 3150.1 3159.0 3167.8 3182.0 3182.3 3182.6 3190.1 3191.3 3203.8
  3204.2 3204.7 3213.1 3215.2
 g94    symmetries=
                                                A2     B1     A2     B2
      B1     A2     B1     B2     B1     A1     B2     B1     B1     A1
      B2     A2     A2     A2     A2     B2     B1     A1     B2     B1
      B1     B1     B2     B2     B2     A1     B2     B1     A1     B1
      A1     B1     B1     A2     B1     A1     B1     A2     B1     B1
      A2     B1     A2     B1     B1     A2     A1     B1     A1     A2
      A1     A1     A1     A1     A1     A1     B2     B2     A1     B2
      B2     A1     B2     A1     B2     B2     A1     B2     B2     B2
      B2     A1     A1     B2     B2     A1     B2     B2     B2     A1
      A1     A1     B2     B2     A1     B2     B2     A1     A1     A1
      A1     B2     A1     B2     B2     A1     A1     B2     A1     A1
      B2     A1     B2     A1
 atomic masses:
 12.0000 12.0000 12.0000 12.0000 12.0000 12.0000 12.0000 12.0000 12.0000 14.0031
 12.0000 12.0000 12.0000 14.0031 12.0000 12.0000 12.0000 14.0031 12.0000 14.0031
 12.0000 12.0000 12.0000 12.0000  1.0078  1.0078  1.0078  1.0078  1.0078  1.0078
  1.0078  1.0078  1.0078  1.0078  1.0078  1.0078  1.0078  1.0078
 looking for force constants in 
 ./Non-cov-phenyl-N_2_C0S0.fchk                                                 
  
 Cartesian Force Constants                  R   N=        6555                  
  
 n3=         114        6555
 g94-fc frequencies=
   -78.9   -8.6   -2.1    0.0    0.0    0.0    0.2   20.8   33.5   52.6
    59.3   66.8  119.2  132.9  165.8  173.7  212.6  258.5  336.8  338.2
   380.7  396.1  406.9  413.5  417.8  441.7  445.8  481.0  508.5  514.7
   560.6  593.4  631.1  645.4  655.6  656.1  671.1  695.9  721.2  739.9
   775.9  779.2  819.2  823.7  827.5  830.1  843.3  854.1  879.4  922.8
   970.5  992.9  997.6  999.3 1003.1 1004.2 1008.5 1012.8 1014.3 1015.9
  1022.5 1032.9 1045.1 1064.0 1074.8 1092.8 1111.7 1113.8 1129.2 1147.1
  1187.7 1204.0 1224.8 1235.4 1237.6 1271.9 1285.8 1289.9 1303.0 1330.6
  1341.1 1345.7 1357.2 1373.3 1412.5 1434.1 1438.0 1467.3 1483.9 1485.9
  1523.8 1557.8 1561.7 1598.8 1605.8 1607.9 1624.5 1629.6 1642.1 1655.7
  3148.1 3150.2 3159.1 3167.8 3182.1 3182.3 3182.7 3190.2 3191.3 3203.9
  3204.2 3204.7 3213.2 3215.2
 at 99999: n3=         114
 symm operator            1 :  T  nop=           1
 symm operator            2 :  F  nop=           1
 symm operator            3 :  F  nop=           1
 symm operator            4 :  F  nop=           1
 symm operator            5 :  F  nop=           1
 symm operator            6 :  T  nop=           2
 symm operator            7 :  T  nop=           3
 The point group of the molecule is C2V
 enforcing symm op           1  jsymt=          -1          -1           1
 enforcing symm op           6  jsymt=           1          -1           1
 enforcing symm op           7  jsymt=          -1           1           1
 cartesian coord symmetries:
 A1 :   38 A2 :   14 B1 :   24 B2 :   38
 Symmetry rotation matrix:
   1.00000   0.00000   0.00000
   0.00000   1.00000   0.00000
   0.00000   0.00000   1.00000

 Projecting out zero-frequency components
 generating redundant internal coords
         300        3600          38
 search for int coords
   1 str   2   1   1.392
   2 str   3   2   1.390
   3 str   4   3   1.406
   4 str   5   4   1.491
   5 str   6   5   1.407
   6 str   7   6   1.386
   7 str   8   7   1.400
   8 str   9   8   1.477
   9 str  10   9   1.346
  10 str  11  10   1.328
  11 str  12  11   1.400
  12 str  13  12   1.476
  13 str  14  13   1.343
  14 str  15  14   1.332
  15 str  16  15   1.391
  16 str  17  16   1.391
  17 str  18  13   1.343
  18 str  18  17   1.332
  19 str  19  12   1.400
  20 str  20   9   1.346
  21 str  20  19   1.328
  22 str  21   8   1.400
  23 str  22   5   1.407
  24 str  22  21   1.386
  25 str  23   4   1.406
  26 str  24   1   1.392
  27 str  24  23   1.390
  28 str  25   1   1.084
  29 str  26   2   1.085
  30 str  27   3   1.082
  31 str  28   6   1.081
  32 str  29   7   1.082
  33 str  30  11   1.084
  34 str  31  15   1.087
  35 str  32  16   1.082
  36 str  33  17   1.087
  37 str  34  19   1.084
  38 str  35  21   1.082
  39 str  36  22   1.081
  40 str  37  23   1.082
  41 str  38  24   1.085
 nber stretches=          41
  42 ben   1   2   3
  43 prop tor   1   2   3   4
  44 prop tor   1   2   3  27
  45 ben   1   2  26
  46 ben   1  24  23
  47 ben   1  24  38
  48 ben   2   1  24
  49 prop tor   2   1  24  23
  50 prop tor   2   1  24  38
  51 ben   2   1  25
  52 ben   2   3   4
  53 prop tor   2   3   4   5
  54 prop tor   2   3   4  23
  55 ben   2   3  27
  56 ben   3   2  26
  57 ben   3   4   5
  58 prop tor   3   4   5   6
  59 prop tor   3   4   5  22
  60 ben   3   4  23
  61 prop tor   3   4  23  24
  62 prop tor   3   4  23  37
  63 ben   4   3  27
  64 ben   4   5   6
  65 prop tor   4   5   6   7
  66 prop tor   4   5   6  28
  67 ben   4   5  22
  68 prop tor   4   5  22  21
  69 prop tor   4   5  22  36
  70 ben   4  23  24
  71 prop tor   4  23  24   1
  72 prop tor   4  23  24  38
  73 ben   4  23  37
  74 ben   5   4  23
  75 prop tor   5   4  23  24
  76 prop tor   5   4  23  37
  77 ben   5   6   7
  78 prop tor   5   6   7   8
  79 prop tor   5   6   7  29
  80 ben   5   6  28
  81 ben   5  22  21
  82 ben   5  22  36
  83 ben   6   5  22
  84 prop tor   6   5  22  21
  85 prop tor   6   5  22  36
  86 ben   6   7   8
  87 prop tor   6   7   8   9
  88 prop tor   6   7   8  21
  89 ben   6   7  29
  90 ben   7   6  28
  91 ben   7   8   9
  92 prop tor   7   8   9  10
  93 prop tor   7   8   9  20
  94 ben   7   8  21
  95 prop tor   7   8  21  22
  96 prop tor   7   8  21  35
  97 ben   8   7  29
  98 ben   8   9  10
  99 prop tor   8   9  10  11
 100 ben   8   9  20
 101 prop tor   8   9  20  19
 102 ben   8  21  22
 103 prop tor   8  21  22   5
 104 prop tor   8  21  22  36
 105 ben   8  21  35
 106 ben   9   8  21
 107 prop tor   9   8  21  22
 108 prop tor   9   8  21  35
 109 ben   9  10  11
 110 prop tor   9  10  11  12
 111 prop tor   9  10  11  30
 112 ben   9  20  19
 113 ben  10   9  20
 114 prop tor  10   9  20  19
 115 ben  10  11  12
 116 prop tor  10  11  12  13
 117 prop tor  10  11  12  19
 118 ben  10  11  30
 119 ben  11  12  13
 120 prop tor  11  12  13  14
 121 prop tor  11  12  13  18
 122 ben  11  12  19
 123 prop tor  11  12  19  20
 124 prop tor  11  12  19  34
 125 ben  12  11  30
 126 ben  12  13  14
 127 prop tor  12  13  14  15
 128 ben  12  13  18
 129 prop tor  12  13  18  17
 130 ben  12  19  20
 131 prop tor  12  19  20   9
 132 ben  12  19  34
 133 ben  13  12  19
 134 prop tor  13  12  19  20
 135 prop tor  13  12  19  34
 136 ben  13  14  15
 137 prop tor  13  14  15  16
 138 prop tor  13  14  15  31
 139 ben  13  18  17
 140 ben  14  13  18
 141 prop tor  14  13  18  17
 142 ben  14  15  16
 143 prop tor  14  15  16  17
 144 prop tor  14  15  16  32
 145 ben  14  15  31
 146 ben  15  16  17
 147 prop tor  15  16  17  18
 148 prop tor  15  16  17  33
 149 ben  15  16  32
 150 ben  16  15  31
 151 ben  16  17  18
 152 prop tor  16  17  18  13
 153 ben  16  17  33
 154 ben  17  16  32
 155 prop tor  18  13  14  15
 156 ben  18  17  33
 157 prop tor  19  12  13  14
 158 prop tor  19  12  13  18
 159 prop tor  20   9  10  11
 160 ben  20  19  34
 161 prop tor  21   8   9  10
 162 prop tor  21   8   9  20
 163 ben  21  22  36
 164 prop tor  22   5   6   7
 165 prop tor  22   5   6  28
 166 ben  22  21  35
 167 prop tor  23   4   5   6
 168 prop tor  23   4   5  22
 169 ben  23  24  38
 170 prop tor  24   1   2   3
 171 prop tor  24   1   2  26
 172 ben  24   1  25
 173 ben  24  23  37
 174 prop tor  25   1   2   3
 175 prop tor  25   1   2  26
 176 prop tor  25   1  24  23
 177 prop tor  25   1  24  38
 178 prop tor  26   2   3   4
 179 prop tor  26   2   3  27
 180 prop tor  27   3   4   5
 181 prop tor  27   3   4  23
 182 prop tor  28   6   7   8
 183 prop tor  28   6   7  29
 184 prop tor  29   7   8   9
 185 prop tor  29   7   8  21
 186 prop tor  30  11  12  13
 187 prop tor  30  11  12  19
 188 prop tor  31  15  16  17
 189 prop tor  31  15  16  32
 190 prop tor  32  16  17  18
 191 prop tor  32  16  17  33
 192 prop tor  33  17  18  13
 193 prop tor  34  19  20   9
 194 prop tor  35  21  22   5
 195 prop tor  35  21  22  36
 196 prop tor  37  23  24   1
 197 prop tor  37  23  24  38
 nber bend=              64
 nber lin bend=           0
 nber prop tor=          92
 nber impr tor=           0
 nber tot redund int=         197
 Eigenvalues of G in red int coords
    Gval -0.00000000 -0.00000000 -0.00000000 -0.00000000 -0.00000000 -0.00000000 -0.00000000 -0.00000000
    Gval -0.00000000 -0.00000000 -0.00000000 -0.00000000 -0.00000000 -0.00000000 -0.00000000 -0.00000000
    Gval -0.00000000 -0.00000000 -0.00000000 -0.00000000 -0.00000000 -0.00000000 -0.00000000 -0.00000000
    Gval -0.00000000 -0.00000000 -0.00000000 -0.00000000 -0.00000000 -0.00000000 -0.00000000 -0.00000000
    Gval -0.00000000 -0.00000000 -0.00000000 -0.00000000 -0.00000000 -0.00000000 -0.00000000 -0.00000000
    Gval -0.00000000 -0.00000000 -0.00000000 -0.00000000  0.00000000  0.00000000  0.00000000  0.00000000
    Gval  0.00000000  0.00000000  0.00000000  0.00000000  0.00000000  0.00000000  0.00000000  0.00000000
    Gval  0.00000000  0.00000000  0.00000000  0.00000000  0.00000000  0.00000000  0.00000000  0.00000000
    Gval  0.00000000  0.00000000  0.00000000  0.00000000  0.00000000  0.00000000  0.00000000  0.00000000
    Gval  0.00000000  0.00000000  0.00000000  0.00000000  0.00000000  0.00000000  0.00000000  0.00000000
    Gval  0.00000000  0.00000000  0.00000000  0.00000000  0.00000000  0.00000000  0.00000000  0.00000000
    Gval  0.00000000  0.00000049  0.00000168  0.00000205  0.00000303  0.00000769  0.00000853  0.00001276
    Gval  0.00001395  0.00001542  0.00001983  0.00002829  0.00002990  0.00004209  0.00004522  0.00004601
    Gval  0.00004727  0.00004790  0.00004994  0.00005521  0.00005548  0.00005883  0.00005901  0.00006688
    Gval  0.00006785  0.00007769  0.00008438  0.00008791  0.00010048  0.00010561  0.00010585  0.00011526
    Gval  0.00011701  0.00011837  0.00012075  0.00012229  0.00012604  0.00013298  0.00017267  0.00020898
    Gval  0.00022617  0.00025177  0.00026233  0.00027600  0.00027989  0.00028879  0.00031489  0.00034990
    Gval  0.00036397  0.00037929  0.00037954  0.00039176  0.00039181  0.00041536  0.00042926  0.00050511
    Gval  0.00053270  0.00056549  0.00059138  0.00059307  0.00059343  0.00059364  0.00059772  0.00060012
    Gval  0.00060407  0.00060415  0.00060687  0.00062012  0.00062340  0.00062671  0.00063869  0.00064167
    Gval  0.00065004  0.00066110  0.00071714  0.00091322  0.00104104  0.00104812  0.00106093  0.00107903
    Gval  0.00110712  0.00110983  0.00111175  0.00112949  0.00113119  0.00113896  0.00115448  0.00116982
    Gval  0.00117242  0.00117247  0.00117488  0.00140186  0.00143031  0.00144781  0.00154820  0.00165681
    Gval  0.00192757  0.00225699  0.00226610  0.00234291  0.00235748  0.00236871  0.00251330  0.00314089
    Gval  0.00363348  0.00370560  0.00372750  0.00373439  0.00406488
  4.899829773716455E-007  4.899829773716455E-007
  1.679908469554318E-006  4.899829773716455E-007
  2.050899423510303E-006  4.899829773716455E-007
  3.027004531706432E-006  4.899829773716455E-007
  7.693429389310314E-006  4.899829773716455E-007
  8.533065555520569E-006  4.899829773716455E-007
  1.275615142730835E-005  4.899829773716455E-007
  1.395229618310758E-005  4.899829773716455E-007
  1.541976576587530E-005  4.899829773716455E-007
  1.983101588001260E-005  4.899829773716455E-007
  2.828972579420557E-005  4.899829773716455E-007
  2.989643262479264E-005  4.899829773716455E-007
  4.209088739582471E-005  4.899829773716455E-007
  4.522372155957671E-005  4.899829773716455E-007
  4.601337182529025E-005  4.899829773716455E-007
  4.727183437570080E-005  4.899829773716455E-007
  4.790074877775426E-005  4.899829773716455E-007
  4.993560418084425E-005  4.899829773716455E-007
  5.520935404237117E-005  4.899829773716455E-007
  5.547823619477048E-005  4.899829773716455E-007
  5.883299875546045E-005  4.899829773716455E-007
  5.900795006934563E-005  4.899829773716455E-007
  6.687677043540067E-005  4.899829773716455E-007
  6.784506423026981E-005  4.899829773716455E-007
  7.768820083122226E-005  4.899829773716455E-007
  8.437594699390924E-005  4.899829773716455E-007
  8.791120563494473E-005  4.899829773716455E-007
  1.004785261167936E-004  4.899829773716455E-007
  1.056080582704210E-004  4.899829773716455E-007
  1.058514651837545E-004  4.899829773716455E-007
  1.152555670667434E-004  4.899829773716455E-007
  1.170138667932904E-004  4.899829773716455E-007
  1.183707816639255E-004  4.899829773716455E-007
  1.207494934272602E-004  4.899829773716455E-007
  1.222943644285595E-004  4.899829773716455E-007
  1.260409498161428E-004  4.899829773716455E-007
  1.329755232586345E-004  4.899829773716455E-007
  1.726734267692626E-004  4.899829773716455E-007
  2.089794391226187E-004  4.899829773716455E-007
  2.261743016848535E-004  4.899829773716455E-007
  2.517721042865430E-004  4.899829773716455E-007
  2.623308567514648E-004  4.899829773716455E-007
  2.759991970446973E-004  4.899829773716455E-007
  2.798851340832316E-004  4.899829773716455E-007
  2.887913071983469E-004  4.899829773716455E-007
  3.148906888562920E-004  4.899829773716455E-007
  3.499036563258431E-004  4.899829773716455E-007
  3.639709253268615E-004  4.899829773716455E-007
  3.792897704351127E-004  4.899829773716455E-007
  3.795438122969706E-004  4.899829773716455E-007
  3.917613603735703E-004  4.899829773716455E-007
  3.918133348974153E-004  4.899829773716455E-007
  4.153602096558792E-004  4.899829773716455E-007
  4.292627219467877E-004  4.899829773716455E-007
  5.051119938902036E-004  4.899829773716455E-007
  5.326969718716987E-004  4.899829773716455E-007
  5.654884615435271E-004  4.899829773716455E-007
  5.913822612623102E-004  4.899829773716455E-007
  5.930735513433257E-004  4.899829773716455E-007
  5.934347449356433E-004  4.899829773716455E-007
  5.936437824580888E-004  4.899829773716455E-007
  5.977196814288086E-004  4.899829773716455E-007
  6.001244182955460E-004  4.899829773716455E-007
  6.040666971331495E-004  4.899829773716455E-007
  6.041487243706006E-004  4.899829773716455E-007
  6.068675167351443E-004  4.899829773716455E-007
  6.201247184654978E-004  4.899829773716455E-007
  6.234049160233602E-004  4.899829773716455E-007
  6.267068962697488E-004  4.899829773716455E-007
  6.386874569672466E-004  4.899829773716455E-007
  6.416699283689206E-004  4.899829773716455E-007
  6.500411198973243E-004  4.899829773716455E-007
  6.611012915370370E-004  4.899829773716455E-007
  7.171355173539058E-004  4.899829773716455E-007
  9.132186030571021E-004  4.899829773716455E-007
  1.041043465508513E-003  4.899829773716455E-007
  1.048116013178089E-003  4.899829773716455E-007
  1.060930403489531E-003  4.899829773716455E-007
  1.079030369913362E-003  4.899829773716455E-007
  1.107116587271456E-003  4.899829773716455E-007
  1.109833531314349E-003  4.899829773716455E-007
  1.111754437701234E-003  4.899829773716455E-007
  1.129487735125183E-003  4.899829773716455E-007
  1.131189527173734E-003  4.899829773716455E-007
  1.138963623665418E-003  4.899829773716455E-007
  1.154479940747954E-003  4.899829773716455E-007
  1.169823600131360E-003  4.899829773716455E-007
  1.172422110153703E-003  4.899829773716455E-007
  1.172473932721457E-003  4.899829773716455E-007
  1.174876713308246E-003  4.899829773716455E-007
  1.401860515218710E-003  4.899829773716455E-007
  1.430311475049792E-003  4.899829773716455E-007
  1.447814835868288E-003  4.899829773716455E-007
  1.548203902209257E-003  4.899829773716455E-007
  1.656808323469491E-003  4.899829773716455E-007
  1.927567126746294E-003  4.899829773716455E-007
  2.256992661616349E-003  4.899829773716455E-007
  2.266095465660180E-003  4.899829773716455E-007
  2.342912929851592E-003  4.899829773716455E-007
  2.357484361200718E-003  4.899829773716455E-007
  2.368710063787785E-003  4.899829773716455E-007
  2.513300127786223E-003  4.899829773716455E-007
  3.140891824892573E-003  4.899829773716455E-007
  3.633477045308981E-003  4.899829773716455E-007
  3.705599061081124E-003  4.899829773716455E-007
  3.727496749360020E-003  4.899829773716455E-007
  3.734394848593072E-003  4.899829773716455E-007
  4.064881506297522E-003  4.899829773716455E-007
 cut=1d-8, nber non-redundant internal coords=         108
 Check on Eigenvals of non-red overlap matrix:
  0.00000049  0.00000168  0.00000205  0.00000303  0.00000769  0.00000853  0.00001276  0.00001395
  0.00001542  0.00001983  0.00002829  0.00002990  0.00004209  0.00004522  0.00004601  0.00004727
  0.00004790  0.00004994  0.00005521  0.00005548  0.00005883  0.00005901  0.00006688  0.00006785
  0.00007769  0.00008438  0.00008791  0.00010048  0.00010561  0.00010585  0.00011526  0.00011701
  0.00011837  0.00012075  0.00012229  0.00012604  0.00013298  0.00017267  0.00020898  0.00022617
  0.00025177  0.00026233  0.00027600  0.00027989  0.00028879  0.00031489  0.00034990  0.00036397
  0.00037929  0.00037954  0.00039176  0.00039181  0.00041536  0.00042926  0.00050511  0.00053270
  0.00056549  0.00059138  0.00059307  0.00059343  0.00059364  0.00059772  0.00060012  0.00060407
  0.00060415  0.00060687  0.00062012  0.00062340  0.00062671  0.00063869  0.00064167  0.00065004
  0.00066110  0.00071714  0.00091322  0.00104104  0.00104812  0.00106093  0.00107903  0.00110712
  0.00110983  0.00111175  0.00112949  0.00113119  0.00113896  0.00115448  0.00116982  0.00117242
  0.00117247  0.00117488  0.00140186  0.00143031  0.00144781  0.00154820  0.00165681  0.00192757
  0.00225699  0.00226610  0.00234291  0.00235748  0.00236871  0.00251330  0.00314089  0.00363348
  0.00370560  0.00372750  0.00373439  0.00406488
 Checking for correct frequencies
 recalc frequencies=
   -78.9   -0.0    0.0    0.0    0.0    0.0    0.0   20.8   33.5   52.6
    59.3   66.8  119.2  132.9  165.8  173.7  212.6  258.5  336.8  338.2
   380.7  396.1  406.9  413.5  417.8  441.7  445.8  481.0  508.5  514.7
   560.6  593.4  631.1  645.4  655.6  656.1  671.1  695.9  721.2  739.9
   775.9  779.2  819.2  823.7  827.5  830.1  843.3  854.1  879.4  922.8
   970.5  992.9  997.6  999.3 1003.1 1004.2 1008.5 1012.8 1014.3 1015.9
  1022.5 1032.9 1045.1 1064.0 1074.8 1092.8 1111.7 1113.8 1129.2 1147.1
  1187.7 1204.0 1224.8 1235.4 1237.6 1271.9 1285.8 1289.9 1303.0 1330.6
  1341.1 1345.7 1357.2 1373.3 1412.5 1434.1 1438.0 1467.3 1483.9 1485.9
  1523.8 1557.8 1561.7 1598.8 1605.8 1607.9 1624.5 1629.6 1642.1 1655.7
  3148.1 3150.2 3159.1 3167.8 3182.1 3182.3 3182.7 3190.2 3191.3 3203.9
  3204.2 3204.7 3213.2 3215.2
 recalc symmetries=
     A2     B1     B1     A2     B2     B2     A1     B1     A2     B2 
     B1     A2     B1     B2     B1     A1     B2     B1     B1     A1 
     B2     A2     A2     A2     A2     B2     B1     A1     B2     B1 
     B1     B1     B2     B2     B2     A1     B2     B1     A1     B1 
     A1     B1     B1     A2     B1     A1     B1     A2     B1     B1 
     A2     B1     A2     B1     B1     A2     A1     B1     A1     A2 
     A1     A1     A1     A1     A1     A1     B2     B2     A1     B2 
     B2     A1     B2     A1     B2     B2     A1     B2     B2     B2 
     B2     A1     A1     B2     B2     A1     B2     B2     B2     A1 
     A1     A1     B2     B2     A1     B2     B2     A1     A1     A1 
     A1     B2     A1     B2     B2     A1     A1     B2     A1     A1 
     B2     A1     B2     A1 
 recalc freqs check OK
 Zero-point lengths:
 27.9013 10.0000 10.0000 10.0000 10.0000 10.0000 10.0000 54.3812 42.8421 34.1703
 32.1900 30.3308 22.7105 21.5050 19.2519 18.8109 17.0012 15.4194 13.5092 13.4810
 12.7059 12.4560 12.2895 12.1910 12.1292 11.7964 11.7418 11.3041 10.9933 10.9276
 10.4709 10.1774  9.8683  9.7582  9.6826  9.6783  9.5700  9.3976  9.2311  9.1138
  8.9001  8.8809  8.6616  8.6377  8.6180  8.6046  8.5369  8.4828  8.3600  8.1610
  7.9578  7.8677  7.8492  7.8425  7.8277  7.8232  7.8064  7.7898  7.7842  7.7779
  7.7531  7.7136  7.6686  7.6000  7.5620  7.4994  7.4353  7.4282  7.3774  7.3198
  7.1935  7.1445  7.0836  7.0532  7.0469  6.9513  6.9138  6.9026  6.8679  6.7963
  6.7697  6.7580  6.7292  6.6897  6.5963  6.5465  6.5375  6.4719  6.4356  6.4313
  6.3508  6.2813  6.2732  6.2001  6.1866  6.1825  6.1509  6.1413  6.1178  6.0926
  4.4185  4.4170  4.4108  4.4047  4.3948  4.3946  4.3944  4.3892  4.3884  4.3798
  4.3796  4.3792  4.3735  4.3721
 highest evec of mol 1
  0.0000  0.0000  0.0095
  0.0000  0.0182  0.0125
  0.0000  0.0782 -0.0418
  0.0000  0.0000 -0.0031
  0.0000  0.0000  0.0061
  0.0000 -0.1151  0.0654
  0.0000 -0.1094 -0.0656
  0.0000  0.0000 -0.0056
  0.0000  0.0000 -0.0016
  0.0000  0.0008  0.0000
  0.0000  0.0007  0.0001
  0.0000  0.0000  0.0002
  0.0000  0.0000 -0.0003
  0.0000  0.0001  0.0001
  0.0000 -0.0003 -0.0002
  0.0000  0.0000 -0.0004
  0.0000  0.0003 -0.0002
  0.0000 -0.0001  0.0001
  0.0000 -0.0007  0.0001
  0.0000 -0.0008  0.0000
  0.0000  0.1094 -0.0656
  0.0000  0.1151  0.0654
  0.0000 -0.0782 -0.0418
  0.0000 -0.0182  0.0125
  0.0000  0.0000 -0.0277
  0.0000 -0.0573 -0.0332
  0.0000 -0.2617  0.1454
  0.0000  0.3842 -0.2118
  0.0000  0.3584  0.2060
  0.0000 -0.0016 -0.0008
  0.0000  0.0010  0.0005
  0.0000  0.0000  0.0016
  0.0000 -0.0010  0.0005
  0.0000  0.0016 -0.0008
  0.0000 -0.3584  0.2060
  0.0000 -0.3842 -0.2118
  0.0000  0.2617  0.1454
  0.0000  0.0573 -0.0332
 generating redundant internal coords
         300        3600          38
 Adding extra bonds for z output only
           6           6           6           6           6           6
           6           6           6           7           6           6
           6           7           6           6           6           7
           6           7           6           6           6           6
           1           1           1           1           1           1
           1           1           1           1           1           1
           1           1
 search for int coords
   1 str   2   1   1.392
   2 str   3   2   1.390
   3 str   4   3   1.406
   4 str   5   4   1.491
   5 str   6   5   1.407
   6 str   7   6   1.386
   7 str   8   7   1.400
   8 str   9   8   1.477
   9 str  10   9   1.346
  10 str  11  10   1.328
  11 str  12  11   1.400
  12 str  13  12   1.476
  13 str  14  13   1.343
  14 str  15  14   1.332
  15 str  16  15   1.391
  16 str  17  16   1.391
  17 str  18  13   1.343
  18 str  18  17   1.332
  19 str  19  12   1.400
  20 str  20   9   1.346
  21 str  20  19   1.328
  22 str  21   8   1.400
  23 str  22   5   1.407
  24 str  22  21   1.386
  25 str  23   4   1.406
  26 str  24   1   1.392
  27 str  24  23   1.390
  28 str  25   1   1.084
  29 str  26   2   1.085
  30 str  27   3   1.082
  31 str  28   6   1.081
  32 str  29   7   1.082
  33 str  30  11   1.084
  34 str  31  15   1.087
  35 str  32  16   1.082
  36 str  33  17   1.087
  37 str  34  19   1.084
  38 str  35  21   1.082
  39 str  36  22   1.081
  40 str  37  23   1.082
  41 str  38  24   1.085
 nber stretches=          41
  42 ben   1   2   3
  43 prop tor   1   2   3   4
  44 prop tor   1   2   3  27
  45 ben   1   2  26
  46 ben   1  24  23
  47 ben   1  24  38
  48 ben   2   1  24
  49 prop tor   2   1  24  23
  50 prop tor   2   1  24  38
  51 ben   2   1  25
  52 ben   2   3   4
  53 prop tor   2   3   4   5
  54 prop tor   2   3   4  23
  55 ben   2   3  27
  56 ben   3   2  26
  57 ben   3   4   5
  58 prop tor   3   4   5   6
  59 prop tor   3   4   5  22
  60 ben   3   4  23
  61 prop tor   3   4  23  24
  62 prop tor   3   4  23  37
  63 ben   4   3  27
  64 ben   4   5   6
  65 prop tor   4   5   6   7
  66 prop tor   4   5   6  28
  67 ben   4   5  22
  68 prop tor   4   5  22  21
  69 prop tor   4   5  22  36
  70 ben   4  23  24
  71 prop tor   4  23  24   1
  72 prop tor   4  23  24  38
  73 ben   4  23  37
  74 ben   5   4  23
  75 prop tor   5   4  23  24
  76 prop tor   5   4  23  37
  77 ben   5   6   7
  78 prop tor   5   6   7   8
  79 prop tor   5   6   7  29
  80 ben   5   6  28
  81 ben   5  22  21
  82 ben   5  22  36
  83 ben   6   5  22
  84 prop tor   6   5  22  21
  85 prop tor   6   5  22  36
  86 ben   6   7   8
  87 prop tor   6   7   8   9
  88 prop tor   6   7   8  21
  89 ben   6   7  29
  90 ben   7   6  28
  91 ben   7   8   9
  92 prop tor   7   8   9  10
  93 prop tor   7   8   9  20
  94 ben   7   8  21
  95 prop tor   7   8  21  22
  96 prop tor   7   8  21  35
  97 ben   8   7  29
  98 ben   8   9  10
  99 prop tor   8   9  10  11
 100 ben   8   9  20
 101 prop tor   8   9  20  19
 102 ben   8  21  22
 103 prop tor   8  21  22   5
 104 prop tor   8  21  22  36
 105 ben   8  21  35
 106 ben   9   8  21
 107 prop tor   9   8  21  22
 108 prop tor   9   8  21  35
 109 ben   9  10  11
 110 prop tor   9  10  11  12
 111 prop tor   9  10  11  30
 112 ben   9  20  19
 113 ben  10   9  20
 114 prop tor  10   9  20  19
 115 ben  10  11  12
 116 prop tor  10  11  12  13
 117 prop tor  10  11  12  19
 118 ben  10  11  30
 119 ben  11  12  13
 120 prop tor  11  12  13  14
 121 prop tor  11  12  13  18
 122 ben  11  12  19
 123 prop tor  11  12  19  20
 124 prop tor  11  12  19  34
 125 ben  12  11  30
 126 ben  12  13  14
 127 prop tor  12  13  14  15
 128 ben  12  13  18
 129 prop tor  12  13  18  17
 130 ben  12  19  20
 131 prop tor  12  19  20   9
 132 ben  12  19  34
 133 ben  13  12  19
 134 prop tor  13  12  19  20
 135 prop tor  13  12  19  34
 136 ben  13  14  15
 137 prop tor  13  14  15  16
 138 prop tor  13  14  15  31
 139 ben  13  18  17
 140 ben  14  13  18
 141 prop tor  14  13  18  17
 142 ben  14  15  16
 143 prop tor  14  15  16  17
 144 prop tor  14  15  16  32
 145 ben  14  15  31
 146 ben  15  16  17
 147 prop tor  15  16  17  18
 148 prop tor  15  16  17  33
 149 ben  15  16  32
 150 ben  16  15  31
 151 ben  16  17  18
 152 prop tor  16  17  18  13
 153 ben  16  17  33
 154 ben  17  16  32
 155 prop tor  18  13  14  15
 156 ben  18  17  33
 157 prop tor  19  12  13  14
 158 prop tor  19  12  13  18
 159 prop tor  20   9  10  11
 160 ben  20  19  34
 161 prop tor  21   8   9  10
 162 prop tor  21   8   9  20
 163 ben  21  22  36
 164 prop tor  22   5   6   7
 165 prop tor  22   5   6  28
 166 ben  22  21  35
 167 prop tor  23   4   5   6
 168 prop tor  23   4   5  22
 169 ben  23  24  38
 170 prop tor  24   1   2   3
 171 prop tor  24   1   2  26
 172 ben  24   1  25
 173 ben  24  23  37
 174 prop tor  25   1   2   3
 175 prop tor  25   1   2  26
 176 prop tor  25   1  24  23
 177 prop tor  25   1  24  38
 178 prop tor  26   2   3   4
 179 prop tor  26   2   3  27
 180 prop tor  27   3   4   5
 181 prop tor  27   3   4  23
 182 prop tor  28   6   7   8
 183 prop tor  28   6   7  29
 184 prop tor  29   7   8   9
 185 prop tor  29   7   8  21
 186 prop tor  30  11  12  13
 187 prop tor  30  11  12  19
 188 prop tor  31  15  16  17
 189 prop tor  31  15  16  32
 190 prop tor  32  16  17  18
 191 prop tor  32  16  17  33
 192 prop tor  33  17  18  13
 193 prop tor  34  19  20   9
 194 prop tor  35  21  22   5
 195 prop tor  35  21  22  36
 196 prop tor  37  23  24   1
 197 prop tor  37  23  24  38
 nber bend=              64
 nber lin bend=           0
 nber prop tor=          92
 nber impr tor=           0
 nber tot redund int=         197
 Reading file: 
 ./Non-cov-phenyl-N_2_C0S1.log                                                  
                                          
  Entering Gaussian System, Link 0=g16                                          
  
 Gaussian format, type: g94, g98, g03= F F F
  #P Geom=AllCheck Guess=TCheck SCRF=Check GenChk RB3LYP TD(FC,Read)/6-3    
 energy type= TD      
 Original G94 input coords:
  6  7.520626  0.000000  0.000000
  6  6.811605 -1.199007  0.000000
  6  5.422038 -1.198457  0.000000
  6  4.681415  0.000000  0.000000
  6  3.199518  0.000000  0.000000
  6  2.451711  1.198220  0.000000
  6  1.072085  1.207813  0.000000
  6  0.337507  0.000000  0.000000
  6 -1.084284  0.000000  0.000000
  7 -1.860108  1.122654  0.000000
  6 -3.151218  1.174872  0.000000
  6 -3.958218  0.000000  0.000000
  6 -5.392603  0.000000  0.000000
  7 -6.017972  1.206246  0.000000
  6 -7.343968  1.183798  0.000000
  6 -8.084336  0.000000  0.000000
  6 -7.343968 -1.183798  0.000000
  7 -6.017972 -1.206246  0.000000
  6 -3.151218 -1.174872  0.000000
  7 -1.860108 -1.122654  0.000000
  6  1.072085 -1.207813  0.000000
  6  2.451711 -1.198220  0.000000
  6  5.422038  1.198457  0.000000
  6  6.811605  1.199007  0.000000
  1  8.604404  0.000000  0.000000
  1  7.342932 -2.144447  0.000000
  1  4.914013 -2.153218  0.000000
  1  2.958541  2.153920  0.000000
  1  0.541226  2.152125  0.000000
  1 -3.629637  2.151712  0.000000
  1 -7.840224  2.151639  0.000000
  1 -9.166079  0.000000  0.000000
  1 -7.840224 -2.151639  0.000000
  1 -3.629637 -2.151712  0.000000
  1  0.541226 -2.152125  0.000000
  1  2.958541 -2.153920  0.000000
  1  4.914013  2.153218  0.000000
  1  7.342932  2.144447  0.000000
 nber atoms=          38
 Original standard coords:
  6  0.000000  0.000000  7.865171
  6  0.000000  1.199007  7.156150
  6  0.000000  1.198457  5.766583
  6  0.000000  0.000000  5.025960
  6  0.000000  0.000000  3.544063
  6  0.000000 -1.198220  2.796256
  6  0.000000 -1.207813  1.416630
  6  0.000000  0.000000  0.682052
  6  0.000000  0.000000 -0.739739
  7  0.000000 -1.122654 -1.515563
  6  0.000000 -1.174872 -2.806673
  6  0.000000  0.000000 -3.613673
  6  0.000000  0.000000 -5.048058
  7  0.000000 -1.206246 -5.673427
  6  0.000000 -1.183798 -6.999423
  6  0.000000  0.000000 -7.739790
  6  0.000000  1.183798 -6.999423
  7  0.000000  1.206246 -5.673427
  6  0.000000  1.174872 -2.806673
  7  0.000000  1.122654 -1.515563
  6  0.000000  1.207813  1.416630
  6  0.000000  1.198220  2.796256
  6  0.000000 -1.198457  5.766583
  6  0.000000 -1.199007  7.156150
  1  0.000000  0.000000  8.948949
  1  0.000000  2.144447  7.687477
  1  0.000000  2.153218  5.258558
  1  0.000000 -2.153920  3.303086
  1  0.000000 -2.152125  0.885771
  1  0.000000 -2.151712 -3.285092
  1  0.000000 -2.151639 -7.495679
  1  0.000000  0.000000 -8.821534
  1  0.000000  2.151639 -7.495679
  1  0.000000  2.151712 -3.285092
  1  0.000000  2.152125  0.885771
  1  0.000000  2.153920  3.303086
  1  0.000000 -2.153218  5.258558
  1  0.000000 -2.144447  7.687477
  Total Energy, E(TD-HF/TD-DFT) =  -989.705412662                               
  
          32          49 "  -989.705412662"
After scan for Atom:   Atom  AN      X      Y      Z        X      Y      Z        X      Y      Z   
After scan for Atom:   Atom  AN      X      Y      Z        X      Y      Z        X      Y      Z   
After scan for Atom:   Atom  AN      X      Y      Z        X      Y      Z        X      Y      Z   
After scan for Atom:   Atom  AN      X      Y      Z        X      Y      Z        X      Y      Z   
After scan for Atom:   Atom  AN      X      Y      Z        X      Y      Z        X      Y      Z   
After scan for Atom:   Atom  AN      X      Y      Z        X      Y      Z        X      Y      Z   
After scan for Atom:   Atom  AN      X      Y      Z        X      Y      Z        X      Y      Z   
After scan for Atom:   Atom  AN      X      Y      Z        X      Y      Z        X      Y      Z   
After scan for Atom:   Atom  AN      X      Y      Z        X      Y      Z        X      Y      Z   
After scan for Atom:   Atom  AN      X      Y      Z        X      Y      Z        X      Y      Z   
After scan for Atom:   Atom  AN      X      Y      Z        X      Y      Z        X      Y      Z   
After scan for Atom:   Atom  AN      X      Y      Z        X      Y      Z        X      Y      Z   
After scan for Atom:   Atom  AN      X      Y      Z        X      Y      Z        X      Y      Z   
After scan for Atom:   Atom  AN      X      Y      Z        X      Y      Z        X      Y      Z   
After scan for Atom:   Atom  AN      X      Y      Z        X      Y      Z        X      Y      Z   
After scan for Atom:   Atom  AN      X      Y      Z        X      Y      Z        X      Y      Z   
After scan for Atom:   Atom  AN      X      Y      Z        X      Y      Z        X      Y      Z   
After scan for Atom:   Atom  AN      X      Y      Z        X      Y      Z        X      Y      Z   
After scan for Atom:   Atom  AN      X      Y      Z        X      Y      Z        X      Y      Z   
After scan for Atom:   Atom  AN      X      Y      Z        X      Y      Z        X      Y      Z   
After scan for Atom:   Atom  AN      X      Y      Z        X      Y      Z        X      Y      Z   
After scan for Atom:   Atom  AN      X      Y      Z        X      Y      Z        X      Y      Z   
After scan for Atom:   Atom  AN      X      Y      Z        X      Y      Z        X      Y      Z   
After scan for Atom:   Atom  AN      X      Y      Z        X      Y      Z        X      Y      Z   
After scan for Atom:   Atom  AN      X      Y      Z        X      Y      Z        X      Y      Z   
After scan for Atom:   Atom  AN      X      Y      Z        X      Y      Z        X      Y      Z   
After scan for Atom:   Atom  AN      X      Y      Z        X      Y      Z        X      Y      Z   
After scan for Atom:   Atom  AN      X      Y      Z        X      Y      Z        X      Y      Z   
After scan for Atom:   Atom  AN      X      Y      Z        X      Y      Z        X      Y      Z   
After scan for Atom:   Atom  AN      X      Y      Z        X      Y      Z        X      Y      Z   
After scan for Atom:   Atom  AN      X      Y      Z        X      Y      Z        X      Y      Z   
After scan for Atom:   Atom  AN      X      Y      Z        X      Y      Z        X      Y      Z   
After scan for Atom:   Atom  AN      X      Y      Z        X      Y      Z        X      Y      Z   
After scan for Atom:   Atom  AN      X      Y      Z        X      Y      Z        X      Y      Z   
After scan for Atom:   Atom  AN      X      Y      Z        X      Y      Z        X      Y      Z   
After scan for Atom:   Atom  AN      X      Y      Z        X      Y      Z        X      Y      Z   
 g94    frequencies=
     0.0    0.0    0.0    0.0    0.0    0.0  -72.1   21.2   44.4   53.6
    59.0  113.5  117.1  122.9  165.0  169.9  197.7  239.5  322.8  335.6
   372.9  399.2  417.3  418.6  420.9  433.4  477.2  477.4  493.1  540.5
   554.8  556.1  600.0  627.7  630.4  631.6  650.9  654.7  693.6  698.2
   727.8  756.5  776.4  788.6  788.8  803.7  807.0  837.0  839.4  911.4
   919.4  950.2  956.0  959.7  962.3  973.3  985.8  993.0  993.7  999.0
  1008.1 1012.0 1025.3 1042.3 1058.2 1061.3 1076.6 1100.1 1104.7 1111.3
  1159.8 1186.0 1201.0 1222.7 1227.8 1250.7 1258.3 1289.1 1295.5 1308.9
  1325.2 1334.0 1340.3 1370.4 1394.5 1432.6 1454.6 1465.7 1472.0 1478.2
  1506.4 1520.5 1541.0 1554.1 1568.1 1602.8 1615.2 1621.6 1639.9 1650.9
  3135.7 3136.9 3144.6 3145.1 3160.4 3168.0 3178.4 3180.4 3185.6 3194.1
  3196.1 3205.7 3209.3 3211.1
 g94    symmetries=
                                                A2     B1     B2     A2
      B1     A2     B1     B2     B1     A1     B2     B1     B1     A1
      B2     A2     B1     A2     A2     B2     A1     B1     B2     B1
      B1     A2     B2     B1     B2     A1     B2     B2     B1     A1
      B1     A1     B1     B1     A1     B1     A2     A2     B1     B1
      B1     A1     A2     A2     B1     A2     B1     A1     B1     A2
      A1     A1     A1     B2     A1     A1     A1     A1     B2     B2
      B2     B2     A1     B2     A1     B2     B2     A1     B2     A1
      B2     B2     B2     B2     A1     A1     B2     B2     A1     B2
      B2     A1     B2     A1     B2     A1     B2     A1     A1     A1
      A1     B2     A1     B2     A1     B2     A1     B2     A1     B2
      A1     A1     B2     A1
 atomic masses:
 12.0000 12.0000 12.0000 12.0000 12.0000 12.0000 12.0000 12.0000 12.0000 14.0031
 12.0000 12.0000 12.0000 14.0031 12.0000 12.0000 12.0000 14.0031 12.0000 14.0031
 12.0000 12.0000 12.0000 12.0000  1.0078  1.0078  1.0078  1.0078  1.0078  1.0078
  1.0078  1.0078  1.0078  1.0078  1.0078  1.0078  1.0078  1.0078
 looking for force constants in 
 ./Non-cov-phenyl-N_2_C0S1.fchk                                                 
  
 Cartesian Force Constants                  R   N=        6555                  
  
 n3=         114        6555
 g94-fc frequencies=
   -72.1   -6.4   -1.3   -0.6   -0.0    0.0    0.0   21.2   44.4   53.6
    59.0  113.5  117.1  122.9  165.1  169.9  197.7  239.5  322.8  335.6
   373.0  399.2  417.3  418.6  420.9  433.4  477.2  477.4  493.2  540.5
   554.8  556.1  600.0  627.7  630.4  631.6  650.9  654.7  693.6  698.3
   727.8  756.5  776.4  788.7  788.8  803.7  807.0  837.0  839.4  911.4
   919.4  950.2  956.1  959.7  962.3  973.3  985.8  993.0  993.7  999.0
  1008.1 1012.0 1025.3 1042.3 1058.2 1061.3 1076.6 1100.2 1104.8 1111.3
  1159.8 1186.0 1201.0 1222.7 1227.8 1250.8 1258.4 1289.2 1295.6 1309.0
  1325.3 1334.0 1340.3 1370.4 1394.5 1432.6 1454.7 1465.7 1472.0 1478.3
  1506.5 1520.5 1541.0 1554.1 1568.1 1602.9 1615.2 1621.7 1640.0 1650.9
  3135.8 3137.0 3144.6 3145.1 3160.4 3168.1 3178.5 3180.5 3185.7 3194.2
  3196.2 3205.7 3209.4 3211.1
 at 99999: n3=         114
 symm operator            1 :  T  nop=           1
 symm operator            2 :  F  nop=           1
 symm operator            3 :  F  nop=           1
 symm operator            4 :  F  nop=           1
 symm operator            5 :  F  nop=           1
 symm operator            6 :  T  nop=           2
 symm operator            7 :  T  nop=           3
 The point group of the molecule is C2V
 enforcing symm op           1  jsymt=          -1          -1           1
 enforcing symm op           6  jsymt=           1          -1           1
 enforcing symm op           7  jsymt=          -1           1           1
 cartesian coord symmetries:
 A1 :   38 A2 :   14 B1 :   24 B2 :   38
 Symmetry rotation matrix:
   1.00000   0.00000   0.00000
   0.00000   1.00000   0.00000
   0.00000   0.00000   1.00000

 Projecting out zero-frequency components
 generating redundant internal coords
         300        3600          38
 search for int coords
   1 str   2   1   1.393
   2 str   3   2   1.390
   3 str   4   3   1.409
   4 str   5   4   1.482
   5 str   6   5   1.412
   6 str   7   6   1.380
   7 str   8   7   1.414
   8 str   9   8   1.422
   9 str  10   9   1.365
  10 str  11  10   1.292
  11 str  12  11   1.425
  12 str  13  12   1.434
  13 str  14  13   1.359
  14 str  15  14   1.326
  15 str  16  15   1.396
  16 str  17  16   1.396
  17 str  18  13   1.359
  18 str  18  17   1.326
  19 str  19  12   1.425
  20 str  20   9   1.365
  21 str  20  19   1.292
  22 str  21   8   1.414
  23 str  22   5   1.412
  24 str  22  21   1.380
  25 str  23   4   1.409
  26 str  24   1   1.393
  27 str  24  23   1.390
  28 str  25   1   1.084
  29 str  26   2   1.085
  30 str  27   3   1.082
  31 str  28   6   1.082
  32 str  29   7   1.083
  33 str  30  11   1.088
  34 str  31  15   1.088
  35 str  32  16   1.082
  36 str  33  17   1.088
  37 str  34  19   1.088
  38 str  35  21   1.083
  39 str  36  22   1.082
  40 str  37  23   1.082
  41 str  38  24   1.085
 nber stretches=          41
  42 ben   1   2   3
  43 prop tor   1   2   3   4
  44 prop tor   1   2   3  27
  45 ben   1   2  26
  46 ben   1  24  23
  47 ben   1  24  38
  48 ben   2   1  24
  49 prop tor   2   1  24  23
  50 prop tor   2   1  24  38
  51 ben   2   1  25
  52 ben   2   3   4
  53 prop tor   2   3   4   5
  54 prop tor   2   3   4  23
  55 ben   2   3  27
  56 ben   3   2  26
  57 ben   3   4   5
  58 prop tor   3   4   5   6
  59 prop tor   3   4   5  22
  60 ben   3   4  23
  61 prop tor   3   4  23  24
  62 prop tor   3   4  23  37
  63 ben   4   3  27
  64 ben   4   5   6
  65 prop tor   4   5   6   7
  66 prop tor   4   5   6  28
  67 ben   4   5  22
  68 prop tor   4   5  22  21
  69 prop tor   4   5  22  36
  70 ben   4  23  24
  71 prop tor   4  23  24   1
  72 prop tor   4  23  24  38
  73 ben   4  23  37
  74 ben   5   4  23
  75 prop tor   5   4  23  24
  76 prop tor   5   4  23  37
  77 ben   5   6   7
  78 prop tor   5   6   7   8
  79 prop tor   5   6   7  29
  80 ben   5   6  28
  81 ben   5  22  21
  82 ben   5  22  36
  83 ben   6   5  22
  84 prop tor   6   5  22  21
  85 prop tor   6   5  22  36
  86 ben   6   7   8
  87 prop tor   6   7   8   9
  88 prop tor   6   7   8  21
  89 ben   6   7  29
  90 ben   7   6  28
  91 ben   7   8   9
  92 prop tor   7   8   9  10
  93 prop tor   7   8   9  20
  94 ben   7   8  21
  95 prop tor   7   8  21  22
  96 prop tor   7   8  21  35
  97 ben   8   7  29
  98 ben   8   9  10
  99 prop tor   8   9  10  11
 100 ben   8   9  20
 101 prop tor   8   9  20  19
 102 ben   8  21  22
 103 prop tor   8  21  22   5
 104 prop tor   8  21  22  36
 105 ben   8  21  35
 106 ben   9   8  21
 107 prop tor   9   8  21  22
 108 prop tor   9   8  21  35
 109 ben   9  10  11
 110 prop tor   9  10  11  12
 111 prop tor   9  10  11  30
 112 ben   9  20  19
 113 ben  10   9  20
 114 prop tor  10   9  20  19
 115 ben  10  11  12
 116 prop tor  10  11  12  13
 117 prop tor  10  11  12  19
 118 ben  10  11  30
 119 ben  11  12  13
 120 prop tor  11  12  13  14
 121 prop tor  11  12  13  18
 122 ben  11  12  19
 123 prop tor  11  12  19  20
 124 prop tor  11  12  19  34
 125 ben  12  11  30
 126 ben  12  13  14
 127 prop tor  12  13  14  15
 128 ben  12  13  18
 129 prop tor  12  13  18  17
 130 ben  12  19  20
 131 prop tor  12  19  20   9
 132 ben  12  19  34
 133 ben  13  12  19
 134 prop tor  13  12  19  20
 135 prop tor  13  12  19  34
 136 ben  13  14  15
 137 prop tor  13  14  15  16
 138 prop tor  13  14  15  31
 139 ben  13  18  17
 140 ben  14  13  18
 141 prop tor  14  13  18  17
 142 ben  14  15  16
 143 prop tor  14  15  16  17
 144 prop tor  14  15  16  32
 145 ben  14  15  31
 146 ben  15  16  17
 147 prop tor  15  16  17  18
 148 prop tor  15  16  17  33
 149 ben  15  16  32
 150 ben  16  15  31
 151 ben  16  17  18
 152 prop tor  16  17  18  13
 153 ben  16  17  33
 154 ben  17  16  32
 155 prop tor  18  13  14  15
 156 ben  18  17  33
 157 prop tor  19  12  13  14
 158 prop tor  19  12  13  18
 159 prop tor  20   9  10  11
 160 ben  20  19  34
 161 prop tor  21   8   9  10
 162 prop tor  21   8   9  20
 163 ben  21  22  36
 164 prop tor  22   5   6   7
 165 prop tor  22   5   6  28
 166 ben  22  21  35
 167 prop tor  23   4   5   6
 168 prop tor  23   4   5  22
 169 ben  23  24  38
 170 prop tor  24   1   2   3
 171 prop tor  24   1   2  26
 172 ben  24   1  25
 173 ben  24  23  37
 174 prop tor  25   1   2   3
 175 prop tor  25   1   2  26
 176 prop tor  25   1  24  23
 177 prop tor  25   1  24  38
 178 prop tor  26   2   3   4
 179 prop tor  26   2   3  27
 180 prop tor  27   3   4   5
 181 prop tor  27   3   4  23
 182 prop tor  28   6   7   8
 183 prop tor  28   6   7  29
 184 prop tor  29   7   8   9
 185 prop tor  29   7   8  21
 186 prop tor  30  11  12  13
 187 prop tor  30  11  12  19
 188 prop tor  31  15  16  17
 189 prop tor  31  15  16  32
 190 prop tor  32  16  17  18
 191 prop tor  32  16  17  33
 192 prop tor  33  17  18  13
 193 prop tor  34  19  20   9
 194 prop tor  35  21  22   5
 195 prop tor  35  21  22  36
 196 prop tor  37  23  24   1
 197 prop tor  37  23  24  38
 nber bend=              64
 nber lin bend=           0
 nber prop tor=          92
 nber impr tor=           0
 nber tot redund int=         197
 Eigenvalues of G in red int coords
    Gval -0.00000000 -0.00000000 -0.00000000 -0.00000000 -0.00000000 -0.00000000 -0.00000000 -0.00000000
    Gval -0.00000000 -0.00000000 -0.00000000 -0.00000000 -0.00000000 -0.00000000 -0.00000000 -0.00000000
    Gval -0.00000000 -0.00000000 -0.00000000 -0.00000000 -0.00000000 -0.00000000 -0.00000000 -0.00000000
    Gval -0.00000000 -0.00000000 -0.00000000 -0.00000000 -0.00000000 -0.00000000 -0.00000000 -0.00000000
    Gval -0.00000000 -0.00000000 -0.00000000 -0.00000000 -0.00000000 -0.00000000 -0.00000000 -0.00000000
    Gval -0.00000000 -0.00000000 -0.00000000 -0.00000000 -0.00000000 -0.00000000 -0.00000000 -0.00000000
    Gval  0.00000000  0.00000000  0.00000000  0.00000000  0.00000000  0.00000000  0.00000000  0.00000000
    Gval  0.00000000  0.00000000  0.00000000  0.00000000  0.00000000  0.00000000  0.00000000  0.00000000
    Gval  0.00000000  0.00000000  0.00000000  0.00000000  0.00000000  0.00000000  0.00000000  0.00000000
    Gval  0.00000000  0.00000000  0.00000000  0.00000000  0.00000000  0.00000000  0.00000000  0.00000000
    Gval  0.00000000  0.00000000  0.00000000  0.00000000  0.00000000  0.00000000  0.00000000  0.00000000
    Gval  0.00000000  0.00000048  0.00000184  0.00000203  0.00000299  0.00000767  0.00000850  0.00001288
    Gval  0.00001405  0.00001527  0.00001985  0.00002836  0.00003028  0.00004220  0.00004519  0.00004671
    Gval  0.00004846  0.00005012  0.00005030  0.00005497  0.00005579  0.00005855  0.00005896  0.00006663
    Gval  0.00006766  0.00007770  0.00008648  0.00008882  0.00010094  0.00010554  0.00010623  0.00011506
    Gval  0.00011688  0.00011951  0.00012056  0.00012165  0.00012957  0.00013263  0.00017522  0.00021189
    Gval  0.00023119  0.00025354  0.00026023  0.00027211  0.00027957  0.00028623  0.00030548  0.00034602
    Gval  0.00036202  0.00037518  0.00038818  0.00040138  0.00040447  0.00042245  0.00044585  0.00052216
    Gval  0.00053649  0.00057376  0.00059308  0.00059343  0.00059361  0.00059557  0.00059778  0.00059987
    Gval  0.00060401  0.00060424  0.00062186  0.00062377  0.00062616  0.00063983  0.00064159  0.00064947
    Gval  0.00066093  0.00070479  0.00074100  0.00091541  0.00104147  0.00106046  0.00106228  0.00107738
    Gval  0.00110428  0.00110772  0.00111100  0.00112468  0.00112670  0.00113938  0.00115259  0.00116938
    Gval  0.00117039  0.00117300  0.00117380  0.00140331  0.00143017  0.00145076  0.00156987  0.00169826
    Gval  0.00195519  0.00223228  0.00224808  0.00233859  0.00235447  0.00239273  0.00253556  0.00314389
    Gval  0.00361876  0.00369563  0.00370953  0.00372689  0.00406641
  4.840062607145821E-007  4.840062607145821E-007
  1.842502436283799E-006  4.840062607145821E-007
  2.026972378185026E-006  4.840062607145821E-007
  2.986839370079973E-006  4.840062607145821E-007
  7.665924288999286E-006  4.840062607145821E-007
  8.501355882913124E-006  4.840062607145821E-007
  1.288265516964765E-005  4.840062607145821E-007
  1.404856931078241E-005  4.840062607145821E-007
  1.527281667804464E-005  4.840062607145821E-007
  1.984572285790921E-005  4.840062607145821E-007
  2.835903987060712E-005  4.840062607145821E-007
  3.027566960767917E-005  4.840062607145821E-007
  4.219822154863322E-005  4.840062607145821E-007
  4.519161449661899E-005  4.840062607145821E-007
  4.670845446232550E-005  4.840062607145821E-007
  4.846079279722706E-005  4.840062607145821E-007
  5.012430433631661E-005  4.840062607145821E-007
  5.030427627510745E-005  4.840062607145821E-007
  5.496526962757931E-005  4.840062607145821E-007
  5.578870728977968E-005  4.840062607145821E-007
  5.854582238787500E-005  4.840062607145821E-007
  5.896320537393600E-005  4.840062607145821E-007
  6.662842769399574E-005  4.840062607145821E-007
  6.765573068659322E-005  4.840062607145821E-007
  7.769951969241419E-005  4.840062607145821E-007
  8.647606911320931E-005  4.840062607145821E-007
  8.882388012762471E-005  4.840062607145821E-007
  1.009360403626295E-004  4.840062607145821E-007
  1.055444485362052E-004  4.840062607145821E-007
  1.062292196655619E-004  4.840062607145821E-007
  1.150602435049913E-004  4.840062607145821E-007
  1.168810479712366E-004  4.840062607145821E-007
  1.195079052456267E-004  4.840062607145821E-007
  1.205588451241929E-004  4.840062607145821E-007
  1.216531357606816E-004  4.840062607145821E-007
  1.295720272446291E-004  4.840062607145821E-007
  1.326322919964055E-004  4.840062607145821E-007
  1.752181588978309E-004  4.840062607145821E-007
  2.118887859733488E-004  4.840062607145821E-007
  2.311896260479201E-004  4.840062607145821E-007
  2.535389119792739E-004  4.840062607145821E-007
  2.602259089165948E-004  4.840062607145821E-007
  2.721063793986489E-004  4.840062607145821E-007
  2.795724299330941E-004  4.840062607145821E-007
  2.862342459878325E-004  4.840062607145821E-007
  3.054822699105776E-004  4.840062607145821E-007
  3.460243845397435E-004  4.840062607145821E-007
  3.620183036988639E-004  4.840062607145821E-007
  3.751810278988816E-004  4.840062607145821E-007
  3.881766616040167E-004  4.840062607145821E-007
  4.013768208542612E-004  4.840062607145821E-007
  4.044710904274544E-004  4.840062607145821E-007
  4.224524861721400E-004  4.840062607145821E-007
  4.458467027923549E-004  4.840062607145821E-007
  5.221559793564874E-004  4.840062607145821E-007
  5.364881273932095E-004  4.840062607145821E-007
  5.737581072450868E-004  4.840062607145821E-007
  5.930756933298580E-004  4.840062607145821E-007
  5.934325522181362E-004  4.840062607145821E-007
  5.936138902069033E-004  4.840062607145821E-007
  5.955684674274815E-004  4.840062607145821E-007
  5.977824072011522E-004  4.840062607145821E-007
  5.998693196489739E-004  4.840062607145821E-007
  6.040071748731228E-004  4.840062607145821E-007
  6.042448699454528E-004  4.840062607145821E-007
  6.218604223840340E-004  4.840062607145821E-007
  6.237679877566109E-004  4.840062607145821E-007
  6.261555749402929E-004  4.840062607145821E-007
  6.398273132345677E-004  4.840062607145821E-007
  6.415941990510776E-004  4.840062607145821E-007
  6.494729719774095E-004  4.840062607145821E-007
  6.609328673936826E-004  4.840062607145821E-007
  7.047890652928236E-004  4.840062607145821E-007
  7.410005254090532E-004  4.840062607145821E-007
  9.154134263910266E-004  4.840062607145821E-007
  1.041467849634561E-003  4.840062607145821E-007
  1.060456591294134E-003  4.840062607145821E-007
  1.062277845391971E-003  4.840062607145821E-007
  1.077383091900090E-003  4.840062607145821E-007
  1.104278202026971E-003  4.840062607145821E-007
  1.107718788218658E-003  4.840062607145821E-007
  1.111000838659961E-003  4.840062607145821E-007
  1.124684607401183E-003  4.840062607145821E-007
  1.126702155012534E-003  4.840062607145821E-007
  1.139382154545165E-003  4.840062607145821E-007
  1.152590447685466E-003  4.840062607145821E-007
  1.169383681139702E-003  4.840062607145821E-007
  1.170385253078295E-003  4.840062607145821E-007
  1.172999737758639E-003  4.840062607145821E-007
  1.173802678256036E-003  4.840062607145821E-007
  1.403311553109126E-003  4.840062607145821E-007
  1.430171349557555E-003  4.840062607145821E-007
  1.450761923892882E-003  4.840062607145821E-007
  1.569867380252269E-003  4.840062607145821E-007
  1.698259813058697E-003  4.840062607145821E-007
  1.955186114936217E-003  4.840062607145821E-007
  2.232279551217059E-003  4.840062607145821E-007
  2.248081048436551E-003  4.840062607145821E-007
  2.338592064490735E-003  4.840062607145821E-007
  2.354468907588981E-003  4.840062607145821E-007
  2.392732138057743E-003  4.840062607145821E-007
  2.535561139202806E-003  4.840062607145821E-007
  3.143888699973424E-003  4.840062607145821E-007
  3.618756468154550E-003  4.840062607145821E-007
  3.695627589003647E-003  4.840062607145821E-007
  3.709528892784020E-003  4.840062607145821E-007
  3.726886150356132E-003  4.840062607145821E-007
  4.066410089286907E-003  4.840062607145821E-007
 cut=1d-8, nber non-redundant internal coords=         108
 Check on Eigenvals of non-red overlap matrix:
  0.00000048  0.00000184  0.00000203  0.00000299  0.00000767  0.00000850  0.00001288  0.00001405
  0.00001527  0.00001985  0.00002836  0.00003028  0.00004220  0.00004519  0.00004671  0.00004846
  0.00005012  0.00005030  0.00005497  0.00005579  0.00005855  0.00005896  0.00006663  0.00006766
  0.00007770  0.00008648  0.00008882  0.00010094  0.00010554  0.00010623  0.00011506  0.00011688
  0.00011951  0.00012056  0.00012165  0.00012957  0.00013263  0.00017522  0.00021189  0.00023119
  0.00025354  0.00026023  0.00027211  0.00027957  0.00028623  0.00030548  0.00034602  0.00036202
  0.00037518  0.00038818  0.00040138  0.00040447  0.00042245  0.00044585  0.00052216  0.00053649
  0.00057376  0.00059308  0.00059343  0.00059361  0.00059557  0.00059778  0.00059987  0.00060401
  0.00060424  0.00062186  0.00062377  0.00062616  0.00063983  0.00064159  0.00064947  0.00066093
  0.00070479  0.00074100  0.00091541  0.00104147  0.00106046  0.00106228  0.00107738  0.00110428
  0.00110772  0.00111100  0.00112468  0.00112670  0.00113938  0.00115259  0.00116938  0.00117039
  0.00117300  0.00117380  0.00140331  0.00143017  0.00145076  0.00156987  0.00169826  0.00195519
  0.00223228  0.00224808  0.00233859  0.00235447  0.00239273  0.00253556  0.00314389  0.00361876
  0.00369563  0.00370953  0.00372689  0.00406641
 Checking for correct frequencies
 recalc frequencies=
   -72.1   -0.0   -0.0   -0.0   -0.0    0.0    0.0   21.2   44.4   53.6
    59.0  113.5  117.1  122.9  165.1  169.9  197.7  239.5  322.8  335.6
   373.0  399.2  417.3  418.6  420.9  433.4  477.2  477.4  493.2  540.5
   554.8  556.1  600.0  627.7  630.4  631.6  650.9  654.7  693.6  698.3
   727.8  756.5  776.4  788.7  788.8  803.7  807.0  837.0  839.4  911.4
   919.4  950.2  956.1  959.7  962.3  973.3  985.8  993.0  993.7  999.0
  1008.1 1012.0 1025.3 1042.3 1058.2 1061.3 1076.6 1100.2 1104.8 1111.3
  1159.8 1186.0 1201.0 1222.7 1227.8 1250.8 1258.4 1289.2 1295.6 1309.0
  1325.3 1334.0 1340.3 1370.4 1394.5 1432.6 1454.7 1465.7 1472.0 1478.3
  1506.5 1520.5 1541.0 1554.1 1568.1 1602.9 1615.2 1621.7 1640.0 1650.9
  3135.8 3137.0 3144.6 3145.1 3160.4 3168.1 3178.5 3180.5 3185.7 3194.2
  3196.2 3205.7 3209.4 3211.1
 recalc symmetries=
     A2     B2     B1     B2     A1     A2     B1     B1     B2     A2 
     B1     A2     B1     B2     B1     A1     B2     B1     B1     A1 
     B2     A2     B1     A2     A2     B2     A1     B1     B2     B1 
     B1     A2     B2     B1     B2     A1     B2     B2     B1     A1 
     B1     A1     B1     B1     A1     B1     A2     A2     B1     B1 
     B1     A1     A2     A2     B1     A2     B1     A1     B1     A2 
     A1     A1     A1     B2     A1     A1     A1     A1     B2     B2 
     B2     B2     A1     B2     A1     B2     B2     A1     B2     A1 
     B2     B2     B2     B2     A1     A1     B2     B2     A1     B2 
     B2     A1     B2     A1     B2     A1     B2     A1     A1     A1 
     A1     B2     A1     B2     A1     B2     A1     B2     A1     B2 
     A1     A1     B2     A1 
 recalc freqs check OK
 Zero-point lengths:
 29.1898 10.0000 10.0000 10.0000 10.0000 10.0000 10.0000 53.8616 37.1923 33.8513
 32.2742 23.2731 22.9063 22.3589 19.2968 19.0203 17.6310 16.0191 13.7987 13.5328
 12.8371 12.4072 12.1362 12.1167 12.0842 11.9079 11.3488 11.3463 11.1635 10.6638
 10.5248 10.5132 10.1206  9.8949  9.8739  9.8643  9.7168  9.6891  9.4134  9.3818
  9.1894  9.0133  8.8972  8.8278  8.8271  8.7446  8.7267  8.5689  8.5568  8.2119
  8.1761  8.0424  8.0178  8.0024  7.9916  7.9463  7.8958  7.8671  7.8642  7.8435
  7.8079  7.7930  7.7423  7.6789  7.6211  7.6099  7.5556  7.4742  7.4587  7.4366
  7.2796  7.1986  7.1535  7.0897  7.0750  7.0098  6.9886  6.9046  6.8876  6.8522
  6.8100  6.7877  6.7716  6.6968  6.6386  6.5499  6.5000  6.4754  6.4615  6.4479
  6.3873  6.3578  6.3152  6.2886  6.2605  6.1922  6.1685  6.1562  6.1217  6.1015
  4.4271  4.4263  4.4209  4.4205  4.4098  4.4045  4.3973  4.3959  4.3923  4.3865
  4.3851  4.3786  4.3761  4.3749
 highest evec of mol 2
  0.0000  0.0000 -0.0231
  0.0000 -0.0343 -0.0225
  0.0000 -0.1234  0.0663
  0.0000  0.0000  0.0054
  0.0000  0.0000 -0.0048
  0.0000  0.1163 -0.0631
  0.0000  0.0388  0.0260
  0.0000  0.0000  0.0027
  0.0000  0.0000  0.0007
  0.0000 -0.0001 -0.0003
  0.0000 -0.0002  0.0000
  0.0000  0.0000 -0.0002
  0.0000  0.0000  0.0003
  0.0000 -0.0001 -0.0002
  0.0000  0.0002  0.0002
  0.0000  0.0000 -0.0004
  0.0000 -0.0002  0.0002
  0.0000  0.0001 -0.0002
  0.0000  0.0002  0.0000
  0.0000  0.0001 -0.0003
  0.0000 -0.0388  0.0260
  0.0000 -0.1163 -0.0631
  0.0000  0.1234  0.0663
  0.0000  0.0343 -0.0225
  0.0000  0.0000  0.0693
  0.0000  0.1078  0.0618
  0.0000  0.4127 -0.2276
  0.0000 -0.3895  0.2142
  0.0000 -0.1264 -0.0718
  0.0000  0.0006  0.0002
  0.0000 -0.0007 -0.0004
  0.0000  0.0000  0.0011
  0.0000  0.0007 -0.0004
  0.0000 -0.0006  0.0002
  0.0000  0.1264 -0.0718
  0.0000  0.3895  0.2142
  0.0000 -0.4127 -0.2276
  0.0000 -0.1078  0.0618
 Enter nber and list of atoms to keep of mol #2
 keep list:          38           1           2           3           4
           5           6           7           8           9          10
          11          12          13          14          15          16
          17          18          19          20          21          22
          23          24          25          26          27          28
          29          30          31          32          33          34
          35          36          37          38
 reordering atoms
           1   7.95204400539897     
           2   7.24302300539897     
           3   5.85345600539897     
           4   5.11283300539897     
           5   3.63093600539897     
           6   2.88312900539897     
           7   1.50350300539897     
           8  0.768925005398965     
           9 -0.652865994601035     
          10  -1.42868999460103     
          11  -2.71979999460103     
          12  -3.52679999460103     
          13  -4.96118499460103     
          14  -5.58655399460103     
          15  -6.91254999460103     
          16  -7.65291699460103     
          17  -6.91254999460103     
          18  -5.58655399460103     
          19  -2.71979999460103     
          20  -1.42868999460103     
          21   1.50350300539897     
          22   2.88312900539897     
          23   5.85345600539897     
          24   7.24302300539897     
          25   9.03582200539897     
          26   7.77435000539897     
          27   5.34543100539897     
          28   3.38995900539897     
          29  0.972644005398965     
          30  -3.19821899460103     
          31  -7.40880599460103     
          32  -8.73466099460103     
          33  -7.40880599460103     
          34  -3.19821899460103     
          35  0.972644005398965     
          36   3.38995900539897     
          37   5.34543100539897     
          38   7.77435000539897     
           1           1
           2           2
           3           3
           4           4
           5           5
           6           6
           7           7
           8           8
           9           9
          10          10
          11          11
          12          12
          13          13
          14          14
          15          15
          16          16
          17          17
          18          18
          19          19
          20          20
          21          21
          22          22
          23          23
          24          24
          25          25
          26          26
          27          27
          28          28
          29          29
          30          30
          31          31
          32          32
          33          33
          34          34
          35          35
          36          36
          37          37
          38          38
 initial cartes coords mol 1
   6   0.00000  -0.00000   7.90624
   6   0.00000  -1.19915   7.19930
   6   0.00000  -1.19781   5.80909
   6   0.00000  -0.00000   5.07281
   6   0.00000  -0.00000   3.58193
   6   0.00000   1.19691   2.84257
   6   0.00000   1.20095   1.45666
   6   0.00000  -0.00000   0.73649
   6   0.00000  -0.00000  -0.74071
   7   0.00000   1.19197  -1.36494
   6   0.00000   1.18270  -2.69249
   6   0.00000  -0.00000  -3.44080
   6   0.00000  -0.00000  -4.91634
   7   0.00000   1.19296  -5.53317
   6   0.00000   1.18073  -6.86505
   6   0.00000  -0.00000  -7.60066
   6   0.00000  -1.18073  -6.86505
   7   0.00000  -1.19296  -5.53317
   6   0.00000  -1.18270  -2.69249
   7   0.00000  -1.19197  -1.36494
   6   0.00000  -1.20095   1.45666
   6   0.00000  -1.19691   2.84257
   6   0.00000   1.19781   5.80909
   6   0.00000   1.19915   7.19930
   1   0.00000  -0.00000   8.99049
   1   0.00000  -2.14437   7.73130
   1   0.00000  -2.15197   5.29955
   1   0.00000   2.15250   3.34892
   1   0.00000   2.13522   0.91095
   1   0.00000   2.14217  -3.19775
   1   0.00000   2.15024  -7.35608
   1   0.00000  -0.00000  -8.68289
   1   0.00000  -2.15024  -7.35608
   1   0.00000  -2.14217  -3.19775
   1   0.00000  -2.13522   0.91095
   1   0.00000  -2.15250   3.34892
   1   0.00000   2.15197   5.29955
   1   0.00000   2.14437   7.73130
 initial cartes coords mol 2
   6   0.00000   0.00000   7.95204
   6   0.00000  -1.19901   7.24302
   6   0.00000  -1.19846   5.85346
   6   0.00000   0.00000   5.11283
   6   0.00000   0.00000   3.63094
   6   0.00000   1.19822   2.88313
   6   0.00000   1.20781   1.50350
   6   0.00000   0.00000   0.76893
   6   0.00000   0.00000  -0.65287
   7   0.00000   1.12265  -1.42869
   6   0.00000   1.17487  -2.71980
   6   0.00000   0.00000  -3.52680
   6   0.00000   0.00000  -4.96118
   7   0.00000   1.20625  -5.58655
   6   0.00000   1.18380  -6.91255
   6   0.00000   0.00000  -7.65292
   6   0.00000  -1.18380  -6.91255
   7   0.00000  -1.20625  -5.58655
   6   0.00000  -1.17487  -2.71980
   7   0.00000  -1.12265  -1.42869
   6   0.00000  -1.20781   1.50350
   6   0.00000  -1.19822   2.88313
   6   0.00000   1.19846   5.85346
   6   0.00000   1.19901   7.24302
   1   0.00000   0.00000   9.03582
   1   0.00000  -2.14445   7.77435
   1   0.00000  -2.15322   5.34543
   1   0.00000   2.15392   3.38996
   1   0.00000   2.15212   0.97264
   1   0.00000   2.15171  -3.19822
   1   0.00000   2.15164  -7.40881
   1   0.00000   0.00000  -8.73466
   1   0.00000  -2.15164  -7.40881
   1   0.00000  -2.15171  -3.19822
   1   0.00000  -2.15212   0.97264
   1   0.00000  -2.15392   3.38996
   1   0.00000   2.15322   5.34543
   1   0.00000   2.14445   7.77435
 loop 1 0
 mod cartes coords mol 2
   6   0.00000   0.00000   7.95204
   6   0.00000  -1.19901   7.24302
   6   0.00000  -1.19846   5.85346
   6   0.00000   0.00000   5.11283
   6   0.00000   0.00000   3.63094
   6   0.00000   1.19822   2.88313
   6   0.00000   1.20781   1.50350
   6   0.00000   0.00000   0.76893
   6   0.00000   0.00000  -0.65287
   7   0.00000   1.12265  -1.42869
   6   0.00000   1.17487  -2.71980
   6   0.00000   0.00000  -3.52680
   6   0.00000   0.00000  -4.96118
   7   0.00000   1.20625  -5.58655
   6   0.00000   1.18380  -6.91255
   6   0.00000   0.00000  -7.65292
   6   0.00000  -1.18380  -6.91255
   7   0.00000  -1.20625  -5.58655
   6   0.00000  -1.17487  -2.71980
   7   0.00000  -1.12265  -1.42869
   6   0.00000  -1.20781   1.50350
   6   0.00000  -1.19822   2.88313
   6   0.00000   1.19846   5.85346
   6   0.00000   1.19901   7.24302
   1   0.00000   0.00000   9.03582
   1   0.00000  -2.14445   7.77435
   1   0.00000  -2.15322   5.34543
   1   0.00000   2.15392   3.38996
   1   0.00000   2.15212   0.97264
   1   0.00000   2.15171  -3.19822
   1   0.00000   2.15164  -7.40881
   1   0.00000   0.00000  -8.73466
   1   0.00000  -2.15164  -7.40881
   1   0.00000  -2.15171  -3.19822
   1   0.00000  -2.15212   0.97264
   1   0.00000  -2.15392   3.38996
   1   0.00000   2.15322   5.34543
   1   0.00000   2.14445   7.77435
 read in order, maxerr=  0.09 for atom  10
 final axis swaps:           1           1           1
 final xyz swap pattern=           1
 reorder list:
   1   2   3   4   5   6   7   8   9  10  11  12  13  14  15  16  17  18  19  20
  21  22  23  24  25  26  27  28  29  30  31  32  33  34  35  36  37  38
 axis signs=           1           1           1
  6     0.000000  0.000000  7.952044     0.000000 -0.000000  7.906236
  6     0.000000 -1.199007  7.243023     0.000000 -1.199154  7.199296
  6     0.000000 -1.198457  5.853456     0.000000 -1.197805  5.809090
  6     0.000000  0.000000  5.112833     0.000000 -0.000000  5.072812
  6     0.000000  0.000000  3.630936     0.000000 -0.000000  3.581930
  6     0.000000  1.198220  2.883129     0.000000  1.196911  2.842573
  6     0.000000  1.207813  1.503503     0.000000  1.200949  1.456658
  6     0.000000  0.000000  0.768925     0.000000 -0.000000  0.736487
  6     0.000000  0.000000 -0.652866     0.000000 -0.000000 -0.740709
  7     0.000000  1.122654 -1.428690     0.000000  1.191967 -1.364939
  6     0.000000  1.174872 -2.719800     0.000000  1.182695 -2.692493
  6     0.000000  0.000000 -3.526800     0.000000 -0.000000 -3.440801
  6     0.000000  0.000000 -4.961185     0.000000 -0.000000 -4.916340
  7     0.000000  1.206246 -5.586554     0.000000  1.192962 -5.533166
  6     0.000000  1.183798 -6.912550     0.000000  1.180727 -6.865048
  6     0.000000  0.000000 -7.652917     0.000000 -0.000000 -7.600655
  6     0.000000 -1.183798 -6.912550     0.000000 -1.180727 -6.865048
  7     0.000000 -1.206246 -5.586554     0.000000 -1.192962 -5.533166
  6     0.000000 -1.174872 -2.719800     0.000000 -1.182695 -2.692493
  7     0.000000 -1.122654 -1.428690     0.000000 -1.191967 -1.364939
  6     0.000000 -1.207813  1.503503     0.000000 -1.200949  1.456658
  6     0.000000 -1.198220  2.883129     0.000000 -1.196911  2.842573
  6     0.000000  1.198457  5.853456     0.000000  1.197805  5.809090
  6     0.000000  1.199007  7.243023     0.000000  1.199154  7.199296
  1     0.000000  0.000000  9.035822     0.000000 -0.000000  8.990489
  1     0.000000 -2.144447  7.774350     0.000000 -2.144374  7.731296
  1     0.000000 -2.153218  5.345431     0.000000 -2.151974  5.299546
  1     0.000000  2.153920  3.389959     0.000000  2.152500  3.348918
  1     0.000000  2.152125  0.972644     0.000000  2.135222  0.910955
  1     0.000000  2.151712 -3.198219     0.000000  2.142174 -3.197754
  1     0.000000  2.151639 -7.408806     0.000000  2.150242 -7.356077
  1     0.000000  0.000000 -8.734661     0.000000 -0.000000 -8.682889
  1     0.000000 -2.151639 -7.408806     0.000000 -2.150242 -7.356077
  1     0.000000 -2.151712 -3.198219     0.000000 -2.142174 -3.197754
  1     0.000000 -2.152125  0.972644     0.000000 -2.135222  0.910955
  1     0.000000 -2.153920  3.389959     0.000000 -2.152500  3.348918
  1     0.000000  2.153218  5.345431     0.000000  2.151974  5.299546
  1     0.000000  2.144447  7.774350     0.000000  2.144374  7.731296
 generating redundant internal coords
         300        3600          38
 Adding extra bonds for z output only
           6           6           6           6           6           6
           6           6           6           7           6           6
           6           7           6           6           6           7
           6           7           6           6           6           6
           1           1           1           1           1           1
           1           1           1           1           1           1
           1           1
 search for int coords
   1 str   2   1   1.393
   2 str   3   2   1.390
   3 str   4   3   1.409
   4 str   5   4   1.482
   5 str   6   5   1.412
   6 str   7   6   1.380
   7 str   8   7   1.414
   8 str   9   8   1.422
   9 str  10   9   1.365
  10 str  11  10   1.292
  11 str  12  11   1.425
  12 str  13  12   1.434
  13 str  14  13   1.359
  14 str  15  14   1.326
  15 str  16  15   1.396
  16 str  17  16   1.396
  17 str  18  13   1.359
  18 str  18  17   1.326
  19 str  19  12   1.425
  20 str  20   9   1.365
  21 str  20  19   1.292
  22 str  21   8   1.414
  23 str  22   5   1.412
  24 str  22  21   1.380
  25 str  23   4   1.409
  26 str  24   1   1.393
  27 str  24  23   1.390
  28 str  25   1   1.084
  29 str  26   2   1.085
  30 str  27   3   1.082
  31 str  28   6   1.082
  32 str  29   7   1.083
  33 str  30  11   1.088
  34 str  31  15   1.088
  35 str  32  16   1.082
  36 str  33  17   1.088
  37 str  34  19   1.088
  38 str  35  21   1.083
  39 str  36  22   1.082
  40 str  37  23   1.082
  41 str  38  24   1.085
 nber stretches=          41
  42 ben   1   2   3
  43 prop tor   1   2   3   4
  44 prop tor   1   2   3  27
  45 ben   1   2  26
  46 ben   1  24  23
  47 ben   1  24  38
  48 ben   2   1  24
  49 prop tor   2   1  24  23
  50 prop tor   2   1  24  38
  51 ben   2   1  25
  52 ben   2   3   4
  53 prop tor   2   3   4   5
  54 prop tor   2   3   4  23
  55 ben   2   3  27
  56 ben   3   2  26
  57 ben   3   4   5
  58 prop tor   3   4   5   6
  59 prop tor   3   4   5  22
  60 ben   3   4  23
  61 prop tor   3   4  23  24
  62 prop tor   3   4  23  37
  63 ben   4   3  27
  64 ben   4   5   6
  65 prop tor   4   5   6   7
  66 prop tor   4   5   6  28
  67 ben   4   5  22
  68 prop tor   4   5  22  21
  69 prop tor   4   5  22  36
  70 ben   4  23  24
  71 prop tor   4  23  24   1
  72 prop tor   4  23  24  38
  73 ben   4  23  37
  74 ben   5   4  23
  75 prop tor   5   4  23  24
  76 prop tor   5   4  23  37
  77 ben   5   6   7
  78 prop tor   5   6   7   8
  79 prop tor   5   6   7  29
  80 ben   5   6  28
  81 ben   5  22  21
  82 ben   5  22  36
  83 ben   6   5  22
  84 prop tor   6   5  22  21
  85 prop tor   6   5  22  36
  86 ben   6   7   8
  87 prop tor   6   7   8   9
  88 prop tor   6   7   8  21
  89 ben   6   7  29
  90 ben   7   6  28
  91 ben   7   8   9
  92 prop tor   7   8   9  10
  93 prop tor   7   8   9  20
  94 ben   7   8  21
  95 prop tor   7   8  21  22
  96 prop tor   7   8  21  35
  97 ben   8   7  29
  98 ben   8   9  10
  99 prop tor   8   9  10  11
 100 ben   8   9  20
 101 prop tor   8   9  20  19
 102 ben   8  21  22
 103 prop tor   8  21  22   5
 104 prop tor   8  21  22  36
 105 ben   8  21  35
 106 ben   9   8  21
 107 prop tor   9   8  21  22
 108 prop tor   9   8  21  35
 109 ben   9  10  11
 110 prop tor   9  10  11  12
 111 prop tor   9  10  11  30
 112 ben   9  20  19
 113 ben  10   9  20
 114 prop tor  10   9  20  19
 115 ben  10  11  12
 116 prop tor  10  11  12  13
 117 prop tor  10  11  12  19
 118 ben  10  11  30
 119 ben  11  12  13
 120 prop tor  11  12  13  14
 121 prop tor  11  12  13  18
 122 ben  11  12  19
 123 prop tor  11  12  19  20
 124 prop tor  11  12  19  34
 125 ben  12  11  30
 126 ben  12  13  14
 127 prop tor  12  13  14  15
 128 ben  12  13  18
 129 prop tor  12  13  18  17
 130 ben  12  19  20
 131 prop tor  12  19  20   9
 132 ben  12  19  34
 133 ben  13  12  19
 134 prop tor  13  12  19  20
 135 prop tor  13  12  19  34
 136 ben  13  14  15
 137 prop tor  13  14  15  16
 138 prop tor  13  14  15  31
 139 ben  13  18  17
 140 ben  14  13  18
 141 prop tor  14  13  18  17
 142 ben  14  15  16
 143 prop tor  14  15  16  17
 144 prop tor  14  15  16  32
 145 ben  14  15  31
 146 ben  15  16  17
 147 prop tor  15  16  17  18
 148 prop tor  15  16  17  33
 149 ben  15  16  32
 150 ben  16  15  31
 151 ben  16  17  18
 152 prop tor  16  17  18  13
 153 ben  16  17  33
 154 ben  17  16  32
 155 prop tor  18  13  14  15
 156 ben  18  17  33
 157 prop tor  19  12  13  14
 158 prop tor  19  12  13  18
 159 prop tor  20   9  10  11
 160 ben  20  19  34
 161 prop tor  21   8   9  10
 162 prop tor  21   8   9  20
 163 ben  21  22  36
 164 prop tor  22   5   6   7
 165 prop tor  22   5   6  28
 166 ben  22  21  35
 167 prop tor  23   4   5   6
 168 prop tor  23   4   5  22
 169 ben  23  24  38
 170 prop tor  24   1   2   3
 171 prop tor  24   1   2  26
 172 ben  24   1  25
 173 ben  24  23  37
 174 prop tor  25   1   2   3
 175 prop tor  25   1   2  26
 176 prop tor  25   1  24  23
 177 prop tor  25   1  24  38
 178 prop tor  26   2   3   4
 179 prop tor  26   2   3  27
 180 prop tor  27   3   4   5
 181 prop tor  27   3   4  23
 182 prop tor  28   6   7   8
 183 prop tor  28   6   7  29
 184 prop tor  29   7   8   9
 185 prop tor  29   7   8  21
 186 prop tor  30  11  12  13
 187 prop tor  30  11  12  19
 188 prop tor  31  15  16  17
[...]
                 0.5057    25.6          89 A1   1472.
  84 B2   1373. -0.9767    95.4   100.0  84 B2   1370.
  85 B2   1412. -0.3501    12.3    99.9  74 B2   1223.
                -0.4255    18.1          82 B2   1334.
                -0.5411    29.3          91 B2   1506.
  86 A1   1434.  0.4430    19.6   100.7  85 A1   1395.
                 0.7966    63.5          86 A1   1433.
  87 B2   1438. -0.9208    84.8    99.9  87 B2   1455.
  88 B2   1467.  0.7883    62.1    99.6  88 B2   1466.
                 0.3975    15.8          90 B2   1478.
  89 B2   1484. -0.8416    70.8   100.1  90 B2   1478.
                 0.4174    17.4          91 B2   1506.
  90 A1   1486. -0.4163    17.3   100.9  85 A1   1395.
                 0.6732    45.3          89 A1   1472.
  91 A1   1524.  0.9345    87.3   100.0  92 A1   1520.
  92 A1   1558. -0.9709    94.3    99.9  94 A1   1554.
  93 B2   1562.  0.4461    19.9    97.5  77 B2   1258.
                -0.5238    27.4          82 B2   1334.
                -0.3886    15.1          93 B2   1541.
  94 B2   1599.  0.6687    44.7   100.1  93 B2   1541.
                -0.6509    42.4          95 B2   1568.
  95 A1   1606. -0.7217    52.1   100.2  98 A1   1622.
                 0.4948    24.5          99 A1   1640.
  96 B2   1608. -0.5931    35.2    99.6  93 B2   1541.
                -0.6253    39.1          95 B2   1568.
  97 B2   1624.  0.9643    93.0   100.0  97 B2   1615.
  98 A1   1630. -0.9024    81.4   100.7  96 A1   1603.
  99 A1   1642.  0.6095    37.1   100.2  98 A1   1622.
                 0.7128    50.8          99 A1   1640.
 100 A1   1656.  0.8934    79.8   100.2 100 A1   1651.
 101 A1   3148.  0.9991    99.8   100.0 101 A1   3136.
 102 B2   3150.  1.0000   100.0   100.0 102 B2   3137.
 103 A1   3159.  0.9976    99.5   100.0 105 A1   3160.
 104 B2   3168.  0.9987    99.7   100.0 106 B2   3168.
 105 B2   3182. -0.9996    99.9   100.0 104 B2   3145.
 106 A1   3182. -0.4255    18.1   100.0 107 A1   3178.
                 0.8578    73.6         109 A1   3186.
 107 A1   3183.  0.9591    92.0   100.0 103 A1   3145.
 108 B2   3190. -0.7558    57.1   100.0 108 B2   3180.
                -0.6534    42.7         110 B2   3194.
 109 A1   3191.  0.6842    46.8   100.0 107 A1   3178.
                 0.3194    10.2         109 A1   3186.
                -0.6550    42.9         111 A1   3196.
 110 A1   3204. -0.9991    99.8   100.0 112 A1   3206.
 111 B2   3204. -0.5769    33.3   100.0 108 B2   3180.
                 0.6626    43.9         110 B2   3194.
                 0.4767    22.7         113 B2   3209.
 112 A1   3205.  0.5109    26.1   100.0 107 A1   3178.
                 0.6714    45.1         111 A1   3196.
                -0.4659    21.7         114 A1   3211.
 113 B2   3213.  0.3660    13.4   100.0 110 B2   3194.
                -0.8790    77.3         113 B2   3209.
 114 A1   3215. -0.3459    12.0   100.0 111 A1   3196.
                -0.8847    78.3         114 A1   3211.
 nber times 1st assigned=           1           0
 nber times 1st assigned=           2           0
 nber times 1st assigned=           3           0
 nber times 1st assigned=           4           0
 nber times 1st assigned=           5           0
 nber times 1st assigned=           6           0
 nber times 1st assigned=           7           0
 nber times 1st assigned=           8           0
 nber times 1st assigned=           9           0
 nber times 1st assigned=          10           0
 nber times 1st assigned=          11           0
 nber times 1st assigned=          12           0
 nber times 1st assigned=          13           0
 nber times 1st assigned=          14           0
 nber times 1st assigned=          15           0
 nber times 1st assigned=          16           0
 nber times 1st assigned=          17           0
 nber times 1st assigned=          18           0
 nber times 1st assigned=          19           0
 nber times 1st assigned=          20           0
 nber times 1st assigned=          21           0
 nber times 1st assigned=          22           0
 nber times 1st assigned=          23           0
 nber times 1st assigned=          24           0
 nber times 1st assigned=          25           0
 nber times 1st assigned=          26           0
 nber times 1st assigned=          27           0
 nber times 1st assigned=          28           0
 nber times 1st assigned=          29           0
 nber times 1st assigned=          30           0
 nber times 1st assigned=          31           0
 nber times 1st assigned=          32           0
 nber times 1st assigned=          33           0
 nber times 1st assigned=          34           0
 nber times 1st assigned=          35           0
 nber times 1st assigned=          36           0
 nber times 1st assigned=          37           0
 nber times 1st assigned=          38           0
 nber times 1st assigned=          39           0
 nber times 1st assigned=          40           0
 nber times 1st assigned=          41           0
 nber times 1st assigned=          42           0
 nber times 1st assigned=          43           0
 nber times 1st assigned=          44           0
 nber times 1st assigned=          45           0
 nber times 1st assigned=          46           0
 nber times 1st assigned=          47           0
 nber times 1st assigned=          48           0
 nber times 1st assigned=          49           0
 nber times 1st assigned=          50           0
 nber times 1st assigned=          51           0
 nber times 1st assigned=          52           0
 nber times 1st assigned=          53           0
 nber times 1st assigned=          54           0
 nber times 1st assigned=          55           0
 nber times 1st assigned=          56           0
 nber times 1st assigned=          57           0
 nber times 1st assigned=          58           0
 nber times 1st assigned=          59           0
 nber times 1st assigned=          60           0
 nber times 1st assigned=          61           0
 nber times 1st assigned=          62           0
 nber times 1st assigned=          63           0
 nber times 1st assigned=          64           0
 nber times 1st assigned=          65           0
 nber times 1st assigned=          66           0
 nber times 1st assigned=          67           0
 nber times 1st assigned=          68           0
 nber times 1st assigned=          69           0
 nber times 1st assigned=          70           0
 nber times 1st assigned=          71           0
 nber times 1st assigned=          72           0
 nber times 1st assigned=          73           0
 nber times 1st assigned=          74           0
 nber times 1st assigned=          75           0
 nber times 1st assigned=          76           0
 nber times 1st assigned=          77           0
 nber times 1st assigned=          78           0
 nber times 1st assigned=          79           0
 nber times 1st assigned=          80           0
 nber times 1st assigned=          81           0
 nber times 1st assigned=          82           0
 nber times 1st assigned=          83           0
 nber times 1st assigned=          84           0
 nber times 1st assigned=          85           0
 nber times 1st assigned=          86           0
 nber times 1st assigned=          87           0
 nber times 1st assigned=          88           0
 nber times 1st assigned=          89           0
 nber times 1st assigned=          90           0
 nber times 1st assigned=          91           0
 nber times 1st assigned=          92           0
 nber times 1st assigned=          93           0
 nber times 1st assigned=          94           0
 nber times 1st assigned=          95           0
 nber times 1st assigned=          96           0
 nber times 1st assigned=          97           0
 nber times 1st assigned=          98           0
 nber times 1st assigned=          99           0
 nber times 1st assigned=         100           0
 nber times 1st assigned=         101           0
 nber times 1st assigned=         102           0
 nber times 1st assigned=         103           0
 nber times 1st assigned=         104           0
 nber times 1st assigned=         105           0
 nber times 1st assigned=         106           0
 nber times 1st assigned=         107           0
 nber times 1st assigned=         108           0
 nber times 1st assigned=         109           0
 nber times 1st assigned=         110           0
 nber times 1st assigned=         111           0
 nber times 1st assigned=         112           0
 nber times 1st assigned=         113           0
 nber times 1st assigned=         114           0
 modes represented=   110.575575999124     
 p1=
   -0.   -0.    0.   -0.    0.    0.   -0.   -0.    0.   -0.    0.    0.    0.    0.    0.   33.    0.   -0.    0.   -6.
    0.   -0.    0.   -0.   -0.    0.    0.   10.    0.    0.   -0.    0.    0.   -0.    0.  -10.    0.    0.   -7.    0.
   -5.   -0.   -0.   -0.    0.   -9.    0.    0.   -0.    0.    0.    0.    0.    0.    0.   -0.   -4.    0.    1.   -0.
   -1.   -1.   -8.    0.    4.    2.    0.    0.   -0.    0.   -0.   -2.    0.    3.   -0.   -0.   -1.   -0.   -0.   -0.
    0.    1.   -7.   -0.    0.    5.    0.   -0.   -0.    3.   -2.    2.   -0.    0.   -5.    0.    0.    5.   -1.   -1.
    0.    0.   -0.    0.   -0.   -0.    0.   -0.   -0.    0.   -0.    0.    0.   -0.
 p2=
    0.   -0.    0.   -0.    0.   -0.   -0.    0.    0.   -0.    0.    0.   -0.   -0.    0.  -32.    0.    0.   -0.    6.
   -0.   -0.    0.   -0.   -0.    0.   10.    0.    0.    0.   -0.    0.   -0.    0.   -0.   14.   -0.    0.   -0.    6.
    0.    8.   -0.    0.    5.   -0.    0.   -0.   -0.   -0.   -0.   -7.   -0.    0.   -0.   -0.   -0.    0.    0.    0.
   -1.   -2.   -1.    0.    0.    0.    2.    2.   -0.   -0.    0.    0.    3.    0.    3.    0.   -0.   -1.    0.    1.
    0.    0.    0.    0.    3.   -4.    0.   -0.    2.    0.   -0.    2.   -0.    1.    0.    2.   -0.   -3.    8.    5.
   -0.    0.    0.   -0.    0.    0.   -0.   -0.   -0.    0.   -0.    0.   -0.   -0.

 Displacement: in terms of nc of 1 THEN of nc of 2

   1 A2  freq=   -79. Q= -0.000 lam=    -0.0 A2  freq=   -72. Q= -0.000 lam=    -0.0
   2 B1  freq=    -0. Q= -0.000 lam=    -0.0 B2  freq=    -0. Q= -0.000 lam=    -0.0
   3 B1  freq=     0. Q=  0.000 lam=     0.0 B1  freq=    -0. Q=  0.000 lam=    -0.0
   4 A2  freq=     0. Q= -0.000 lam=     0.0 B2  freq=    -0. Q= -0.000 lam=    -0.0
   5 B2  freq=     0. Q=  0.000 lam=     0.0 A1  freq=    -0. Q=  0.000 lam=    -0.0
   6 B2  freq=     0. Q=  0.000 lam=     0.0 A2  freq=     0. Q=  0.000 lam=     0.0
   7 A1  freq=     0. Q= -0.000 lam=     0.0 B1  freq=     0. Q= -0.000 lam=     0.0
   8 B1  freq=    21. Q= -0.000 lam=     0.0 B1  freq=    21. Q= -0.000 lam=     0.0
   9 A2  freq=    33. Q=  0.000 lam=     0.0 B2  freq=    44. Q=  0.000 lam=     0.0
  10 B2  freq=    53. Q= -0.000 lam=     0.0 A2  freq=    54. Q= -0.000 lam=     0.0
  11 B1  freq=    59. Q=  0.000 lam=     0.0 B1  freq=    59. Q=  0.000 lam=     0.0
  12 A2  freq=    67. Q=  0.000 lam=     0.0 A2  freq=   113. Q=  0.000 lam=     0.0
  13 B1  freq=   119. Q=  0.000 lam=     0.0 B1  freq=   117. Q=  0.000 lam=     0.0
  14 B2  freq=   133. Q=  0.000 lam=     0.0 B2  freq=   123. Q=  0.000 lam=     0.0
  15 B1  freq=   166. Q=  0.000 lam=     0.0 B1  freq=   165. Q=  0.000 lam=     0.0
  16 A1  freq=   174. Q=  1.778 lam=   274.6 A1  freq=   170. Q=  1.658 lam=   233.5
  17 B2  freq=   213. Q=  0.000 lam=     0.0 B2  freq=   198. Q=  0.000 lam=     0.0
  18 B1  freq=   258. Q= -0.000 lam=     0.0 B1  freq=   240. Q= -0.000 lam=     0.0
  19 B1  freq=   337. Q=  0.000 lam=     0.0 B1  freq=   323. Q=  0.000 lam=     0.0
  20 A1  freq=   338. Q= -0.453 lam=    34.7 A1  freq=   336. Q= -0.476 lam=    38.0
  21 B2  freq=   381. Q=  0.000 lam=     0.0 B2  freq=   373. Q=  0.000 lam=     0.0
  22 A2  freq=   396. Q= -0.000 lam=     0.0 A2  freq=   399. Q= -0.000 lam=     0.0
  23 A2  freq=   407. Q=  0.000 lam=     0.0 B1  freq=   417. Q=  0.000 lam=     0.0
  24 A2  freq=   414. Q= -0.000 lam=     0.0 A2  freq=   419. Q= -0.000 lam=     0.0
  25 A2  freq=   418. Q= -0.000 lam=     0.0 A2  freq=   421. Q= -0.000 lam=     0.0
  26 B2  freq=   442. Q=  0.000 lam=     0.0 B2  freq=   433. Q=  0.000 lam=     0.0
  27 B1  freq=   446. Q=  0.000 lam=     0.0 A1  freq=   477. Q=  0.893 lam=   190.2
  28 A1  freq=   481. Q=  0.895 lam=   192.4 B1  freq=   477. Q=  0.000 lam=     0.0
  29 B2  freq=   509. Q=  0.000 lam=     0.0 B2  freq=   493. Q=  0.000 lam=     0.0
  30 B1  freq=   515. Q=  0.000 lam=     0.0 B1  freq=   540. Q=  0.000 lam=     0.0
  31 B1  freq=   561. Q= -0.000 lam=     0.0 B1  freq=   555. Q= -0.000 lam=     0.0
  32 B1  freq=   593. Q=  0.000 lam=     0.0 A2  freq=   556. Q=  0.000 lam=     0.0
  33 B2  freq=   631. Q=  0.000 lam=     0.0 B2  freq=   600. Q=  0.000 lam=     0.0
  34 B2  freq=   645. Q= -0.000 lam=     0.0 B1  freq=   628. Q= -0.000 lam=     0.0
  35 B2  freq=   656. Q=  0.000 lam=     0.0 B2  freq=   630. Q=  0.000 lam=     0.0
  36 A1  freq=   656. Q= -1.043 lam=   356.6 A1  freq=   632. Q= -1.458 lam=   671.0
  37 B2  freq=   671. Q=  0.000 lam=     0.0 B2  freq=   651. Q=  0.000 lam=     0.0
  38 B1  freq=   696. Q=  0.000 lam=     0.0 B2  freq=   655. Q=  0.000 lam=     0.0
  39 A1  freq=   721. Q= -0.728 lam=   191.2 B1  freq=   694. Q= -0.000 lam=     0.0
  40 B1  freq=   740. Q=  0.000 lam=     0.0 A1  freq=   698. Q=  0.588 lam=   120.6
  41 A1  freq=   776. Q= -0.603 lam=   141.0 B1  freq=   728. Q= -0.000 lam=     0.0
  42 B1  freq=   779. Q= -0.000 lam=     0.0 A1  freq=   757. Q= -0.867 lam=   284.7
  43 B1  freq=   819. Q= -0.000 lam=     0.0 B1  freq=   776. Q= -0.000 lam=     0.0
  44 A2  freq=   824. Q= -0.000 lam=     0.0 B1  freq=   789. Q= -0.000 lam=     0.0
  45 B1  freq=   827. Q=  0.000 lam=     0.0 A1  freq=   789. Q=  0.599 lam=   141.4
  46 A1  freq=   830. Q= -1.096 lam=   498.2 B1  freq=   804. Q= -0.000 lam=     0.0
  47 B1  freq=   843. Q=  0.000 lam=     0.0 A2  freq=   807. Q=  0.000 lam=     0.0
  48 A2  freq=   854. Q=  0.000 lam=     0.0 A2  freq=   837. Q=  0.000 lam=     0.0
  49 B1  freq=   879. Q= -0.000 lam=     0.0 B1  freq=   839. Q= -0.000 lam=     0.0
  50 B1  freq=   923. Q=  0.000 lam=     0.0 B1  freq=   911. Q=  0.000 lam=     0.0
  51 A2  freq=   970. Q=  0.000 lam=     0.0 B1  freq=   919. Q=  0.000 lam=     0.0
  52 B1  freq=   993. Q=  0.000 lam=     0.0 A1  freq=   950. Q=  0.892 lam=   378.0
  53 A2  freq=   998. Q=  0.000 lam=     0.0 A2  freq=   956. Q=  0.000 lam=     0.0
  54 B1  freq=   999. Q=  0.000 lam=     0.0 A2  freq=   960. Q=  0.000 lam=     0.0
  55 B1  freq=  1003. Q=  0.000 lam=     0.0 B1  freq=   962. Q=  0.000 lam=     0.0
  56 A2  freq=  1004. Q= -0.000 lam=     0.0 A2  freq=   973. Q= -0.000 lam=     0.0
  57 A1  freq=  1009. Q= -0.522 lam=   137.5 B1  freq=   986. Q= -0.000 lam=     0.0
  58 B1  freq=  1013. Q=  0.000 lam=     0.0 A1  freq=   993. Q=  0.061 lam=     1.9
  59 A1  freq=  1014. Q=  0.085 lam=     3.7 B1  freq=   994. Q=  0.000 lam=     0.0
  60 A2  freq=  1016. Q= -0.000 lam=     0.0 A2  freq=   999. Q= -0.000 lam=     0.0
  61 A1  freq=  1022. Q= -0.135 lam=     9.3 A1  freq=  1008. Q= -0.125 lam=     7.8
  62 A1  freq=  1033. Q= -0.160 lam=    13.2 A1  freq=  1012. Q= -0.227 lam=    26.0
  63 A1  freq=  1045. Q= -1.034 lam=   558.3 A1  freq=  1025. Q= -0.106 lam=     5.8
  64 A1  freq=  1064. Q=  0.026 lam=     0.4 B2  freq=  1042. Q=  0.000 lam=     0.0
  65 A1  freq=  1075. Q=  0.538 lam=   155.5 A1  freq=  1058. Q=  0.012 lam=     0.1
  66 A1  freq=  1093. Q=  0.215 lam=    25.3 A1  freq=  1061. Q=  0.052 lam=     1.4
  67 B2  freq=  1112. Q=  0.000 lam=     0.0 A1  freq=  1077. Q=  0.235 lam=    29.7
  68 B2  freq=  1114. Q=  0.000 lam=     0.0 A1  freq=  1100. Q=  0.225 lam=    27.8
  69 A1  freq=  1129. Q= -0.014 lam=     0.1 B2  freq=  1105. Q= -0.000 lam=     0.0
  70 B2  freq=  1147. Q=  0.000 lam=     0.0 B2  freq=  1111. Q=  0.000 lam=     0.0
  71 B2  freq=  1188. Q= -0.000 lam=     0.0 B2  freq=  1160. Q= -0.000 lam=     0.0
  72 A1  freq=  1204. Q= -0.344 lam=    71.2 B2  freq=  1186. Q= -0.000 lam=     0.0
  73 B2  freq=  1225. Q=  0.000 lam=     0.0 A1  freq=  1201. Q=  0.359 lam=    77.3
  74 A1  freq=  1235. Q=  0.481 lam=   142.6 B2  freq=  1223. Q=  0.000 lam=     0.0
  75 B2  freq=  1238. Q= -0.000 lam=     0.0 A1  freq=  1228. Q= -0.382 lam=    89.6
  76 B2  freq=  1272. Q= -0.000 lam=     0.0 B2  freq=  1251. Q= -0.000 lam=     0.0
  77 A1  freq=  1286. Q= -0.165 lam=    17.5 B2  freq=  1258. Q= -0.000 lam=     0.0
  78 B2  freq=  1290. Q= -0.000 lam=     0.0 A1  freq=  1289. Q= -0.110 lam=     7.8
  79 B2  freq=  1303. Q= -0.000 lam=     0.0 B2  freq=  1296. Q= -0.000 lam=     0.0
  80 B2  freq=  1331. Q= -0.000 lam=     0.0 A1  freq=  1309. Q= -0.159 lam=    16.5
  81 B2  freq=  1341. Q=  0.000 lam=     0.0 B2  freq=  1325. Q=  0.000 lam=     0.0
  82 A1  freq=  1346. Q=  0.147 lam=    14.6 B2  freq=  1334. Q=  0.000 lam=     0.0
  83 A1  freq=  1357. Q= -1.015 lam=   699.7 B2  freq=  1340. Q= -0.000 lam=     0.0
  84 B2  freq=  1373. Q= -0.000 lam=     0.0 B2  freq=  1370. Q= -0.000 lam=     0.0
  85 B2  freq=  1412. Q=  0.000 lam=     0.0 A1  freq=  1395. Q=  0.409 lam=   116.4
  86 A1  freq=  1434. Q=  0.800 lam=   459.2 A1  freq=  1433. Q=  0.621 lam=   276.4
  87 B2  freq=  1438. Q=  0.000 lam=     0.0 B2  freq=  1455. Q=  0.000 lam=     0.0
  88 B2  freq=  1467. Q= -0.000 lam=     0.0 B2  freq=  1466. Q= -0.000 lam=     0.0
  89 B2  freq=  1484. Q= -0.000 lam=     0.0 A1  freq=  1472. Q= -0.277 lam=    56.5
  90 A1  freq=  1486. Q=  0.510 lam=   193.5 B2  freq=  1478. Q=  0.000 lam=     0.0
  91 A1  freq=  1524. Q= -0.308 lam=    72.4 B2  freq=  1506. Q= -0.000 lam=     0.0
  92 A1  freq=  1558. Q=  0.311 lam=    75.4 A1  freq=  1520. Q=  0.270 lam=    55.4
  93 B2  freq=  1562. Q= -0.000 lam=     0.0 B2  freq=  1541. Q= -0.000 lam=     0.0
  94 B2  freq=  1599. Q=  0.000 lam=     0.0 A1  freq=  1554. Q=  0.234 lam=    42.6
  95 A1  freq=  1606. Q= -0.788 lam=   499.0 B2  freq=  1568. Q= -0.000 lam=     0.0
  96 B2  freq=  1608. Q=  0.000 lam=     0.0 A1  freq=  1603. Q=  0.327 lam=    85.7
  97 B2  freq=  1624. Q=  0.000 lam=     0.0 B2  freq=  1615. Q=  0.000 lam=     0.0
  98 A1  freq=  1630. Q=  0.794 lam=   513.3 A1  freq=  1622. Q=  0.535 lam=   232.1
  99 A1  freq=  1642. Q= -0.212 lam=    37.1 A1  freq=  1640. Q= -1.228 lam=  1236.5
 100 A1  freq=  1656. Q= -0.161 lam=    21.6 A1  freq=  1651. Q= -0.770 lam=   489.7
 101 A1  freq=  3148. Q=  0.006 lam=     0.1 A1  freq=  3136. Q=  0.006 lam=     0.1
 102 B2  freq=  3150. Q=  0.000 lam=     0.0 B2  freq=  3137. Q=  0.000 lam=     0.0
 103 A1  freq=  3159. Q= -0.003 lam=     0.0 A1  freq=  3145. Q= -0.027 lam=     1.2
 104 B2  freq=  3168. Q=  0.000 lam=     0.0 B2  freq=  3145. Q=  0.000 lam=     0.0
 105 B2  freq=  3182. Q= -0.000 lam=     0.0 A1  freq=  3160. Q= -0.001 lam=     0.0
 106 A1  freq=  3182. Q= -0.001 lam=     0.0 B2  freq=  3168. Q= -0.000 lam=     0.0
 107 A1  freq=  3183. Q=  0.001 lam=     0.0 A1  freq=  3178. Q=  0.019 lam=     0.6
 108 B2  freq=  3190. Q= -0.000 lam=     0.0 B2  freq=  3180. Q= -0.000 lam=     0.0
 109 A1  freq=  3191. Q= -0.004 lam=     0.0 A1  freq=  3186. Q= -0.005 lam=     0.0
 110 A1  freq=  3204. Q=  0.007 lam=     0.1 B2  freq=  3194. Q=  0.000 lam=     0.0
 111 B2  freq=  3204. Q= -0.000 lam=     0.0 A1  freq=  3196. Q= -0.016 lam=     0.4
 112 A1  freq=  3205. Q=  0.008 lam=     0.1 A1  freq=  3206. Q=  0.010 lam=     0.2
 113 B2  freq=  3213. Q=  0.000 lam=     0.0 B2  freq=  3209. Q=  0.000 lam=     0.0
 114 A1  freq=  3215. Q= -0.007 lam=     0.1 A1  freq=  3211. Q= -0.004 lam=     0.0

 total reorg energy (cm**-1, kcal/mol)=     5409.     4943.     15.47     14.13
 Nber of molecules processed=           2
