 Enter ifcurve (0=recti, 1=orth curvi, 2=apprx curvi, -1 = skip
 And atom ordering flag, 0= never changes, 1= use the first order thenceforth,
  2= deduce it (does read on fail), 3= always read it
 Reading file: 
 ./pyrene_0_C1S0.log                                                            
                                          
  Entering Gaussian System, Link 0=g16                                          
  
 Gaussian format, type: g94, g98, g03= F F F
  #P Geom=AllCheck Guess=TCheck SCRF=Check GenChk UB3LYP/6-311G(d,p) Fre    
 energy type= B3LYP   
 Original G94 input coords:
  6  3.533791  0.008328  0.000352
  6  2.839740  1.212763  0.000372
  6  1.418881  1.240485  0.000211
  6  0.691176  2.455256  0.000228
  6 -0.691015  2.455319  0.000069
  6 -1.418831  1.240615 -0.000116
  6 -2.839693  1.213023 -0.000282
  6 -3.533854  0.008652 -0.000463
  6 -2.839803 -1.195783 -0.000483
  6 -1.418944 -1.223505 -0.000321
  6 -0.691239 -2.438276 -0.000337
  6  0.690952 -2.438339 -0.000177
  6  1.418768 -1.223635  0.000007
  6  2.839629 -1.196043  0.000173
  6  0.707227  0.008458  0.000027
  6 -0.707290  0.008523 -0.000136
  1  4.616355  0.008278  0.000476
  1  3.382725  2.151293  0.000512
  1  1.230885  3.395264  0.000368
  1 -1.230638  3.395377  0.000084
  1 -3.382592  2.151603 -0.000267
  1 -4.616418  0.008702 -0.000588
  1 -3.382788 -2.134313 -0.000624
  1 -1.230948 -3.378284 -0.000478
  1  1.230575 -3.378397 -0.000193
  1  3.382529 -2.134623  0.000158
 nber atoms=          26
  SCF Done:  E(UB3LYP) =  -615.650054361     A.U. after    1 cycles             
  
          23          40 "  -615.650054361"
After scan for Atom:   Atom  AN      X      Y      Z        X      Y      Z        X      Y      Z   
After scan for Atom:   Atom  AN      X      Y      Z        X      Y      Z        X      Y      Z   
After scan for Atom:   Atom  AN      X      Y      Z        X      Y      Z        X      Y      Z   
After scan for Atom:   Atom  AN      X      Y      Z        X      Y      Z        X      Y      Z   
After scan for Atom:   Atom  AN      X      Y      Z        X      Y      Z        X      Y      Z   
After scan for Atom:   Atom  AN      X      Y      Z        X      Y      Z        X      Y      Z   
After scan for Atom:   Atom  AN      X      Y      Z        X      Y      Z        X      Y      Z   
After scan for Atom:   Atom  AN      X      Y      Z        X      Y      Z        X      Y      Z   
After scan for Atom:   Atom  AN      X      Y      Z        X      Y      Z        X      Y      Z   
After scan for Atom:   Atom  AN      X      Y      Z        X      Y      Z        X      Y      Z   
After scan for Atom:   Atom  AN      X      Y      Z        X      Y      Z        X      Y      Z   
After scan for Atom:   Atom  AN      X      Y      Z        X      Y      Z        X      Y      Z   
After scan for Atom:   Atom  AN      X      Y      Z        X      Y      Z        X      Y      Z   
After scan for Atom:   Atom  AN      X      Y      Z        X      Y      Z        X      Y      Z   
After scan for Atom:   Atom  AN      X      Y      Z        X      Y      Z        X      Y      Z   
After scan for Atom:   Atom  AN      X      Y      Z        X      Y      Z        X      Y      Z   
After scan for Atom:   Atom  AN      X      Y      Z        X      Y      Z        X      Y      Z   
After scan for Atom:   Atom  AN      X      Y      Z        X      Y      Z        X      Y      Z   
After scan for Atom:   Atom  AN      X      Y      Z        X      Y      Z        X      Y      Z   
After scan for Atom:   Atom  AN      X      Y      Z        X      Y      Z        X      Y      Z   
After scan for Atom:   Atom  AN      X      Y      Z        X      Y      Z        X      Y      Z   
After scan for Atom:   Atom  AN      X      Y      Z        X      Y      Z        X      Y      Z   
After scan for Atom:   Atom  AN      X      Y      Z        X      Y      Z        X      Y      Z   
After scan for Atom:   Atom  AN      X      Y      Z        X      Y      Z        X      Y      Z   
 g94    frequencies=
     0.0    0.0    0.0    0.0    0.0    0.0  100.3  145.2  200.3  244.8
   253.9  354.0  397.6  414.0  458.7  468.6  480.0  501.3  504.4  538.9
   540.1  548.7  601.2  675.7  694.6  697.3  742.5  761.4  782.1  816.0
   824.0  831.2  843.4  876.9  949.1  960.6  992.7  994.9 1004.4 1004.4
  1014.9 1018.0 1095.9 1122.2 1145.0 1169.0 1171.3 1202.9 1214.1 1235.6
  1248.6 1265.3 1266.6 1365.4 1370.8 1373.8 1424.6 1449.1 1452.2 1464.0
  1466.1 1517.2 1521.2 1561.3 1581.5 1587.0 1592.9 1658.7 3182.7 3183.2
  3184.2 3184.9 3188.0 3188.6 3196.6 3196.7 3207.7 3207.8
 g94    symmetries=
                                                 A      A      A      A
       A      A      A      A      A      A      A      A      A      A
       A      A      A      A      A      A      A      A      A      A
       A      A      A      A      A      A      A      A      A      A
       A      A      A      A      A      A      A      A      A      A
       A      A      A      A      A      A      A      A      A      A
       A      A      A      A      A      A      A      A      A      A
       A      A      A      A      A      A      A      A
 atomic masses:
 12.0000 12.0000 12.0000 12.0000 12.0000 12.0000 12.0000 12.0000 12.0000 12.0000
 12.0000 12.0000 12.0000 12.0000 12.0000 12.0000  1.0078  1.0078  1.0078  1.0078
  1.0078  1.0078  1.0078  1.0078  1.0078  1.0078
 looking for force constants in 
 ./pyrene_0_C1S0.fchk                                                           
  
 Cartesian Force Constants                  R   N=        3081                  
  
 n3=          78        3081
 g94-fc frequencies=
    -5.8   -5.0   -3.2    0.0    0.0    0.0  100.3  145.2  200.3  244.8
   253.9  354.0  397.6  414.0  458.7  468.6  480.0  501.3  504.4  539.0
   540.1  548.7  601.2  675.7  694.6  697.3  742.5  761.5  782.1  816.1
   824.0  831.2  843.4  876.9  949.1  960.6  992.7  994.9 1004.4 1004.4
  1014.9 1018.0 1096.0 1122.2 1145.0 1169.0 1171.3 1203.0 1214.1 1235.6
  1248.6 1265.4 1266.6 1365.4 1370.9 1373.8 1424.7 1449.1 1452.2 1464.1
  1466.2 1517.2 1521.2 1561.4 1581.5 1587.1 1593.0 1658.7 3182.7 3183.2
  3184.3 3185.0 3188.1 3188.7 3196.7 3196.7 3207.8 3207.9
 at 99999: n3=          78
 symm operator            1 :  F  nop=           0
 symm operator            2 :  F  nop=           0
 symm operator            3 :  F  nop=           0
 symm operator            4 :  F  nop=           0
 symm operator            5 :  F  nop=           0
 symm operator            6 :  F  nop=           0
 symm operator            7 :  F  nop=           0
 The point group of the molecule is  C1
 Symmetry rotation matrix:
   1.00000   0.00000   0.00000
   0.00000   1.00000   0.00000
   0.00000   0.00000   1.00000

 Projecting out zero-frequency components
 generating redundant internal coords
         300        3600          26
 search for int coords
   1 str   2   1   1.390
   2 str   3   2   1.421
   3 str   4   3   1.416
   4 str   5   4   1.382
   5 str   6   5   1.416
   6 str   7   6   1.421
   7 str   8   7   1.390
   8 str   9   8   1.390
   9 str  10   9   1.421
  10 str  11  10   1.416
  11 str  12  11   1.382
  12 str  13  12   1.416
  13 str  14   1   1.390
  14 str  14  13   1.421
  15 str  15   3   1.423
  16 str  15  13   1.423
  17 str  16   6   1.423
  18 str  16  10   1.423
  19 str  16  15   1.415
  20 str  17   1   1.083
  21 str  18   2   1.084
  22 str  19   4   1.084
  23 str  20   5   1.084
  24 str  21   7   1.084
  25 str  22   8   1.083
  26 str  23   9   1.084
  27 str  24  11   1.084
  28 str  25  12   1.084
  29 str  26  14   1.084
 nber stretches=          29
  30 ben   1   2   3
  31 prop tor   1   2   3   4
  32 prop tor   1   2   3  15
  33 ben   1   2  18
  34 ben   1  14  13
  35 ben   1  14  26
  36 ben   2   1  14
  37 prop tor   2   1  14  13
  38 prop tor   2   1  14  26
  39 ben   2   1  17
  40 ben   2   3   4
  41 prop tor   2   3   4   5
  42 prop tor   2   3   4  19
  43 ben   2   3  15
  44 prop tor   2   3  15  13
  45 prop tor   2   3  15  16
  46 ben   3   2  18
  47 ben   3   4   5
  48 prop tor   3   4   5   6
  49 prop tor   3   4   5  20
  50 ben   3   4  19
  51 ben   3  15  13
  52 ben   3  15  16
  53 prop tor   3  15  16   6
  54 prop tor   3  15  16  10
  55 ben   4   3  15
  56 prop tor   4   3  15  13
  57 prop tor   4   3  15  16
  58 ben   4   5   6
  59 prop tor   4   5   6   7
  60 prop tor   4   5   6  16
  61 ben   4   5  20
  62 ben   5   4  19
  63 ben   5   6   7
  64 prop tor   5   6   7   8
  65 prop tor   5   6   7  21
  66 ben   5   6  16
  67 prop tor   5   6  16  10
  68 prop tor   5   6  16  15
  69 ben   6   5  20
  70 ben   6   7   8
  71 prop tor   6   7   8   9
  72 prop tor   6   7   8  22
  73 ben   6   7  21
  74 ben   6  16  10
  75 ben   6  16  15
  76 ben   7   6  16
  77 prop tor   7   6  16  10
  78 prop tor   7   6  16  15
  79 ben   7   8   9
  80 prop tor   7   8   9  10
  81 prop tor   7   8   9  23
  82 ben   7   8  22
  83 ben   8   7  21
  84 ben   8   9  10
  85 prop tor   8   9  10  11
  86 prop tor   8   9  10  16
  87 ben   8   9  23
  88 ben   9   8  22
  89 ben   9  10  11
  90 prop tor   9  10  11  12
  91 prop tor   9  10  11  24
  92 ben   9  10  16
  93 prop tor   9  10  16   6
  94 prop tor   9  10  16  15
  95 ben  10   9  23
  96 ben  10  11  12
  97 prop tor  10  11  12  13
  98 prop tor  10  11  12  25
  99 ben  10  11  24
 100 ben  10  16  15
 101 ben  11  10  16
 102 prop tor  11  10  16   6
 103 prop tor  11  10  16  15
 104 ben  11  12  13
 105 prop tor  11  12  13  14
 106 prop tor  11  12  13  15
 107 ben  11  12  25
 108 ben  12  11  24
 109 ben  12  13  14
 110 prop tor  12  13  14   1
 111 prop tor  12  13  14  26
 112 ben  12  13  15
 113 prop tor  12  13  15   3
 114 prop tor  12  13  15  16
 115 ben  13  12  25
 116 ben  13  14  26
 117 ben  13  15  16
 118 prop tor  13  15  16   6
 119 prop tor  13  15  16  10
 120 prop tor  14   1   2   3
 121 prop tor  14   1   2  18
 122 ben  14   1  17
 123 ben  14  13  15
 124 prop tor  14  13  15   3
 125 prop tor  14  13  15  16
 126 prop tor  15   3   4   5
 127 prop tor  15   3   4  19
 128 prop tor  15  13  14   1
 129 prop tor  15  13  14  26
 130 prop tor  16   6   7   8
 131 prop tor  16   6   7  21
 132 prop tor  16  10  11  12
 133 prop tor  16  10  11  24
 134 prop tor  17   1   2   3
 135 prop tor  17   1   2  18
 136 prop tor  17   1  14  13
 137 prop tor  17   1  14  26
 138 prop tor  18   2   3   4
 139 prop tor  18   2   3  15
 140 prop tor  19   4   5   6
 141 prop tor  19   4   5  20
 142 prop tor  20   5   6   7
 143 prop tor  20   5   6  16
 144 prop tor  21   7   8   9
 145 prop tor  21   7   8  22
 146 prop tor  22   8   9  10
 147 prop tor  22   8   9  23
 148 prop tor  23   9  10  11
 149 prop tor  23   9  10  16
 150 prop tor  24  11  12  13
 151 prop tor  24  11  12  25
 152 prop tor  25  12  13  14
 153 prop tor  25  12  13  15
 nber bend=              48
 nber lin bend=           0
 nber prop tor=          76
 nber impr tor=           0
 nber tot redund int=         153
 Eigenvalues of G in red int coords
    Gval -0.00000000 -0.00000000 -0.00000000 -0.00000000 -0.00000000 -0.00000000 -0.00000000 -0.00000000
    Gval -0.00000000 -0.00000000 -0.00000000 -0.00000000 -0.00000000 -0.00000000 -0.00000000 -0.00000000
    Gval -0.00000000 -0.00000000 -0.00000000 -0.00000000 -0.00000000 -0.00000000 -0.00000000 -0.00000000
    Gval -0.00000000 -0.00000000 -0.00000000 -0.00000000 -0.00000000 -0.00000000 -0.00000000 -0.00000000
    Gval -0.00000000 -0.00000000 -0.00000000 -0.00000000 -0.00000000 -0.00000000 -0.00000000 -0.00000000
    Gval -0.00000000  0.00000000  0.00000000  0.00000000  0.00000000  0.00000000  0.00000000  0.00000000
    Gval  0.00000000  0.00000000  0.00000000  0.00000000  0.00000000  0.00000000  0.00000000  0.00000000
    Gval  0.00000000  0.00000000  0.00000000  0.00000000  0.00000000  0.00000000  0.00000000  0.00000000
    Gval  0.00000000  0.00000000  0.00000000  0.00000000  0.00000000  0.00000000  0.00000000  0.00000000
    Gval  0.00000000  0.00000000  0.00000000  0.00000000  0.00000000  0.00000000  0.00000000  0.00000000
    Gval  0.00000000  0.00001374  0.00001508  0.00002293  0.00002427  0.00002683  0.00004397  0.00004993
    Gval  0.00005543  0.00005981  0.00006729  0.00006913  0.00007243  0.00008263  0.00009065  0.00010243
    Gval  0.00010371  0.00012135  0.00013254  0.00013943  0.00013968  0.00017925  0.00019427  0.00020803
    Gval  0.00024892  0.00025161  0.00026381  0.00027919  0.00033088  0.00036313  0.00037722  0.00038902
    Gval  0.00042239  0.00044652  0.00046130  0.00057454  0.00059380  0.00059397  0.00059696  0.00059901
    Gval  0.00060642  0.00060934  0.00063354  0.00064336  0.00064963  0.00065993  0.00075981  0.00077776
    Gval  0.00097715  0.00101810  0.00106387  0.00106796  0.00108972  0.00109255  0.00113808  0.00113908
    Gval  0.00116084  0.00116152  0.00117062  0.00117069  0.00146363  0.00169198  0.00192093  0.00194765
    Gval  0.00232148  0.00250905  0.00260781  0.00305522  0.00314273  0.00365614  0.00372176  0.00392145
    Gval  0.00394627
  1.373752875597518E-005  1.373752875597518E-005
  1.508003851829906E-005  1.373752875597518E-005
  2.292799697645734E-005  1.373752875597518E-005
  2.427474137421212E-005  1.373752875597518E-005
  2.683257458613970E-005  1.373752875597518E-005
  4.396739776130087E-005  1.373752875597518E-005
  4.993336482106639E-005  1.373752875597518E-005
  5.542533392716322E-005  1.373752875597518E-005
  5.980885382002948E-005  1.373752875597518E-005
  6.728758343025942E-005  1.373752875597518E-005
  6.912845547650721E-005  1.373752875597518E-005
  7.242802660541753E-005  1.373752875597518E-005
  8.262679935510429E-005  1.373752875597518E-005
  9.064501208269492E-005  1.373752875597518E-005
  1.024286929898031E-004  1.373752875597518E-005
  1.037125026155762E-004  1.373752875597518E-005
  1.213544648984866E-004  1.373752875597518E-005
  1.325355493658655E-004  1.373752875597518E-005
  1.394283387329688E-004  1.373752875597518E-005
  1.396830611343538E-004  1.373752875597518E-005
  1.792459682452511E-004  1.373752875597518E-005
  1.942669009666276E-004  1.373752875597518E-005
  2.080274922368269E-004  1.373752875597518E-005
  2.489192727793037E-004  1.373752875597518E-005
  2.516146652024653E-004  1.373752875597518E-005
  2.638112769862490E-004  1.373752875597518E-005
  2.791943218633728E-004  1.373752875597518E-005
  3.308828686204091E-004  1.373752875597518E-005
  3.631316603996149E-004  1.373752875597518E-005
  3.772156150001372E-004  1.373752875597518E-005
  3.890223998357844E-004  1.373752875597518E-005
  4.223912928846458E-004  1.373752875597518E-005
  4.465193298173670E-004  1.373752875597518E-005
  4.612982078131134E-004  1.373752875597518E-005
  5.745357115938514E-004  1.373752875597518E-005
  5.938020116618019E-004  1.373752875597518E-005
  5.939743785326254E-004  1.373752875597518E-005
  5.969641854656729E-004  1.373752875597518E-005
  5.990118358092723E-004  1.373752875597518E-005
  6.064161961698027E-004  1.373752875597518E-005
  6.093367835786088E-004  1.373752875597518E-005
  6.335411778470538E-004  1.373752875597518E-005
  6.433598049051392E-004  1.373752875597518E-005
  6.496252586048135E-004  1.373752875597518E-005
  6.599306391907286E-004  1.373752875597518E-005
  7.598125697082511E-004  1.373752875597518E-005
  7.777623480606903E-004  1.373752875597518E-005
  9.771528308441762E-004  1.373752875597518E-005
  1.018104906897132E-003  1.373752875597518E-005
  1.063865589941193E-003  1.373752875597518E-005
  1.067957030913006E-003  1.373752875597518E-005
  1.089720548377502E-003  1.373752875597518E-005
  1.092547632154459E-003  1.373752875597518E-005
  1.138078005083713E-003  1.373752875597518E-005
  1.139076409109122E-003  1.373752875597518E-005
  1.160836236279099E-003  1.373752875597518E-005
  1.161522457749175E-003  1.373752875597518E-005
  1.170618804220429E-003  1.373752875597518E-005
  1.170690683970384E-003  1.373752875597518E-005
  1.463633401631001E-003  1.373752875597518E-005
  1.691980613469099E-003  1.373752875597518E-005
  1.920930467183041E-003  1.373752875597518E-005
  1.947652864329650E-003  1.373752875597518E-005
  2.321475284379941E-003  1.373752875597518E-005
  2.509053123726205E-003  1.373752875597518E-005
  2.607814299156303E-003  1.373752875597518E-005
  3.055215816222802E-003  1.373752875597518E-005
  3.142726684268551E-003  1.373752875597518E-005
  3.656137172943790E-003  1.373752875597518E-005
  3.721763951944439E-003  1.373752875597518E-005
  3.921448005370805E-003  1.373752875597518E-005
  3.946269374924372E-003  1.373752875597518E-005
 cut=1d-8, nber non-redundant internal coords=          72
 Check on Eigenvals of non-red overlap matrix:
  0.00001374  0.00001508  0.00002293  0.00002427  0.00002683  0.00004397  0.00004993  0.00005543
  0.00005981  0.00006729  0.00006913  0.00007243  0.00008263  0.00009065  0.00010243  0.00010371
  0.00012135  0.00013254  0.00013943  0.00013968  0.00017925  0.00019427  0.00020803  0.00024892
  0.00025161  0.00026381  0.00027919  0.00033088  0.00036313  0.00037722  0.00038902  0.00042239
  0.00044652  0.00046130  0.00057454  0.00059380  0.00059397  0.00059696  0.00059901  0.00060642
  0.00060934  0.00063354  0.00064336  0.00064963  0.00065993  0.00075981  0.00077776  0.00097715
  0.00101810  0.00106387  0.00106796  0.00108972  0.00109255  0.00113808  0.00113908  0.00116084
  0.00116152  0.00117062  0.00117069  0.00146363  0.00169198  0.00192093  0.00194765  0.00232148
  0.00250905  0.00260781  0.00305522  0.00314273  0.00365614  0.00372176  0.00392145  0.00394627
 Checking for correct frequencies
 recalc frequencies=
    -0.0   -0.0   -0.0    0.0    0.0    0.0  100.3  145.2  200.3  244.8
   253.9  354.0  397.6  414.0  458.7  468.6  480.0  501.3  504.4  539.0
   540.1  548.7  601.2  675.7  694.6  697.3  742.5  761.5  782.1  816.1
   824.0  831.2  843.4  876.9  949.1  960.6  992.7  994.9 1004.4 1004.4
  1014.9 1018.0 1096.0 1122.2 1145.0 1169.0 1171.3 1203.0 1214.1 1235.6
  1248.6 1265.4 1266.6 1365.4 1370.9 1373.8 1424.7 1449.1 1452.2 1464.1
  1466.2 1517.2 1521.2 1561.4 1581.5 1587.1 1593.0 1658.7 3182.7 3183.2
  3184.3 3185.0 3188.1 3188.7 3196.7 3196.7 3207.8 3207.9
 recalc symmetries=
                                                                       
                                                                       
                                                                       
                                                                       
                                                                       
                                                                       
                                                                       
                                                         
 recalc freqs check OK
 Zero-point lengths:
 10.0000 10.0000 10.0000 10.0000 10.0000 10.0000 24.7594 20.5729 17.5175 15.8461
 15.5594 13.1755 12.4335 12.1837 11.5756 11.4518 11.3151 11.0725 11.0381 10.6787
 10.6673 10.5837 10.1108  9.5371  9.4066  9.3885  9.0979  8.9841  8.8644  8.6783
  8.6363  8.5987  8.5364  8.3717  8.0470  7.9988  7.8684  7.8595  7.8225  7.8223
  7.7817  7.7699  7.4885  7.4003  7.3264  7.2508  7.2438  7.1478  7.1149  7.0528
  7.0159  6.9693  6.9658  6.7090  6.6957  6.6885  6.5681  6.5125  6.5055  6.4791
  6.4745  6.3647  6.3562  6.2739  6.2338  6.2230  6.2114  6.0871  4.3944  4.3940
  4.3933  4.3928  4.3907  4.3903  4.3848  4.3847  4.3772  4.3771
 highest evec of mol 1
  0.1901 -0.0000  0.0000
  0.0252  0.0578  0.0000
 -0.0031  0.0004 -0.0000
  0.0027  0.0038  0.0000
 -0.0027  0.0038  0.0000
  0.0031  0.0004  0.0000
 -0.0252  0.0578  0.0000
 -0.1899  0.0000 -0.0000
 -0.0252 -0.0578 -0.0000
  0.0031 -0.0004  0.0000
 -0.0027 -0.0038 -0.0000
  0.0027 -0.0038 -0.0000
 -0.0031 -0.0004 -0.0000
  0.0252 -0.0578 -0.0000
 -0.0006  0.0000 -0.0000
  0.0006 -0.0000  0.0000
 -0.6161  0.0000 -0.0001
 -0.0959 -0.1701 -0.0000
 -0.0074 -0.0135 -0.0000
  0.0074 -0.0135 -0.0000
  0.0958 -0.1700 -0.0000
  0.6156 -0.0000  0.0001
  0.0958  0.1699  0.0000
  0.0074  0.0135  0.0000
 -0.0074  0.0135  0.0000
 -0.0958  0.1701  0.0000
 generating redundant internal coords
         300        3600          26
 Adding extra bonds for z output only
           6           6           6           6           6           6
           6           6           6           6           6           6
           6           6           6           6           1           1
           1           1           1           1           1           1
           1           1
 search for int coords
   1 str   2   1   1.390
   2 str   3   2   1.421
   3 str   4   3   1.416
   4 str   5   4   1.382
   5 str   6   5   1.416
   6 str   7   6   1.421
   7 str   8   7   1.390
   8 str   9   8   1.390
   9 str  10   9   1.421
  10 str  11  10   1.416
  11 str  12  11   1.382
  12 str  13  12   1.416
  13 str  14   1   1.390
  14 str  14  13   1.421
  15 str  15   3   1.423
  16 str  15  13   1.423
  17 str  16   6   1.423
  18 str  16  10   1.423
  19 str  16  15   1.415
  20 str  17   1   1.083
  21 str  18   2   1.084
  22 str  19   4   1.084
  23 str  20   5   1.084
  24 str  21   7   1.084
  25 str  22   8   1.083
  26 str  23   9   1.084
  27 str  24  11   1.084
  28 str  25  12   1.084
  29 str  26  14   1.084
 nber stretches=          29
  30 ben   1   2   3
  31 prop tor   1   2   3   4
  32 prop tor   1   2   3  15
  33 ben   1   2  18
  34 ben   1  14  13
  35 ben   1  14  26
  36 ben   2   1  14
  37 prop tor   2   1  14  13
  38 prop tor   2   1  14  26
  39 ben   2   1  17
  40 ben   2   3   4
  41 prop tor   2   3   4   5
  42 prop tor   2   3   4  19
  43 ben   2   3  15
  44 prop tor   2   3  15  13
  45 prop tor   2   3  15  16
  46 ben   3   2  18
  47 ben   3   4   5
  48 prop tor   3   4   5   6
  49 prop tor   3   4   5  20
  50 ben   3   4  19
  51 ben   3  15  13
  52 ben   3  15  16
  53 prop tor   3  15  16   6
  54 prop tor   3  15  16  10
  55 ben   4   3  15
  56 prop tor   4   3  15  13
  57 prop tor   4   3  15  16
  58 ben   4   5   6
  59 prop tor   4   5   6   7
  60 prop tor   4   5   6  16
  61 ben   4   5  20
  62 ben   5   4  19
  63 ben   5   6   7
  64 prop tor   5   6   7   8
  65 prop tor   5   6   7  21
  66 ben   5   6  16
  67 prop tor   5   6  16  10
  68 prop tor   5   6  16  15
  69 ben   6   5  20
  70 ben   6   7   8
  71 prop tor   6   7   8   9
  72 prop tor   6   7   8  22
  73 ben   6   7  21
  74 ben   6  16  10
  75 ben   6  16  15
  76 ben   7   6  16
  77 prop tor   7   6  16  10
  78 prop tor   7   6  16  15
  79 ben   7   8   9
  80 prop tor   7   8   9  10
  81 prop tor   7   8   9  23
  82 ben   7   8  22
  83 ben   8   7  21
  84 ben   8   9  10
  85 prop tor   8   9  10  11
  86 prop tor   8   9  10  16
  87 ben   8   9  23
  88 ben   9   8  22
  89 ben   9  10  11
  90 prop tor   9  10  11  12
  91 prop tor   9  10  11  24
  92 ben   9  10  16
  93 prop tor   9  10  16   6
  94 prop tor   9  10  16  15
  95 ben  10   9  23
  96 ben  10  11  12
  97 prop tor  10  11  12  13
  98 prop tor  10  11  12  25
  99 ben  10  11  24
 100 ben  10  16  15
 101 ben  11  10  16
 102 prop tor  11  10  16   6
 103 prop tor  11  10  16  15
 104 ben  11  12  13
 105 prop tor  11  12  13  14
 106 prop tor  11  12  13  15
 107 ben  11  12  25
 108 ben  12  11  24
 109 ben  12  13  14
 110 prop tor  12  13  14   1
 111 prop tor  12  13  14  26
 112 ben  12  13  15
 113 prop tor  12  13  15   3
 114 prop tor  12  13  15  16
 115 ben  13  12  25
 116 ben  13  14  26
 117 ben  13  15  16
 118 prop tor  13  15  16   6
 119 prop tor  13  15  16  10
 120 prop tor  14   1   2   3
 121 prop tor  14   1   2  18
 122 ben  14   1  17
 123 ben  14  13  15
 124 prop tor  14  13  15   3
 125 prop tor  14  13  15  16
 126 prop tor  15   3   4   5
 127 prop tor  15   3   4  19
 128 prop tor  15  13  14   1
 129 prop tor  15  13  14  26
 130 prop tor  16   6   7   8
 131 prop tor  16   6   7  21
 132 prop tor  16  10  11  12
 133 prop tor  16  10  11  24
 134 prop tor  17   1   2   3
 135 prop tor  17   1   2  18
 136 prop tor  17   1  14  13
 137 prop tor  17   1  14  26
 138 prop tor  18   2   3   4
 139 prop tor  18   2   3  15
 140 prop tor  19   4   5   6
 141 prop tor  19   4   5  20
 142 prop tor  20   5   6   7
 143 prop tor  20   5   6  16
 144 prop tor  21   7   8   9
 145 prop tor  21   7   8  22
 146 prop tor  22   8   9  10
 147 prop tor  22   8   9  23
 148 prop tor  23   9  10  11
 149 prop tor  23   9  10  16
 150 prop tor  24  11  12  13
 151 prop tor  24  11  12  25
 152 prop tor  25  12  13  14
 153 prop tor  25  12  13  15
 nber bend=              48
 nber lin bend=           0
 nber prop tor=          76
 nber impr tor=           0
 nber tot redund int=         153
 Reading file: 
 ./pyrene_0_C0S1.log                                                            
                                          
  Entering Gaussian System, Link 0=g16                                          
  
 Gaussian format, type: g94, g98, g03= F F F
  #P Geom=AllCheck Guess=TCheck SCRF=Check GenChk RB3LYP TD(FC,Read)/6-3    
 energy type= TD      
 Original G94 input coords:
  6  3.542449  0.008328  0.000352
  6  2.856404  1.218151  0.000372
  6  1.428152  1.249186  0.000212
  6  0.697362  2.456319  0.000229
  6 -0.697200  2.456383  0.000069
  6 -1.428102  1.249317 -0.000116
  6 -2.856356  1.218413 -0.000283
  6 -3.542512  0.008652 -0.000465
  6 -2.856467 -1.201171 -0.000487
  6 -1.428216 -1.232206 -0.000323
  6 -0.697424 -2.439339 -0.000337
  6  0.697137 -2.439403 -0.000176
  6  1.428039 -1.232336  0.000008
  6  2.856293 -1.201433  0.000175
  6  0.707961  0.008458  0.000027
  6 -0.708024  0.008522 -0.000136
  1  4.626796  0.008278  0.000476
  1  3.399831  2.156628  0.000511
  1  1.236302  3.397489  0.000369
  1 -1.236054  3.397603  0.000086
  1 -3.399697  2.156939 -0.000266
  1 -4.626859  0.008702 -0.000591
  1 -3.399894 -2.139648 -0.000630
  1 -1.236365 -3.380509 -0.000477
  1  1.235991 -3.380623 -0.000190
  1  3.399634 -2.139960  0.000161
 nber atoms=          26
  Total Energy, E(TD-HF/TD-DFT) =  -615.780014824                               
  
          32          49 "  -615.780014824"
After scan for Atom:   Atom  AN      X      Y      Z        X      Y      Z        X      Y      Z   
After scan for Atom:   Atom  AN      X      Y      Z        X      Y      Z        X      Y      Z   
After scan for Atom:   Atom  AN      X      Y      Z        X      Y      Z        X      Y      Z   
After scan for Atom:   Atom  AN      X      Y      Z        X      Y      Z        X      Y      Z   
After scan for Atom:   Atom  AN      X      Y      Z        X      Y      Z        X      Y      Z   
After scan for Atom:   Atom  AN      X      Y      Z        X      Y      Z        X      Y      Z   
After scan for Atom:   Atom  AN      X      Y      Z        X      Y      Z        X      Y      Z   
After scan for Atom:   Atom  AN      X      Y      Z        X      Y      Z        X      Y      Z   
After scan for Atom:   Atom  AN      X      Y      Z        X      Y      Z        X      Y      Z   
After scan for Atom:   Atom  AN      X      Y      Z        X      Y      Z        X      Y      Z   
After scan for Atom:   Atom  AN      X      Y      Z        X      Y      Z        X      Y      Z   
After scan for Atom:   Atom  AN      X      Y      Z        X      Y      Z        X      Y      Z   
After scan for Atom:   Atom  AN      X      Y      Z        X      Y      Z        X      Y      Z   
After scan for Atom:   Atom  AN      X      Y      Z        X      Y      Z        X      Y      Z   
After scan for Atom:   Atom  AN      X      Y      Z        X      Y      Z        X      Y      Z   
After scan for Atom:   Atom  AN      X      Y      Z        X      Y      Z        X      Y      Z   
After scan for Atom:   Atom  AN      X      Y      Z        X      Y      Z        X      Y      Z   
After scan for Atom:   Atom  AN      X      Y      Z        X      Y      Z        X      Y      Z   
After scan for Atom:   Atom  AN      X      Y      Z        X      Y      Z        X      Y      Z   
After scan for Atom:   Atom  AN      X      Y      Z        X      Y      Z        X      Y      Z   
After scan for Atom:   Atom  AN      X      Y      Z        X      Y      Z        X      Y      Z   
After scan for Atom:   Atom  AN      X      Y      Z        X      Y      Z        X      Y      Z   
After scan for Atom:   Atom  AN      X      Y      Z        X      Y      Z        X      Y      Z   
After scan for Atom:   Atom  AN      X      Y      Z        X      Y      Z        X      Y      Z   
 g94    frequencies=
     0.0    0.0    0.0    0.0    0.0    0.0   97.0  138.9  201.9  204.1
   253.5  334.0  369.4  409.9  435.3  452.4  472.0  496.6  505.9  506.7
   516.3  540.3  594.1  641.4  682.1  686.8  714.1  726.6  727.8  768.4
   795.0  812.4  812.4  820.0  836.2  848.0  910.6  911.4  957.2  957.4
   973.4  988.9 1082.2 1084.4 1109.9 1136.2 1141.8 1167.6 1189.2 1207.6
  1221.6 1246.6 1262.1 1294.8 1300.1 1351.7 1407.6 1417.9 1433.2 1438.4
  1447.9 1500.2 1502.5 1529.9 1534.3 1566.7 1575.2 1611.1 3159.9 3161.4
  3162.0 3162.9 3170.5 3171.3 3178.3 3178.5 3184.9 3185.6
 g94    symmetries=
                                                 A      A      A      A
       A      A      A      A      A      A      A      A      A      A
       A      A      A      A      A      A      A      A      A      A
       A      A      A      A      A      A      A      A      A      A
       A      A      A      A      A      A      A      A      A      A
       A      A      A      A      A      A      A      A      A      A
       A      A      A      A      A      A      A      A      A      A
       A      A      A      A      A      A      A      A
 atomic masses:
 12.0000 12.0000 12.0000 12.0000 12.0000 12.0000 12.0000 12.0000 12.0000 12.0000
 12.0000 12.0000 12.0000 12.0000 12.0000 12.0000  1.0078  1.0078  1.0078  1.0078
  1.0078  1.0078  1.0078  1.0078  1.0078  1.0078
 looking for force constants in 
 ./pyrene_0_C0S1.fchk                                                           
  
 Cartesian Force Constants                  R   N=        3081                  
  
 n3=          78        3081
 g94-fc frequencies=
    -5.9   -5.2   -3.1   -0.0    0.0    0.0   97.0  138.9  201.9  204.1
   253.5  334.0  369.4  409.9  435.3  452.4  472.1  496.6  505.9  506.7
   516.3  540.3  594.1  641.4  682.1  686.8  714.1  726.6  727.8  768.4
   795.0  812.4  812.4  820.1  836.2  848.0  910.6  911.4  957.2  957.4
   973.4  988.9 1082.3 1084.4 1110.0 1136.2 1141.8 1167.6 1189.2 1207.7
  1221.7 1246.6 1262.1 1294.9 1300.1 1351.7 1407.6 1418.0 1433.3 1438.4
  1447.9 1500.2 1502.6 1530.0 1534.3 1566.7 1575.3 1611.1 3159.9 3161.4
  3162.0 3163.0 3170.6 3171.4 3178.4 3178.6 3185.0 3185.7
 at 99999: n3=          78
 symm operator            1 :  F  nop=           0
 symm operator            2 :  F  nop=           0
 symm operator            3 :  F  nop=           0
 symm operator            4 :  F  nop=           0
 symm operator            5 :  F  nop=           0
 symm operator            6 :  F  nop=           0
 symm operator            7 :  F  nop=           0
 The point group of the molecule is  C1
 Symmetry rotation matrix:
   1.00000   0.00000   0.00000
   0.00000   1.00000   0.00000
   0.00000   0.00000   1.00000

 Projecting out zero-frequency components
 generating redundant internal coords
         300        3600          26
 search for int coords
   1 str   2   1   1.391
   2 str   3   2   1.429
   3 str   4   3   1.411
   4 str   5   4   1.395
   5 str   6   5   1.411
   6 str   7   6   1.429
   7 str   8   7   1.391
   8 str   9   8   1.391
   9 str  10   9   1.429
  10 str  11  10   1.411
  11 str  12  11   1.395
  12 str  13  12   1.411
  13 str  14   1   1.391
  14 str  14  13   1.429
  15 str  15   3   1.435
  16 str  15  13   1.435
  17 str  16   6   1.435
  18 str  16  10   1.435
  19 str  16  15   1.416
  20 str  17   1   1.084
  21 str  18   2   1.084
  22 str  19   4   1.085
  23 str  20   5   1.085
  24 str  21   7   1.084
  25 str  22   8   1.084
  26 str  23   9   1.084
  27 str  24  11   1.085
  28 str  25  12   1.085
  29 str  26  14   1.084
 nber stretches=          29
  30 ben   1   2   3
  31 prop tor   1   2   3   4
  32 prop tor   1   2   3  15
  33 ben   1   2  18
  34 ben   1  14  13
  35 ben   1  14  26
  36 ben   2   1  14
  37 prop tor   2   1  14  13
  38 prop tor   2   1  14  26
  39 ben   2   1  17
  40 ben   2   3   4
  41 prop tor   2   3   4   5
  42 prop tor   2   3   4  19
  43 ben   2   3  15
  44 prop tor   2   3  15  13
  45 prop tor   2   3  15  16
  46 ben   3   2  18
  47 ben   3   4   5
  48 prop tor   3   4   5   6
  49 prop tor   3   4   5  20
  50 ben   3   4  19
  51 ben   3  15  13
  52 ben   3  15  16
  53 prop tor   3  15  16   6
  54 prop tor   3  15  16  10
  55 ben   4   3  15
  56 prop tor   4   3  15  13
  57 prop tor   4   3  15  16
  58 ben   4   5   6
  59 prop tor   4   5   6   7
  60 prop tor   4   5   6  16
  61 ben   4   5  20
  62 ben   5   4  19
  63 ben   5   6   7
  64 prop tor   5   6   7   8
  65 prop tor   5   6   7  21
  66 ben   5   6  16
  67 prop tor   5   6  16  10
  68 prop tor   5   6  16  15
  69 ben   6   5  20
  70 ben   6   7   8
  71 prop tor   6   7   8   9
  72 prop tor   6   7   8  22
  73 ben   6   7  21
  74 ben   6  16  10
  75 ben   6  16  15
  76 ben   7   6  16
  77 prop tor   7   6  16  10
  78 prop tor   7   6  16  15
  79 ben   7   8   9
  80 prop tor   7   8   9  10
  81 prop tor   7   8   9  23
  82 ben   7   8  22
  83 ben   8   7  21
  84 ben   8   9  10
  85 prop tor   8   9  10  11
  86 prop tor   8   9  10  16
  87 ben   8   9  23
  88 ben   9   8  22
  89 ben   9  10  11
  90 prop tor   9  10  11  12
  91 prop tor   9  10  11  24
  92 ben   9  10  16
  93 prop tor   9  10  16   6
  94 prop tor   9  10  16  15
  95 ben  10   9  23
  96 ben  10  11  12
  97 prop tor  10  11  12  13
  98 prop tor  10  11  12  25
  99 ben  10  11  24
 100 ben  10  16  15
 101 ben  11  10  16
 102 prop tor  11  10  16   6
 103 prop tor  11  10  16  15
 104 ben  11  12  13
 105 prop tor  11  12  13  14
 106 prop tor  11  12  13  15
 107 ben  11  12  25
 108 ben  12  11  24
 109 ben  12  13  14
 110 prop tor  12  13  14   1
 111 prop tor  12  13  14  26
 112 ben  12  13  15
 113 prop tor  12  13  15   3
 114 prop tor  12  13  15  16
 115 ben  13  12  25
 116 ben  13  14  26
 117 ben  13  15  16
 118 prop tor  13  15  16   6
 119 prop tor  13  15  16  10
 120 prop tor  14   1   2   3
 121 prop tor  14   1   2  18
 122 ben  14   1  17
 123 ben  14  13  15
 124 prop tor  14  13  15   3
 125 prop tor  14  13  15  16
 126 prop tor  15   3   4   5
 127 prop tor  15   3   4  19
 128 prop tor  15  13  14   1
 129 prop tor  15  13  14  26
 130 prop tor  16   6   7   8
 131 prop tor  16   6   7  21
 132 prop tor  16  10  11  12
 133 prop tor  16  10  11  24
 134 prop tor  17   1   2   3
 135 prop tor  17   1   2  18
 136 prop tor  17   1  14  13
 137 prop tor  17   1  14  26
 138 prop tor  18   2   3   4
 139 prop tor  18   2   3  15
 140 prop tor  19   4   5   6
 141 prop tor  19   4   5  20
 142 prop tor  20   5   6   7
 143 prop tor  20   5   6  16
 144 prop tor  21   7   8   9
 145 prop tor  21   7   8  22
 146 prop tor  22   8   9  10
 147 prop tor  22   8   9  23
 148 prop tor  23   9  10  11
 149 prop tor  23   9  10  16
 150 prop tor  24  11  12  13
 151 prop tor  24  11  12  25
 152 prop tor  25  12  13  14
 153 prop tor  25  12  13  15
 nber bend=              48
 nber lin bend=           0
 nber prop tor=          76
 nber impr tor=           0
 nber tot redund int=         153
 Eigenvalues of G in red int coords
    Gval -0.00000000 -0.00000000 -0.00000000 -0.00000000 -0.00000000 -0.00000000 -0.00000000 -0.00000000
    Gval -0.00000000 -0.00000000 -0.00000000 -0.00000000 -0.00000000 -0.00000000 -0.00000000 -0.00000000
    Gval -0.00000000 -0.00000000 -0.00000000 -0.00000000 -0.00000000 -0.00000000 -0.00000000 -0.00000000
    Gval -0.00000000 -0.00000000 -0.00000000 -0.00000000 -0.00000000 -0.00000000 -0.00000000 -0.00000000
    Gval -0.00000000 -0.00000000 -0.00000000  0.00000000  0.00000000  0.00000000  0.00000000  0.00000000
    Gval  0.00000000  0.00000000  0.00000000  0.00000000  0.00000000  0.00000000  0.00000000  0.00000000
    Gval  0.00000000  0.00000000  0.00000000  0.00000000  0.00000000  0.00000000  0.00000000  0.00000000
    Gval  0.00000000  0.00000000  0.00000000  0.00000000  0.00000000  0.00000000  0.00000000  0.00000000
    Gval  0.00000000  0.00000000  0.00000000  0.00000000  0.00000000  0.00000000  0.00000000  0.00000000
    Gval  0.00000000  0.00000000  0.00000000  0.00000000  0.00000000  0.00000000  0.00000000  0.00000000
    Gval  0.00000000  0.00001373  0.00001503  0.00002287  0.00002429  0.00002686  0.00004390  0.00004995
    Gval  0.00005515  0.00005976  0.00006711  0.00006916  0.00007259  0.00008251  0.00009068  0.00010234
    Gval  0.00010255  0.00012053  0.00013238  0.00013907  0.00013973  0.00017973  0.00019470  0.00020665
    Gval  0.00024834  0.00024964  0.00026272  0.00027963  0.00032955  0.00036260  0.00037674  0.00038692
    Gval  0.00041908  0.00044130  0.00045867  0.00056978  0.00059377  0.00059395  0.00059697  0.00059902
    Gval  0.00060615  0.00060914  0.00063310  0.00064314  0.00064910  0.00065955  0.00076166  0.00078047
    Gval  0.00096810  0.00102110  0.00106173  0.00106566  0.00108876  0.00109148  0.00113787  0.00113896
    Gval  0.00115769  0.00115846  0.00116756  0.00116765  0.00145963  0.00167476  0.00190736  0.00193709
    Gval  0.00231840  0.00250162  0.00258059  0.00305932  0.00314831  0.00363988  0.00370834  0.00390614
    Gval  0.00393172
  1.372982523614505E-005  1.372982523614505E-005
  1.503253516559468E-005  1.372982523614505E-005
  2.287117501377290E-005  1.372982523614505E-005
  2.429040883323713E-005  1.372982523614505E-005
  2.686337112851628E-005  1.372982523614505E-005
  4.390461931412714E-005  1.372982523614505E-005
  4.995342597240739E-005  1.372982523614505E-005
  5.515372537967925E-005  1.372982523614505E-005
  5.975640404487993E-005  1.372982523614505E-005
  6.711374033730060E-005  1.372982523614505E-005
  6.916341330136335E-005  1.372982523614505E-005
  7.259375443811871E-005  1.372982523614505E-005
  8.251073853508057E-005  1.372982523614505E-005
  9.068250479726421E-005  1.372982523614505E-005
  1.023421967403876E-004  1.372982523614505E-005
  1.025499449606623E-004  1.372982523614505E-005
  1.205309511709803E-004  1.372982523614505E-005
  1.323826529590959E-004  1.372982523614505E-005
  1.390673569489523E-004  1.372982523614505E-005
  1.397262352246120E-004  1.372982523614505E-005
  1.797343079100317E-004  1.372982523614505E-005
  1.946985149200602E-004  1.372982523614505E-005
  2.066506617084563E-004  1.372982523614505E-005
  2.483367932769216E-004  1.372982523614505E-005
  2.496382471649977E-004  1.372982523614505E-005
  2.627207178241175E-004  1.372982523614505E-005
  2.796260217287326E-004  1.372982523614505E-005
  3.295473255902979E-004  1.372982523614505E-005
  3.626048428855929E-004  1.372982523614505E-005
  3.767403514310808E-004  1.372982523614505E-005
  3.869214085535093E-004  1.372982523614505E-005
  4.190753355149323E-004  1.372982523614505E-005
  4.412964454538531E-004  1.372982523614505E-005
  4.586718240810946E-004  1.372982523614505E-005
  5.697816214443852E-004  1.372982523614505E-005
  5.937731383743305E-004  1.372982523614505E-005
  5.939490467540216E-004  1.372982523614505E-005
  5.969690227218515E-004  1.372982523614505E-005
  5.990199321239234E-004  1.372982523614505E-005
  6.061495505708526E-004  1.372982523614505E-005
  6.091406349032444E-004  1.372982523614505E-005
  6.330998437417943E-004  1.372982523614505E-005
  6.431360726565364E-004  1.372982523614505E-005
  6.491025669689182E-004  1.372982523614505E-005
  6.595494007066676E-004  1.372982523614505E-005
  7.616589791306857E-004  1.372982523614505E-005
  7.804707784607261E-004  1.372982523614505E-005
  9.680999986787808E-004  1.372982523614505E-005
  1.021100933022256E-003  1.372982523614505E-005
  1.061733459184505E-003  1.372982523614505E-005
  1.065659119540547E-003  1.372982523614505E-005
  1.088755548927044E-003  1.372982523614505E-005
  1.091481539539181E-003  1.372982523614505E-005
  1.137872237837793E-003  1.372982523614505E-005
  1.138956730265336E-003  1.372982523614505E-005
  1.157688667004522E-003  1.372982523614505E-005
  1.158456282362214E-003  1.372982523614505E-005
  1.167560532008406E-003  1.372982523614505E-005
  1.167646888420477E-003  1.372982523614505E-005
  1.459629167449409E-003  1.372982523614505E-005
  1.674757341936723E-003  1.372982523614505E-005
  1.907358084964300E-003  1.372982523614505E-005
  1.937085830554938E-003  1.372982523614505E-005
  2.318399079779272E-003  1.372982523614505E-005
  2.501619460753681E-003  1.372982523614505E-005
  2.580589771644749E-003  1.372982523614505E-005
  3.059315645446954E-003  1.372982523614505E-005
  3.148314583205798E-003  1.372982523614505E-005
  3.639877380488593E-003  1.372982523614505E-005
  3.708338902823958E-003  1.372982523614505E-005
  3.906140864822573E-003  1.372982523614505E-005
  3.931724108119954E-003  1.372982523614505E-005
 cut=1d-8, nber non-redundant internal coords=          72
 Check on Eigenvals of non-red overlap matrix:
  0.00001373  0.00001503  0.00002287  0.00002429  0.00002686  0.00004390  0.00004995  0.00005515
  0.00005976  0.00006711  0.00006916  0.00007259  0.00008251  0.00009068  0.00010234  0.00010255
  0.00012053  0.00013238  0.00013907  0.00013973  0.00017973  0.00019470  0.00020665  0.00024834
  0.00024964  0.00026272  0.00027963  0.00032955  0.00036260  0.00037674  0.00038692  0.00041908
  0.00044130  0.00045867  0.00056978  0.00059377  0.00059395  0.00059697  0.00059902  0.00060615
  0.00060914  0.00063310  0.00064314  0.00064910  0.00065955  0.00076166  0.00078047  0.00096810
  0.00102110  0.00106173  0.00106566  0.00108876  0.00109148  0.00113787  0.00113896  0.00115769
  0.00115846  0.00116756  0.00116765  0.00145963  0.00167476  0.00190736  0.00193709  0.00231840
  0.00250162  0.00258059  0.00305932  0.00314831  0.00363988  0.00370834  0.00390614  0.00393172
 Checking for correct frequencies
 recalc frequencies=
    -0.0   -0.0   -0.0    0.0    0.0    0.0   97.0  138.9  201.9  204.1
   253.5  334.0  369.4  409.9  435.3  452.4  472.1  496.6  505.9  506.7
   516.3  540.3  594.1  641.4  682.1  686.8  714.1  726.6  727.8  768.4
   795.0  812.4  812.4  820.1  836.2  848.0  910.6  911.4  957.2  957.4
   973.4  988.9 1082.3 1084.4 1110.0 1136.2 1141.8 1167.6 1189.2 1207.7
  1221.7 1246.6 1262.1 1294.9 1300.1 1351.7 1407.6 1418.0 1433.3 1438.4
  1447.9 1500.2 1502.6 1530.0 1534.3 1566.7 1575.3 1611.1 3159.9 3161.4
  3162.0 3163.0 3170.6 3171.4 3178.4 3178.6 3185.0 3185.7
 recalc symmetries=
                                                                       
                                                                       
                                                                       
                                                                       
                                                                       
                                                                       
                                                                       
                                                         
 recalc freqs check OK
 Zero-point lengths:
 10.0000 10.0000 10.0000 10.0000 10.0000 10.0000 25.1755 21.0363 17.4489 17.3548
 15.5694 13.5643 12.8981 12.2445 11.8827 11.6552 11.4104 11.1244 11.0224 11.0132
 10.9102 10.6653 10.1712  9.7885  9.4921  9.4597  9.2772  9.1970  9.1892  8.9431
  8.7924  8.6979  8.6978  8.6571  8.5731  8.5132  8.2153  8.2117  8.0130  8.0121
  7.9461  7.8835  7.5358  7.5282  7.4412  7.3546  7.3365  7.2551  7.1890  7.1338
  7.0928  7.0215  6.9783  6.8895  6.8755  6.7430  6.6077  6.5836  6.5484  6.5367
  6.5151  6.4005  6.3955  6.3381  6.3290  6.2633  6.2463  6.1763  4.4102  4.4091
  4.4087  4.4080  4.4028  4.4022  4.3974  4.3972  4.3928  4.3923
 highest evec of mol 2
  0.1419 -0.0000  0.0000
  0.0468  0.0916  0.0000
 -0.0034  0.0001 -0.0000
  0.0197  0.0307  0.0000
 -0.0197  0.0307  0.0000
  0.0034  0.0001  0.0000
 -0.0468  0.0916  0.0000
 -0.1419  0.0000 -0.0000
 -0.0468 -0.0915 -0.0000
  0.0034 -0.0001  0.0000
 -0.0197 -0.0307 -0.0000
  0.0197 -0.0307 -0.0000
 -0.0034 -0.0001 -0.0000
  0.0468 -0.0916 -0.0000
 -0.0005  0.0000 -0.0000
  0.0005 -0.0000  0.0000
 -0.4569  0.0000 -0.0001
 -0.1647 -0.2868 -0.0000
 -0.0590 -0.1040 -0.0000
  0.0590 -0.1040 -0.0000
  0.1647 -0.2868 -0.0000
  0.4569 -0.0000  0.0001
  0.1647  0.2868  0.0000
  0.0590  0.1040  0.0000
 -0.0590  0.1040  0.0000
 -0.1647  0.2868  0.0000
 Enter nber and list of atoms to keep of mol #2
 keep list:          26           1           2           3           4
           5           6           7           8           9          10
          11          12          13          14          15          16
          17          18          19          20          21          22
          23          24          25          26
 reordering atoms
           1  -3.54248052707992     
           2  -2.85638022598112     
           3  -1.42812679971260     
           4 -0.697281621589011     
           5  0.697280389057820     
           6   1.42812722212425     
           7   2.85637981757534     
           8   3.54248052743449     
           9   2.85638022656627     
          10   1.42812779983658     
          11  0.697280621367135     
          12 -0.697280389394994     
          13  -1.42812722230041     
          14  -2.85637981779722     
          15 -0.707992505467267     
          16  0.707992505360673     
          17  -4.62682753532211     
          18  -3.39976433409238     
          19  -1.23617860673597     
          20   1.23617741208816     
          21   3.39976371741135     
          22   4.62682753590726     
          23   3.39976433513869     
          24   1.23617860651408     
          25  -1.23617741277121     
          26  -3.39976371802482     
           1           1
           2           2
           3           3
           4           4
           5           5
           6           6
           7           7
           8           8
           9           9
          10          10
          11          11
          12          12
          13          13
          14          14
          15          15
          16          16
          17          17
          18          18
          19          19
          20          20
          21          21
          22          22
          23          23
          24          24
          25          25
          26          26
 initial cartes coords mol 1
   6  -0.00000   0.00000  -3.53382
   6  -0.00000  -1.20440  -2.83972
   6  -0.00000  -1.23206  -1.41886
   6   0.00000  -2.44680  -0.69110
   6   0.00000  -2.44680   0.69110
   6   0.00000  -1.23206   1.41886
   6   0.00000  -1.20440   2.83972
   6  -0.00000  -0.00000   3.53382
   6  -0.00000   1.20440   2.83972
   6  -0.00000   1.23206   1.41886
   6   0.00000   2.44680   0.69110
   6   0.00000   2.44680  -0.69110
   6   0.00000   1.23206  -1.41886
   6   0.00000   1.20440  -2.83972
   6   0.00000  -0.00000  -0.70726
   6   0.00000  -0.00000   0.70726
   1  -0.00000   0.00000  -4.61639
   1  -0.00000  -2.14296  -3.38266
   1  -0.00000  -3.38683  -1.23076
   1  -0.00000  -3.38683   1.23076
   1   0.00000  -2.14296   3.38266
   1  -0.00000  -0.00000   4.61639
   1  -0.00000   2.14296   3.38266
   1  -0.00000   3.38683   1.23076
   1   0.00000   3.38683  -1.23076
   1   0.00000   2.14296  -3.38266
 initial cartes coords mol 2
   6  -0.00000   0.00000  -3.54248
   6  -0.00000  -1.20979  -2.85638
   6  -0.00000  -1.24076  -1.42813
   6   0.00000  -2.44786  -0.69728
   6   0.00000  -2.44786   0.69728
   6   0.00000  -1.24076   1.42813
   6   0.00000  -1.20979   2.85638
   6  -0.00000   0.00000   3.54248
   6  -0.00000   1.20979   2.85638
   6  -0.00000   1.24076   1.42813
   6   0.00000   2.44786   0.69728
   6   0.00000   2.44786  -0.69728
   6   0.00000   1.24076  -1.42813
   6   0.00000   1.20979  -2.85638
   6   0.00000  -0.00000  -0.70799
   6   0.00000   0.00000   0.70799
   1  -0.00000   0.00000  -4.62683
   1  -0.00000  -2.14829  -3.39976
   1   0.00000  -3.38906  -1.23618
   1   0.00000  -3.38906   1.23618
   1   0.00000  -2.14829   3.39976
   1  -0.00000  -0.00000   4.62683
   1  -0.00001   2.14829   3.39976
   1   0.00000   3.38906   1.23618
   1   0.00000   3.38906  -1.23618
   1   0.00000   2.14829  -3.39976
 loop 1 0
 mod cartes coords mol 2
   6  -0.00000   0.00000  -3.54248
   6  -0.00000  -1.20979  -2.85638
   6  -0.00000  -1.24076  -1.42813
   6   0.00000  -2.44786  -0.69728
   6   0.00000  -2.44786   0.69728
   6   0.00000  -1.24076   1.42813
   6   0.00000  -1.20979   2.85638
   6  -0.00000   0.00000   3.54248
   6  -0.00000   1.20979   2.85638
   6  -0.00000   1.24076   1.42813
   6   0.00000   2.44786   0.69728
   6   0.00000   2.44786  -0.69728
   6   0.00000   1.24076  -1.42813
   6   0.00000   1.20979  -2.85638
   6   0.00000  -0.00000  -0.70799
   6   0.00000   0.00000   0.70799
   1  -0.00000   0.00000  -4.62683
   1  -0.00000  -2.14829  -3.39976
   1   0.00000  -3.38906  -1.23618
   1   0.00000  -3.38906   1.23618
   1   0.00000  -2.14829   3.39976
   1  -0.00000  -0.00000   4.62683
   1  -0.00001   2.14829   3.39976
   1   0.00000   3.38906   1.23618
   1   0.00000   3.38906  -1.23618
   1   0.00000   2.14829  -3.39976
 read in order, maxerr=  0.02 for atom  23
 final axis swaps:           1           1           1
 final xyz swap pattern=           1
 reorder list:
   1   2   3   4   5   6   7   8   9  10  11  12  13  14  15  16  17  18  19  20
  21  22  23  24  25  26
 axis signs=           1           1           1
  6    -0.000001  0.000000 -3.542481    -0.000001  0.000000 -3.533823
  6    -0.000003 -1.209792 -2.856380    -0.000001 -1.204403 -2.839716
  6    -0.000000 -1.240761 -1.428127    -0.000000 -1.232060 -1.418856
  6     0.000001 -2.447861 -0.697282     0.000000 -2.446798 -0.691095
  6     0.000002 -2.447861  0.697280     0.000001 -2.446797  0.691096
  6     0.000001 -1.240762  1.428127     0.000000 -1.232060  1.418856
  6     0.000001 -1.209792  2.856380     0.000000 -1.204403  2.839717
  6    -0.000002  0.000000  3.542481    -0.000001 -0.000000  3.533822
  6    -0.000003  1.209792  2.856380    -0.000001  1.204403  2.839716
  6    -0.000001  1.240761  1.428128    -0.000000  1.232060  1.418856
  6     0.000001  2.447861  0.697281     0.000000  2.446798  0.691095
  6     0.000001  2.447861 -0.697280     0.000001  2.446797 -0.691096
  6     0.000001  1.240761 -1.428127     0.000000  1.232060 -1.418856
  6     0.000001  1.209792 -2.856380     0.000000  1.204403 -2.839716
  6     0.000000 -0.000000 -0.707993     0.000000 -0.000000 -0.707259
  6     0.000001  0.000000  0.707993     0.000000 -0.000001  0.707258
  1    -0.000002  0.000001 -4.626828    -0.000002  0.000001 -4.616387
  1    -0.000004 -2.148293 -3.399764    -0.000001 -2.142958 -3.382658
  1     0.000001 -3.389055 -1.236179    -0.000000 -3.386830 -1.230761
  1     0.000003 -3.389056  1.236177    -0.000000 -3.386831  1.230762
  1     0.000003 -2.148294  3.399764     0.000000 -2.142958  3.382659
  1    -0.000003 -0.000000  4.626828    -0.000001 -0.000000  4.616386
  1    -0.000005  2.148293  3.399764    -0.000001  2.142958  3.382658
  1     0.000001  3.389056  1.236179    -0.000000  3.386830  1.230761
  1     0.000003  3.389057 -1.236177     0.000001  3.386831 -1.230762
  1     0.000002  2.148295 -3.399764     0.000000  2.142958 -3.382659
 generating redundant internal coords
         300        3600          26
 Adding extra bonds for z output only
           6           6           6           6           6           6
           6           6           6           6           6           6
           6           6           6           6           1           1
           1           1           1           1           1           1
           1           1
 search for int coords
   1 str   2   1   1.391
   2 str   3   2   1.429
   3 str   4   3   1.411
   4 str   5   4   1.395
   5 str   6   5   1.411
   6 str   7   6   1.429
   7 str   8   7   1.391
   8 str   9   8   1.391
   9 str  10   9   1.429
  10 str  11  10   1.411
  11 str  12  11   1.395
  12 str  13  12   1.411
  13 str  14   1   1.391
  14 str  14  13   1.429
  15 str  15   3   1.435
  16 str  15  13   1.435
  17 str  16   6   1.435
  18 str  16  10   1.435
  19 str  16  15   1.416
  20 str  17   1   1.084
  21 str  18   2   1.084
  22 str  19   4   1.085
  23 str  20   5   1.085
  24 str  21   7   1.084
  25 str  22   8   1.084
  26 str  23   9   1.084
  27 str  24  11   1.085
  28 str  25  12   1.085
  29 str  26  14   1.084
 nber stretches=          29
  30 ben   1   2   3
  31 prop tor   1   2   3   4
  32 prop tor   1   2   3  15
  33 ben   1   2  18
  34 ben   1  14  13
  35 ben   1  14  26
  36 ben   2   1  14
  37 prop tor   2   1  14  13
  38 prop tor   2   1  14  26
  39 ben   2   1  17
  40 ben   2   3   4
  41 prop tor   2   3   4   5
  42 prop tor   2   3   4  19
  43 ben   2   3  15
  44 prop tor   2   3  15  13
  45 prop tor   2   3  15  16
  46 ben   3   2  18
  47 ben   3   4   5
  48 prop tor   3   4   5   6
  49 prop tor   3   4   5  20
  50 ben   3   4  19
  51 ben   3  15  13
  52 ben   3  15  16
  53 prop tor   3  15  16   6
  54 prop tor   3  15  16  10
  55 ben   4   3  15
  56 prop tor   4   3  15  13
  57 prop tor   4   3  15  16
  58 ben   4   5   6
  59 prop tor   4   5   6   7
  60 prop tor   4   5   6  16
  61 ben   4   5  20
  62 ben   5   4  19
  63 ben   5   6   7
  64 prop tor   5   6   7   8
  65 prop tor   5   6   7  21
  66 ben   5   6  16
  67 prop tor   5   6  16  10
  68 prop tor   5   6  16  15
  69 ben   6   5  20
  70 ben   6   7   8
  71 prop tor   6   7   8   9
  72 prop tor   6   7   8  22
  73 ben   6   7  21
  74 ben   6  16  10
  75 ben   6  16  15
  76 ben   7   6  16
  77 prop tor   7   6  16  10
  78 prop tor   7   6  16  15
  79 ben   7   8   9
  80 prop tor   7   8   9  10
  81 prop tor   7   8   9  23
  82 ben   7   8  22
  83 ben   8   7  21
  84 ben   8   9  10
  85 prop tor   8   9  10  11
  86 prop tor   8   9  10  16
  87 ben   8   9  23
  88 ben   9   8  22
  89 ben   9  10  11
  90 prop tor   9  10  11  12
  91 prop tor   9  10  11  24
  92 ben   9  10  16
  93 prop tor   9  10  16   6
  94 prop tor   9  10  16  15
  95 ben  10   9  23
  96 ben  10  11  12
  97 prop tor  10  11  12  13
  98 prop tor  10  11  12  25
  99 ben  10  11  24
 100 ben  10  16  15
 101 ben  11  10  16
 102 prop tor  11  10  16   6
 103 prop tor  11  10  16  15
 104 ben  11  12  13
 105 prop tor  11  12  13  14
 106 prop tor  11  12  13  15
 107 ben  11  12  25
 108 ben  12  11  24
 109 ben  12  13  14
 110 prop tor  12  13  14   1
 111 prop tor  12  13  14  26
 112 ben  12  13  15
 113 prop tor  12  13  15   3
 114 prop tor  12  13  15  16
 115 ben  13  12  25
 116 ben  13  14  26
 117 ben  13  15  16
 118 prop tor  13  15  16   6
 119 prop tor  13  15  16  10
 120 prop tor  14   1   2   3
 121 prop tor  14   1   2  18
 122 ben  14   1  17
 123 ben  14  13  15
 124 prop tor  14  13  15   3
 125 prop tor  14  13  15  16
 126 prop tor  15   3   4   5
 127 prop tor  15   3   4  19
 128 prop tor  15  13  14   1
 129 prop tor  15  13  14  26
 130 prop tor  16   6   7   8
 131 prop tor  16   6   7  21
 132 prop tor  16  10  11  12
 133 prop tor  16  10  11  24
 134 prop tor  17   1   2   3
 135 prop tor  17   1   2  18
 136 prop tor  17   1  14  13
 137 prop tor  17   1  14  26
 138 prop tor  18   2   3   4
 139 prop tor  18   2   3  15
 140 prop tor  19   4   5   6
 141 prop tor  19   4   5  20
 142 prop tor  20   5   6   7
 143 prop tor  20   5   6  16
 144 prop tor  21   7   8   9
 145 prop tor  21   7   8  22
 146 prop tor  22   8   9  10
 147 prop tor  22   8   9  23
 148 prop tor  23   9  10  11
 149 prop tor  23   9  10  16
 150 prop tor  24  11  12  13
 151 prop tor  24  11  12  25
 152 prop tor  25  12  13  14
 153 prop tor  25  12  13  15
 nber bend=              48
 nber lin bend=           0
 nber prop tor=          76
 nber impr tor=           0
 nber tot redund int=         153
 generating redundant internal coords
         300        3600          26
 search for int coords
   1 str   2   1   1.390
   2 str   3   2   1.421
   3 str   4   3   1.416
   4 str   5   4   1.382
   5 str   6   5   1.416
   6 str   7   6   1.421
   7 str   8   7   1.390
   8 str   9   8   1.390
   9 str  10   9   1.421
  10 str  11  10   1.416
  11 str  12  11   1.382
  12 str  13  12   1.416
  13 str  14   1   1.390
  14 str  14  13   1.421
  15 str  15   3   1.423
  16 str  15  13   1.423
  17 str  16   6   1.423
  18 str  16  10   1.423
  19 str  16  15   1.415
  20 str  17   1   1.083
  21 str  18   2   1.084
  22 str  19   4   1.084
  23 str  20   5   1.084
  24 str  21   7   1.084
  25 str  22   8   1.083
  26 str  23   9   1.084
  27 str  24  11   1.084
  28 str  25  12   1.084
  29 str  26  14   1.084
 nber stretches=          29
  30 ben   1   2   3
  31 prop tor   1   2   3   4
  32 prop tor   1   2   3  15
  33 ben   1   2  18
  34 ben   1  14  13
  35 ben   1  14  26
  36 ben   2   1  14
  37 prop tor   2   1  14  13
  38 prop tor   2   1  14  26
  39 ben   2   1  17
  40 ben   2   3   4
  41 prop tor   2   3   4   5
  42 prop tor   2   3   4  19
  43 ben   2   3  15
  44 prop tor   2   3  15  13
  45 prop tor   2   3  15  16
  46 ben   3   2  18
  47 ben   3   4   5
  48 prop tor   3   4   5   6
  49 prop tor   3   4   5  20
  50 ben   3   4  19
  51 ben   3  15  13
  52 ben   3  15  16
  53 prop tor   3  15  16   6
  54 prop tor   3  15  16  10
  55 ben   4   3  15
  56 prop tor   4   3  15  13
  57 prop tor   4   3  15  16
  58 ben   4   5   6
  59 prop tor   4   5   6   7
  60 prop tor   4   5   6  16
  61 ben   4   5  20
  62 ben   5   4  19
  63 ben   5   6   7
  64 prop tor   5   6   7   8
  65 prop tor   5   6   7  21
  66 ben   5   6  16
  67 prop tor   5   6  16  10
  68 prop tor   5   6  16  15
  69 ben   6   5  20
  70 ben   6   7   8
  71 prop tor   6   7   8   9
  72 prop tor   6   7   8  22
  73 ben   6   7  21
  74 ben   6  16  10
  75 ben   6  16  15
  76 ben   7   6  16
  77 prop tor   7   6  16  10
  78 prop tor   7   6  16  15
  79 ben   7   8   9
  80 prop tor   7   8   9  10
  81 prop tor   7   8   9  23
  82 ben   7   8  22
  83 ben   8   7  21
  84 ben   8   9  10
  85 prop tor   8   9  10  11
  86 prop tor   8   9  10  16
  87 ben   8   9  23
  88 ben   9   8  22
  89 ben   9  10  11
  90 prop tor   9  10  11  12
  91 prop tor   9  10  11  24
  92 ben   9  10  16
  93 prop tor   9  10  16   6
  94 prop tor   9  10  16  15
  95 ben  10   9  23
  96 ben  10  11  12
  97 prop tor  10  11  12  13
  98 prop tor  10  11  12  25
  99 ben  10  11  24
 100 ben  10  16  15
 101 ben  11  10  16
 102 prop tor  11  10  16   6
 103 prop tor  11  10  16  15
 104 ben  11  12  13
 105 prop tor  11  12  13  14
 106 prop tor  11  12  13  15
 107 ben  11  12  25
 108 ben  12  11  24
 109 ben  12  13  14
 110 prop tor  12  13  14   1
 111 prop tor  12  13  14  26
 112 ben  12  13  15
 113 prop tor  12  13  15   3
 114 prop tor  12  13  15  16
 115 ben  13  12  25
 116 ben  13  14  26
 117 ben  13  15  16
 118 prop tor  13  15  16   6
 119 prop tor  13  15  16  10
 120 prop tor  14   1   2   3
 121 prop tor  14   1   2  18
 122 ben  14   1  17
 123 ben  14  13  15
 124 prop tor  14  13  15   3
 125 prop tor  14  13  15  16
 126 prop tor  15   3   4   5
 127 prop tor  15   3   4  19
 128 prop tor  15  13  14   1
 129 prop tor  15  13  14  26
 130 prop tor  16   6   7   8
 131 prop tor  16   6   7  21
 132 prop tor  16  10  11  12
 133 prop tor  16  10  11  24
 134 prop tor  17   1   2   3
 135 prop tor  17   1   2  18
 136 prop tor  17   1  14  13
 137 prop tor  17   1  14  26
 138 prop tor  18   2   3   4
 139 prop tor  18   2   3  15
 140 prop tor  19   4   5   6
 141 prop tor  19   4   5  20
 142 prop tor  20   5   6   7
 143 prop tor  20   5   6  16
 144 prop tor  21   7   8   9
 145 prop tor  21   7   8  22
 146 prop tor  22   8   9  10
 147 prop tor  22   8   9  23
 148 prop tor  23   9  10  11
 149 prop tor  23   9  10  16
 150 prop tor  24  11  12  13
 151 prop tor  24  11  12  25
 152 prop tor  25  12  13  14
 153 prop tor  25  12  13  15
 nber bend=              48
 nber lin bend=           0
 nber prop tor=          76
 nber impr tor=           0
 nber tot redund int=         153
 Eigenvalues of G in red int coords
    Gval -0.00000000 -0.00000000 -0.00000000 -0.00000000 -0.00000000 -0.00000000 -0.00000000 -0.00000000
    Gval -0.00000000 -0.00000000 -0.00000000 -0.00000000 -0.00000000 -0.00000000 -0.00000000 -0.00000000
    Gval -0.00000000 -0.00000000 -0.00000000 -0.00000000 -0.00000000 -0.00000000 -0.00000000 -0.00000000
    Gval -0.00000000 -0.00000000 -0.00000000 -0.00000000 -0.00000000 -0.00000000 -0.00000000 -0.00000000
    Gval -0.00000000 -0.00000000 -0.00000000 -0.00000000 -0.00000000 -0.00000000 -0.00000000 -0.00000000
    Gval -0.00000000 -0.00000000 -0.00000000  0.00000000  0.00000000  0.00000000  0.00000000  0.00000000
    Gval  0.00000000  0.00000000  0.00000000  0.00000000  0.00000000  0.00000000  0.00000000  0.00000000
    Gval  0.00000000  0.00000000  0.00000000  0.00000000  0.00000000  0.00000000  0.00000000  0.00000000
    Gval  0.00000000  0.00000000  0.00000000  0.00000000  0.00000000  0.00000000  0.00000000  0.00000000
    Gval  0.00000000  0.00000000  0.00000000  0.00000000  0.00000000  0.00000000  0.00000000  0.00000000
    Gval  0.00000000  0.00001374  0.00001508  0.00002293  0.00002427  0.00002683  0.00004397  0.00004993
    Gval  0.00005543  0.00005981  0.00006729  0.00006913  0.00007243  0.00008263  0.00009065  0.00010243
    Gval  0.00010371  0.00012135  0.00013254  0.00013943  0.00013968  0.00017925  0.00019427  0.00020803
    Gval  0.00024892  0.00025161  0.00026381  0.00027919  0.00033088  0.00036313  0.00037722  0.00038902
    Gval  0.00042239  0.00044652  0.00046130  0.00057454  0.00059380  0.00059397  0.00059696  0.00059901
    Gval  0.00060642  0.00060934  0.00063354  0.00064336  0.00064963  0.00065993  0.00075981  0.00077776
    Gval  0.00097715  0.00101810  0.00106387  0.00106796  0.00108972  0.00109255  0.00113808  0.00113908
    Gval  0.00116084  0.00116152  0.00117062  0.00117069  0.00146363  0.00169198  0.00192093  0.00194765
    Gval  0.00232148  0.00250905  0.00260781  0.00305522  0.00314273  0.00365614  0.00372176  0.00392145
    Gval  0.00394627
  1.373752875597520E-005  1.373752875597520E-005
  1.508003851829913E-005  1.373752875597520E-005
  2.292799697645754E-005  1.373752875597520E-005
  2.427474137421220E-005  1.373752875597520E-005
  2.683257458613985E-005  1.373752875597520E-005
  4.396739776130100E-005  1.373752875597520E-005
  4.993336482106660E-005  1.373752875597520E-005
  5.542533392716318E-005  1.373752875597520E-005
  5.980885382002946E-005  1.373752875597520E-005
  6.728758343025939E-005  1.373752875597520E-005
  6.912845547650720E-005  1.373752875597520E-005
  7.242802660541739E-005  1.373752875597520E-005
  8.262679935510432E-005  1.373752875597520E-005
  9.064501208269489E-005  1.373752875597520E-005
  1.024286929898031E-004  1.373752875597520E-005
  1.037125026155771E-004  1.373752875597520E-005
  1.213544648984867E-004  1.373752875597520E-005
  1.325355493658656E-004  1.373752875597520E-005
  1.394283387329689E-004  1.373752875597520E-005
  1.396830611343536E-004  1.373752875597520E-005
  1.792459682452508E-004  1.373752875597520E-005
  1.942669009666279E-004  1.373752875597520E-005
  2.080274922368272E-004  1.373752875597520E-005
  2.489192727793040E-004  1.373752875597520E-005
  2.516146652024653E-004  1.373752875597520E-005
  2.638112769862496E-004  1.373752875597520E-005
  2.791943218633731E-004  1.373752875597520E-005
  3.308828686204092E-004  1.373752875597520E-005
  3.631316603996147E-004  1.373752875597520E-005
  3.772156150001373E-004  1.373752875597520E-005
  3.890223998357842E-004  1.373752875597520E-005
  4.223912928846468E-004  1.373752875597520E-005
  4.465193298173670E-004  1.373752875597520E-005
  4.612982078131135E-004  1.373752875597520E-005
  5.745357115938497E-004  1.373752875597520E-005
  5.938020116618008E-004  1.373752875597520E-005
  5.939743785326247E-004  1.373752875597520E-005
  5.969641854656729E-004  1.373752875597520E-005
  5.990118358092721E-004  1.373752875597520E-005
  6.064161961698028E-004  1.373752875597520E-005
  6.093367835786097E-004  1.373752875597520E-005
  6.335411778470541E-004  1.373752875597520E-005
  6.433598049051393E-004  1.373752875597520E-005
  6.496252586048140E-004  1.373752875597520E-005
  6.599306391907280E-004  1.373752875597520E-005
  7.598125697082516E-004  1.373752875597520E-005
  7.777623480606901E-004  1.373752875597520E-005
  9.771528308441799E-004  1.373752875597520E-005
  1.018104906897133E-003  1.373752875597520E-005
  1.063865589941192E-003  1.373752875597520E-005
  1.067957030913006E-003  1.373752875597520E-005
  1.089720548377501E-003  1.373752875597520E-005
  1.092547632154459E-003  1.373752875597520E-005
  1.138078005083714E-003  1.373752875597520E-005
  1.139076409109123E-003  1.373752875597520E-005
  1.160836236279100E-003  1.373752875597520E-005
  1.161522457749177E-003  1.373752875597520E-005
  1.170618804220429E-003  1.373752875597520E-005
  1.170690683970386E-003  1.373752875597520E-005
  1.463633401631009E-003  1.373752875597520E-005
  1.691980613469103E-003  1.373752875597520E-005
  1.920930467183044E-003  1.373752875597520E-005
  1.947652864329653E-003  1.373752875597520E-005
  2.321475284379946E-003  1.373752875597520E-005
  2.509053123726209E-003  1.373752875597520E-005
  2.607814299156298E-003  1.373752875597520E-005
  3.055215816222809E-003  1.373752875597520E-005
  3.142726684268555E-003  1.373752875597520E-005
  3.656137172943783E-003  1.373752875597520E-005
  3.721763951944437E-003  1.373752875597520E-005
  3.921448005370809E-003  1.373752875597520E-005
  3.946269374924373E-003  1.373752875597520E-005
 cut=1d-8, nber non-redundant internal coords=          72
 Check on Eigenvals of non-red overlap matrix:
  0.00001374  0.00001508  0.00002293  0.00002427  0.00002683  0.00004397  0.00004993  0.00005543
  0.00005981  0.00006729  0.00006913  0.00007243  0.00008263  0.00009065  0.00010243  0.00010371
  0.00012135  0.00013254  0.00013943  0.00013968  0.00017925  0.00019427  0.00020803  0.00024892
  0.00025161  0.00026381  0.00027919  0.00033088  0.00036313  0.00037722  0.00038902  0.00042239
  0.00044652  0.00046130  0.00057454  0.00059380  0.00059397  0.00059696  0.00059901  0.00060642
  0.00060934  0.00063354  0.00064336  0.00064963  0.00065993  0.00075981  0.00077776  0.00097715
  0.00101810  0.00106387  0.00106796  0.00108972  0.00109255  0.00113808  0.00113908  0.00116084
  0.00116152  0.00117062  0.00117069  0.00146363  0.00169198  0.00192093  0.00194765  0.00232148
  0.00250905  0.00260781  0.00305522  0.00314273  0.00365614  0.00372176  0.00392145  0.00394627
 generating redundant internal coords
         300        3600          26
 search for int coords
   1 str   2   1   1.391
   2 str   3   2   1.429
   3 str   4   3   1.411
   4 str   5   4   1.395
   5 str   6   5   1.411
   6 str   7   6   1.429
   7 str   8   7   1.391
   8 str   9   8   1.391
   9 str  10   9   1.429
  10 str  11  10   1.411
  11 str  12  11   1.395
  12 str  13  12   1.411
  13 str  14   1   1.391
  14 str  14  13   1.429
  15 str  15   3   1.435
  16 str  15  13   1.435
  17 str  16   6   1.435
  18 str  16  10   1.435
  19 str  16  15   1.416
  20 str  17   1   1.084
  21 str  18   2   1.084
  22 str  19   4   1.085
  23 str  20   5   1.085
  24 str  21   7   1.084
  25 str  22   8   1.084
  26 str  23   9   1.084
  27 str  24  11   1.085
  28 str  25  12   1.085
  29 str  26  14   1.084
 nber stretches=          29
  30 ben   1   2   3
  31 prop tor   1   2   3   4
  32 prop tor   1   2   3  15
  33 ben   1   2  18
  34 ben   1  14  13
  35 ben   1  14  26
  36 ben   2   1  14
  37 prop tor   2   1  14  13
  38 prop tor   2   1  14  26
  39 ben   2   1  17
  40 ben   2   3   4
  41 prop tor   2   3   4   5
  42 prop tor   2   3   4  19
  43 ben   2   3  15
  44 prop tor   2   3  15  13
  45 prop tor   2   3  15  16
  46 ben   3   2  18
  47 ben   3   4   5
  48 prop tor   3   4   5   6
  49 prop tor   3   4   5  20
  50 ben   3   4  19
  51 ben   3  15  13
  52 ben   3  15  16
  53 prop tor   3  15  16   6
  54 prop tor   3  15  16  10
  55 ben   4   3  15
  56 prop tor   4   3  15  13
  57 prop tor   4   3  15  16
  58 ben   4   5   6
  59 prop tor   4   5   6   7
  60 prop tor   4   5   6  16
  61 ben   4   5  20
  62 ben   5   4  19
  63 ben   5   6   7
  64 prop tor   5   6   7   8
  65 prop tor   5   6   7  21
  66 ben   5   6  16
  67 prop tor   5   6  16  10
  68 prop tor   5   6  16  15
  69 ben   6   5  20
  70 ben   6   7   8
  71 prop tor   6   7   8   9
  72 prop tor   6   7   8  22
  73 ben   6   7  21
  74 ben   6  16  10
  75 ben   6  16  15
  76 ben   7   6  16
  77 prop tor   7   6  16  10
  78 prop tor   7   6  16  15
  79 ben   7   8   9
  80 prop tor   7   8   9  10
  81 prop tor   7   8   9  23
  82 ben   7   8  22
  83 ben   8   7  21
  84 ben   8   9  10
  85 prop tor   8   9  10  11
  86 prop tor   8   9  10  16
  87 ben   8   9  23
  88 ben   9   8  22
  89 ben   9  10  11
  90 prop tor   9  10  11  12
  91 prop tor   9  10  11  24
  92 ben   9  10  16
  93 prop tor   9  10  16   6
  94 prop tor   9  10  16  15
  95 ben  10   9  23
  96 ben  10  11  12
  97 prop tor  10  11  12  13
  98 prop tor  10  11  12  25
  99 ben  10  11  24
 100 ben  10  16  15
 101 ben  11  10  16
 102 prop tor  11  10  16   6
 103 prop tor  11  10  16  15
 104 ben  11  12  13
 105 prop tor  11  12  13  14
 106 prop tor  11  12  13  15
 107 ben  11  12  25
 108 ben  12  11  24
 109 ben  12  13  14
 110 prop tor  12  13  14   1
 111 prop tor  12  13  14  26
 112 ben  12  13  15
 113 prop tor  12  13  15   3
 114 prop tor  12  13  15  16
 115 ben  13  12  25
 116 ben  13  14  26
 117 ben  13  15  16
 118 prop tor  13  15  16   6
 119 prop tor  13  15  16  10
 120 prop tor  14   1   2   3
 121 prop tor  14   1   2  18
 122 ben  14   1  17
 123 ben  14  13  15
 124 prop tor  14  13  15   3
 125 prop tor  14  13  15  16
 126 prop tor  15   3   4   5
 127 prop tor  15   3   4  19
 128 prop tor  15  13  14   1
 129 prop tor  15  13  14  26
 130 prop tor  16   6   7   8
 131 prop tor  16   6   7  21
 132 prop tor  16  10  11  12
 133 prop tor  16  10  11  24
 134 prop tor  17   1   2   3
 135 prop tor  17   1   2  18
 136 prop tor  17   1  14  13
 137 prop tor  17   1  14  26
 138 prop tor  18   2   3   4
 139 prop tor  18   2   3  15
 140 prop tor  19   4   5   6
 141 prop tor  19   4   5  20
 142 prop tor  20   5   6   7
 143 prop tor  20   5   6  16
 144 prop tor  21   7   8   9
 145 prop tor  21   7   8  22
 146 prop tor  22   8   9  10
 147 prop tor  22   8   9  23
 148 prop tor  23   9  10  11
 149 prop tor  23   9  10  16
 150 prop tor  24  11  12  13
 151 prop tor  24  11  12  25
 152 prop tor  25  12  13  14
 153 prop tor  25  12  13  15
 nber bend=              48
 nber lin bend=           0
 nber prop tor=          76
 nber impr tor=           0
 nber tot redund int=         153
 Eigenvalues of G in red int coords
    Gval -0.00000000 -0.00000000 -0.00000000 -0.00000000 -0.00000000 -0.00000000 -0.00000000 -0.00000000
    Gval -0.00000000 -0.00000000 -0.00000000 -0.00000000 -0.00000000 -0.00000000 -0.00000000 -0.00000000
    Gval -0.00000000 -0.00000000 -0.00000000 -0.00000000 -0.00000000 -0.00000000 -0.00000000 -0.00000000
    Gval -0.00000000 -0.00000000 -0.00000000 -0.00000000 -0.00000000 -0.00000000 -0.00000000 -0.00000000
    Gval -0.00000000 -0.00000000  0.00000000  0.00000000  0.00000000  0.00000000  0.00000000  0.00000000
    Gval  0.00000000  0.00000000  0.00000000  0.00000000  0.00000000  0.00000000  0.00000000  0.00000000
    Gval  0.00000000  0.00000000  0.00000000  0.00000000  0.00000000  0.00000000  0.00000000  0.00000000
    Gval  0.00000000  0.00000000  0.00000000  0.00000000  0.00000000  0.00000000  0.00000000  0.00000000
    Gval  0.00000000  0.00000000  0.00000000  0.00000000  0.00000000  0.00000000  0.00000000  0.00000000
    Gval  0.00000000  0.00000000  0.00000000  0.00000000  0.00000000  0.00000000  0.00000000  0.00000000
    Gval  0.00000000  0.00001373  0.00001503  0.00002287  0.00002429  0.00002686  0.00004390  0.00004995
    Gval  0.00005515  0.00005976  0.00006711  0.00006916  0.00007259  0.00008251  0.00009068  0.00010234
    Gval  0.00010255  0.00012053  0.00013238  0.00013907  0.00013973  0.00017973  0.00019470  0.00020665
    Gval  0.00024834  0.00024964  0.00026272  0.00027963  0.00032955  0.00036260  0.00037674  0.00038692
    Gval  0.00041908  0.00044130  0.00045867  0.00056978  0.00059377  0.00059395  0.00059697  0.00059902
    Gval  0.00060615  0.00060914  0.00063310  0.00064314  0.00064910  0.00065955  0.00076166  0.00078047
    Gval  0.00096810  0.00102110  0.00106173  0.00106566  0.00108876  0.00109148  0.00113787  0.00113896
    Gval  0.00115769  0.00115846  0.00116756  0.00116765  0.00145963  0.00167476  0.00190736  0.00193709
    Gval  0.00231840  0.00250162  0.00258059  0.00305932  0.00314831  0.00363988  0.00370834  0.00390614
    Gval  0.00393172
  1.372982523614495E-005  1.372982523614495E-005
  1.503253516559472E-005  1.372982523614495E-005
  2.287117501377270E-005  1.372982523614495E-005
  2.429040883323702E-005  1.372982523614495E-005
  2.686337112851609E-005  1.372982523614495E-005
  4.390461931412719E-005  1.372982523614495E-005
  4.995342597240759E-005  1.372982523614495E-005
  5.515372537967932E-005  1.372982523614495E-005
  5.975640404487993E-005  1.372982523614495E-005
  6.711374033730063E-005  1.372982523614495E-005
  6.916341330136321E-005  1.372982523614495E-005
  7.259375443811874E-005  1.372982523614495E-005
  8.251073853508052E-005  1.372982523614495E-005
  9.068250479726423E-005  1.372982523614495E-005
  1.023421967403875E-004  1.372982523614495E-005
  1.025499449606629E-004  1.372982523614495E-005
  1.205309511709804E-004  1.372982523614495E-005
  1.323826529590960E-004  1.372982523614495E-005
  1.390673569489522E-004  1.372982523614495E-005
  1.397262352246122E-004  1.372982523614495E-005
  1.797343079100315E-004  1.372982523614495E-005
  1.946985149200601E-004  1.372982523614495E-005
  2.066506617084562E-004  1.372982523614495E-005
  2.483367932769215E-004  1.372982523614495E-005
  2.496382471649978E-004  1.372982523614495E-005
  2.627207178241173E-004  1.372982523614495E-005
  2.796260217287327E-004  1.372982523614495E-005
  3.295473255902975E-004  1.372982523614495E-005
  3.626048428855929E-004  1.372982523614495E-005
  3.767403514310809E-004  1.372982523614495E-005
  3.869214085535089E-004  1.372982523614495E-005
  4.190753355149316E-004  1.372982523614495E-005
  4.412964454538525E-004  1.372982523614495E-005
  4.586718240810944E-004  1.372982523614495E-005
  5.697816214443852E-004  1.372982523614495E-005
  5.937731383743310E-004  1.372982523614495E-005
  5.939490467540220E-004  1.372982523614495E-005
  5.969690227218519E-004  1.372982523614495E-005
  5.990199321239236E-004  1.372982523614495E-005
  6.061495505708521E-004  1.372982523614495E-005
  6.091406349032448E-004  1.372982523614495E-005
  6.330998437417950E-004  1.372982523614495E-005
  6.431360726565353E-004  1.372982523614495E-005
  6.491025669689174E-004  1.372982523614495E-005
  6.595494007066684E-004  1.372982523614495E-005
  7.616589791306843E-004  1.372982523614495E-005
  7.804707784607250E-004  1.372982523614495E-005
  9.680999986787771E-004  1.372982523614495E-005
  1.021100933022257E-003  1.372982523614495E-005
  1.061733459184505E-003  1.372982523614495E-005
  1.065659119540547E-003  1.372982523614495E-005
  1.088755548927044E-003  1.372982523614495E-005
  1.091481539539182E-003  1.372982523614495E-005
  1.137872237837798E-003  1.372982523614495E-005
  1.138956730265337E-003  1.372982523614495E-005
  1.157688667004524E-003  1.372982523614495E-005
  1.158456282362217E-003  1.372982523614495E-005
  1.167560532008407E-003  1.372982523614495E-005
  1.167646888420478E-003  1.372982523614495E-005
  1.459629167449404E-003  1.372982523614495E-005
  1.674757341936721E-003  1.372982523614495E-005
  1.907358084964305E-003  1.372982523614495E-005
  1.937085830554941E-003  1.372982523614495E-005
  2.318399079779270E-003  1.372982523614495E-005
  2.501619460753677E-003  1.372982523614495E-005
  2.580589771644757E-003  1.372982523614495E-005
  3.059315645446953E-003  1.372982523614495E-005
  3.148314583205797E-003  1.372982523614495E-005
  3.639877380488602E-003  1.372982523614495E-005
  3.708338902823957E-003  1.372982523614495E-005
  3.906140864822577E-003  1.372982523614495E-005
  3.931724108119949E-003  1.372982523614495E-005
 cut=1d-8, nber non-redundant internal coords=          72
 Check on Eigenvals of non-red overlap matrix:
  0.00001373  0.00001503  0.00002287  0.00002429  0.00002686  0.00004390  0.00004995  0.00005515
  0.00005976  0.00006711  0.00006916  0.00007259  0.00008251  0.00009068  0.00010234  0.00010255
  0.00012053  0.00013238  0.00013907  0.00013973  0.00017973  0.00019470  0.00020665  0.00024834
  0.00024964  0.00026272  0.00027963  0.00032955  0.00036260  0.00037674  0.00038692  0.00041908
  0.00044130  0.00045867  0.00056978  0.00059377  0.00059395  0.00059697  0.00059902  0.00060615
  0.00060914  0.00063310  0.00064314  0.00064910  0.00065955  0.00076166  0.00078047  0.00096810
  0.00102110  0.00106173  0.00106566  0.00108876  0.00109148  0.00113787  0.00113896  0.00115769
  0.00115846  0.00116756  0.00116765  0.00145963  0.00167476  0.00190736  0.00193709  0.00231840
  0.00250162  0.00258059  0.00305932  0.00314831  0.00363988  0.00370834  0.00390614  0.00393172
 d1=
  -6.3   0.0  -0.0   0.2   0.0  -0.0  -0.0  -0.0  -0.0   0.4   0.0  -0.0  -1.6   0.0  -0.0   0.0  -0.0   0.0   0.0  -1.8
   0.0   2.0   0.0  -0.0  -0.0  -0.0   0.0   0.0   0.1  -0.0   0.0   0.0  -0.6   0.0   0.0  -0.1   0.0  -0.0  -0.2  -0.0
  -0.0   0.0  -0.0  -0.3   0.0  -0.0   0.0   0.0  -0.0  -0.0   0.0   0.1  -0.0  -0.0  -0.5   0.0  -0.0   0.0  -0.0   0.0
   0.0   0.0  -0.0  -0.0  -0.0  -0.0   0.0   0.0   0.0  -0.0   0.0  -0.0
 d2=
   6.3  -0.0  -0.0   0.2   0.0   0.0  -0.0   0.0   0.0  -0.4   0.0   0.0  -1.6   0.0   0.0  -0.0  -0.0   0.0   0.0   1.8
  -0.0  -2.0   0.0   0.0  -0.0   0.0   0.0   0.0   0.1   0.0   0.0  -0.0  -0.6  -0.0  -0.0   0.1  -0.0   0.0  -0.2  -0.0
  -0.0  -0.0  -0.0   0.3   0.0  -0.0  -0.0   0.0  -0.0  -0.0  -0.0   0.1  -0.0  -0.0   0.5  -0.0   0.0   0.0  -0.0  -0.0
  -0.0  -0.0   0.0   0.0   0.0   0.0  -0.0  -0.0  -0.0   0.0  -0.0   0.0
 curvilinear- renormalizn of Dush matrix done
  mol 1 sym            1  -> mol 2 sym            1

 Dushinsky matrix, ncs 2 in terms of ncs 1

   mode   freq    coeff     %      %tot     of    at

   1        -0.  0.0000     0.0     0.0   7       100.
   2        -0. -0.0000     0.0     0.0   7       100.
   3        -0.  0.0000     0.0     0.0   7       100.
   4         0.  0.0000     0.0     0.0   7       100.
   5         0.  0.0000     0.0     0.0   7       100.
   6         0.  0.0000     0.0     0.0   9       200.
   7        97. -0.9967    99.3   100.0   7       100.
   8       139.  0.9986    99.7    98.9   8       145.
   9       202.  0.9956    99.1   100.3   9       200.
  10       204.  0.9996    99.9    99.2  10       245.
  11       254. -0.9963    99.3   100.1  11       254.
[...]
 nber times 1st assigned=          12           0
 nber times 1st assigned=          13           0
 nber times 1st assigned=          14           0
 nber times 1st assigned=          15           0
 nber times 1st assigned=          16           0
 nber times 1st assigned=          17           0
 nber times 1st assigned=          18           0
 nber times 1st assigned=          19           0
 nber times 1st assigned=          20           0
 nber times 1st assigned=          21           0
 nber times 1st assigned=          22           0
 nber times 1st assigned=          23           0
 nber times 1st assigned=          24           0
 nber times 1st assigned=          25           0
 nber times 1st assigned=          26           0
 nber times 1st assigned=          27           0
 nber times 1st assigned=          28           0
 nber times 1st assigned=          29           0
 nber times 1st assigned=          30           0
 nber times 1st assigned=          31           0
 nber times 1st assigned=          32           0
 nber times 1st assigned=          33           0
 nber times 1st assigned=          34           0
 nber times 1st assigned=          35           0
 nber times 1st assigned=          36           0
 nber times 1st assigned=          37           0
 nber times 1st assigned=          38           0
 nber times 1st assigned=          39           0
 nber times 1st assigned=          40           0
 nber times 1st assigned=          41           0
 nber times 1st assigned=          42           0
 nber times 1st assigned=          43           0
 nber times 1st assigned=          44           0
 nber times 1st assigned=          45           0
 nber times 1st assigned=          46           0
 nber times 1st assigned=          47           0
 nber times 1st assigned=          48           0
 nber times 1st assigned=          49           0
 nber times 1st assigned=          50           0
 nber times 1st assigned=          51           0
 nber times 1st assigned=          52           0
 nber times 1st assigned=          53           0
 nber times 1st assigned=          54           0
 nber times 1st assigned=          55           0
 nber times 1st assigned=          56           0
 nber times 1st assigned=          57           0
 nber times 1st assigned=          58           0
 nber times 1st assigned=          59           0
 nber times 1st assigned=          60           0
 nber times 1st assigned=          61           0
 nber times 1st assigned=          62           0
 nber times 1st assigned=          63           0
 nber times 1st assigned=          64           0
 nber times 1st assigned=          65           0
 nber times 1st assigned=          66           0
 nber times 1st assigned=          67           0
 nber times 1st assigned=          68           0
 nber times 1st assigned=          69           0
 nber times 1st assigned=          70           0
 nber times 1st assigned=          71           0
 nber times 1st assigned=          72           0
 nber times 1st assigned=          73           0
 nber times 1st assigned=          74           0
 nber times 1st assigned=          75           0
 nber times 1st assigned=          76           0
 nber times 1st assigned=          77           0
 nber times 1st assigned=          78           0
 Dushinsky matrix written to .out file
 modes represented=   71.8340470795808     

 Dushinsky matrix, ncs 1 in terms of ncs 2

   mode   freq    coeff     %      %tot     of    at

   7       100. -0.9967    99.3   100.0   7        97.
   8       145.  0.9986    99.7    98.9   8       139.
   9       200.  0.9956    99.1   100.3   9       202.
  10       245.  0.9996    99.9    99.3  10       204.
  11       254. -0.9963    99.3   100.2  11       254.
  12       354.  0.9921    98.4    99.9  12       334.
  13       398.  0.9978    99.6    99.2  13       369.
  14       414.  0.9999   100.0    99.8  14       410.
  15       459. -0.9828    96.6    99.2  15       435.
  16       469. -0.9960    99.2   100.3  17       472.
  17       480.  0.9746    95.0   100.4  16       452.
  18       501.  0.9857    97.2    99.7  18       497.
  19       504. -0.9999   100.0   100.1  19       506.
  20       539.  0.9901    98.0    99.3  20       507.
  21       540.  0.9988    99.8    99.1  21       516.
  22       549. -0.9721    94.5   100.4  22       540.
  23       601.  0.9998   100.0    99.9  23       594.
  24       676. -0.9996    99.9    99.8  24       641.
  25       695. -0.9973    99.5    99.8  26       687.
  26       697. -0.9707    94.2    99.0  25       682.
  27       742. -0.9946    98.9    99.9  29       728.
  28       761.  0.8982    80.7    99.2  27       714.
                 0.4264    18.2          31       795.
  29       782.  0.9694    94.0    99.4  28       727.
  30       816.  0.9997    99.9   100.1  32       812.
  31       824. -0.4154    17.3    99.2  27       714.
                 0.9007    81.1          31       795.
  32       831.  0.9973    99.5    99.1  33       812.
  33       843. -0.9740    94.9    99.9  30       768.
  34       877. -0.9913    98.3    99.7  34       820.
  35       949.  0.9992    99.8   100.0  35       836.
  36       961. -0.9738    94.8   100.1  36       848.
  37       993.  0.9963    99.3    99.6  41       973.
  38       995.  0.9547    91.1    99.5  37       911.
  39      1004. -0.9981    99.6    99.7  42       989.
  40      1004.  0.9990    99.8    99.6  38       911.
  41      1015.  0.9890    97.8    99.6  40       957.
  42      1018.  0.9537    91.0    99.6  39       957.
  43      1096.  0.9980    99.6    99.7  44      1084.
  44      1122.  0.9987    99.7    99.5  45      1110.
  45      1145.  0.7807    60.9    99.7  43      1082.
                 0.5994    35.9          48      1168.
  46      1169. -0.9964    99.3    99.8  47      1142.
  47      1171.  0.9542    91.1    99.9  46      1136.
  48      1203. -0.3406    11.6    99.9  43      1082.
                 0.6117    37.4          48      1168.
                 0.7020    49.3          50      1208.
  49      1214. -0.9811    96.3    99.9  49      1189.
  50      1236.  0.9937    98.7   100.0  51      1222.
  51      1249. -0.3718    13.8    99.8  43      1082.
                 0.4486    20.1          48      1168.
                -0.6532    42.7          50      1208.
                 0.4734    22.4          55      1300.
  52      1265. -0.9666    93.4   100.1  52      1247.
  53      1267. -0.9988    99.8    99.8  53      1262.
  54      1365. -0.9712    94.3    99.7  56      1352.
  55      1371.  0.8477    71.9   100.0  55      1300.
  56      1374. -0.7889    62.2    99.9  54      1295.
                -0.5070    25.7          58      1418.
  57      1425. -0.9868    97.4    99.7  57      1408.
  58      1449. -0.9944    98.9    99.7  59      1433.
  59      1452.  0.5220    27.2    99.8  54      1295.
                -0.8382    70.3          58      1418.
  60      1464. -0.9417    88.7    99.8  61      1448.
  61      1466. -0.9865    97.3    99.7  60      1438.
  62      1517.  0.9750    95.1    99.5  63      1503.
  63      1521. -0.7059    49.8    99.8  62      1500.
                -0.7076    50.1          64      1530.
  64      1561. -0.9965    99.3    99.9  65      1534.
  65      1582. -0.9634    92.8   100.1  66      1567.
  66      1587.  0.9880    97.6    99.7  67      1575.
  67      1593. -0.6849    46.9    99.6  62      1500.
                 0.6686    44.7          64      1530.
  68      1659. -0.9907    98.1    99.9  68      1611.
  69      3183.  0.9475    89.8   100.0  69      3160.
  70      3183.  0.9911    98.2   100.0  71      3162.
  71      3184. -0.9379    88.0   100.0  70      3161.
                 0.3288    10.8          78      3186.
  72      3185.  0.9335    87.1   100.0  72      3163.
  73      3188. -0.9903    98.1   100.0  73      3171.
  74      3189. -0.9911    98.2   100.0  74      3171.
  75      3197.  0.9903    98.1   100.0  75      3178.
  76      3197. -0.9661    93.3   100.0  76      3179.
  77      3208. -0.9371    87.8   100.0  77      3185.
  78      3208.  0.3460    12.0   100.0  70      3161.
                 0.9088    82.6          78      3186.
 nber times 1st assigned=           1           0
 nber times 1st assigned=           2           0
 nber times 1st assigned=           3           0
 nber times 1st assigned=           4           0
 nber times 1st assigned=           5           0
 nber times 1st assigned=           6           0
 nber times 1st assigned=           7           0
 nber times 1st assigned=           8           0
 nber times 1st assigned=           9           0
 nber times 1st assigned=          10           0
 nber times 1st assigned=          11           0
 nber times 1st assigned=          12           0
 nber times 1st assigned=          13           0
 nber times 1st assigned=          14           0
 nber times 1st assigned=          15           0
 nber times 1st assigned=          16           0
 nber times 1st assigned=          17           0
 nber times 1st assigned=          18           0
 nber times 1st assigned=          19           0
 nber times 1st assigned=          20           0
 nber times 1st assigned=          21           0
 nber times 1st assigned=          22           0
 nber times 1st assigned=          23           0
 nber times 1st assigned=          24           0
 nber times 1st assigned=          25           0
 nber times 1st assigned=          26           0
 nber times 1st assigned=          27           0
 nber times 1st assigned=          28           0
 nber times 1st assigned=          29           0
 nber times 1st assigned=          30           0
 nber times 1st assigned=          31           0
 nber times 1st assigned=          32           0
 nber times 1st assigned=          33           0
 nber times 1st assigned=          34           0
 nber times 1st assigned=          35           0
 nber times 1st assigned=          36           0
 nber times 1st assigned=          37           0
 nber times 1st assigned=          38           0
 nber times 1st assigned=          39           0
 nber times 1st assigned=          40           0
 nber times 1st assigned=          41           0
 nber times 1st assigned=          42           0
 nber times 1st assigned=          43           0
 nber times 1st assigned=          44           0
 nber times 1st assigned=          45           0
 nber times 1st assigned=          46           0
 nber times 1st assigned=          47           0
 nber times 1st assigned=          48           0
 nber times 1st assigned=          49           0
 nber times 1st assigned=          50           0
 nber times 1st assigned=          51           0
 nber times 1st assigned=          52           0
 nber times 1st assigned=          53           0
 nber times 1st assigned=          54           0
 nber times 1st assigned=          55           0
 nber times 1st assigned=          56           0
 nber times 1st assigned=          57           0
 nber times 1st assigned=          58           0
 nber times 1st assigned=          59           0
 nber times 1st assigned=          60           0
 nber times 1st assigned=          61           0
 nber times 1st assigned=          62           0
 nber times 1st assigned=          63           0
 nber times 1st assigned=          64           0
 nber times 1st assigned=          65           0
 nber times 1st assigned=          66           0
 nber times 1st assigned=          67           0
 nber times 1st assigned=          68           0
 nber times 1st assigned=          69           0
 nber times 1st assigned=          70           0
 nber times 1st assigned=          71           0
 nber times 1st assigned=          72           0
 nber times 1st assigned=          73           0
 nber times 1st assigned=          74           0
 nber times 1st assigned=          75           0
 nber times 1st assigned=          76           0
 nber times 1st assigned=          77           0
 nber times 1st assigned=          78           0
 modes represented=   71.8340470795808     
 p1=
   -0.    0.    0.    0.    0.   -0.    0.   -0.    0.    0.    0.   -0.    0.   -4.    0.   -0.   -0.    0.   -0.   -0.
   -0.   -0.   -5.   -0.    0.    0.   -0.    0.   -0.   -2.    0.   -0.    0.   -0.   -0.    0.    0.    0.   -0.   -0.
   -0.    0.   -0.   -0.   -0.    1.   -0.   -0.    0.    0.    0.   -1.   -0.    1.   -0.   -0.    2.    0.    0.    0.
   -0.    0.    0.    0.   -0.   -0.   -0.   -1.    0.    0.    0.   -0.    0.   -0.   -0.   -0.    0.   -0.
 p2=
    0.    0.    0.   -0.    0.    0.    0.    0.   -0.   -0.    0.    0.   -0.    4.    0.    0.   -0.   -0.   -0.    0.
    0.   -0.    5.   -0.    0.   -0.   -0.    0.   -0.    0.   -0.    2.    0.   -0.    0.    0.   -0.    0.   -0.    0.
   -0.   -0.    0.    0.    0.    0.    1.    0.    0.    0.   -0.   -0.   -0.   -0.    0.    1.    2.    0.    0.   -0.
    0.    0.   -0.    0.    1.   -0.    0.   -1.   -0.    0.    0.   -0.    0.   -0.    0.   -0.   -0.    0.

 Displacement: in terms of nc of 1 THEN of nc of 2

   1     freq=    -0. Q= -0.000 lam=    -0.0     freq=    -0. Q= -0.000 lam=    -0.0
   2     freq=    -0. Q=  0.000 lam=    -0.0     freq=    -0. Q=  0.000 lam=    -0.0
   3     freq=    -0. Q=  0.000 lam=    -0.0     freq=    -0. Q=  0.000 lam=    -0.0
   4     freq=     0. Q=  0.000 lam=     0.0     freq=     0. Q=  0.000 lam=     0.0
   5     freq=     0. Q=  0.000 lam=     0.0     freq=     0. Q=  0.000 lam=     0.0
   6     freq=     0. Q= -0.000 lam=     0.0     freq=     0. Q= -0.000 lam=     0.0
   7     freq=   100. Q=  0.000 lam=     0.0     freq=    97. Q=  0.000 lam=     0.0
   8     freq=   145. Q= -0.000 lam=     0.0     freq=   139. Q= -0.000 lam=     0.0
   9     freq=   200. Q=  0.000 lam=     0.0     freq=   202. Q=  0.000 lam=     0.0
  10     freq=   245. Q=  0.000 lam=     0.0     freq=   204. Q=  0.000 lam=     0.0
  11     freq=   254. Q=  0.000 lam=     0.0     freq=   254. Q=  0.000 lam=     0.0
  12     freq=   354. Q= -0.000 lam=     0.0     freq=   334. Q= -0.000 lam=     0.0
  13     freq=   398. Q=  0.000 lam=     0.0     freq=   369. Q=  0.000 lam=     0.0
  14     freq=   414. Q= -0.355 lam=    26.2     freq=   410. Q= -0.351 lam=    25.2
  15     freq=   459. Q=  0.000 lam=     0.0     freq=   435. Q=  0.000 lam=     0.0
  16     freq=   469. Q= -0.000 lam=     0.0     freq=   452. Q= -0.000 lam=     0.0
  17     freq=   480. Q= -0.000 lam=     0.0     freq=   472. Q= -0.000 lam=     0.0
  18     freq=   501. Q=  0.000 lam=     0.0     freq=   497. Q=  0.000 lam=     0.0
  19     freq=   504. Q= -0.000 lam=     0.0     freq=   506. Q= -0.000 lam=     0.0
  20     freq=   539. Q= -0.000 lam=     0.0     freq=   507. Q= -0.000 lam=     0.0
  21     freq=   540. Q= -0.000 lam=     0.0     freq=   516. Q= -0.000 lam=     0.0
  22     freq=   549. Q= -0.000 lam=     0.0     freq=   540. Q= -0.000 lam=     0.0
  23     freq=   601. Q= -0.460 lam=    63.7     freq=   594. Q= -0.463 lam=    63.8
  24     freq=   676. Q= -0.000 lam=     0.0     freq=   641. Q= -0.000 lam=     0.0
  25     freq=   695. Q=  0.000 lam=     0.0     freq=   682. Q=  0.000 lam=     0.0
  26     freq=   697. Q=  0.000 lam=     0.0     freq=   687. Q=  0.000 lam=     0.0
  27     freq=   742. Q= -0.000 lam=     0.0     freq=   714. Q= -0.000 lam=     0.0
  28     freq=   761. Q=  0.000 lam=     0.0     freq=   727. Q=  0.000 lam=     0.0
  29     freq=   782. Q= -0.000 lam=     0.0     freq=   728. Q= -0.000 lam=     0.0
  30     freq=   816. Q= -0.246 lam=    24.6     freq=   768. Q= -0.000 lam=     0.0
  31     freq=   824. Q=  0.000 lam=     0.0     freq=   795. Q=  0.000 lam=     0.0
  32     freq=   831. Q= -0.000 lam=     0.0     freq=   812. Q= -0.237 lam=    22.9
  33     freq=   843. Q=  0.000 lam=     0.0     freq=   812. Q=  0.000 lam=     0.0
  34     freq=   877. Q= -0.000 lam=     0.0     freq=   820. Q= -0.000 lam=     0.0
  35     freq=   949. Q= -0.000 lam=     0.0     freq=   836. Q= -0.000 lam=     0.0
  36     freq=   961. Q=  0.000 lam=     0.0     freq=   848. Q=  0.000 lam=     0.0
  37     freq=   993. Q=  0.000 lam=     0.0     freq=   911. Q=  0.000 lam=     0.0
  38     freq=   995. Q=  0.000 lam=     0.0     freq=   911. Q=  0.000 lam=     0.0
  39     freq=  1004. Q= -0.000 lam=     0.0     freq=   957. Q= -0.000 lam=     0.0
  40     freq=  1004. Q= -0.000 lam=     0.0     freq=   957. Q= -0.000 lam=     0.0
  41     freq=  1015. Q= -0.000 lam=     0.0     freq=   973. Q= -0.000 lam=     0.0
  42     freq=  1018. Q=  0.000 lam=     0.0     freq=   989. Q=  0.000 lam=     0.0
  43     freq=  1096. Q= -0.032 lam=     0.6     freq=  1082. Q= -0.000 lam=     0.0
  44     freq=  1122. Q= -0.000 lam=     0.0     freq=  1084. Q= -0.026 lam=     0.4
  45     freq=  1145. Q= -0.000 lam=     0.0     freq=  1110. Q= -0.000 lam=     0.0
  46     freq=  1169. Q=  0.140 lam=    11.5     freq=  1136. Q=  0.000 lam=     0.0
  47     freq=  1171. Q= -0.000 lam=     0.0     freq=  1142. Q= -0.147 lam=    12.3
  48     freq=  1203. Q= -0.000 lam=     0.0     freq=  1168. Q= -0.000 lam=     0.0
  49     freq=  1214. Q=  0.000 lam=     0.0     freq=  1189. Q=  0.000 lam=     0.0
  50     freq=  1236. Q=  0.000 lam=     0.0     freq=  1208. Q=  0.000 lam=     0.0
  51     freq=  1249. Q=  0.000 lam=     0.0     freq=  1222. Q=  0.000 lam=     0.0
  52     freq=  1265. Q= -0.077 lam=     3.8     freq=  1247. Q= -0.017 lam=     0.2
  53     freq=  1267. Q= -0.000 lam=     0.0     freq=  1262. Q= -0.000 lam=     0.0
  54     freq=  1365. Q=  0.173 lam=    20.5     freq=  1295. Q=  0.000 lam=     0.0
  55     freq=  1371. Q= -0.000 lam=     0.0     freq=  1300. Q= -0.000 lam=     0.0
  56     freq=  1374. Q= -0.000 lam=     0.0     freq=  1352. Q= -0.161 lam=    17.5
  57     freq=  1425. Q=  0.246 lam=    43.0     freq=  1408. Q=  0.233 lam=    38.1
  58     freq=  1449. Q=  0.000 lam=     0.0     freq=  1418. Q=  0.000 lam=     0.0
  59     freq=  1452. Q=  0.000 lam=     0.0     freq=  1433. Q=  0.000 lam=     0.0
  60     freq=  1464. Q=  0.000 lam=     0.0     freq=  1438. Q=  0.000 lam=     0.0
  61     freq=  1466. Q= -0.000 lam=     0.0     freq=  1448. Q= -0.000 lam=     0.0
  62     freq=  1517. Q=  0.000 lam=     0.0     freq=  1500. Q=  0.000 lam=     0.0
  63     freq=  1521. Q=  0.000 lam=     0.0     freq=  1503. Q=  0.000 lam=     0.0
  64     freq=  1561. Q=  0.075 lam=     4.3     freq=  1530. Q=  0.000 lam=     0.0
  65     freq=  1582. Q= -0.000 lam=     0.0     freq=  1534. Q= -0.093 lam=     6.6
  66     freq=  1587. Q= -0.000 lam=     0.0     freq=  1567. Q= -0.000 lam=     0.0
  67     freq=  1593. Q= -0.000 lam=     0.0     freq=  1575. Q= -0.000 lam=     0.0
  68     freq=  1659. Q= -0.095 lam=     7.6     freq=  1611. Q= -0.128 lam=    13.2
  69     freq=  3183. Q=  0.000 lam=     0.0     freq=  3160. Q=  0.000 lam=     0.0
  70     freq=  3183. Q=  0.000 lam=     0.0     freq=  3161. Q=  0.018 lam=     0.5
  71     freq=  3184. Q=  0.013 lam=     0.3     freq=  3162. Q=  0.000 lam=     0.0
  72     freq=  3185. Q= -0.000 lam=     0.0     freq=  3163. Q= -0.000 lam=     0.0
  73     freq=  3188. Q=  0.000 lam=     0.0     freq=  3171. Q=  0.000 lam=     0.0
  74     freq=  3189. Q= -0.000 lam=     0.0     freq=  3171. Q= -0.000 lam=     0.0
  75     freq=  3197. Q= -0.000 lam=     0.0     freq=  3178. Q= -0.000 lam=     0.0
  76     freq=  3197. Q= -0.003 lam=     0.0     freq=  3179. Q= -0.000 lam=     0.0
  77     freq=  3208. Q=  0.000 lam=     0.0     freq=  3185. Q=  0.000 lam=     0.0
  78     freq=  3208. Q= -0.019 lam=     0.6     freq=  3186. Q= -0.013 lam=     0.3

 total reorg energy (cm**-1, kcal/mol)=      207.      201.      0.59      0.57
 Nber of molecules processed=           2
