 Enter ifcurve (0=recti, 1=orth curvi, 2=apprx curvi, -1 = skip
 And atom ordering flag, 0= never changes, 1= use the first order thenceforth,
  2= deduce it (does read on fail), 3= always read it
 Reading file: 
 ./Phenyls_2_C0S0.log                                                           
                                          
  Entering Gaussian System, Link 0=g16                                          
  
 Gaussian format, type: g94, g98, g03= F F F
  #P Geom=AllCheck Guess=TCheck SCRF=Check GenChk RB3LYP/6-311G(d,p) Fre    
 energy type= B3LYP   
 Original G94 input coords:
  6  7.945362  0.000000  0.000000
  6  7.237838 -1.199101  0.000000
  6  5.847490 -1.197636  0.000000
  6  5.111112  0.000000  0.000000
  6  5.847490  1.197636  0.000000
  6  7.237838  1.199101  0.000000
  6  3.621273  0.000000  0.000000
  6  2.875277  1.189995  0.000000
  6  1.488552  1.190311  0.000000
  6  0.742911  0.000000  0.000000
  6  1.488552 -1.190311  0.000000
  6  2.875277 -1.189995  0.000000
  6 -0.742911  0.000000  0.000000
  6 -1.488552  1.190311  0.000000
  6 -2.875277  1.189995  0.000000
  6 -3.621273  0.000000  0.000000
  6 -2.875277 -1.189995  0.000000
  6 -1.488552 -1.190311  0.000000
  6 -5.111112  0.000000  0.000000
  6 -5.847490  1.197636  0.000000
  6 -7.237838  1.199101  0.000000
  6 -7.945362  0.000000  0.000000
  6 -7.237838 -1.199101  0.000000
  6 -5.847490 -1.197636  0.000000
  1  9.029385  0.000000  0.000000
  1  7.769332 -2.144477  0.000000
  1  5.338587 -2.152321  0.000000
  1  5.338587  2.152321  0.000000
  1  7.769332  2.144477  0.000000
  1  3.375536  2.148976  0.000000
  1  0.986964  2.149035  0.000000
  1  0.986964 -2.149035  0.000000
  1  3.375536 -2.148976  0.000000
  1 -0.986964  2.149035  0.000000
  1 -3.375536  2.148976  0.000000
  1 -3.375536 -2.148976  0.000000
  1 -0.986964 -2.149035  0.000000
  1 -5.338587  2.152321  0.000000
  1 -7.769332  2.144477  0.000000
  1 -9.029385  0.000000  0.000000
  1 -7.769332 -2.144477  0.000000
  1 -5.338587 -2.152321  0.000000
 nber atoms=          42
 Original standard coords:
  6  0.000000  0.000000  7.945362
  6  0.000000  1.199101  7.237838
  6  0.000000  1.197636  5.847490
  6  0.000000  0.000000  5.111112
  6  0.000000 -1.197636  5.847490
  6  0.000000 -1.199101  7.237838
  6  0.000000  0.000000  3.621273
  6  0.000000 -1.189995  2.875277
  6  0.000000 -1.190311  1.488552
  6  0.000000  0.000000  0.742911
  6  0.000000  1.190311  1.488552
  6  0.000000  1.189995  2.875277
  6  0.000000  0.000000 -0.742911
  6  0.000000 -1.190311 -1.488552
  6  0.000000 -1.189995 -2.875277
  6  0.000000  0.000000 -3.621273
  6  0.000000  1.189995 -2.875277
  6  0.000000  1.190311 -1.488552
  6  0.000000  0.000000 -5.111112
  6  0.000000 -1.197636 -5.847490
  6  0.000000 -1.199101 -7.237838
  6  0.000000  0.000000 -7.945362
  6  0.000000  1.199101 -7.237838
  6  0.000000  1.197636 -5.847490
  1  0.000000  0.000000  9.029385
  1  0.000000  2.144477  7.769332
  1  0.000000  2.152321  5.338587
  1  0.000000 -2.152321  5.338587
  1  0.000000 -2.144477  7.769332
  1  0.000000 -2.148976  3.375536
  1  0.000000 -2.149035  0.986964
  1  0.000000  2.149035  0.986964
  1  0.000000  2.148976  3.375536
  1  0.000000 -2.149035 -0.986964
  1  0.000000 -2.148976 -3.375536
  1  0.000000  2.148976 -3.375536
  1  0.000000  2.149035 -0.986964
  1  0.000000 -2.152321 -5.338587
  1  0.000000 -2.144477 -7.769332
  1  0.000000  0.000000 -9.029385
  1  0.000000  2.144477 -7.769332
  1  0.000000  2.152321 -5.338587
  SCF Done:  E(RB3LYP) =  -925.628633446     A.U. after    1 cycles             
  
          23          40 "  -925.628633446"
After scan for Atom:   Atom  AN      X      Y      Z        X      Y      Z        X      Y      Z   
After scan for Atom:   Atom  AN      X      Y      Z        X      Y      Z        X      Y      Z   
After scan for Atom:   Atom  AN      X      Y      Z        X      Y      Z        X      Y      Z   
After scan for Atom:   Atom  AN      X      Y      Z        X      Y      Z        X      Y      Z   
After scan for Atom:   Atom  AN      X      Y      Z        X      Y      Z        X      Y      Z   
After scan for Atom:   Atom  AN      X      Y      Z        X      Y      Z        X      Y      Z   
After scan for Atom:   Atom  AN      X      Y      Z        X      Y      Z        X      Y      Z   
After scan for Atom:   Atom  AN      X      Y      Z        X      Y      Z        X      Y      Z   
After scan for Atom:   Atom  AN      X      Y      Z        X      Y      Z        X      Y      Z   
After scan for Atom:   Atom  AN      X      Y      Z        X      Y      Z        X      Y      Z   
After scan for Atom:   Atom  AN      X      Y      Z        X      Y      Z        X      Y      Z   
After scan for Atom:   Atom  AN      X      Y      Z        X      Y      Z        X      Y      Z   
After scan for Atom:   Atom  AN      X      Y      Z        X      Y      Z        X      Y      Z   
After scan for Atom:   Atom  AN      X      Y      Z        X      Y      Z        X      Y      Z   
After scan for Atom:   Atom  AN      X      Y      Z        X      Y      Z        X      Y      Z   
After scan for Atom:   Atom  AN      X      Y      Z        X      Y      Z        X      Y      Z   
After scan for Atom:   Atom  AN      X      Y      Z        X      Y      Z        X      Y      Z   
After scan for Atom:   Atom  AN      X      Y      Z        X      Y      Z        X      Y      Z   
After scan for Atom:   Atom  AN      X      Y      Z        X      Y      Z        X      Y      Z   
After scan for Atom:   Atom  AN      X      Y      Z        X      Y      Z        X      Y      Z   
After scan for Atom:   Atom  AN      X      Y      Z        X      Y      Z        X      Y      Z   
After scan for Atom:   Atom  AN      X      Y      Z        X      Y      Z        X      Y      Z   
After scan for Atom:   Atom  AN      X      Y      Z        X      Y      Z        X      Y      Z   
After scan for Atom:   Atom  AN      X      Y      Z        X      Y      Z        X      Y      Z   
After scan for Atom:   Atom  AN      X      Y      Z        X      Y      Z        X      Y      Z   
After scan for Atom:   Atom  AN      X      Y      Z        X      Y      Z        X      Y      Z   
After scan for Atom:   Atom  AN      X      Y      Z        X      Y      Z        X      Y      Z   
After scan for Atom:   Atom  AN      X      Y      Z        X      Y      Z        X      Y      Z   
After scan for Atom:   Atom  AN      X      Y      Z        X      Y      Z        X      Y      Z   
After scan for Atom:   Atom  AN      X      Y      Z        X      Y      Z        X      Y      Z   
After scan for Atom:   Atom  AN      X      Y      Z        X      Y      Z        X      Y      Z   
After scan for Atom:   Atom  AN      X      Y      Z        X      Y      Z        X      Y      Z   
After scan for Atom:   Atom  AN      X      Y      Z        X      Y      Z        X      Y      Z   
After scan for Atom:   Atom  AN      X      Y      Z        X      Y      Z        X      Y      Z   
After scan for Atom:   Atom  AN      X      Y      Z        X      Y      Z        X      Y      Z   
After scan for Atom:   Atom  AN      X      Y      Z        X      Y      Z        X      Y      Z   
After scan for Atom:   Atom  AN      X      Y      Z        X      Y      Z        X      Y      Z   
After scan for Atom:   Atom  AN      X      Y      Z        X      Y      Z        X      Y      Z   
After scan for Atom:   Atom  AN      X      Y      Z        X      Y      Z        X      Y      Z   
After scan for Atom:   Atom  AN      X      Y      Z        X      Y      Z        X      Y      Z   
 g94    frequencies=
     0.0    0.0    0.0    0.0    0.0    0.0 -102.3  -80.9  -43.4   21.1
    58.1   58.9  123.2  142.2  171.6  173.5  230.0  257.4  336.1  344.4
   365.5  381.7  394.6  409.0  416.1  430.8  457.0  476.1  477.3  508.8
   552.6  556.4  626.2  630.5  633.3  653.9  669.4  687.9  692.6  697.4
   726.9  732.1  753.9  772.4  787.8  799.8  805.2  816.4  839.1  842.1
   846.3  859.4  919.1  919.3  938.0  949.2  957.3  960.4  972.7  975.0
   998.1  998.2 1011.3 1014.5 1016.1 1021.4 1022.5 1045.0 1061.0 1065.2
  1065.3 1111.6 1112.1 1155.7 1172.0 1187.3 1189.6 1208.5 1214.6 1241.7
  1250.7 1289.2 1290.1 1295.5 1295.9 1310.6 1311.6 1319.6 1348.2 1357.0
  1366.7 1374.4 1436.1 1444.5 1478.1 1486.8 1518.7 1529.1 1553.3 1574.6
  1584.1 1605.2 1623.0 1624.0 1635.5 1642.2 1650.2 1659.7 3160.1 3160.2
  3168.3 3168.4 3179.4 3180.7 3182.9 3184.8 3187.9 3189.6 3193.7 3196.1
  3201.3 3202.3 3208.4 3210.3 3211.1 3213.9
 g94    symmetries=
                                                AU     B1     AU     B3
      B2     B2     B3     B3     B2     AG     B2     B3     B1     B2
      B3     AU     B1     AU     B1     B2     B3     B3     AG     B2
      B3     B2     B1     B3     B2     B3     B2     AG     B3     B2
      B3     B2     B1     B3     B2     AU     AG     B1     AU     B3
      B1     B2     B3     B2     AU     B2     B1     B3     AU     B1
      B2     B3     B1     AG     B1     AG     B1     AG     B1     AG
      B1     B3     B2     B3     B2     B3     B2     B1     AG     B1
      AG     B1     B2     AG     B3     AG     B2     B3     B3     B2
      B2     B3     B2     B3     B2     B3     B1     AG     B1     AG
      B2     B3     B2     B3     AG     B1     AG     B1     B1     AG
      B3     B2     B1     B3     AG     B1     B2     AG     B3     B1
      B2     AG     B3     B1     B2     AG
 atomic masses:
 12.0000 12.0000 12.0000 12.0000 12.0000 12.0000 12.0000 12.0000 12.0000 12.0000
 12.0000 12.0000 12.0000 12.0000 12.0000 12.0000 12.0000 12.0000 12.0000 12.0000
 12.0000 12.0000 12.0000 12.0000  1.0078  1.0078  1.0078  1.0078  1.0078  1.0078
  1.0078  1.0078  1.0078  1.0078  1.0078  1.0078  1.0078  1.0078  1.0078  1.0078
  1.0078  1.0078
 looking for force constants in 
 ./Phenyls_2_C0S0.fchk                                                          
  
 Cartesian Force Constants                  R   N=        8001                  
  
 n3=         126        8001
 g94-fc frequencies=
  -102.3  -80.9  -43.4   -1.0   -0.6   -0.0   -0.0    0.0    7.2   21.1
    58.1   58.9  123.2  142.2  171.6  173.5  230.0  257.4  336.1  344.4
   365.5  381.7  394.6  409.0  416.2  430.8  457.0  476.1  477.3  508.8
   552.6  556.4  626.2  630.6  633.3  653.9  669.4  687.9  692.7  697.4
   726.9  732.1  753.9  772.4  787.8  799.9  805.2  816.5  839.1  842.1
   846.3  859.4  919.2  919.3  938.0  949.3  957.4  960.5  972.8  975.1
   998.1  998.2 1011.4 1014.5 1016.2 1021.4 1022.5 1045.0 1061.1 1065.2
  1065.3 1111.7 1112.1 1155.7 1172.0 1187.4 1189.6 1208.6 1214.6 1241.7
  1250.7 1289.2 1290.1 1295.5 1296.0 1310.6 1311.6 1319.7 1348.3 1357.1
  1366.8 1374.5 1436.1 1444.5 1478.2 1486.9 1518.7 1529.1 1553.3 1574.6
  1584.1 1605.2 1623.0 1624.0 1635.5 1642.2 1650.2 1659.7 3160.2 3160.2
  3168.4 3168.4 3179.4 3180.7 3182.9 3184.8 3188.0 3189.6 3193.8 3196.2
  3201.4 3202.4 3208.5 3210.3 3211.2 3214.0
 at 99999: n3=         126
 symm operator            1 :  T  nop=           1
 symm operator            2 :  T  nop=           2
 symm operator            3 :  T  nop=           3
 symm operator            4 :  T  nop=           4
 symm operator            5 :  T  nop=           5
 symm operator            6 :  T  nop=           6
 symm operator            7 :  T  nop=           7
 The point group of the molecule is D2H
 enforcing symm op           1  jsymt=          -1          -1           1
 enforcing symm op           2  jsymt=          -1           1          -1
 enforcing symm op           3  jsymt=           1          -1          -1
 enforcing symm op           4  jsymt=          -1          -1          -1
 enforcing symm op           5  jsymt=           1           1          -1
 enforcing symm op           6  jsymt=           1          -1           1
 enforcing symm op           7  jsymt=          -1           1           1
 cartesian coord symmetries:
 Ag :   21 Au :    8 B1g:    8 B1u:   21 B2g:   13 B2u:   21 B3g:   21 B3u:   13
 Symmetry rotation matrix:
   1.00000   0.00000   0.00000
   0.00000   1.00000   0.00000
   0.00000   0.00000   1.00000

 Projecting out zero-frequency components
 generating redundant internal coords
         300        3600          42
 search for int coords
   1 str   2   1   1.392
   2 str   3   2   1.390
   3 str   4   3   1.406
   4 str   5   4   1.406
   5 str   6   1   1.392
   6 str   6   5   1.390
   7 str   7   4   1.490
   8 str   8   7   1.404
   9 str   9   8   1.387
  10 str  10   9   1.405
  11 str  11  10   1.405
  12 str  12   7   1.404
  13 str  12  11   1.387
  14 str  13  10   1.486
  15 str  14  13   1.405
  16 str  15  14   1.387
  17 str  16  15   1.404
  18 str  17  16   1.404
  19 str  18  13   1.405
  20 str  18  17   1.387
  21 str  19  16   1.490
  22 str  20  19   1.406
  23 str  21  20   1.390
  24 str  22  21   1.392
  25 str  23  22   1.392
  26 str  24  19   1.406
  27 str  24  23   1.390
  28 str  25   1   1.084
  29 str  26   2   1.085
  30 str  27   3   1.082
  31 str  28   5   1.082
  32 str  29   6   1.085
  33 str  30   8   1.082
  34 str  31   9   1.082
  35 str  32  11   1.082
  36 str  33  12   1.082
  37 str  34  14   1.082
  38 str  35  15   1.082
  39 str  36  17   1.082
  40 str  37  18   1.082
  41 str  38  20   1.082
  42 str  39  21   1.085
  43 str  40  22   1.084
  44 str  41  23   1.085
  45 str  42  24   1.082
 nber stretches=          45
  46 ben   1   2   3
  47 prop tor   1   2   3   4
  48 prop tor   1   2   3  27
  49 ben   1   2  26
  50 ben   1   6   5
  51 ben   1   6  29
  52 ben   2   1   6
  53 prop tor   2   1   6   5
  54 prop tor   2   1   6  29
  55 ben   2   1  25
  56 ben   2   3   4
  57 prop tor   2   3   4   5
  58 prop tor   2   3   4   7
  59 ben   2   3  27
  60 ben   3   2  26
  61 ben   3   4   5
  62 prop tor   3   4   5   6
  63 prop tor   3   4   5  28
  64 ben   3   4   7
  65 prop tor   3   4   7   8
  66 prop tor   3   4   7  12
  67 ben   4   3  27
  68 ben   4   5   6
  69 prop tor   4   5   6   1
  70 prop tor   4   5   6  29
  71 ben   4   5  28
  72 ben   4   7   8
  73 prop tor   4   7   8   9
  74 prop tor   4   7   8  30
  75 ben   4   7  12
  76 prop tor   4   7  12  11
  77 prop tor   4   7  12  33
  78 ben   5   4   7
  79 prop tor   5   4   7   8
  80 prop tor   5   4   7  12
  81 ben   5   6  29
  82 prop tor   6   1   2   3
  83 prop tor   6   1   2  26
  84 ben   6   1  25
  85 ben   6   5  28
  86 prop tor   7   4   5   6
  87 prop tor   7   4   5  28
  88 ben   7   8   9
  89 prop tor   7   8   9  10
  90 prop tor   7   8   9  31
  91 ben   7   8  30
  92 ben   7  12  11
  93 ben   7  12  33
  94 ben   8   7  12
  95 prop tor   8   7  12  11
  96 prop tor   8   7  12  33
  97 ben   8   9  10
  98 prop tor   8   9  10  11
  99 prop tor   8   9  10  13
 100 ben   8   9  31
 101 ben   9   8  30
 102 ben   9  10  11
 103 prop tor   9  10  11  12
 104 prop tor   9  10  11  32
 105 ben   9  10  13
 106 prop tor   9  10  13  14
 107 prop tor   9  10  13  18
 108 ben  10   9  31
 109 ben  10  11  12
 110 prop tor  10  11  12   7
 111 prop tor  10  11  12  33
 112 ben  10  11  32
 113 ben  10  13  14
 114 prop tor  10  13  14  15
 115 prop tor  10  13  14  34
 116 ben  10  13  18
 117 prop tor  10  13  18  17
 118 prop tor  10  13  18  37
 119 ben  11  10  13
 120 prop tor  11  10  13  14
 121 prop tor  11  10  13  18
 122 ben  11  12  33
 123 prop tor  12   7   8   9
 124 prop tor  12   7   8  30
 125 ben  12  11  32
 126 prop tor  13  10  11  12
 127 prop tor  13  10  11  32
 128 ben  13  14  15
 129 prop tor  13  14  15  16
 130 prop tor  13  14  15  35
 131 ben  13  14  34
 132 ben  13  18  17
 133 ben  13  18  37
 134 ben  14  13  18
 135 prop tor  14  13  18  17
 136 prop tor  14  13  18  37
 137 ben  14  15  16
 138 prop tor  14  15  16  17
 139 prop tor  14  15  16  19
 140 ben  14  15  35
 141 ben  15  14  34
 142 ben  15  16  17
 143 prop tor  15  16  17  18
 144 prop tor  15  16  17  36
 145 ben  15  16  19
 146 prop tor  15  16  19  20
 147 prop tor  15  16  19  24
 148 ben  16  15  35
 149 ben  16  17  18
 150 prop tor  16  17  18  13
 151 prop tor  16  17  18  37
 152 ben  16  17  36
 153 ben  16  19  20
 154 prop tor  16  19  20  21
 155 prop tor  16  19  20  38
 156 ben  16  19  24
 157 prop tor  16  19  24  23
 158 prop tor  16  19  24  42
 159 ben  17  16  19
 160 prop tor  17  16  19  20
 161 prop tor  17  16  19  24
 162 ben  17  18  37
 163 prop tor  18  13  14  15
 164 prop tor  18  13  14  34
 165 ben  18  17  36
 166 prop tor  19  16  17  18
 167 prop tor  19  16  17  36
 168 ben  19  20  21
 169 prop tor  19  20  21  22
 170 prop tor  19  20  21  39
 171 ben  19  20  38
 172 ben  19  24  23
 173 ben  19  24  42
 174 ben  20  19  24
 175 prop tor  20  19  24  23
 176 prop tor  20  19  24  42
 177 ben  20  21  22
 178 prop tor  20  21  22  23
 179 prop tor  20  21  22  40
 180 ben  20  21  39
 181 ben  21  20  38
 182 ben  21  22  23
 183 prop tor  21  22  23  24
 184 prop tor  21  22  23  41
 185 ben  21  22  40
 186 ben  22  21  39
 187 ben  22  23  24
 188 prop tor  22  23  24  19
 189 prop tor  22  23  24  42
 190 ben  22  23  41
 191 ben  23  22  40
 192 ben  23  24  42
 193 prop tor  24  19  20  21
 194 prop tor  24  19  20  38
 195 ben  24  23  41
 196 prop tor  25   1   2   3
 197 prop tor  25   1   2  26
 198 prop tor  25   1   6   5
 199 prop tor  25   1   6  29
 200 prop tor  26   2   3   4
 201 prop tor  26   2   3  27
 202 prop tor  27   3   4   5
 203 prop tor  27   3   4   7
 204 prop tor  28   5   6   1
 205 prop tor  28   5   6  29
 206 prop tor  30   8   9  10
 207 prop tor  30   8   9  31
 208 prop tor  31   9  10  11
 209 prop tor  31   9  10  13
 210 prop tor  32  11  12   7
 211 prop tor  32  11  12  33
 212 prop tor  34  14  15  16
 213 prop tor  34  14  15  35
 214 prop tor  35  15  16  17
 215 prop tor  35  15  16  19
 216 prop tor  36  17  18  13
 217 prop tor  36  17  18  37
 218 prop tor  38  20  21  22
 219 prop tor  38  20  21  39
 220 prop tor  39  21  22  23
 221 prop tor  39  21  22  40
 222 prop tor  40  22  23  24
 223 prop tor  40  22  23  41
 224 prop tor  41  23  24  19
 225 prop tor  41  23  24  42
 nber bend=              72
 nber lin bend=           0
 nber prop tor=         108
 nber impr tor=           0
 nber tot redund int=         225
 Eigenvalues of G in red int coords
    Gval -0.00000000 -0.00000000 -0.00000000 -0.00000000 -0.00000000 -0.00000000 -0.00000000 -0.00000000
    Gval -0.00000000 -0.00000000 -0.00000000 -0.00000000 -0.00000000 -0.00000000 -0.00000000 -0.00000000
    Gval -0.00000000 -0.00000000 -0.00000000 -0.00000000 -0.00000000 -0.00000000 -0.00000000 -0.00000000
    Gval -0.00000000 -0.00000000 -0.00000000 -0.00000000 -0.00000000 -0.00000000 -0.00000000 -0.00000000
    Gval -0.00000000 -0.00000000 -0.00000000 -0.00000000 -0.00000000 -0.00000000 -0.00000000 -0.00000000
    Gval -0.00000000 -0.00000000 -0.00000000 -0.00000000 -0.00000000 -0.00000000 -0.00000000 -0.00000000
    Gval  0.00000000  0.00000000  0.00000000  0.00000000  0.00000000  0.00000000  0.00000000  0.00000000
    Gval  0.00000000  0.00000000  0.00000000  0.00000000  0.00000000  0.00000000  0.00000000  0.00000000
    Gval  0.00000000  0.00000000  0.00000000  0.00000000  0.00000000  0.00000000  0.00000000  0.00000000
    Gval  0.00000000  0.00000000  0.00000000  0.00000000  0.00000000  0.00000000  0.00000000  0.00000000
    Gval  0.00000000  0.00000000  0.00000000  0.00000000  0.00000000  0.00000000  0.00000000  0.00000000
    Gval  0.00000000  0.00000000  0.00000000  0.00000000  0.00000000  0.00000000  0.00000000  0.00000000
    Gval  0.00000000  0.00000000  0.00000000  0.00000000  0.00000000  0.00000000  0.00000000  0.00000000
    Gval  0.00000000  0.00000048  0.00000196  0.00000206  0.00000292  0.00000775  0.00000842  0.00001254
    Gval  0.00001476  0.00001535  0.00002033  0.00002812  0.00003021  0.00004281  0.00004524  0.00004591
    Gval  0.00004949  0.00005083  0.00005794  0.00005794  0.00005926  0.00005967  0.00005978  0.00006741
    Gval  0.00006987  0.00007808  0.00008264  0.00009334  0.00009894  0.00010606  0.00011693  0.00011720
    Gval  0.00011791  0.00011802  0.00012101  0.00012278  0.00012800  0.00013385  0.00016967  0.00021570
    Gval  0.00024288  0.00025879  0.00026028  0.00026436  0.00028229  0.00028806  0.00030318  0.00035850
    Gval  0.00036512  0.00038165  0.00039243  0.00039502  0.00040415  0.00041644  0.00043284  0.00053101
    Gval  0.00054134  0.00059175  0.00059308  0.00059308  0.00059342  0.00059344  0.00059648  0.00059838
    Gval  0.00059969  0.00059983  0.00060406  0.00060406  0.00062262  0.00062264  0.00062392  0.00063248
    Gval  0.00063546  0.00064429  0.00064904  0.00065132  0.00066107  0.00066109  0.00076072  0.00093187
    Gval  0.00104120  0.00104121  0.00106889  0.00107842  0.00108199  0.00110940  0.00111024  0.00111141
    Gval  0.00111248  0.00113882  0.00113883  0.00115085  0.00115151  0.00116809  0.00116894  0.00116995
    Gval  0.00117009  0.00117278  0.00117278  0.00142961  0.00143175  0.00155936  0.00166037  0.00184526
    Gval  0.00199633  0.00234484  0.00234884  0.00235923  0.00236974  0.00242309  0.00267183  0.00313595
    Gval  0.00314797  0.00356114  0.00363929  0.00366454  0.00367764  0.00370778  0.00370825  0.00406598
    Gval  0.00406600
  4.791626447113471E-007  4.791626447113471E-007
  1.961317139362100E-006  4.791626447113471E-007
  2.057105964450408E-006  4.791626447113471E-007
  2.919011800061494E-006  4.791626447113471E-007
  7.751172932192643E-006  4.791626447113471E-007
  8.418690392033950E-006  4.791626447113471E-007
  1.253743264298929E-005  4.791626447113471E-007
  1.476423846241041E-005  4.791626447113471E-007
  1.534821857237923E-005  4.791626447113471E-007
  2.033480099127958E-005  4.791626447113471E-007
  2.812440463926613E-005  4.791626447113471E-007
  3.021198438758575E-005  4.791626447113471E-007
  4.280585718851131E-005  4.791626447113471E-007
  4.524097301036714E-005  4.791626447113471E-007
  4.590670714264879E-005  4.791626447113471E-007
  4.948543417288655E-005  4.791626447113471E-007
  5.082577229438061E-005  4.791626447113471E-007
  5.793913654456697E-005  4.791626447113471E-007
  5.794384180737395E-005  4.791626447113471E-007
  5.926126842293528E-005  4.791626447113471E-007
  5.966523414386922E-005  4.791626447113471E-007
  5.978402216732064E-005  4.791626447113471E-007
  6.740857770537277E-005  4.791626447113471E-007
  6.986955257304875E-005  4.791626447113471E-007
  7.808209751723954E-005  4.791626447113471E-007
  8.264135044476183E-005  4.791626447113471E-007
  9.334142640068779E-005  4.791626447113471E-007
  9.894152865747449E-005  4.791626447113471E-007
  1.060645334652674E-004  4.791626447113471E-007
  1.169330665217542E-004  4.791626447113471E-007
  1.171967588363903E-004  4.791626447113471E-007
  1.179126886863487E-004  4.791626447113471E-007
  1.180190715028022E-004  4.791626447113471E-007
  1.210063240029218E-004  4.791626447113471E-007
  1.227804908286898E-004  4.791626447113471E-007
  1.280029783933070E-004  4.791626447113471E-007
  1.338533906119170E-004  4.791626447113471E-007
  1.696716770549584E-004  4.791626447113471E-007
  2.156960120497900E-004  4.791626447113471E-007
  2.428818844547457E-004  4.791626447113471E-007
  2.587922186314409E-004  4.791626447113471E-007
  2.602830733815216E-004  4.791626447113471E-007
  2.643593419498108E-004  4.791626447113471E-007
  2.822892000458226E-004  4.791626447113471E-007
  2.880551947612051E-004  4.791626447113471E-007
  3.031762303659071E-004  4.791626447113471E-007
  3.584953045641309E-004  4.791626447113471E-007
  3.651175416234732E-004  4.791626447113471E-007
  3.816462652097783E-004  4.791626447113471E-007
  3.924308010808248E-004  4.791626447113471E-007
  3.950158910628091E-004  4.791626447113471E-007
  4.041458373580790E-004  4.791626447113471E-007
  4.164441053298642E-004  4.791626447113471E-007
  4.328419306254255E-004  4.791626447113471E-007
  5.310072804619872E-004  4.791626447113471E-007
  5.413434597608430E-004  4.791626447113471E-007
  5.917543972044022E-004  4.791626447113471E-007
  5.930750263709357E-004  4.791626447113471E-007
  5.930750265296786E-004  4.791626447113471E-007
  5.934181355005438E-004  4.791626447113471E-007
  5.934361227598271E-004  4.791626447113471E-007
  5.964830511518206E-004  4.791626447113471E-007
  5.983829087668905E-004  4.791626447113471E-007
  5.996861115086223E-004  4.791626447113471E-007
  5.998280683981909E-004  4.791626447113471E-007
  6.040567637250391E-004  4.791626447113471E-007
  6.040573335740431E-004  4.791626447113471E-007
  6.226204788751549E-004  4.791626447113471E-007
  6.226357870619833E-004  4.791626447113471E-007
  6.239175091121750E-004  4.791626447113471E-007
  6.324781491351349E-004  4.791626447113471E-007
  6.354563528520171E-004  4.791626447113471E-007
  6.442908909408412E-004  4.791626447113471E-007
  6.490419123521853E-004  4.791626447113471E-007
  6.513154875518790E-004  4.791626447113471E-007
  6.610669614600844E-004  4.791626447113471E-007
  6.610898085620959E-004  4.791626447113471E-007
  7.607198543789727E-004  4.791626447113471E-007
  9.318693082356116E-004  4.791626447113471E-007
  1.041198742997484E-003  4.791626447113471E-007
  1.041206203635498E-003  4.791626447113471E-007
  1.068892999034312E-003  4.791626447113471E-007
  1.078419166537604E-003  4.791626447113471E-007
  1.081990397668414E-003  4.791626447113471E-007
  1.109397182380358E-003  4.791626447113471E-007
  1.110239496881199E-003  4.791626447113471E-007
  1.111411353428543E-003  4.791626447113471E-007
  1.112478685889405E-003  4.791626447113471E-007
  1.138823602599198E-003  4.791626447113471E-007
  1.138827879452127E-003  4.791626447113471E-007
  1.150850268061720E-003  4.791626447113471E-007
  1.151513936937092E-003  4.791626447113471E-007
  1.168093356773062E-003  4.791626447113471E-007
  1.168944551953167E-003  4.791626447113471E-007
  1.169947880475850E-003  4.791626447113471E-007
  1.170089527169738E-003  4.791626447113471E-007
  1.172775609751932E-003  4.791626447113471E-007
  1.172775609761739E-003  4.791626447113471E-007
  1.429613377470758E-003  4.791626447113471E-007
  1.431753555825925E-003  4.791626447113471E-007
  1.559358024981409E-003  4.791626447113471E-007
  1.660372365521125E-003  4.791626447113471E-007
  1.845264700257174E-003  4.791626447113471E-007
  1.996327202789030E-003  4.791626447113471E-007
  2.344839719020097E-003  4.791626447113471E-007
  2.348838129205672E-003  4.791626447113471E-007
  2.359232778864990E-003  4.791626447113471E-007
  2.369736717348311E-003  4.791626447113471E-007
  2.423090055767042E-003  4.791626447113471E-007
  2.671833765789618E-003  4.791626447113471E-007
  3.135954962112401E-003  4.791626447113471E-007
  3.147970992652494E-003  4.791626447113471E-007
  3.561140362010288E-003  4.791626447113471E-007
  3.639287009405440E-003  4.791626447113471E-007
  3.664543679459504E-003  4.791626447113471E-007
  3.677639606011270E-003  4.791626447113471E-007
  3.707779883567439E-003  4.791626447113471E-007
  3.708248756242799E-003  4.791626447113471E-007
  4.065984683247157E-003  4.791626447113471E-007
  4.066001391693126E-003  4.791626447113471E-007
 cut=1d-8, nber non-redundant internal coords=         120
 Check on Eigenvals of non-red overlap matrix:
  0.00000048  0.00000196  0.00000206  0.00000292  0.00000775  0.00000842  0.00001254  0.00001476
  0.00001535  0.00002033  0.00002812  0.00003021  0.00004281  0.00004524  0.00004591  0.00004949
  0.00005083  0.00005794  0.00005794  0.00005926  0.00005967  0.00005978  0.00006741  0.00006987
  0.00007808  0.00008264  0.00009334  0.00009894  0.00010606  0.00011693  0.00011720  0.00011791
  0.00011802  0.00012101  0.00012278  0.00012800  0.00013385  0.00016967  0.00021570  0.00024288
  0.00025879  0.00026028  0.00026436  0.00028229  0.00028806  0.00030318  0.00035850  0.00036512
  0.00038165  0.00039243  0.00039502  0.00040415  0.00041644  0.00043284  0.00053101  0.00054134
  0.00059175  0.00059308  0.00059308  0.00059342  0.00059344  0.00059648  0.00059838  0.00059969
  0.00059983  0.00060406  0.00060406  0.00062262  0.00062264  0.00062392  0.00063248  0.00063546
  0.00064429  0.00064904  0.00065132  0.00066107  0.00066109  0.00076072  0.00093187  0.00104120
  0.00104121  0.00106889  0.00107842  0.00108199  0.00110940  0.00111024  0.00111141  0.00111248
  0.00113882  0.00113883  0.00115085  0.00115151  0.00116809  0.00116894  0.00116995  0.00117009
  0.00117278  0.00117278  0.00142961  0.00143175  0.00155936  0.00166037  0.00184526  0.00199633
  0.00234484  0.00234884  0.00235923  0.00236974  0.00242309  0.00267183  0.00313595  0.00314797
  0.00356114  0.00363929  0.00366454  0.00367764  0.00370778  0.00370825  0.00406598  0.00406600
 Checking for correct frequencies
 recalc frequencies=
  -102.3  -80.9  -43.4   -0.0   -0.0   -0.0    0.0    0.0    0.0   21.1
    58.1   58.9  123.2  142.2  171.6  173.5  230.0  257.4  336.1  344.4
   365.5  381.7  394.6  409.0  416.2  430.8  457.0  476.1  477.3  508.8
   552.6  556.4  626.2  630.6  633.3  653.9  669.4  687.9  692.7  697.4
   726.9  732.1  753.9  772.4  787.8  799.9  805.2  816.5  839.1  842.1
   846.3  859.4  919.2  919.3  938.0  949.3  957.4  960.5  972.8  975.1
   998.1  998.2 1011.4 1014.5 1016.2 1021.4 1022.5 1045.0 1061.1 1065.2
  1065.3 1111.7 1112.1 1155.7 1172.0 1187.4 1189.6 1208.6 1214.6 1241.7
  1250.7 1289.2 1290.1 1295.5 1296.0 1310.6 1311.6 1319.7 1348.3 1357.1
  1366.8 1374.5 1436.1 1444.5 1478.2 1486.9 1518.7 1529.1 1553.3 1574.6
  1584.1 1605.2 1623.0 1624.0 1635.5 1642.2 1650.2 1659.7 3160.2 3160.2
  3168.4 3168.4 3179.4 3180.7 3182.9 3184.8 3188.0 3189.6 3193.8 3196.2
  3201.4 3202.4 3208.5 3210.3 3211.2 3214.0
 recalc symmetries=
     Au     B1g    Au     B3g    B1u    B2u    B2g    B1g    B3u    B3u
     B2u    B2g    B3u    B3g    B2g    Ag     B2u    B3u    B1u    B2g
     B3g    Au     B1g    Au     B1g    B2u    B3u    B3g    Ag     B2g
     B3u    B2g    B1u    B3g    B2u    B3g    B2u    Ag     B3u    B2g
     B3u    B2g    B1u    B3u    B2g    Au     Ag     B1g    Au     B3u
     B1g    B2g    B3u    B2g    Au     B2g    B1g    B3u    Au     B1g
     B2g    B3u    B1u    Ag     B1u    Ag     B1u    Ag     B1u    Ag 
     B1u    B3g    B2u    B3g    B2u    B3g    B2u    B1u    Ag     B1u
     Ag     B1u    B2u    Ag     B3g    Ag     B2u    B3g    B3g    B2u
     B2u    B3g    B2u    B3g    B2u    B3g    B1u    Ag     B1u    Ag 
     B2u    B3g    B2u    B3g    Ag     B1u    Ag     B1u    B1u    Ag 
     B3g    B2u    B1u    B3g    Ag     B1u    B2u    Ag     B3g    B1u
     B2u    Ag     B3g    B1u    B2u    Ag 
 recalc freqs check OK
 Zero-point lengths:
 24.5069 27.5582 37.6348 10.0000 10.0000 10.0000 10.0000 10.0000 10.0000 53.9204
 32.5104 32.3133 22.3317 20.7880 18.9231 18.8216 16.3460 15.4525 13.5217 13.3587
 12.9668 12.6885 12.4803 12.2588 12.1526 11.9441 11.5965 11.3622 11.3477 10.9910
 10.5457 10.5102  9.9071  9.8726  9.8514  9.6946  9.5816  9.4520  9.4196  9.3876
  9.1951  9.1625  9.0288  8.9201  8.8323  8.7658  8.7366  8.6761  8.5584  8.5429
  8.5219  8.4565  8.1771  8.1765  8.0945  8.0464  8.0123  7.9994  7.9486  7.9392
  7.8471  7.8468  7.7955  7.7832  7.7770  7.7570  7.7529  7.6689  7.6107  7.5958
  7.5956  7.4355  7.4339  7.2925  7.2416  7.1946  7.1878  7.1312  7.1133  7.0353
  7.0100  6.9046  6.9021  6.8877  6.8865  6.8480  6.8454  6.8244  6.7517  6.7297
  6.7058  6.6870  6.5419  6.5227  6.4482  6.4293  6.3614  6.3398  6.2903  6.2475
  6.2287  6.1876  6.1537  6.1518  6.1301  6.1176  6.1028  6.0853  4.4100  4.4100
  4.4043  4.4043  4.3966  4.3957  4.3942  4.3929  4.3908  4.3896  4.3867  4.3851
  4.3815  4.3808  4.3767  4.3754  4.3748  4.3729
 highest evec of mol 1
  0.0000  0.0000 -0.0077
  0.0000 -0.0133 -0.0089
  0.0000 -0.0513  0.0275
  0.0000  0.0000  0.0019
  0.0000  0.0513  0.0275
  0.0000  0.0133 -0.0089
  0.0000  0.0000 -0.0043
  0.0000  0.0827 -0.0452
  0.0000  0.0800  0.0440
  0.0000  0.0000  0.0040
  0.0000 -0.0800  0.0440
  0.0000 -0.0827 -0.0452
  0.0000  0.0000 -0.0040
  0.0000  0.0800 -0.0440
  0.0000  0.0827  0.0452
  0.0000  0.0000  0.0043
  0.0000 -0.0827  0.0452
  0.0000 -0.0800 -0.0440
  0.0000  0.0000 -0.0019
  0.0000  0.0513 -0.0275
  0.0000  0.0133  0.0089
  0.0000  0.0000  0.0077
  0.0000 -0.0133  0.0089
  0.0000 -0.0513 -0.0275
  0.0000  0.0000  0.0227
  0.0000  0.0420  0.0242
  0.0000  0.1717 -0.0953
  0.0000 -0.1717 -0.0953
  0.0000 -0.0420  0.0242
  0.0000 -0.2740  0.1481
  0.0000 -0.2651 -0.1439
  0.0000  0.2651 -0.1439
  0.0000  0.2740  0.1481
  0.0000 -0.2651  0.1439
  0.0000 -0.2740 -0.1481
  0.0000  0.2740 -0.1481
  0.0000  0.2651  0.1439
  0.0000 -0.1717  0.0953
  0.0000 -0.0420 -0.0242
  0.0000  0.0000 -0.0227
  0.0000  0.0420 -0.0242
  0.0000  0.1717  0.0953
 generating redundant internal coords
         300        3600          42
 Adding extra bonds for z output only
           6           6           6           6           6           6
           6           6           6           6           6           6
           6           6           6           6           6           6
           6           6           6           6           6           6
           1           1           1           1           1           1
           1           1           1           1           1           1
           1           1           1           1           1           1
 search for int coords
   1 str   2   1   1.392
   2 str   3   2   1.390
   3 str   4   3   1.406
   4 str   5   4   1.406
   5 str   6   1   1.392
   6 str   6   5   1.390
   7 str   7   4   1.490
   8 str   8   7   1.404
   9 str   9   8   1.387
  10 str  10   9   1.405
  11 str  11  10   1.405
  12 str  12   7   1.404
  13 str  12  11   1.387
  14 str  13  10   1.486
  15 str  14  13   1.405
  16 str  15  14   1.387
  17 str  16  15   1.404
  18 str  17  16   1.404
  19 str  18  13   1.405
  20 str  18  17   1.387
  21 str  19  16   1.490
  22 str  20  19   1.406
  23 str  21  20   1.390
  24 str  22  21   1.392
  25 str  23  22   1.392
  26 str  24  19   1.406
  27 str  24  23   1.390
  28 str  25   1   1.084
  29 str  26   2   1.085
  30 str  27   3   1.082
  31 str  28   5   1.082
  32 str  29   6   1.085
  33 str  30   8   1.082
  34 str  31   9   1.082
  35 str  32  11   1.082
  36 str  33  12   1.082
  37 str  34  14   1.082
  38 str  35  15   1.082
  39 str  36  17   1.082
  40 str  37  18   1.082
  41 str  38  20   1.082
  42 str  39  21   1.085
  43 str  40  22   1.084
  44 str  41  23   1.085
  45 str  42  24   1.082
 nber stretches=          45
  46 ben   1   2   3
  47 prop tor   1   2   3   4
  48 prop tor   1   2   3  27
  49 ben   1   2  26
  50 ben   1   6   5
  51 ben   1   6  29
  52 ben   2   1   6
  53 prop tor   2   1   6   5
  54 prop tor   2   1   6  29
  55 ben   2   1  25
  56 ben   2   3   4
  57 prop tor   2   3   4   5
  58 prop tor   2   3   4   7
  59 ben   2   3  27
  60 ben   3   2  26
  61 ben   3   4   5
  62 prop tor   3   4   5   6
  63 prop tor   3   4   5  28
  64 ben   3   4   7
  65 prop tor   3   4   7   8
  66 prop tor   3   4   7  12
  67 ben   4   3  27
  68 ben   4   5   6
  69 prop tor   4   5   6   1
  70 prop tor   4   5   6  29
  71 ben   4   5  28
  72 ben   4   7   8
  73 prop tor   4   7   8   9
  74 prop tor   4   7   8  30
  75 ben   4   7  12
  76 prop tor   4   7  12  11
  77 prop tor   4   7  12  33
  78 ben   5   4   7
  79 prop tor   5   4   7   8
  80 prop tor   5   4   7  12
  81 ben   5   6  29
  82 prop tor   6   1   2   3
  83 prop tor   6   1   2  26
  84 ben   6   1  25
  85 ben   6   5  28
  86 prop tor   7   4   5   6
  87 prop tor   7   4   5  28
  88 ben   7   8   9
  89 prop tor   7   8   9  10
  90 prop tor   7   8   9  31
  91 ben   7   8  30
  92 ben   7  12  11
  93 ben   7  12  33
  94 ben   8   7  12
  95 prop tor   8   7  12  11
  96 prop tor   8   7  12  33
  97 ben   8   9  10
  98 prop tor   8   9  10  11
  99 prop tor   8   9  10  13
 100 ben   8   9  31
 101 ben   9   8  30
 102 ben   9  10  11
 103 prop tor   9  10  11  12
 104 prop tor   9  10  11  32
 105 ben   9  10  13
 106 prop tor   9  10  13  14
 107 prop tor   9  10  13  18
 108 ben  10   9  31
 109 ben  10  11  12
 110 prop tor  10  11  12   7
 111 prop tor  10  11  12  33
 112 ben  10  11  32
 113 ben  10  13  14
 114 prop tor  10  13  14  15
 115 prop tor  10  13  14  34
 116 ben  10  13  18
 117 prop tor  10  13  18  17
 118 prop tor  10  13  18  37
 119 ben  11  10  13
 120 prop tor  11  10  13  14
 121 prop tor  11  10  13  18
 122 ben  11  12  33
 123 prop tor  12   7   8   9
 124 prop tor  12   7   8  30
 125 ben  12  11  32
 126 prop tor  13  10  11  12
 127 prop tor  13  10  11  32
 128 ben  13  14  15
 129 prop tor  13  14  15  16
 130 prop tor  13  14  15  35
 131 ben  13  14  34
 132 ben  13  18  17
 133 ben  13  18  37
 134 ben  14  13  18
 135 prop tor  14  13  18  17
 136 prop tor  14  13  18  37
 137 ben  14  15  16
 138 prop tor  14  15  16  17
 139 prop tor  14  15  16  19
 140 ben  14  15  35
 141 ben  15  14  34
 142 ben  15  16  17
 143 prop tor  15  16  17  18
 144 prop tor  15  16  17  36
 145 ben  15  16  19
 146 prop tor  15  16  19  20
 147 prop tor  15  16  19  24
 148 ben  16  15  35
 149 ben  16  17  18
 150 prop tor  16  17  18  13
 151 prop tor  16  17  18  37
 152 ben  16  17  36
 153 ben  16  19  20
 154 prop tor  16  19  20  21
 155 prop tor  16  19  20  38
 156 ben  16  19  24
 157 prop tor  16  19  24  23
 158 prop tor  16  19  24  42
 159 ben  17  16  19
 160 prop tor  17  16  19  20
 161 prop tor  17  16  19  24
 162 ben  17  18  37
 163 prop tor  18  13  14  15
 164 prop tor  18  13  14  34
 165 ben  18  17  36
 166 prop tor  19  16  17  18
 167 prop tor  19  16  17  36
 168 ben  19  20  21
 169 prop tor  19  20  21  22
 170 prop tor  19  20  21  39
 171 ben  19  20  38
 172 ben  19  24  23
 173 ben  19  24  42
 174 ben  20  19  24
 175 prop tor  20  19  24  23
 176 prop tor  20  19  24  42
 177 ben  20  21  22
 178 prop tor  20  21  22  23
 179 prop tor  20  21  22  40
 180 ben  20  21  39
 181 ben  21  20  38
 182 ben  21  22  23
 183 prop tor  21  22  23  24
 184 prop tor  21  22  23  41
 185 ben  21  22  40
 186 ben  22  21  39
 187 ben  22  23  24
 188 prop tor  22  23  24  19
 189 prop tor  22  23  24  42
 190 ben  22  23  41
 191 ben  23  22  40
 192 ben  23  24  42
 193 prop tor  24  19  20  21
 194 prop tor  24  19  20  38
 195 ben  24  23  41
 196 prop tor  25   1   2   3
 197 prop tor  25   1   2  26
 198 prop tor  25   1   6   5
 199 prop tor  25   1   6  29
 200 prop tor  26   2   3   4
 201 prop tor  26   2   3  27
 202 prop tor  27   3   4   5
 203 prop tor  27   3   4   7
 204 prop tor  28   5   6   1
 205 prop tor  28   5   6  29
 206 prop tor  30   8   9  10
 207 prop tor  30   8   9  31
 208 prop tor  31   9  10  11
 209 prop tor  31   9  10  13
 210 prop tor  32  11  12   7
 211 prop tor  32  11  12  33
 212 prop tor  34  14  15  16
 213 prop tor  34  14  15  35
 214 prop tor  35  15  16  17
 215 prop tor  35  15  16  19
 216 prop tor  36  17  18  13
 217 prop tor  36  17  18  37
 218 prop tor  38  20  21  22
 219 prop tor  38  20  21  39
 220 prop tor  39  21  22  23
 221 prop tor  39  21  22  40
 222 prop tor  40  22  23  24
 223 prop tor  40  22  23  41
 224 prop tor  41  23  24  19
 225 prop tor  41  23  24  42
 nber bend=              72
 nber lin bend=           0
 nber prop tor=         108
 nber impr tor=           0
 nber tot redund int=         225
 Reading file: 
 ./Phenyls_2_C1S0.log                                                           
                                          
  Entering Gaussian System, Link 0=g16                                          
  
 Gaussian format, type: g94, g98, g03= F F F
  #P Geom=AllCheck Guess=TCheck SCRF=Check GenChk UB3LYP/6-311G(d,p) Fre    
 energy type= B3LYP   
 Original G94 input coords:
  6  7.889752  0.000000  0.000000
  6  7.187784 -1.207591  0.000000
  6  5.803513 -1.209074  0.000000
  6  5.066515  0.000000  0.000000
  6  5.803513  1.209074  0.000000
  6  7.187784  1.207591  0.000000
  6  3.602650  0.000000  0.000000
  6  2.850836  1.204323  0.000000
  6  1.477786  1.205493  0.000000
  6  0.725222  0.000000  0.000000
  6  1.477786 -1.205493  0.000000
  6  2.850836 -1.204323  0.000000
  6 -0.725222  0.000000  0.000000
  6 -1.477786  1.205493  0.000000
  6 -2.850836  1.204323  0.000000
  6 -3.602650  0.000000  0.000000
  6 -2.850836 -1.204323  0.000000
  6 -1.477786 -1.205493  0.000000
  6 -5.066515  0.000000  0.000000
  6 -5.803513  1.209074  0.000000
  6 -7.187784  1.207591  0.000000
  6 -7.889752  0.000000  0.000000
  6 -7.187784 -1.207591  0.000000
  6 -5.803513 -1.209074  0.000000
  1  8.973268  0.000000  0.000000
  1  7.725535 -2.147947  0.000000
  1  5.296167 -2.163515  0.000000
  1  5.296167  2.163515  0.000000
  1  7.725535  2.147947  0.000000
  1  3.355065  2.159434  0.000000
  1  0.975001  2.161910  0.000000
  1  0.975001 -2.161910  0.000000
  1  3.355065 -2.159434  0.000000
  1 -0.975001  2.161910  0.000000
  1 -3.355065  2.159434  0.000000
  1 -3.355065 -2.159434  0.000000
  1 -0.975001 -2.161910  0.000000
  1 -5.296167  2.163515  0.000000
  1 -7.725535  2.147947  0.000000
  1 -8.973268  0.000000  0.000000
  1 -7.725535 -2.147947  0.000000
  1 -5.296167 -2.163515  0.000000
 nber atoms=          42
 Original standard coords:
  6  0.000000  0.000000  7.889752
  6  0.000000  1.207591  7.187784
  6  0.000000  1.209074  5.803513
  6  0.000000  0.000000  5.066515
  6  0.000000 -1.209074  5.803513
  6  0.000000 -1.207591  7.187784
  6  0.000000  0.000000  3.602650
  6  0.000000 -1.204323  2.850836
  6  0.000000 -1.205493  1.477786
  6  0.000000  0.000000  0.725222
  6  0.000000  1.205493  1.477786
  6  0.000000  1.204323  2.850836
  6  0.000000  0.000000 -0.725222
  6  0.000000 -1.205493 -1.477786
  6  0.000000 -1.204323 -2.850836
  6  0.000000  0.000000 -3.602650
  6  0.000000  1.204323 -2.850836
  6  0.000000  1.205493 -1.477786
  6  0.000000  0.000000 -5.066515
  6  0.000000 -1.209074 -5.803513
  6  0.000000 -1.207591 -7.187784
  6  0.000000  0.000000 -7.889752
  6  0.000000  1.207591 -7.187784
  6  0.000000  1.209074 -5.803513
  1  0.000000  0.000000  8.973268
  1  0.000000  2.147947  7.725535
  1  0.000000  2.163515  5.296167
  1  0.000000 -2.163515  5.296167
  1  0.000000 -2.147947  7.725535
  1  0.000000 -2.159434  3.355065
  1  0.000000 -2.161910  0.975001
  1  0.000000  2.161910  0.975001
  1  0.000000  2.159434  3.355065
  1  0.000000 -2.161910 -0.975001
  1  0.000000 -2.159434 -3.355065
  1  0.000000  2.159434 -3.355065
  1  0.000000  2.161910 -0.975001
  1  0.000000 -2.163515 -5.296167
  1  0.000000 -2.147947 -7.725535
  1  0.000000  0.000000 -8.973268
  1  0.000000  2.147947 -7.725535
  1  0.000000  2.163515 -5.296167
  SCF Done:  E(UB3LYP) =  -925.378271089     A.U. after    1 cycles             
  
          23          40 "  -925.378271089"
After scan for Atom:   Atom  AN      X      Y      Z        X      Y      Z        X      Y      Z   
After scan for Atom:   Atom  AN      X      Y      Z        X      Y      Z        X      Y      Z   
After scan for Atom:   Atom  AN      X      Y      Z        X      Y      Z        X      Y      Z   
After scan for Atom:   Atom  AN      X      Y      Z        X      Y      Z        X      Y      Z   
After scan for Atom:   Atom  AN      X      Y      Z        X      Y      Z        X      Y      Z   
After scan for Atom:   Atom  AN      X      Y      Z        X      Y      Z        X      Y      Z   
After scan for Atom:   Atom  AN      X      Y      Z        X      Y      Z        X      Y      Z   
After scan for Atom:   Atom  AN      X      Y      Z        X      Y      Z        X      Y      Z   
After scan for Atom:   Atom  AN      X      Y      Z        X      Y      Z        X      Y      Z   
After scan for Atom:   Atom  AN      X      Y      Z        X      Y      Z        X      Y      Z   
After scan for Atom:   Atom  AN      X      Y      Z        X      Y      Z        X      Y      Z   
After scan for Atom:   Atom  AN      X      Y      Z        X      Y      Z        X      Y      Z   
After scan for Atom:   Atom  AN      X      Y      Z        X      Y      Z        X      Y      Z   
After scan for Atom:   Atom  AN      X      Y      Z        X      Y      Z        X      Y      Z   
After scan for Atom:   Atom  AN      X      Y      Z        X      Y      Z        X      Y      Z   
After scan for Atom:   Atom  AN      X      Y      Z        X      Y      Z        X      Y      Z   
After scan for Atom:   Atom  AN      X      Y      Z        X      Y      Z        X      Y      Z   
After scan for Atom:   Atom  AN      X      Y      Z        X      Y      Z        X      Y      Z   
After scan for Atom:   Atom  AN      X      Y      Z        X      Y      Z        X      Y      Z   
After scan for Atom:   Atom  AN      X      Y      Z        X      Y      Z        X      Y      Z   
After scan for Atom:   Atom  AN      X      Y      Z        X      Y      Z        X      Y      Z   
After scan for Atom:   Atom  AN      X      Y      Z        X      Y      Z        X      Y      Z   
After scan for Atom:   Atom  AN      X      Y      Z        X      Y      Z        X      Y      Z   
After scan for Atom:   Atom  AN      X      Y      Z        X      Y      Z        X      Y      Z   
After scan for Atom:   Atom  AN      X      Y      Z        X      Y      Z        X      Y      Z   
After scan for Atom:   Atom  AN      X      Y      Z        X      Y      Z        X      Y      Z   
After scan for Atom:   Atom  AN      X      Y      Z        X      Y      Z        X      Y      Z   
After scan for Atom:   Atom  AN      X      Y      Z        X      Y      Z        X      Y      Z   
After scan for Atom:   Atom  AN      X      Y      Z        X      Y      Z        X      Y      Z   
After scan for Atom:   Atom  AN      X      Y      Z        X      Y      Z        X      Y      Z   
After scan for Atom:   Atom  AN      X      Y      Z        X      Y      Z        X      Y      Z   
After scan for Atom:   Atom  AN      X      Y      Z        X      Y      Z        X      Y      Z   
After scan for Atom:   Atom  AN      X      Y      Z        X      Y      Z        X      Y      Z   
After scan for Atom:   Atom  AN      X      Y      Z        X      Y      Z        X      Y      Z   
After scan for Atom:   Atom  AN      X      Y      Z        X      Y      Z        X      Y      Z   
After scan for Atom:   Atom  AN      X      Y      Z        X      Y      Z        X      Y      Z   
After scan for Atom:   Atom  AN      X      Y      Z        X      Y      Z        X      Y      Z   
After scan for Atom:   Atom  AN      X      Y      Z        X      Y      Z        X      Y      Z   
After scan for Atom:   Atom  AN      X      Y      Z        X      Y      Z        X      Y      Z   
After scan for Atom:   Atom  AN      X      Y      Z        X      Y      Z        X      Y      Z   
 g94    frequencies=
     0.0    0.0    0.0    0.0    0.0    0.0  -77.9  -65.4  -29.8   19.4
    53.5   60.6  114.7  146.4  156.7  175.7  233.8  237.8  321.3  338.3
   369.0  380.8  384.2  394.6  395.9  433.2  443.2  477.2  479.9  484.3
   538.3  554.8  615.2  620.7  620.9  637.7  654.0  673.8  675.7  688.2
   722.3  738.5  748.6  784.4  795.6  799.5  799.9  805.6  830.1  831.2
   853.5  867.5  942.0  942.2  967.2  972.8  981.5  986.4  993.0  995.8
   996.1 1003.3 1004.2 1012.5 1012.9 1022.5 1022.6 1027.6 1038.9 1053.3
  1054.0 1121.3 1121.4 1166.7 1174.9 1194.8 1195.5 1215.1 1221.3 1245.0
  1261.0 1306.3 1308.1 1310.4 1312.0 1333.0 1347.2 1348.2 1351.9 1355.9
  1370.5 1378.2 1465.0 1472.1 1480.2 1496.6 1501.4 1519.9 1539.7 1540.5
  1545.0 1561.7 1591.7 1591.9 1613.9 1629.9 1640.0 1647.9 3181.6 3181.6
  3189.8 3189.9 3199.0 3199.4 3203.8 3204.0 3208.3 3209.4 3212.0 3213.2
  3222.7 3222.9 3230.2 3231.3 3233.5 3235.6
 g94    symmetries=
                                                AU     B1     AU     B3
      B2     B2     B3     B3     B2     AG     B2     B3     B2     B1
      B3     AU     B1     AU     B1     B2     B3     B3     B2     AG
      B3     B2     B3     B2     B1     B3     B2     B3     B2     AG
      B3     B2     B1     B3     AU     AG     B2     B1     AU     B1
      B3     B2     B2     B3     AU     B2     B1     B3     AU     B1
      B1     AG     B1     AG     B1     B2     B3     AG     B1     B1
      AG     B3     B2     B3     B2     B3     B2     B1     AG     B1
      AG     B3     B2     B1     B2     AG     B3     AG     B3     B2
      B2     B3     B3     B2     B2     B3     B1     AG     B2     B1
      B3     AG     B3     B2     B1     AG     AG     B1     B1     AG
      B3     B2     B1     AG     B3     B1     B2     AG     B3     B1
      AG     B2     B3     B1     B2     AG
 atomic masses:
 12.0000 12.0000 12.0000 12.0000 12.0000 12.0000 12.0000 12.0000 12.0000 12.0000
 12.0000 12.0000 12.0000 12.0000 12.0000 12.0000 12.0000 12.0000 12.0000 12.0000
 12.0000 12.0000 12.0000 12.0000  1.0078  1.0078  1.0078  1.0078  1.0078  1.0078
  1.0078  1.0078  1.0078  1.0078  1.0078  1.0078  1.0078  1.0078  1.0078  1.0078
  1.0078  1.0078
 looking for force constants in 
 ./Phenyls_2_C1S0.fchk                                                          
  
 Cartesian Force Constants                  R   N=        8001                  
  
 n3=         126        8001
 g94-fc frequencies=
   -77.9  -65.4  -29.8   -1.0    0.0    0.0    0.0    1.5    9.0   19.4
    53.5   60.6  114.7  146.4  156.7  175.7  233.8  237.8  321.3  338.3
   369.0  380.9  384.2  394.6  395.9  433.2  443.2  477.2  479.9  484.3
   538.3  554.8  615.2  620.7  620.9  637.7  654.0  673.8  675.7  688.2
   722.3  738.5  748.7  784.4  795.6  799.5  800.0  805.6  830.1  831.2
   853.5  867.5  942.0  942.2  967.2  972.8  981.6  986.5  993.0  995.8
   996.1 1003.3 1004.2 1012.5 1013.0 1022.5 1022.6 1027.7 1038.9 1053.3
  1054.1 1121.3 1121.4 1166.7 1174.9 1194.9 1195.6 1215.1 1221.3 1245.1
  1261.0 1306.3 1308.2 1310.4 1312.1 1333.0 1347.2 1348.2 1352.0 1356.0
  1370.5 1378.2 1465.0 1472.1 1480.2 1496.7 1501.4 1519.9 1539.8 1540.6
  1545.1 1561.8 1591.8 1591.9 1613.9 1629.9 1640.1 1647.9 3181.6 3181.6
  3189.9 3189.9 3199.1 3199.5 3203.9 3204.0 3208.3 3209.5 3212.1 3213.2
  3222.8 3222.9 3230.3 3231.4 3233.6 3235.7
 at 99999: n3=         126
 symm operator            1 :  T  nop=           1
 symm operator            2 :  T  nop=           2
 symm operator            3 :  T  nop=           3
 symm operator            4 :  T  nop=           4
 symm operator            5 :  T  nop=           5
 symm operator            6 :  T  nop=           6
 symm operator            7 :  T  nop=           7
 The point group of the molecule is D2H
 enforcing symm op           1  jsymt=          -1          -1           1
 enforcing symm op           2  jsymt=          -1           1          -1
 enforcing symm op           3  jsymt=           1          -1          -1
 enforcing symm op           4  jsymt=          -1          -1          -1
 enforcing symm op           5  jsymt=           1           1          -1
 enforcing symm op           6  jsymt=           1          -1           1
 enforcing symm op           7  jsymt=          -1           1           1
 cartesian coord symmetries:
 Ag :   21 Au :    8 B1g:    8 B1u:   21 B2g:   13 B2u:   21 B3g:   21 B3u:   13
 Symmetry rotation matrix:
   1.00000   0.00000   0.00000
   0.00000   1.00000   0.00000
   0.00000   0.00000   1.00000

 Projecting out zero-frequency components
 generating redundant internal coords
         300        3600          42
 search for int coords
   1 str   2   1   1.397
   2 str   3   2   1.384
   3 str   4   3   1.416
   4 str   5   4   1.416
   5 str   6   1   1.397
   6 str   6   5   1.384
   7 str   7   4   1.464
   8 str   8   7   1.420
   9 str   9   8   1.373
  10 str  10   9   1.421
  11 str  11  10   1.421
  12 str  12   7   1.420
  13 str  12  11   1.373
  14 str  13  10   1.450
  15 str  14  13   1.421
  16 str  15  14   1.373
  17 str  16  15   1.420
  18 str  17  16   1.420
  19 str  18  13   1.421
  20 str  18  17   1.373
  21 str  19  16   1.464
  22 str  20  19   1.416
  23 str  21  20   1.384
  24 str  22  21   1.397
  25 str  23  22   1.397
  26 str  24  19   1.416
  27 str  24  23   1.384
  28 str  25   1   1.084
  29 str  26   2   1.083
  30 str  27   3   1.081
  31 str  28   5   1.081
  32 str  29   6   1.083
  33 str  30   8   1.080
  34 str  31   9   1.081
  35 str  32  11   1.081
  36 str  33  12   1.080
  37 str  34  14   1.081
  38 str  35  15   1.080
  39 str  36  17   1.080
  40 str  37  18   1.081
  41 str  38  20   1.081
  42 str  39  21   1.083
  43 str  40  22   1.084
  44 str  41  23   1.083
  45 str  42  24   1.081
 nber stretches=          45
  46 ben   1   2   3
  47 prop tor   1   2   3   4
  48 prop tor   1   2   3  27
  49 ben   1   2  26
  50 ben   1   6   5
  51 ben   1   6  29
  52 ben   2   1   6
  53 prop tor   2   1   6   5
  54 prop tor   2   1   6  29
  55 ben   2   1  25
  56 ben   2   3   4
  57 prop tor   2   3   4   5
  58 prop tor   2   3   4   7
  59 ben   2   3  27
  60 ben   3   2  26
  61 ben   3   4   5
  62 prop tor   3   4   5   6
  63 prop tor   3   4   5  28
  64 ben   3   4   7
  65 prop tor   3   4   7   8
  66 prop tor   3   4   7  12
  67 ben   4   3  27
  68 ben   4   5   6
  69 prop tor   4   5   6   1
  70 prop tor   4   5   6  29
  71 ben   4   5  28
  72 ben   4   7   8
  73 prop tor   4   7   8   9
  74 prop tor   4   7   8  30
  75 ben   4   7  12
  76 prop tor   4   7  12  11
  77 prop tor   4   7  12  33
  78 ben   5   4   7
  79 prop tor   5   4   7   8
  80 prop tor   5   4   7  12
  81 ben   5   6  29
  82 prop tor   6   1   2   3
  83 prop tor   6   1   2  26
  84 ben   6   1  25
  85 ben   6   5  28
  86 prop tor   7   4   5   6
  87 prop tor   7   4   5  28
  88 ben   7   8   9
  89 prop tor   7   8   9  10
  90 prop tor   7   8   9  31
  91 ben   7   8  30
  92 ben   7  12  11
  93 ben   7  12  33
  94 ben   8   7  12
  95 prop tor   8   7  12  11
  96 prop tor   8   7  12  33
  97 ben   8   9  10
  98 prop tor   8   9  10  11
  99 prop tor   8   9  10  13
 100 ben   8   9  31
 101 ben   9   8  30
 102 ben   9  10  11
 103 prop tor   9  10  11  12
 104 prop tor   9  10  11  32
 105 ben   9  10  13
 106 prop tor   9  10  13  14
 107 prop tor   9  10  13  18
 108 ben  10   9  31
 109 ben  10  11  12
 110 prop tor  10  11  12   7
 111 prop tor  10  11  12  33
 112 ben  10  11  32
 113 ben  10  13  14
 114 prop tor  10  13  14  15
 115 prop tor  10  13  14  34
 116 ben  10  13  18
 117 prop tor  10  13  18  17
 118 prop tor  10  13  18  37
 119 ben  11  10  13
 120 prop tor  11  10  13  14
 121 prop tor  11  10  13  18
 122 ben  11  12  33
 123 prop tor  12   7   8   9
 124 prop tor  12   7   8  30
 125 ben  12  11  32
 126 prop tor  13  10  11  12
 127 prop tor  13  10  11  32
 128 ben  13  14  15
 129 prop tor  13  14  15  16
 130 prop tor  13  14  15  35
 131 ben  13  14  34
 132 ben  13  18  17
 133 ben  13  18  37
 134 ben  14  13  18
 135 prop tor  14  13  18  17
 136 prop tor  14  13  18  37
 137 ben  14  15  16
 138 prop tor  14  15  16  17
 139 prop tor  14  15  16  19
 140 ben  14  15  35
 141 ben  15  14  34
 142 ben  15  16  17
 143 prop tor  15  16  17  18
 144 prop tor  15  16  17  36
 145 ben  15  16  19
 146 prop tor  15  16  19  20
 147 prop tor  15  16  19  24
 148 ben  16  15  35
 149 ben  16  17  18
 150 prop tor  16  17  18  13
 151 prop tor  16  17  18  37
 152 ben  16  17  36
 153 ben  16  19  20
 154 prop tor  16  19  20  21
 155 prop tor  16  19  20  38
 156 ben  16  19  24
 157 prop tor  16  19  24  23
 158 prop tor  16  19  24  42
 159 ben  17  16  19
 160 prop tor  17  16  19  20
 161 prop tor  17  16  19  24
 162 ben  17  18  37
 163 prop tor  18  13  14  15
 164 prop tor  18  13  14  34
 165 ben  18  17  36
 166 prop tor  19  16  17  18
 167 prop tor  19  16  17  36
 168 ben  19  20  21
 169 prop tor  19  20  21  22
 170 prop tor  19  20  21  39
 171 ben  19  20  38
 172 ben  19  24  23
 173 ben  19  24  42
 174 ben  20  19  24
 175 prop tor  20  19  24  23
 176 prop tor  20  19  24  42
 177 ben  20  21  22
 178 prop tor  20  21  22  23
 179 prop tor  20  21  22  40
 180 ben  20  21  39
 181 ben  21  20  38
 182 ben  21  22  23
 183 prop tor  21  22  23  24
 184 prop tor  21  22  23  41
 185 ben  21  22  40
 186 ben  22  21  39
 187 ben  22  23  24
 188 prop tor  22  23  24  19
 189 prop tor  22  23  24  42
 190 ben  22  23  41
 191 ben  23  22  40
 192 ben  23  24  42
 193 prop tor  24  19  20  21
 194 prop tor  24  19  20  38
 195 ben  24  23  41
 196 prop tor  25   1   2   3
 197 prop tor  25   1   2  26
 198 prop tor  25   1   6   5
 199 prop tor  25   1   6  29
 200 prop tor  26   2   3   4
 201 prop tor  26   2   3  27
 202 prop tor  27   3   4   5
 203 prop tor  27   3   4   7
 204 prop tor  28   5   6   1
 205 prop tor  28   5   6  29
 206 prop tor  30   8   9  10
 207 prop tor  30   8   9  31
 208 prop tor  31   9  10  11
 209 prop tor  31   9  10  13
 210 prop tor  32  11  12   7
 211 prop tor  32  11  12  33
 212 prop tor  34  14  15  16
 213 prop tor  34  14  15  35
 214 prop tor  35  15  16  17
 215 prop tor  35  15  16  19
 216 prop tor  36  17  18  13
 217 prop tor  36  17  18  37
 218 prop tor  38  20  21  22
 219 prop tor  38  20  21  39
 220 prop tor  39  21  22  23
 221 prop tor  39  21  22  40
 222 prop tor  40  22  23  24
 223 prop tor  40  22  23  41
 224 prop tor  41  23  24  19
 225 prop tor  41  23  24  42
 nber bend=              72
 nber lin bend=           0
 nber prop tor=         108
 nber impr tor=           0
 nber tot redund int=         225
 Eigenvalues of G in red int coords
    Gval -0.00000000 -0.00000000 -0.00000000 -0.00000000 -0.00000000 -0.00000000 -0.00000000 -0.00000000
    Gval -0.00000000 -0.00000000 -0.00000000 -0.00000000 -0.00000000 -0.00000000 -0.00000000 -0.00000000
    Gval -0.00000000 -0.00000000 -0.00000000 -0.00000000 -0.00000000 -0.00000000 -0.00000000 -0.00000000
    Gval -0.00000000 -0.00000000 -0.00000000 -0.00000000 -0.00000000 -0.00000000 -0.00000000 -0.00000000
    Gval -0.00000000 -0.00000000 -0.00000000 -0.00000000 -0.00000000 -0.00000000 -0.00000000 -0.00000000
    Gval -0.00000000 -0.00000000 -0.00000000 -0.00000000 -0.00000000 -0.00000000 -0.00000000 -0.00000000
    Gval -0.00000000 -0.00000000 -0.00000000 -0.00000000  0.00000000  0.00000000  0.00000000  0.00000000
    Gval  0.00000000  0.00000000  0.00000000  0.00000000  0.00000000  0.00000000  0.00000000  0.00000000
    Gval  0.00000000  0.00000000  0.00000000  0.00000000  0.00000000  0.00000000  0.00000000  0.00000000
    Gval  0.00000000  0.00000000  0.00000000  0.00000000  0.00000000  0.00000000  0.00000000  0.00000000
    Gval  0.00000000  0.00000000  0.00000000  0.00000000  0.00000000  0.00000000  0.00000000  0.00000000
    Gval  0.00000000  0.00000000  0.00000000  0.00000000  0.00000000  0.00000000  0.00000000  0.00000000
    Gval  0.00000000  0.00000000  0.00000000  0.00000000  0.00000000  0.00000000  0.00000000  0.00000000
    Gval  0.00000000  0.00000048  0.00000198  0.00000205  0.00000294  0.00000774  0.00000841  0.00001239
    Gval  0.00001491  0.00001531  0.00002055  0.00002804  0.00002994  0.00004280  0.00004452  0.00004582
    Gval  0.00004929  0.00005058  0.00005767  0.00005808  0.00005946  0.00005959  0.00005989  0.00006731
    Gval  0.00007037  0.00007804  0.00008102  0.00009411  0.00009901  0.00010611  0.00011674  0.00011698
    Gval  0.00011828  0.00011888  0.00012090  0.00012235  0.00012859  0.00013336  0.00017156  0.00021649
    Gval  0.00024512  0.00025812  0.00025908  0.00026303  0.00027972  0.00028775  0.00030002  0.00035667
    Gval  0.00036337  0.00037932  0.00038973  0.00040013  0.00040916  0.00041993  0.00043694  0.00052716
    Gval  0.00053604  0.00058936  0.00059306  0.00059306  0.00059345  0.00059347  0.00059647  0.00059845
    Gval  0.00059953  0.00059966  0.00060392  0.00060392  0.00061901  0.00062250  0.00062387  0.00063022
    Gval  0.00063551  0.00064468  0.00064818  0.00065037  0.00066062  0.00066064  0.00077003  0.00093566
    Gval  0.00104286  0.00104287  0.00107386  0.00108007  0.00108365  0.00111025  0.00111139  0.00111258
    Gval  0.00111329  0.00114082  0.00114082  0.00115576  0.00115639  0.00117220  0.00117272  0.00117334
    Gval  0.00117349  0.00117349  0.00117375  0.00142500  0.00142833  0.00154760  0.00165489  0.00184265
    Gval  0.00199364  0.00234702  0.00235390  0.00236252  0.00236958  0.00242229  0.00267649  0.00314092
    Gval  0.00315296  0.00357771  0.00365709  0.00368130  0.00369419  0.00372787  0.00372824  0.00406392
    Gval  0.00406394
  4.847547042868513E-007  4.847547042868513E-007
  1.982092055673346E-006  4.847547042868513E-007
  2.051781057067009E-006  4.847547042868513E-007
  2.941069538642682E-006  4.847547042868513E-007
  7.736080582995480E-006  4.847547042868513E-007
  8.405029795750258E-006  4.847547042868513E-007
  1.238750887958437E-005  4.847547042868513E-007
  1.491458667370802E-005  4.847547042868513E-007
  1.531023652704791E-005  4.847547042868513E-007
  2.054691469374655E-005  4.847547042868513E-007
  2.803707278813340E-005  4.847547042868513E-007
  2.994437433325906E-005  4.847547042868513E-007
  4.279668885979045E-005  4.847547042868513E-007
  4.451667308434736E-005  4.847547042868513E-007
  4.581547891072821E-005  4.847547042868513E-007
  4.928908464290446E-005  4.847547042868513E-007
  5.058135511021926E-005  4.847547042868513E-007
  5.766694424677222E-005  4.847547042868513E-007
  5.807785051351870E-005  4.847547042868513E-007
  5.945760505343475E-005  4.847547042868513E-007
  5.959132589853503E-005  4.847547042868513E-007
  5.989481290647332E-005  4.847547042868513E-007
  6.730945630847882E-005  4.847547042868513E-007
  7.036504896395653E-005  4.847547042868513E-007
  7.804176066647952E-005  4.847547042868513E-007
  8.102434671990163E-005  4.847547042868513E-007
  9.411176003045995E-005  4.847547042868513E-007
  9.900853215223154E-005  4.847547042868513E-007
  1.061069068688499E-004  4.847547042868513E-007
  1.167447661737724E-004  4.847547042868513E-007
  1.169756278634578E-004  4.847547042868513E-007
  1.182825601384268E-004  4.847547042868513E-007
  1.188845029044306E-004  4.847547042868513E-007
  1.209006569574804E-004  4.847547042868513E-007
  1.223498395450760E-004  4.847547042868513E-007
  1.285946026042424E-004  4.847547042868513E-007
  1.333625769529581E-004  4.847547042868513E-007
  1.715579559410491E-004  4.847547042868513E-007
  2.164850909926157E-004  4.847547042868513E-007
  2.451164552401325E-004  4.847547042868513E-007
  2.581217204601610E-004  4.847547042868513E-007
  2.590757432314805E-004  4.847547042868513E-007
  2.630324386289591E-004  4.847547042868513E-007
  2.797218577498811E-004  4.847547042868513E-007
  2.877453831423497E-004  4.847547042868513E-007
  3.000184931442192E-004  4.847547042868513E-007
  3.566736528804188E-004  4.847547042868513E-007
  3.633680550913333E-004  4.847547042868513E-007
  3.793219386820473E-004  4.847547042868513E-007
  3.897281150302295E-004  4.847547042868513E-007
  4.001338932178338E-004  4.847547042868513E-007
  4.091632759142168E-004  4.847547042868513E-007
  4.199263829435871E-004  4.847547042868513E-007
  4.369409473247787E-004  4.847547042868513E-007
  5.271569228865389E-004  4.847547042868513E-007
  5.360427327766775E-004  4.847547042868513E-007
  5.893646796072857E-004  4.847547042868513E-007
  5.930560633780938E-004  4.847547042868513E-007
  5.930560635397907E-004  4.847547042868513E-007
  5.934496681066600E-004  4.847547042868513E-007
  5.934701957415538E-004  4.847547042868513E-007
  5.964665302534474E-004  4.847547042868513E-007
  5.984473526526331E-004  4.847547042868513E-007
  5.995284029717673E-004  4.847547042868513E-007
  5.996625081106181E-004  4.847547042868513E-007
  6.039232297453067E-004  4.847547042868513E-007
  6.039237434830345E-004  4.847547042868513E-007
  6.190118045358065E-004  4.847547042868513E-007
  6.224951837899221E-004  4.847547042868513E-007
  6.238740405230136E-004  4.847547042868513E-007
  6.302172821722764E-004  4.847547042868513E-007
  6.355117814192734E-004  4.847547042868513E-007
  6.446818131384214E-004  4.847547042868513E-007
  6.481826455850730E-004  4.847547042868513E-007
  6.503678814892553E-004  4.847547042868513E-007
  6.606244141869218E-004  4.847547042868513E-007
  6.606433894031314E-004  4.847547042868513E-007
  7.700304731068727E-004  4.847547042868513E-007
  9.356638383644272E-004  4.847547042868513E-007
  1.042858984639379E-003  4.847547042868513E-007
  1.042866484040953E-003  4.847547042868513E-007
  1.073855795144294E-003  4.847547042868513E-007
  1.080074109154225E-003  4.847547042868513E-007
  1.083648642726495E-003  4.847547042868513E-007
  1.110250255055330E-003  4.847547042868513E-007
  1.111387196038876E-003  4.847547042868513E-007
  1.112583954499248E-003  4.847547042868513E-007
  1.113290766508532E-003  4.847547042868513E-007
  1.140816912910590E-003  4.847547042868513E-007
  1.140820062309874E-003  4.847547042868513E-007
  1.155762216558365E-003  4.847547042868513E-007
  1.156389874138741E-003  4.847547042868513E-007
  1.172195165090916E-003  4.847547042868513E-007
  1.172720345850500E-003  4.847547042868513E-007
  1.173336506118069E-003  4.847547042868513E-007
  1.173492748151282E-003  4.847547042868513E-007
  1.173492748158341E-003  4.847547042868513E-007
  1.173748876039855E-003  4.847547042868513E-007
  1.425004377726829E-003  4.847547042868513E-007
  1.428331497176205E-003  4.847547042868513E-007
  1.547601833089551E-003  4.847547042868513E-007
  1.654891269176705E-003  4.847547042868513E-007
  1.842648654230608E-003  4.847547042868513E-007
  1.993641629318029E-003  4.847547042868513E-007
  2.347017180408397E-003  4.847547042868513E-007
  2.353900375424726E-003  4.847547042868513E-007
  2.362518993089129E-003  4.847547042868513E-007
  2.369582903954226E-003  4.847547042868513E-007
  2.422286774096383E-003  4.847547042868513E-007
  2.676488206886856E-003  4.847547042868513E-007
  3.140924475673366E-003  4.847547042868513E-007
  3.152955885206501E-003  4.847547042868513E-007
  3.577706531396254E-003  4.847547042868513E-007
  3.657094329761084E-003  4.847547042868513E-007
  3.681296817868265E-003  4.847547042868513E-007
  3.694189225998220E-003  4.847547042868513E-007
  3.727874812430199E-003  4.847547042868513E-007
  3.728236172580676E-003  4.847547042868513E-007
  4.063920973090348E-003  4.847547042868513E-007
  4.063942550505018E-003  4.847547042868513E-007
 cut=1d-8, nber non-redundant internal coords=         120
 Check on Eigenvals of non-red overlap matrix:
  0.00000048  0.00000198  0.00000205  0.00000294  0.00000774  0.00000841  0.00001239  0.00001491
  0.00001531  0.00002055  0.00002804  0.00002994  0.00004280  0.00004452  0.00004582  0.00004929
  0.00005058  0.00005767  0.00005808  0.00005946  0.00005959  0.00005989  0.00006731  0.00007037
  0.00007804  0.00008102  0.00009411  0.00009901  0.00010611  0.00011674  0.00011698  0.00011828
  0.00011888  0.00012090  0.00012235  0.00012859  0.00013336  0.00017156  0.00021649  0.00024512
  0.00025812  0.00025908  0.00026303  0.00027972  0.00028775  0.00030002  0.00035667  0.00036337
  0.00037932  0.00038973  0.00040013  0.00040916  0.00041993  0.00043694  0.00052716  0.00053604
  0.00058936  0.00059306  0.00059306  0.00059345  0.00059347  0.00059647  0.00059845  0.00059953
  0.00059966  0.00060392  0.00060392  0.00061901  0.00062250  0.00062387  0.00063022  0.00063551
  0.00064468  0.00064818  0.00065037  0.00066062  0.00066064  0.00077003  0.00093566  0.00104286
  0.00104287  0.00107386  0.00108007  0.00108365  0.00111025  0.00111139  0.00111258  0.00111329
  0.00114082  0.00114082  0.00115576  0.00115639  0.00117220  0.00117272  0.00117334  0.00117349
  0.00117349  0.00117375  0.00142500  0.00142833  0.00154760  0.00165489  0.00184265  0.00199364
  0.00234702  0.00235390  0.00236252  0.00236958  0.00242229  0.00267649  0.00314092  0.00315296
  0.00357771  0.00365709  0.00368130  0.00369419  0.00372787  0.00372824  0.00406392  0.00406394
 Checking for correct frequencies
 recalc frequencies=
   -77.9  -65.4  -29.8   -0.0   -0.0   -0.0   -0.0   -0.0    0.0   19.4
    53.5   60.6  114.7  146.4  156.7  175.7  233.8  237.8  321.3  338.3
   369.0  380.9  384.2  394.6  395.9  433.2  443.2  477.2  479.9  484.3
   538.3  554.8  615.2  620.7  620.9  637.7  654.0  673.8  675.7  688.2
   722.3  738.5  748.7  784.4  795.6  799.5  800.0  805.6  830.1  831.2
   853.5  867.5  942.0  942.2  967.2  972.8  981.6  986.5  993.0  995.8
   996.1 1003.3 1004.2 1012.5 1013.0 1022.5 1022.6 1027.7 1038.9 1053.3
  1054.1 1121.3 1121.4 1166.7 1174.9 1194.9 1195.6 1215.1 1221.3 1245.1
  1261.0 1306.3 1308.2 1310.4 1312.1 1333.0 1347.2 1348.2 1352.0 1356.0
  1370.5 1378.2 1465.0 1472.1 1480.2 1496.7 1501.4 1519.9 1539.8 1540.6
  1545.1 1561.8 1591.8 1591.9 1613.9 1629.9 1640.1 1647.9 3181.6 3181.6
  3189.9 3189.9 3199.1 3199.5 3203.9 3204.0 3208.3 3209.5 3212.1 3213.2
  3222.8 3222.9 3230.3 3231.4 3233.6 3235.7
 recalc symmetries=
     Au     B1g    Au     B3g    B2u    B1u    B2g    B3u    B1g    B3u
     B2g    B2u    B3u    B3g    B2g    Ag     B2u    B3u    B2g    B1u
     B3g    Au     B1g    Au     B1g    B2u    B3u    B3g    B2g    Ag 
     B3u    B2g    B3g    B2u    B1u    B3g    B2u    B3u    B2g    Ag 
     B3u    B2g    B1u    B3u    Au     Ag     B2g    B1g    Au     B1g
     B3u    B2g    B2g    B3u    Au     B2g    B1g    B3u    Au     B1g
     B1u    Ag     B1u    Ag     B1u    B2g    B3u    Ag     B1u    B1u
     Ag     B3g    B2u    B3g    B2u    B3g    B2u    B1u    Ag     B1u
     Ag     B3g    B2u    B1u    B2u    Ag     B3g    Ag     B3g    B2u
     B2u    B3g    B3g    B2u    B2u    B3g    B1u    Ag     B2u    B1u
     B3g    Ag     B3g    B2u    B1u    Ag     Ag     B1u    B1u    Ag 
     B3g    B2u    B1u    Ag     B3g    B1u    B2u    Ag     B3g    B1u
     Ag     B2u    B3g    B1u    B2u    Ag 
 recalc freqs check OK
 Zero-point lengths:
 28.0804 30.6614 45.4158 10.0000 10.0000 10.0000 10.0000 10.0000 10.0000 56.2653
 33.9022 31.8369 23.1510 20.4920 19.8022 18.7033 16.2119 16.0770 13.8297 13.4782
 12.9052 12.7034 12.6474 12.4798 12.4602 11.9108 11.7755 11.3484 11.3162 11.2648
 10.6853 10.5251  9.9951  9.9505  9.9488  9.8171  9.6938  9.5505  9.5370  9.4498
  9.2241  9.1228  9.0606  8.8519  8.7892  8.7677  8.7652  8.7343  8.6044  8.5990
  8.4860  8.4169  8.0772  8.0765  7.9715  7.9484  7.9129  7.8933  7.8670  7.8561
  7.8550  7.8267  7.8231  7.7911  7.7893  7.7527  7.7524  7.7334  7.6914  7.6387
  7.6360  7.4034  7.4031  7.2580  7.2325  7.1719  7.1698  7.1120  7.0938  7.0259
  6.9813  6.8592  6.8543  6.8484  6.8442  6.7900  6.7543  6.7518  6.7424  6.7324
  6.6966  6.6778  6.4771  6.4614  6.4437  6.4082  6.3980  6.3590  6.3179  6.3162
  6.3070  6.2732  6.2138  6.2134  6.1710  6.1406  6.1216  6.1070  4.3951  4.3951
  4.3894  4.3894  4.3831  4.3829  4.3798  4.3797  4.3768  4.3760  4.3742  4.3735
  4.3670  4.3669  4.3619  4.3612  4.3597  4.3583
 highest evec of mol 2
  0.0000  0.0000 -0.0031
  0.0000 -0.0078 -0.0055
  0.0000 -0.0381  0.0201
  0.0000  0.0000  0.0015
  0.0000  0.0381  0.0201
  0.0000  0.0078 -0.0055
  0.0000  0.0000 -0.0039
  0.0000  0.0851 -0.0486
  0.0000  0.0852  0.0484
  0.0000  0.0000  0.0037
  0.0000 -0.0852  0.0484
  0.0000 -0.0851 -0.0486
  0.0000  0.0000 -0.0037
  0.0000  0.0852 -0.0484
  0.0000  0.0851  0.0486
  0.0000  0.0000  0.0039
  0.0000 -0.0851  0.0486
  0.0000 -0.0852 -0.0484
  0.0000  0.0000 -0.0015
  0.0000  0.0381 -0.0201
  0.0000  0.0078  0.0055
  0.0000  0.0000  0.0031
  0.0000 -0.0078  0.0055
  0.0000 -0.0381 -0.0201
  0.0000  0.0000  0.0083
  0.0000  0.0242  0.0143
  0.0000  0.1273 -0.0715
  0.0000 -0.1273 -0.0715
  0.0000 -0.0242  0.0143
  0.0000 -0.2812  0.1543
  0.0000 -0.2824 -0.1551
  0.0000  0.2824 -0.1551
  0.0000  0.2812  0.1543
  0.0000 -0.2824  0.1551
  0.0000 -0.2812 -0.1543
  0.0000  0.2812 -0.1543
  0.0000  0.2824  0.1551
  0.0000 -0.1273  0.0715
  0.0000 -0.0242 -0.0143
  0.0000  0.0000 -0.0083
  0.0000  0.0242 -0.0143
  0.0000  0.1273  0.0715
 Enter nber and list of atoms to keep of mol #2
 keep list:          42           1           2           3           4
           5           6           7           8           9          10
          11          12          13          14          15          16
          17          18          19          20          21          22
          23          24          25          26          27          28
          29          30          31          32          33          34
          35          36          37          38          39          40
          41          42
 reordering atoms
           1   7.88975200000000     
           2   7.18778400000000     
           3   5.80351300000000     
           4   5.06651500000000     
           5   5.80351300000000     
           6   7.18778400000000     
           7   3.60265000000000     
           8   2.85083600000000     
           9   1.47778600000000     
          10  0.725222000000000     
          11   1.47778600000000     
          12   2.85083600000000     
          13 -0.725222000000000     
          14  -1.47778600000000     
          15  -2.85083600000000     
          16  -3.60265000000000     
          17  -2.85083600000000     
          18  -1.47778600000000     
          19  -5.06651500000000     
          20  -5.80351300000000     
          21  -7.18778400000000     
          22  -7.88975200000000     
          23  -7.18778400000000     
          24  -5.80351300000000     
          25   8.97326800000000     
          26   7.72553500000000     
          27   5.29616700000000     
          28   5.29616700000000     
          29   7.72553500000000     
          30   3.35506500000000     
          31  0.975001000000000     
          32  0.975001000000000     
          33   3.35506500000000     
          34 -0.975001000000000     
          35  -3.35506500000000     
          36  -3.35506500000000     
          37 -0.975001000000000     
          38  -5.29616700000000     
          39  -7.72553500000000     
          40  -8.97326800000000     
          41  -7.72553500000000     
          42  -5.29616700000000     
           1           1
           2           2
           3           3
           4           4
           5           5
           6           6
           7           7
           8           8
           9           9
          10          10
          11          11
          12          12
          13          13
          14          14
          15          15
          16          16
          17          17
          18          18
          19          19
          20          20
          21          21
          22          22
          23          23
          24          24
          25          25
          26          26
          27          27
          28          28
          29          29
          30          30
          31          31
          32          32
          33          33
          34          34
          35          35
          36          36
          37          37
          38          38
          39          39
          40          40
          41          41
          42          42
 initial cartes coords mol 1
   6   0.00000   0.00000   7.94536
   6   0.00000  -1.19910   7.23784
   6   0.00000  -1.19764   5.84749
   6   0.00000   0.00000   5.11111
   6   0.00000   1.19764   5.84749
   6   0.00000   1.19910   7.23784
   6   0.00000   0.00000   3.62127
   6   0.00000   1.18999   2.87528
   6   0.00000   1.19031   1.48855
   6   0.00000   0.00000   0.74291
   6   0.00000  -1.19031   1.48855
   6   0.00000  -1.18999   2.87528
   6   0.00000   0.00000  -0.74291
   6   0.00000   1.19031  -1.48855
   6   0.00000   1.18999  -2.87528
   6   0.00000   0.00000  -3.62127
   6   0.00000  -1.18999  -2.87528
   6   0.00000  -1.19031  -1.48855
   6   0.00000   0.00000  -5.11111
   6   0.00000   1.19764  -5.84749
   6   0.00000   1.19910  -7.23784
   6   0.00000   0.00000  -7.94536
   6   0.00000  -1.19910  -7.23784
   6   0.00000  -1.19764  -5.84749
   1   0.00000   0.00000   9.02938
   1   0.00000  -2.14448   7.76933
   1   0.00000  -2.15232   5.33859
   1   0.00000   2.15232   5.33859
   1   0.00000   2.14448   7.76933
   1   0.00000   2.14898   3.37554
   1   0.00000   2.14904   0.98696
   1   0.00000  -2.14904   0.98696
   1   0.00000  -2.14898   3.37554
   1   0.00000   2.14904  -0.98696
   1   0.00000   2.14898  -3.37554
   1   0.00000  -2.14898  -3.37554
   1   0.00000  -2.14904  -0.98696
   1   0.00000   2.15232  -5.33859
   1   0.00000   2.14448  -7.76933
   1   0.00000   0.00000  -9.02938
   1   0.00000  -2.14448  -7.76933
   1   0.00000  -2.15232  -5.33859
 initial cartes coords mol 2
   6   0.00000   0.00000   7.88975
   6   0.00000  -1.20759   7.18778
   6   0.00000  -1.20907   5.80351
   6   0.00000   0.00000   5.06651
   6   0.00000   1.20907   5.80351
   6   0.00000   1.20759   7.18778
   6   0.00000   0.00000   3.60265
   6   0.00000   1.20432   2.85084
   6   0.00000   1.20549   1.47779
   6   0.00000   0.00000   0.72522
   6   0.00000  -1.20549   1.47779
   6   0.00000  -1.20432   2.85084
   6   0.00000   0.00000  -0.72522
   6   0.00000   1.20549  -1.47779
   6   0.00000   1.20432  -2.85084
   6   0.00000   0.00000  -3.60265
   6   0.00000  -1.20432  -2.85084
   6   0.00000  -1.20549  -1.47779
   6   0.00000   0.00000  -5.06651
   6   0.00000   1.20907  -5.80351
   6   0.00000   1.20759  -7.18778
   6   0.00000   0.00000  -7.88975
   6   0.00000  -1.20759  -7.18778
   6   0.00000  -1.20907  -5.80351
   1   0.00000   0.00000   8.97327
   1   0.00000  -2.14795   7.72553
   1   0.00000  -2.16351   5.29617
   1   0.00000   2.16351   5.29617
   1   0.00000   2.14795   7.72553
   1   0.00000   2.15943   3.35507
   1   0.00000   2.16191   0.97500
   1   0.00000  -2.16191   0.97500
   1   0.00000  -2.15943   3.35507
   1   0.00000   2.16191  -0.97500
   1   0.00000   2.15943  -3.35507
   1   0.00000  -2.15943  -3.35507
   1   0.00000  -2.16191  -0.97500
   1   0.00000   2.16351  -5.29617
   1   0.00000   2.14795  -7.72553
   1   0.00000   0.00000  -8.97327
   1   0.00000  -2.14795  -7.72553
   1   0.00000  -2.16351  -5.29617
 loop 1 0
 mod cartes coords mol 2
   6   0.00000   0.00000   7.88975
   6   0.00000  -1.20759   7.18778
   6   0.00000  -1.20907   5.80351
   6   0.00000   0.00000   5.06651
   6   0.00000   1.20907   5.80351
   6   0.00000   1.20759   7.18778
   6   0.00000   0.00000   3.60265
   6   0.00000   1.20432   2.85084
   6   0.00000   1.20549   1.47779
   6   0.00000   0.00000   0.72522
   6   0.00000  -1.20549   1.47779
   6   0.00000  -1.20432   2.85084
   6   0.00000   0.00000  -0.72522
   6   0.00000   1.20549  -1.47779
   6   0.00000   1.20432  -2.85084
   6   0.00000   0.00000  -3.60265
   6   0.00000  -1.20432  -2.85084
   6   0.00000  -1.20549  -1.47779
   6   0.00000   0.00000  -5.06651
   6   0.00000   1.20907  -5.80351
   6   0.00000   1.20759  -7.18778
   6   0.00000   0.00000  -7.88975
   6   0.00000  -1.20759  -7.18778
   6   0.00000  -1.20907  -5.80351
   1   0.00000   0.00000   8.97327
   1   0.00000  -2.14795   7.72553
   1   0.00000  -2.16351   5.29617
   1   0.00000   2.16351   5.29617
   1   0.00000   2.14795   7.72553
   1   0.00000   2.15943   3.35507
   1   0.00000   2.16191   0.97500
   1   0.00000  -2.16191   0.97500
   1   0.00000  -2.15943   3.35507
   1   0.00000   2.16191  -0.97500
   1   0.00000   2.15943  -3.35507
   1   0.00000  -2.15943  -3.35507
   1   0.00000  -2.16191  -0.97500
   1   0.00000   2.16351  -5.29617
   1   0.00000   2.14795  -7.72553
   1   0.00000   0.00000  -8.97327
[...]
 109 B1u  3160.  0.9949    99.0   100.0 109 B1u  3182.
 110 Ag   3160. -0.9950    99.0   100.0 110 Ag   3182.
 111 B3g  3168. -0.9994    99.9   100.0 111 B3g  3190.
 112 B2u  3168.  0.9995    99.9   100.0 112 B2u  3190.
 113 B1u  3179. -0.7223    52.2   100.0 113 B1u  3199.
                -0.6794    46.2         116 B1u  3204.
 114 B3g  3181.  0.9853    97.1   100.0 115 B3g  3204.
 115 Ag   3183.  0.9662    93.4   100.0 114 Ag   3199.
 116 B1u  3185.  0.6844    46.8   100.0 113 B1u  3199.
                -0.7144    51.0         116 B1u  3204.
 117 B2u  3188.  0.9507    90.4   100.0 117 B2u  3208.
 118 Ag   3190. -0.9052    81.9   100.0 118 Ag   3209.
                -0.3429    11.8         121 Ag   3223.
 119 B3g  3194. -0.9758    95.2   100.0 119 B3g  3212.
 120 B1u  3196.  0.9738    94.8   100.0 120 B1u  3213.
 121 B2u  3201.  0.9485    90.0   100.0 122 B2u  3223.
 122 Ag   3202. -0.3514    12.4   100.0 118 Ag   3209.
                 0.9286    86.2         121 Ag   3223.
 123 B3g  3208.  0.9816    96.4   100.0 123 B3g  3230.
 124 B1u  3210.  0.9789    95.8   100.0 124 B1u  3231.
 125 B2u  3211.  0.9901    98.0   100.0 125 B2u  3234.
 126 Ag   3214.  0.9921    98.4   100.0 126 Ag   3236.
 nber times 1st assigned=           1           0
 nber times 1st assigned=           2           0
 nber times 1st assigned=           3           0
 nber times 1st assigned=           4           0
 nber times 1st assigned=           5           0
 nber times 1st assigned=           6           0
 nber times 1st assigned=           7           0
 nber times 1st assigned=           8           0
 nber times 1st assigned=           9           0
 nber times 1st assigned=          10           0
 nber times 1st assigned=          11           0
 nber times 1st assigned=          12           0
 nber times 1st assigned=          13           0
 nber times 1st assigned=          14           0
 nber times 1st assigned=          15           0
 nber times 1st assigned=          16           0
 nber times 1st assigned=          17           0
 nber times 1st assigned=          18           0
 nber times 1st assigned=          19           0
 nber times 1st assigned=          20           0
 nber times 1st assigned=          21           0
 nber times 1st assigned=          22           0
 nber times 1st assigned=          23           0
 nber times 1st assigned=          24           0
 nber times 1st assigned=          25           0
 nber times 1st assigned=          26           0
 nber times 1st assigned=          27           0
 nber times 1st assigned=          28           0
 nber times 1st assigned=          29           0
 nber times 1st assigned=          30           0
 nber times 1st assigned=          31           0
 nber times 1st assigned=          32           0
 nber times 1st assigned=          33           0
 nber times 1st assigned=          34           0
 nber times 1st assigned=          35           0
 nber times 1st assigned=          36           0
 nber times 1st assigned=          37           0
 nber times 1st assigned=          38           0
 nber times 1st assigned=          39           0
 nber times 1st assigned=          40           0
 nber times 1st assigned=          41           0
 nber times 1st assigned=          42           0
 nber times 1st assigned=          43           0
 nber times 1st assigned=          44           0
 nber times 1st assigned=          45           0
 nber times 1st assigned=          46           0
 nber times 1st assigned=          47           0
 nber times 1st assigned=          48           0
 nber times 1st assigned=          49           0
 nber times 1st assigned=          50           0
 nber times 1st assigned=          51           0
 nber times 1st assigned=          52           0
 nber times 1st assigned=          53           0
 nber times 1st assigned=          54           0
 nber times 1st assigned=          55           0
 nber times 1st assigned=          56           0
 nber times 1st assigned=          57           0
 nber times 1st assigned=          58           0
 nber times 1st assigned=          59           0
 nber times 1st assigned=          60           0
 nber times 1st assigned=          61           0
 nber times 1st assigned=          62           0
 nber times 1st assigned=          63           0
 nber times 1st assigned=          64           0
 nber times 1st assigned=          65           0
 nber times 1st assigned=          66           0
 nber times 1st assigned=          67           0
 nber times 1st assigned=          68           0
 nber times 1st assigned=          69           0
 nber times 1st assigned=          70           0
 nber times 1st assigned=          71           0
 nber times 1st assigned=          72           0
 nber times 1st assigned=          73           0
 nber times 1st assigned=          74           0
 nber times 1st assigned=          75           0
 nber times 1st assigned=          76           0
 nber times 1st assigned=          77           0
 nber times 1st assigned=          78           0
 nber times 1st assigned=          79           0
 nber times 1st assigned=          80           0
 nber times 1st assigned=          81           0
 nber times 1st assigned=          82           0
 nber times 1st assigned=          83           0
 nber times 1st assigned=          84           0
 nber times 1st assigned=          85           0
 nber times 1st assigned=          86           0
 nber times 1st assigned=          87           0
 nber times 1st assigned=          88           0
 nber times 1st assigned=          89           0
 nber times 1st assigned=          90           0
 nber times 1st assigned=          91           0
 nber times 1st assigned=          92           0
 nber times 1st assigned=          93           0
 nber times 1st assigned=          94           0
 nber times 1st assigned=          95           0
 nber times 1st assigned=          96           0
 nber times 1st assigned=          97           0
 nber times 1st assigned=          98           0
 nber times 1st assigned=          99           0
 nber times 1st assigned=         100           0
 nber times 1st assigned=         101           0
 nber times 1st assigned=         102           0
 nber times 1st assigned=         103           0
 nber times 1st assigned=         104           0
 nber times 1st assigned=         105           0
 nber times 1st assigned=         106           0
 nber times 1st assigned=         107           0
 nber times 1st assigned=         108           0
 nber times 1st assigned=         109           0
 nber times 1st assigned=         110           0
 nber times 1st assigned=         111           0
 nber times 1st assigned=         112           0
 nber times 1st assigned=         113           0
 nber times 1st assigned=         114           0
 nber times 1st assigned=         115           0
 nber times 1st assigned=         116           0
 nber times 1st assigned=         117           0
 nber times 1st assigned=         118           0
 nber times 1st assigned=         119           0
 nber times 1st assigned=         120           0
 nber times 1st assigned=         121           0
 nber times 1st assigned=         122           0
 nber times 1st assigned=         123           0
 nber times 1st assigned=         124           0
 nber times 1st assigned=         125           0
 nber times 1st assigned=         126           0
 modes represented=   120.065759666470     
 p1=
   -0.   -0.    0.    0.   -0.   -0.    0.   -0.    0.    0.   -0.   -0.    0.   -0.   -0.   27.    0.   -0.   -0.   -0.
    0.   -0.   -0.    0.    0.    0.    0.   -0.   -2.    0.   -0.    0.    0.    0.   -0.   -0.    0.    2.    0.    0.
    0.   -0.    0.    0.    0.   -0.    4.    0.    0.   -0.   -0.    0.    0.   -0.   -0.   -0.    0.    0.    0.    0.
    0.   -0.    0.    1.   -0.    1.   -0.    0.   -0.   -1.    0.   -0.   -0.    0.   -0.   -0.    0.    0.    0.    0.
   -4.   -0.    0.    1.   -0.   -0.   -0.   -0.    0.    0.    0.    0.    0.    0.   -0.    0.   -0.    0.    0.   -0.
    0.   -0.   -0.   -0.   -3.    0.    1.   -0.    0.   -0.   -0.   -0.    0.   -0.    0.    0.    0.   -0.   -0.   -0.
   -0.   -0.    0.   -0.   -0.   -0.
 p2=
   -0.    0.   -0.    0.    0.    0.   -0.   -0.   -0.    0.   -0.    0.    0.    0.   -0.  -27.    0.   -0.    0.    0.
   -0.    0.    0.   -0.   -0.   -0.    0.   -0.   -0.    2.    0.   -0.   -0.   -0.    0.    0.    0.    0.   -0.   -1.
   -0.   -0.    0.   -0.   -0.    4.    0.   -0.    0.   -0.    0.    0.    0.    0.    0.   -0.   -0.   -0.   -0.   -0.
    0.   -0.   -0.   -1.   -0.    0.    0.   -1.   -0.   -0.    1.   -0.   -0.   -0.   -0.    0.    0.   -0.   -0.   -0.
   -4.    0.   -0.   -0.    0.    1.   -0.   -1.   -0.   -0.   -0.   -0.    0.    0.    0.    0.   -0.    1.    0.    0.
    0.   -0.    0.   -0.   -0.    1.   -3.    0.   -0.   -0.    0.    0.    0.   -0.   -0.    0.   -0.   -0.   -0.    0.
    0.    0.    0.    0.   -0.    0.

 Displacement: in terms of nc of 1 THEN of nc of 2

   1 Au  freq=  -102. Q= -0.000 lam=    -0.0 Au  freq=   -78. Q= -0.000 lam=    -0.0
   2 B1g freq=   -81. Q= -0.000 lam=    -0.0 B1g freq=   -65. Q= -0.000 lam=    -0.0
   3 Au  freq=   -43. Q=  0.000 lam=    -0.0 Au  freq=   -30. Q=  0.000 lam=    -0.0
   4 B3g freq=    -0. Q=  0.000 lam=    -0.0 B3g freq=    -0. Q=  0.000 lam=    -0.0
   5 B1u freq=    -0. Q= -0.000 lam=    -0.0 B2u freq=    -0. Q= -0.000 lam=    -0.0
   6 B2u freq=    -0. Q= -0.000 lam=    -0.0 B1u freq=    -0. Q= -0.000 lam=    -0.0
   7 B2g freq=     0. Q=  0.000 lam=     0.0 B2g freq=    -0. Q=  0.000 lam=    -0.0
   8 B1g freq=     0. Q= -0.000 lam=     0.0 B3u freq=    -0. Q= -0.000 lam=    -0.0
   9 B3u freq=     0. Q=  0.000 lam=     0.0 B1g freq=     0. Q=  0.000 lam=     0.0
  10 B3u freq=    21. Q=  0.000 lam=     0.0 B3u freq=    19. Q=  0.000 lam=     0.0
  11 B2u freq=    58. Q= -0.000 lam=     0.0 B2g freq=    53. Q= -0.000 lam=     0.0
  12 B2g freq=    59. Q= -0.000 lam=     0.0 B2u freq=    61. Q= -0.000 lam=     0.0
  13 B3u freq=   123. Q=  0.000 lam=     0.0 B3u freq=   115. Q=  0.000 lam=     0.0
  14 B3g freq=   142. Q= -0.000 lam=     0.0 B3g freq=   146. Q= -0.000 lam=     0.0
  15 B2g freq=   172. Q= -0.000 lam=     0.0 B2g freq=   157. Q= -0.000 lam=     0.0
  16 Ag  freq=   173. Q=  1.448 lam=   181.9 Ag  freq=   176. Q=  1.462 lam=   187.8
  17 B2u freq=   230. Q=  0.000 lam=     0.0 B2u freq=   234. Q=  0.000 lam=     0.0
  18 B3u freq=   257. Q= -0.000 lam=     0.0 B3u freq=   238. Q= -0.000 lam=     0.0
  19 B1u freq=   336. Q= -0.000 lam=     0.0 B2g freq=   321. Q= -0.000 lam=     0.0
  20 B2g freq=   344. Q= -0.000 lam=     0.0 B1u freq=   338. Q= -0.000 lam=     0.0
  21 B3g freq=   366. Q=  0.000 lam=     0.0 B3g freq=   369. Q=  0.000 lam=     0.0
  22 Au  freq=   382. Q= -0.000 lam=     0.0 Au  freq=   381. Q= -0.000 lam=     0.0
  23 B1g freq=   395. Q= -0.000 lam=     0.0 B1g freq=   384. Q= -0.000 lam=     0.0
  24 Au  freq=   409. Q=  0.000 lam=     0.0 Au  freq=   395. Q=  0.000 lam=     0.0
  25 B1g freq=   416. Q=  0.000 lam=     0.0 B1g freq=   396. Q=  0.000 lam=     0.0
  26 B2u freq=   431. Q=  0.000 lam=     0.0 B2u freq=   433. Q=  0.000 lam=     0.0
  27 B3u freq=   457. Q=  0.000 lam=     0.0 B3u freq=   443. Q=  0.000 lam=     0.0
  28 B3g freq=   476. Q= -0.000 lam=     0.0 B3g freq=   477. Q= -0.000 lam=     0.0
  29 Ag  freq=   477. Q= -0.153 lam=     5.6 B2g freq=   480. Q= -0.000 lam=     0.0
  30 B2g freq=   509. Q=  0.000 lam=     0.0 Ag  freq=   484. Q=  0.158 lam=     6.0
  31 B3u freq=   553. Q= -0.000 lam=     0.0 B3u freq=   538. Q= -0.000 lam=     0.0
  32 B2g freq=   556. Q=  0.000 lam=     0.0 B2g freq=   555. Q=  0.000 lam=     0.0
  33 B1u freq=   626. Q=  0.000 lam=     0.0 B3g freq=   615. Q=  0.000 lam=     0.0
  34 B3g freq=   631. Q=  0.000 lam=     0.0 B2u freq=   621. Q=  0.000 lam=     0.0
  35 B2u freq=   633. Q= -0.000 lam=     0.0 B1u freq=   621. Q= -0.000 lam=     0.0
  36 B3g freq=   654. Q= -0.000 lam=     0.0 B3g freq=   638. Q= -0.000 lam=     0.0
  37 B2u freq=   669. Q=  0.000 lam=     0.0 B2u freq=   654. Q=  0.000 lam=     0.0
  38 Ag  freq=   688. Q=  0.161 lam=     8.9 B3u freq=   674. Q=  0.000 lam=     0.0
  39 B3u freq=   693. Q=  0.000 lam=     0.0 B2g freq=   676. Q=  0.000 lam=     0.0
  40 B2g freq=   697. Q=  0.000 lam=     0.0 Ag  freq=   688. Q=  0.150 lam=     7.7
  41 B3u freq=   727. Q=  0.000 lam=     0.0 B3u freq=   722. Q=  0.000 lam=     0.0
  42 B2g freq=   732. Q= -0.000 lam=     0.0 B2g freq=   738. Q= -0.000 lam=     0.0
  43 B1u freq=   754. Q=  0.000 lam=     0.0 B1u freq=   749. Q=  0.000 lam=     0.0
  44 B3u freq=   772. Q=  0.000 lam=     0.0 B3u freq=   784. Q=  0.000 lam=     0.0
  45 B2g freq=   788. Q=  0.000 lam=     0.0 Au  freq=   796. Q=  0.000 lam=     0.0
  46 Au  freq=   800. Q= -0.000 lam=     0.0 Ag  freq=   799. Q= -0.496 lam=    98.5
  47 Ag  freq=   805. Q=  0.466 lam=    87.5 B2g freq=   800. Q=  0.000 lam=     0.0
  48 B1g freq=   816. Q=  0.000 lam=     0.0 B1g freq=   806. Q=  0.000 lam=     0.0
  49 Au  freq=   839. Q=  0.000 lam=     0.0 Au  freq=   830. Q=  0.000 lam=     0.0
  50 B3u freq=   842. Q= -0.000 lam=     0.0 B1g freq=   831. Q= -0.000 lam=     0.0
  51 B1g freq=   846. Q= -0.000 lam=     0.0 B3u freq=   853. Q= -0.000 lam=     0.0
  52 B2g freq=   859. Q=  0.000 lam=     0.0 B2g freq=   868. Q=  0.000 lam=     0.0
  53 B3u freq=   919. Q=  0.000 lam=     0.0 B2g freq=   942. Q=  0.000 lam=     0.0
  54 B2g freq=   919. Q= -0.000 lam=     0.0 B3u freq=   942. Q= -0.000 lam=     0.0
  55 Au  freq=   938. Q= -0.000 lam=     0.0 Au  freq=   967. Q= -0.000 lam=     0.0
  56 B2g freq=   949. Q= -0.000 lam=     0.0 B2g freq=   973. Q= -0.000 lam=     0.0
  57 B1g freq=   957. Q=  0.000 lam=     0.0 B1g freq=   982. Q=  0.000 lam=     0.0
  58 B3u freq=   960. Q=  0.000 lam=     0.0 B3u freq=   986. Q=  0.000 lam=     0.0
  59 Au  freq=   973. Q=  0.000 lam=     0.0 Au  freq=   993. Q=  0.000 lam=     0.0
  60 B1g freq=   975. Q=  0.000 lam=     0.0 B1g freq=   996. Q=  0.000 lam=     0.0
  61 B2g freq=   998. Q=  0.000 lam=     0.0 B1u freq=   996. Q=  0.000 lam=     0.0
  62 B3u freq=   998. Q= -0.000 lam=     0.0 Ag  freq=  1003. Q= -0.021 lam=     0.2
  63 B1u freq=  1011. Q=  0.000 lam=     0.0 B1u freq=  1004. Q=  0.000 lam=     0.0
  64 Ag  freq=  1015. Q=  0.135 lam=     9.2 Ag  freq=  1012. Q=  0.162 lam=    13.4
  65 B1u freq=  1016. Q= -0.000 lam=     0.0 B1u freq=  1013. Q= -0.000 lam=     0.0
  66 Ag  freq=  1021. Q=  0.140 lam=    10.0 B2g freq=  1023. Q=  0.000 lam=     0.0
  67 B1u freq=  1022. Q= -0.000 lam=     0.0 B3u freq=  1023. Q= -0.000 lam=     0.0
  68 Ag  freq=  1045. Q=  0.050 lam=     1.3 Ag  freq=  1028. Q=  0.133 lam=     9.2
  69 B1u freq=  1061. Q= -0.000 lam=     0.0 B1u freq=  1039. Q= -0.000 lam=     0.0
  70 Ag  freq=  1065. Q= -0.111 lam=     6.6 B1u freq=  1053. Q= -0.000 lam=     0.0
  71 B1u freq=  1065. Q=  0.000 lam=     0.0 Ag  freq=  1054. Q=  0.113 lam=     6.7
  72 B3g freq=  1112. Q= -0.000 lam=     0.0 B3g freq=  1121. Q= -0.000 lam=     0.0
  73 B2u freq=  1112. Q= -0.000 lam=     0.0 B2u freq=  1121. Q= -0.000 lam=     0.0
  74 B3g freq=  1156. Q=  0.000 lam=     0.0 B3g freq=  1167. Q=  0.000 lam=     0.0
  75 B2u freq=  1172. Q= -0.000 lam=     0.0 B2u freq=  1175. Q= -0.000 lam=     0.0
  76 B3g freq=  1187. Q= -0.000 lam=     0.0 B3g freq=  1195. Q= -0.000 lam=     0.0
  77 B2u freq=  1190. Q=  0.000 lam=     0.0 B2u freq=  1196. Q=  0.000 lam=     0.0
  78 B1u freq=  1209. Q=  0.000 lam=     0.0 B1u freq=  1215. Q=  0.000 lam=     0.0
  79 Ag  freq=  1215. Q=  0.063 lam=     2.4 Ag  freq=  1221. Q=  0.035 lam=     0.8
  80 B1u freq=  1242. Q=  0.000 lam=     0.0 B1u freq=  1245. Q=  0.000 lam=     0.0
  81 Ag  freq=  1251. Q= -0.602 lam=   226.3 Ag  freq=  1261. Q= -0.568 lam=   203.1
  82 B1u freq=  1289. Q= -0.000 lam=     0.0 B3g freq=  1306. Q= -0.000 lam=     0.0
  83 B2u freq=  1290. Q=  0.000 lam=     0.0 B2u freq=  1308. Q=  0.000 lam=     0.0
  84 Ag  freq=  1295. Q=  0.187 lam=    22.5 B1u freq=  1310. Q=  0.000 lam=     0.0
  85 B3g freq=  1296. Q= -0.000 lam=     0.0 B2u freq=  1312. Q= -0.000 lam=     0.0
  86 Ag  freq=  1311. Q= -0.039 lam=     1.0 Ag  freq=  1333. Q= -0.193 lam=    24.8
  87 B2u freq=  1312. Q= -0.000 lam=     0.0 B3g freq=  1347. Q= -0.000 lam=     0.0
  88 B3g freq=  1320. Q= -0.000 lam=     0.0 Ag  freq=  1348. Q= -0.201 lam=    27.4
  89 B3g freq=  1348. Q=  0.000 lam=     0.0 B3g freq=  1352. Q=  0.000 lam=     0.0
  90 B2u freq=  1357. Q=  0.000 lam=     0.0 B2u freq=  1356. Q=  0.000 lam=     0.0
  91 B2u freq=  1367. Q=  0.000 lam=     0.0 B2u freq=  1370. Q=  0.000 lam=     0.0
  92 B3g freq=  1374. Q=  0.000 lam=     0.0 B3g freq=  1378. Q=  0.000 lam=     0.0
  93 B2u freq=  1436. Q=  0.000 lam=     0.0 B3g freq=  1465. Q=  0.000 lam=     0.0
  94 B3g freq=  1445. Q=  0.000 lam=     0.0 B2u freq=  1472. Q=  0.000 lam=     0.0
  95 B2u freq=  1478. Q= -0.000 lam=     0.0 B2u freq=  1480. Q= -0.000 lam=     0.0
  96 B3g freq=  1487. Q=  0.000 lam=     0.0 B3g freq=  1497. Q=  0.000 lam=     0.0
  97 B1u freq=  1519. Q= -0.000 lam=     0.0 B1u freq=  1501. Q= -0.000 lam=     0.0
  98 Ag  freq=  1529. Q=  0.069 lam=     3.7 Ag  freq=  1520. Q=  0.089 lam=     6.1
  99 B1u freq=  1553. Q=  0.000 lam=     0.0 B2u freq=  1540. Q=  0.000 lam=     0.0
 100 Ag  freq=  1575. Q= -0.004 lam=     0.0 B1u freq=  1541. Q= -0.000 lam=     0.0
 101 B2u freq=  1584. Q=  0.000 lam=     0.0 B3g freq=  1545. Q=  0.000 lam=     0.0
 102 B3g freq=  1605. Q= -0.000 lam=     0.0 Ag  freq=  1562. Q= -0.016 lam=     0.2
 103 B2u freq=  1623. Q= -0.000 lam=     0.0 B3g freq=  1592. Q= -0.000 lam=     0.0
 104 B3g freq=  1624. Q= -0.000 lam=     0.0 B2u freq=  1592. Q= -0.000 lam=     0.0
 105 Ag  freq=  1635. Q= -0.562 lam=   258.7 B1u freq=  1614. Q= -0.000 lam=     0.0
 106 B1u freq=  1642. Q=  0.000 lam=     0.0 Ag  freq=  1630. Q=  0.093 lam=     7.0
 107 Ag  freq=  1650. Q=  0.187 lam=    28.9 Ag  freq=  1640. Q=  0.551 lam=   249.2
 108 B1u freq=  1660. Q= -0.000 lam=     0.0 B1u freq=  1648. Q= -0.000 lam=     0.0
 109 B1u freq=  3160. Q=  0.000 lam=     0.0 B1u freq=  3182. Q=  0.000 lam=     0.0
 110 Ag  freq=  3160. Q= -0.013 lam=     0.3 Ag  freq=  3182. Q= -0.010 lam=     0.2
 111 B3g freq=  3168. Q= -0.000 lam=     0.0 B3g freq=  3190. Q= -0.000 lam=     0.0
 112 B2u freq=  3168. Q= -0.000 lam=     0.0 B2u freq=  3190. Q= -0.000 lam=     0.0
 113 B1u freq=  3179. Q=  0.000 lam=     0.0 B1u freq=  3199. Q=  0.000 lam=     0.0
 114 B3g freq=  3181. Q= -0.000 lam=     0.0 Ag  freq=  3199. Q= -0.017 lam=     0.5
 115 Ag  freq=  3183. Q=  0.015 lam=     0.3 B3g freq=  3204. Q=  0.000 lam=     0.0
 116 B1u freq=  3185. Q=  0.000 lam=     0.0 B1u freq=  3204. Q=  0.000 lam=     0.0
 117 B2u freq=  3188. Q=  0.000 lam=     0.0 B2u freq=  3208. Q=  0.000 lam=     0.0
 118 Ag  freq=  3190. Q= -0.011 lam=     0.2 Ag  freq=  3209. Q= -0.015 lam=     0.3
 119 B3g freq=  3194. Q= -0.000 lam=     0.0 B3g freq=  3212. Q= -0.000 lam=     0.0
 120 B1u freq=  3196. Q= -0.000 lam=     0.0 B1u freq=  3213. Q= -0.000 lam=     0.0
 121 B2u freq=  3201. Q= -0.000 lam=     0.0 Ag  freq=  3223. Q= -0.007 lam=     0.1
 122 Ag  freq=  3202. Q= -0.005 lam=     0.0 B2u freq=  3223. Q= -0.000 lam=     0.0
 123 B3g freq=  3208. Q=  0.000 lam=     0.0 B3g freq=  3230. Q=  0.000 lam=     0.0
 124 B1u freq=  3210. Q= -0.000 lam=     0.0 B1u freq=  3231. Q= -0.000 lam=     0.0
 125 B2u freq=  3211. Q= -0.000 lam=     0.0 B2u freq=  3234. Q= -0.000 lam=     0.0
 126 Ag  freq=  3214. Q= -0.045 lam=     3.3 Ag  freq=  3236. Q= -0.042 lam=     2.8

 total reorg energy (cm**-1, kcal/mol)=      859.      852.      2.46      2.44
 Nber of molecules processed=           2
