 Enter ifcurve (0=recti, 1=orth curvi, 2=apprx curvi, -1 = skip
 And atom ordering flag, 0= never changes, 1= use the first order thenceforth,
  2= deduce it (does read on fail), 3= always read it
 Reading file: 
 ./phenothiazine-pyrene_0_C0S0.log                                              
                                          
  Entering Gaussian System, Link 0=g16                                          
  
 Gaussian format, type: g94, g98, g03= F F F
  #P Geom=AllCheck Guess=TCheck SCRF=Check GenChk RB3LYP/6-311G(d,p) Fre    
 energy type= B3LYP   
 Original G94 input coords:
  6 -4.417919  3.781124  0.000000
  6 -3.039224  3.778384  0.000000
  6 -2.323176  2.583921  0.000000
  6 -2.866077  1.276939  0.000000
  6 -4.287120  1.342772  0.000000
  6 -5.015502  2.539908  0.000000
 16 -5.397744  0.000000  0.000000
  6 -4.287120 -1.342772  0.000000
  6 -5.015502 -2.539908  0.000000
  6 -4.417919 -3.781124  0.000000
  6 -3.039224 -3.778384  0.000000
  6 -2.323176 -2.583921  0.000000
  6 -2.866077 -1.276939  0.000000
  7 -2.085574  0.000000  0.000000
  6 -0.592081  0.000000  0.000000
  6  0.225866 -1.162120  0.000000
  6  1.626976 -1.192256  0.000000
  6  2.356402 -2.434487  0.000000
  6  3.716461 -2.452002  0.000000
  6  4.489131 -1.237808  0.000000
  6  5.890635 -1.212447  0.000000
  6  6.576685  0.000000  0.000000
  6  5.890635  1.212447  0.000000
  6  4.489131  1.237808  0.000000
  6  3.716461  2.452002  0.000000
  6  2.356402  2.434487  0.000000
  6  1.626976  1.192256  0.000000
  6  0.225866  1.162120  0.000000
  6  2.370823  0.000000  0.000000
  6  3.787720  0.000000  0.000000
  1 -5.002111  4.692361  0.000000
  1 -2.474444  4.703063  0.000000
  1 -1.288729  2.779346  0.000000
  1 -6.097671  2.460865  0.000000
  1 -6.097671 -2.460865  0.000000
  1 -5.002111 -4.692361  0.000000
  1 -2.474444 -4.703063  0.000000
  1 -1.288729 -2.779346  0.000000
  1 -0.144608 -2.148739  0.000000
  1  1.801969 -3.367641  0.000000
  1  4.247771 -3.398393  0.000000
  1  6.440902 -2.147639  0.000000
  1  7.661103  0.000000  0.000000
  1  6.440902  2.147639  0.000000
  1  4.247771  3.398393  0.000000
  1  1.801969  3.367641  0.000000
  1 -0.144608  2.148739  0.000000
 nber atoms=          47
 Original standard coords:
  6  0.000000  3.781124  4.085229
  6  0.000000  3.778384  2.706535
  6  0.000000  2.583921  1.990487
  6  0.000000  1.276939  2.533388
  6  0.000000  1.342772  3.954431
  6  0.000000  2.539908  4.682813
 16  0.000000  0.000000  5.065055
  6  0.000000 -1.342772  3.954431
  6  0.000000 -2.539908  4.682813
  6  0.000000 -3.781124  4.085229
  6  0.000000 -3.778384  2.706535
  6  0.000000 -2.583921  1.990487
  6  0.000000 -1.276939  2.533388
  7  0.000000  0.000000  1.752885
  6  0.000000  0.000000  0.259392
  6  0.000000 -1.162120 -0.558555
  6  0.000000 -1.192256 -1.959665
  6  0.000000 -2.434487 -2.689092
  6  0.000000 -2.452002 -4.049150
  6  0.000000 -1.237808 -4.821820
  6  0.000000 -1.212447 -6.223324
  6  0.000000  0.000000 -6.909374
  6  0.000000  1.212447 -6.223324
  6  0.000000  1.237808 -4.821820
  6  0.000000  2.452002 -4.049150
  6  0.000000  2.434487 -2.689092
  6  0.000000  1.192256 -1.959665
  6  0.000000  1.162120 -0.558555
  6  0.000000  0.000000 -2.703512
  6  0.000000  0.000000 -4.120409
  1  0.000000  4.692361  4.669422
  1  0.000000  4.703063  2.141754
  1  0.000000  2.779346  0.956040
  1  0.000000  2.460865  5.764982
  1  0.000000 -2.460865  5.764982
  1  0.000000 -4.692361  4.669422
  1  0.000000 -4.703063  2.141754
  1  0.000000 -2.779346  0.956040
  1  0.000000 -2.148739 -0.188081
  1  0.000000 -3.367641 -2.134658
  1  0.000000 -3.398393 -4.580461
  1  0.000000 -2.147639 -6.773591
  1  0.000000  0.000000 -7.993792
  1  0.000000  2.147639 -6.773591
  1  0.000000  3.398393 -4.580461
  1  0.000000  3.367641 -2.134658
  1  0.000000  2.148739 -0.188081
  SCF Done:  E(RB3LYP) =  -1530.38539360     A.U. after    1 cycles             
  
          23          40 "  -1530.38539360"
After scan for Atom:   Atom  AN      X      Y      Z        X      Y      Z        X      Y      Z   
After scan for Atom:   Atom  AN      X      Y      Z        X      Y      Z        X      Y      Z   
After scan for Atom:   Atom  AN      X      Y      Z        X      Y      Z        X      Y      Z   
After scan for Atom:   Atom  AN      X      Y      Z        X      Y      Z        X      Y      Z   
After scan for Atom:   Atom  AN      X      Y      Z        X      Y      Z        X      Y      Z   
After scan for Atom:   Atom  AN      X      Y      Z        X      Y      Z        X      Y      Z   
After scan for Atom:   Atom  AN      X      Y      Z        X      Y      Z        X      Y      Z   
After scan for Atom:   Atom  AN      X      Y      Z        X      Y      Z        X      Y      Z   
After scan for Atom:   Atom  AN      X      Y      Z        X      Y      Z        X      Y      Z   
After scan for Atom:   Atom  AN      X      Y      Z        X      Y      Z        X      Y      Z   
After scan for Atom:   Atom  AN      X      Y      Z        X      Y      Z        X      Y      Z   
After scan for Atom:   Atom  AN      X      Y      Z        X      Y      Z        X      Y      Z   
After scan for Atom:   Atom  AN      X      Y      Z        X      Y      Z        X      Y      Z   
After scan for Atom:   Atom  AN      X      Y      Z        X      Y      Z        X      Y      Z   
After scan for Atom:   Atom  AN      X      Y      Z        X      Y      Z        X      Y      Z   
After scan for Atom:   Atom  AN      X      Y      Z        X      Y      Z        X      Y      Z   
After scan for Atom:   Atom  AN      X      Y      Z        X      Y      Z        X      Y      Z   
After scan for Atom:   Atom  AN      X      Y      Z        X      Y      Z        X      Y      Z   
After scan for Atom:   Atom  AN      X      Y      Z        X      Y      Z        X      Y      Z   
After scan for Atom:   Atom  AN      X      Y      Z        X      Y      Z        X      Y      Z   
After scan for Atom:   Atom  AN      X      Y      Z        X      Y      Z        X      Y      Z   
After scan for Atom:   Atom  AN      X      Y      Z        X      Y      Z        X      Y      Z   
After scan for Atom:   Atom  AN      X      Y      Z        X      Y      Z        X      Y      Z   
After scan for Atom:   Atom  AN      X      Y      Z        X      Y      Z        X      Y      Z   
After scan for Atom:   Atom  AN      X      Y      Z        X      Y      Z        X      Y      Z   
After scan for Atom:   Atom  AN      X      Y      Z        X      Y      Z        X      Y      Z   
After scan for Atom:   Atom  AN      X      Y      Z        X      Y      Z        X      Y      Z   
After scan for Atom:   Atom  AN      X      Y      Z        X      Y      Z        X      Y      Z   
After scan for Atom:   Atom  AN      X      Y      Z        X      Y      Z        X      Y      Z   
After scan for Atom:   Atom  AN      X      Y      Z        X      Y      Z        X      Y      Z   
After scan for Atom:   Atom  AN      X      Y      Z        X      Y      Z        X      Y      Z   
After scan for Atom:   Atom  AN      X      Y      Z        X      Y      Z        X      Y      Z   
After scan for Atom:   Atom  AN      X      Y      Z        X      Y      Z        X      Y      Z   
After scan for Atom:   Atom  AN      X      Y      Z        X      Y      Z        X      Y      Z   
After scan for Atom:   Atom  AN      X      Y      Z        X      Y      Z        X      Y      Z   
After scan for Atom:   Atom  AN      X      Y      Z        X      Y      Z        X      Y      Z   
After scan for Atom:   Atom  AN      X      Y      Z        X      Y      Z        X      Y      Z   
After scan for Atom:   Atom  AN      X      Y      Z        X      Y      Z        X      Y      Z   
After scan for Atom:   Atom  AN      X      Y      Z        X      Y      Z        X      Y      Z   
After scan for Atom:   Atom  AN      X      Y      Z        X      Y      Z        X      Y      Z   
After scan for Atom:   Atom  AN      X      Y      Z        X      Y      Z        X      Y      Z   
After scan for Atom:   Atom  AN      X      Y      Z        X      Y      Z        X      Y      Z   
After scan for Atom:   Atom  AN      X      Y      Z        X      Y      Z        X      Y      Z   
After scan for Atom:   Atom  AN      X      Y      Z        X      Y      Z        X      Y      Z   
After scan for Atom:   Atom  AN      X      Y      Z        X      Y      Z        X      Y      Z   
 g94    frequencies=
     0.0    0.0    0.0    0.0    0.0    0.0 -543.6 -516.6  -70.4  -64.6
   -20.9   83.8   91.8   93.0  157.4  185.4  188.5  201.7  209.3  239.1
   247.3  253.4  336.5  345.0  347.3  355.8  372.9  397.3  398.2  450.9
   472.9  473.8  487.3  492.7  505.1  505.4  521.0  527.8  534.9  541.5
   560.8  575.8  581.0  617.5  640.9  647.7  658.7  663.5  691.8  697.3
   710.6  729.0  733.2  739.6  749.6  751.3  771.3  788.3  805.1  806.3
   824.9  827.6  830.5  838.4  853.2  865.1  906.2  907.4  912.5  937.5
   968.5  969.1  973.9  975.5  986.7 1007.0 1013.7 1055.5 1056.3 1089.1
  1096.7 1102.4 1121.0 1121.9 1134.6 1158.9 1161.0 1170.3 1174.7 1180.3
  1193.2 1205.8 1222.8 1240.1 1252.5 1265.7 1274.6 1286.5 1299.4 1316.3
  1331.8 1359.7 1385.7 1400.5 1412.0 1444.8 1447.4 1459.1 1464.1 1478.2
  1497.9 1503.2 1522.4 1542.7 1554.5 1593.9 1612.2 1627.4 1628.1 1635.6
  1639.6 1641.8 1646.2 1674.2 3151.9 3152.0 3156.8 3157.2 3157.3 3165.3
  3170.9 3171.1 3176.0 3176.1 3181.9 3201.2 3201.3 3447.1 3447.5 3591.1
  3592.3
 g94    symmetries=
                                                A2     B1     B1     A2
      B1     B2     B1     A2     B1     A1     B1     A2     B2     A2
      A1     B1     A2     A1     B2     B1     B1     A2     B2     A1
      B1     B2     B2     A2     B2     A1     A1     B1     A2     B1
      B1     A2     B2     A1     B1     B2     A1     A2     A1     B1
      A2     B1     B2     A2     B1     A1     B1     B2     B1     A2
      A1     A2     B1     A1     B1     B2     B1     A2     A2     A1
      A2     B1     B1     A2     B1     B2     A1     B2     A1     A1
      A1     B2     A1     B2     B2     B2     A1     A1     B2     A1
      B2     B2     A1     B2     B2     A1     B2     A1     A1     B2
      A1     B2     B2     A1     B2     B2     A1     A1     B2     A1
      A1     B2     B2     B2     A1     A1     B2     A1     B2     B2
      A1     A1     B2     A1     B2     A1     A1     B2     A1     B2
      B2     A1     B2     A1     A1     B2     A1     A1     B2     A1
      B2
 atomic masses:
 12.0000 12.0000 12.0000 12.0000 12.0000 12.0000 31.9721 12.0000 12.0000 12.0000
 12.0000 12.0000 12.0000 14.0031 12.0000 12.0000 12.0000 12.0000 12.0000 12.0000
 12.0000 12.0000 12.0000 12.0000 12.0000 12.0000 12.0000 12.0000 12.0000 12.0000
  1.0078  1.0078  1.0078  1.0078  1.0078  1.0078  1.0078  1.0078  1.0078  1.0078
  1.0078  1.0078  1.0078  1.0078  1.0078  1.0078  1.0078
 looking for force constants in 
 ./phenothiazine-pyrene_0_C0S0.fchk                                             
  
 Cartesian Force Constants                  R   N=       10011                  
  
 n3=         141       10011
 g94-fc frequencies=
  -543.6 -516.6  -70.4  -64.6  -20.9   -6.1   -3.7   -2.6   -0.0   -0.0
     0.0   83.8   91.8   93.0  157.4  185.4  188.5  201.7  209.3  239.1
   247.3  253.4  336.5  345.0  347.3  355.8  372.9  397.3  398.3  450.9
   472.9  473.8  487.3  492.7  505.1  505.4  521.0  527.8  534.9  541.5
   560.8  575.8  581.0  617.5  641.0  647.8  658.7  663.5  691.8  697.3
   710.6  729.0  733.2  739.6  749.6  751.3  771.3  788.3  805.2  806.4
   824.9  827.6  830.5  838.4  853.2  865.1  906.2  907.5  912.5  937.5
   968.5  969.1  973.9  975.5  986.7 1007.0 1013.8 1055.5 1056.3 1089.1
  1096.7 1102.4 1121.0 1122.0 1134.6 1158.9 1161.0 1170.3 1174.7 1180.3
  1193.3 1205.9 1222.9 1240.1 1252.5 1265.8 1274.6 1286.5 1299.4 1316.3
  1331.9 1359.7 1385.7 1400.6 1412.0 1444.8 1447.5 1459.2 1464.2 1478.2
  1497.9 1503.2 1522.4 1542.8 1554.6 1594.0 1612.2 1627.5 1628.2 1635.7
  1639.6 1641.8 1646.2 1674.3 3152.0 3152.1 3156.8 3157.3 3157.4 3165.3
  3171.0 3171.2 3176.1 3176.2 3182.0 3201.3 3201.4 3447.2 3447.5 3591.2
  3592.3
 at 99999: n3=         141
 symm operator            1 :  T  nop=           1
 symm operator            2 :  F  nop=           1
 symm operator            3 :  F  nop=           1
 symm operator            4 :  F  nop=           1
 symm operator            5 :  F  nop=           1
 symm operator            6 :  T  nop=           2
 symm operator            7 :  T  nop=           3
 The point group of the molecule is C2V
 enforcing symm op           1  jsymt=          -1          -1           1
 enforcing symm op           6  jsymt=           1          -1           1
 enforcing symm op           7  jsymt=          -1           1           1
 cartesian coord symmetries:
 A1 :   47 A2 :   20 B1 :   27 B2 :   47
 Symmetry rotation matrix:
   1.00000   0.00000   0.00000
   0.00000   1.00000   0.00000
   0.00000   0.00000   1.00000

 Projecting out zero-frequency components
 generating redundant internal coords
         300        3600          47
 search for int coords
   1 str   2   1   1.379
   2 str   3   2   1.393
   3 str   4   3   1.415
   4 str   5   4   1.423
   5 str   6   1   1.378
   6 str   6   5   1.401
   7 str   7   5   1.743
   8 str   8   7   1.743
   9 str   9   8   1.401
  10 str  10   9   1.378
  11 str  11  10   1.379
  12 str  12  11   1.393
  13 str  13   8   1.423
  14 str  13  12   1.415
  15 str  14   4   1.497
  16 str  14  13   1.497
  17 str  15  14   1.493
  18 str  16  15   1.421
  19 str  17  16   1.401
  20 str  18  17   1.441
  21 str  19  18   1.360
  22 str  20  19   1.439
  23 str  21  20   1.402
  24 str  22  21   1.393
  25 str  23  22   1.393
  26 str  24  23   1.402
  27 str  25  24   1.439
  28 str  26  25   1.360
  29 str  27  26   1.441
  30 str  28  15   1.421
  31 str  28  27   1.401
  32 str  29  17   1.405
  33 str  29  27   1.405
  34 str  30  20   1.423
  35 str  30  24   1.423
  36 str  30  29   1.417
  37 str  31   1   1.082
  38 str  32   2   1.084
  39 str  33   3   1.053
  40 str  34   6   1.085
  41 str  35   9   1.085
  42 str  36  10   1.082
  43 str  37  11   1.084
  44 str  38  12   1.053
  45 str  39  16   1.054
  46 str  40  18   1.085
  47 str  41  19   1.085
  48 str  42  21   1.085
  49 str  43  22   1.084
  50 str  44  23   1.085
  51 str  45  25   1.085
  52 str  46  26   1.085
  53 str  47  28   1.054
 nber stretches=          53
  54 ben   1   2   3
  55 prop tor   1   2   3   4
  56 prop tor   1   2   3  33
  57 ben   1   2  32
  58 ben   1   6   5
  59 ben   1   6  34
  60 ben   2   1   6
  61 prop tor   2   1   6   5
  62 prop tor   2   1   6  34
  63 ben   2   1  31
  64 ben   2   3   4
  65 prop tor   2   3   4   5
  66 prop tor   2   3   4  14
  67 ben   2   3  33
  68 ben   3   2  32
  69 ben   3   4   5
  70 prop tor   3   4   5   6
  71 prop tor   3   4   5   7
  72 ben   3   4  14
  73 prop tor   3   4  14  13
  74 prop tor   3   4  14  15
  75 ben   4   3  33
  76 ben   4   5   6
  77 prop tor   4   5   6   1
  78 prop tor   4   5   6  34
  79 ben   4   5   7
  80 prop tor   4   5   7   8
  81 ben   4  14  13
  82 ben   4  14  15
  83 prop tor   4  14  15  16
  84 prop tor   4  14  15  28
  85 ben   5   4  14
  86 prop tor   5   4  14  13
  87 prop tor   5   4  14  15
  88 ben   5   6  34
  89 ben   5   7   8
  90 prop tor   5   7   8   9
  91 prop tor   5   7   8  13
  92 prop tor   6   1   2   3
  93 prop tor   6   1   2  32
  94 ben   6   1  31
  95 ben   6   5   7
  96 prop tor   6   5   7   8
  97 prop tor   7   5   6   1
  98 prop tor   7   5   6  34
  99 ben   7   8   9
 100 prop tor   7   8   9  10
 101 prop tor   7   8   9  35
 102 ben   7   8  13
 103 prop tor   7   8  13  12
 104 prop tor   7   8  13  14
 105 ben   8   9  10
 106 prop tor   8   9  10  11
 107 prop tor   8   9  10  36
 108 ben   8   9  35
 109 ben   8  13  12
 110 ben   8  13  14
 111 prop tor   8  13  14   4
 112 prop tor   8  13  14  15
 113 ben   9   8  13
 114 prop tor   9   8  13  12
 115 prop tor   9   8  13  14
 116 ben   9  10  11
 117 prop tor   9  10  11  12
 118 prop tor   9  10  11  37
 119 ben   9  10  36
 120 ben  10   9  35
 121 ben  10  11  12
 122 prop tor  10  11  12  13
 123 prop tor  10  11  12  38
 124 ben  10  11  37
 125 ben  11  10  36
 126 ben  11  12  13
 127 prop tor  11  12  13   8
 128 prop tor  11  12  13  14
 129 ben  11  12  38
 130 ben  12  11  37
 131 ben  12  13  14
 132 prop tor  12  13  14   4
 133 prop tor  12  13  14  15
 134 prop tor  13   8   9  10
 135 prop tor  13   8   9  35
 136 ben  13  12  38
 137 ben  13  14  15
 138 prop tor  13  14  15  16
 139 prop tor  13  14  15  28
 140 prop tor  14   4   5   6
 141 prop tor  14   4   5   7
 142 ben  14  15  16
 143 prop tor  14  15  16  17
 144 prop tor  14  15  16  39
 145 ben  14  15  28
 146 prop tor  14  15  28  27
 147 prop tor  14  15  28  47
 148 ben  15  16  17
 149 prop tor  15  16  17  18
 150 prop tor  15  16  17  29
 151 ben  15  16  39
 152 ben  15  28  27
 153 ben  15  28  47
 154 ben  16  15  28
 155 prop tor  16  15  28  27
 156 prop tor  16  15  28  47
 157 ben  16  17  18
 158 prop tor  16  17  18  19
 159 prop tor  16  17  18  40
 160 ben  16  17  29
 161 prop tor  16  17  29  27
 162 prop tor  16  17  29  30
 163 ben  17  16  39
 164 ben  17  18  19
 165 prop tor  17  18  19  20
 166 prop tor  17  18  19  41
 167 ben  17  18  40
 168 ben  17  29  27
 169 ben  17  29  30
 170 prop tor  17  29  30  20
 171 prop tor  17  29  30  24
 172 ben  18  17  29
 173 prop tor  18  17  29  27
 174 prop tor  18  17  29  30
 175 ben  18  19  20
 176 prop tor  18  19  20  21
 177 prop tor  18  19  20  30
 178 ben  18  19  41
 179 ben  19  18  40
 180 ben  19  20  21
 181 prop tor  19  20  21  22
 182 prop tor  19  20  21  42
 183 ben  19  20  30
 184 prop tor  19  20  30  24
 185 prop tor  19  20  30  29
 186 ben  20  19  41
 187 ben  20  21  22
 188 prop tor  20  21  22  23
 189 prop tor  20  21  22  43
 190 ben  20  21  42
 191 ben  20  30  24
 192 ben  20  30  29
 193 ben  21  20  30
 194 prop tor  21  20  30  24
 195 prop tor  21  20  30  29
 196 ben  21  22  23
 197 prop tor  21  22  23  24
 198 prop tor  21  22  23  44
 199 ben  21  22  43
 200 ben  22  21  42
 201 ben  22  23  24
 202 prop tor  22  23  24  25
 203 prop tor  22  23  24  30
 204 ben  22  23  44
 205 ben  23  22  43
 206 ben  23  24  25
 207 prop tor  23  24  25  26
 208 prop tor  23  24  25  45
 209 ben  23  24  30
 210 prop tor  23  24  30  20
 211 prop tor  23  24  30  29
 212 ben  24  23  44
 213 ben  24  25  26
 214 prop tor  24  25  26  27
 215 prop tor  24  25  26  46
 216 ben  24  25  45
 217 ben  24  30  29
 218 ben  25  24  30
 219 prop tor  25  24  30  20
 220 prop tor  25  24  30  29
 221 ben  25  26  27
 222 prop tor  25  26  27  28
 223 prop tor  25  26  27  29
 224 ben  25  26  46
 225 ben  26  25  45
 226 ben  26  27  28
 227 prop tor  26  27  28  15
 228 prop tor  26  27  28  47
 229 ben  26  27  29
 230 prop tor  26  27  29  17
 231 prop tor  26  27  29  30
 232 ben  27  26  46
 233 ben  27  28  47
 234 ben  27  29  30
 235 prop tor  27  29  30  20
 236 prop tor  27  29  30  24
 237 prop tor  28  15  16  17
 238 prop tor  28  15  16  39
 239 ben  28  27  29
 240 prop tor  28  27  29  17
 241 prop tor  28  27  29  30
 242 prop tor  29  17  18  19
 243 prop tor  29  17  18  40
 244 prop tor  29  27  28  15
 245 prop tor  29  27  28  47
 246 prop tor  30  20  21  22
 247 prop tor  30  20  21  42
 248 prop tor  30  24  25  26
 249 prop tor  30  24  25  45
 250 prop tor  31   1   2   3
 251 prop tor  31   1   2  32
 252 prop tor  31   1   6   5
 253 prop tor  31   1   6  34
 254 prop tor  32   2   3   4
 255 prop tor  32   2   3  33
 256 prop tor  33   3   4   5
 257 prop tor  33   3   4  14
 258 prop tor  35   9  10  11
 259 prop tor  35   9  10  36
 260 prop tor  36  10  11  12
 261 prop tor  36  10  11  37
 262 prop tor  37  11  12  13
 263 prop tor  37  11  12  38
 264 prop tor  38  12  13   8
 265 prop tor  38  12  13  14
 266 prop tor  39  16  17  18
 267 prop tor  39  16  17  29
 268 prop tor  40  18  19  20
 269 prop tor  40  18  19  41
 270 prop tor  41  19  20  21
 271 prop tor  41  19  20  30
 272 prop tor  42  21  22  23
 273 prop tor  42  21  22  43
 274 prop tor  43  22  23  24
 275 prop tor  43  22  23  44
 276 prop tor  44  23  24  25
 277 prop tor  44  23  24  30
 278 prop tor  45  25  26  27
 279 prop tor  45  25  26  46
 280 prop tor  46  26  27  28
 281 prop tor  46  26  27  29
 nber bend=              88
 nber lin bend=           0
 nber prop tor=         140
 nber impr tor=           0
 nber tot redund int=         281
 Eigenvalues of G in red int coords
    Gval -0.00000000 -0.00000000 -0.00000000 -0.00000000 -0.00000000 -0.00000000 -0.00000000 -0.00000000
    Gval -0.00000000 -0.00000000 -0.00000000 -0.00000000 -0.00000000 -0.00000000 -0.00000000 -0.00000000
    Gval -0.00000000 -0.00000000 -0.00000000 -0.00000000 -0.00000000 -0.00000000 -0.00000000 -0.00000000
    Gval -0.00000000 -0.00000000 -0.00000000 -0.00000000 -0.00000000 -0.00000000 -0.00000000 -0.00000000
    Gval -0.00000000 -0.00000000 -0.00000000 -0.00000000 -0.00000000 -0.00000000 -0.00000000 -0.00000000
    Gval -0.00000000 -0.00000000 -0.00000000 -0.00000000 -0.00000000 -0.00000000 -0.00000000 -0.00000000
    Gval -0.00000000 -0.00000000 -0.00000000 -0.00000000 -0.00000000 -0.00000000 -0.00000000 -0.00000000
    Gval -0.00000000 -0.00000000 -0.00000000 -0.00000000 -0.00000000 -0.00000000 -0.00000000 -0.00000000
    Gval -0.00000000 -0.00000000 -0.00000000 -0.00000000 -0.00000000 -0.00000000 -0.00000000 -0.00000000
    Gval -0.00000000 -0.00000000 -0.00000000 -0.00000000 -0.00000000  0.00000000  0.00000000  0.00000000
    Gval  0.00000000  0.00000000  0.00000000  0.00000000  0.00000000  0.00000000  0.00000000  0.00000000
    Gval  0.00000000  0.00000000  0.00000000  0.00000000  0.00000000  0.00000000  0.00000000  0.00000000
    Gval  0.00000000  0.00000000  0.00000000  0.00000000  0.00000000  0.00000000  0.00000000  0.00000000
    Gval  0.00000000  0.00000000  0.00000000  0.00000000  0.00000000  0.00000000  0.00000000  0.00000000
    Gval  0.00000000  0.00000000  0.00000000  0.00000000  0.00000000  0.00000000  0.00000000  0.00000000
    Gval  0.00000000  0.00000000  0.00000000  0.00000000  0.00000000  0.00000000  0.00000000  0.00000000
    Gval  0.00000000  0.00000000  0.00000000  0.00000000  0.00000000  0.00000000  0.00000000  0.00000000
    Gval  0.00000000  0.00000000  0.00000000  0.00000000  0.00000000  0.00000000  0.00000000  0.00000000
    Gval  0.00000000  0.00000000  0.00000052  0.00000195  0.00000449  0.00000464  0.00000522  0.00000852
    Gval  0.00000985  0.00001706  0.00001948  0.00002074  0.00002263  0.00002451  0.00002456  0.00002809
    Gval  0.00002934  0.00003744  0.00004018  0.00004656  0.00005077  0.00005507  0.00005704  0.00005980
    Gval  0.00006328  0.00006377  0.00006856  0.00007253  0.00007476  0.00007587  0.00007870  0.00007948
    Gval  0.00008356  0.00009295  0.00010273  0.00010371  0.00011402  0.00012099  0.00012336  0.00012417
    Gval  0.00013079  0.00013127  0.00014002  0.00014071  0.00014853  0.00017175  0.00017514  0.00017959
    Gval  0.00019490  0.00020155  0.00020482  0.00020799  0.00024178  0.00026138  0.00026184  0.00028606
    Gval  0.00028641  0.00031460  0.00032108  0.00034189  0.00036909  0.00037019  0.00037142  0.00038597
    Gval  0.00038792  0.00040058  0.00042060  0.00042733  0.00043446  0.00044883  0.00047109  0.00053855
    Gval  0.00059329  0.00059331  0.00059385  0.00059677  0.00059689  0.00059712  0.00059851  0.00060805
    Gval  0.00061839  0.00061867  0.00061995  0.00062521  0.00062722  0.00064207  0.00064642  0.00065643
    Gval  0.00065702  0.00065815  0.00074662  0.00076413  0.00079302  0.00082480  0.00091588  0.00099848
    Gval  0.00105244  0.00106171  0.00106198  0.00106453  0.00108412  0.00108559  0.00113228  0.00113235
    Gval  0.00113892  0.00115882  0.00116012  0.00116464  0.00116672  0.00117907  0.00117913  0.00118414
    Gval  0.00118913  0.00118940  0.00143872  0.00147276  0.00173526  0.00174650  0.00178125  0.00185704
    Gval  0.00193720  0.00214527  0.00230724  0.00241950  0.00261940  0.00270813  0.00276106  0.00310323
    Gval  0.00323212  0.00328699  0.00348363  0.00352205  0.00367784  0.00371328  0.00391850  0.00408620
    Gval  0.00408743
  5.243052164366833E-007  5.243052164366833E-007
  1.945749120599158E-006  5.243052164366833E-007
  4.489152306225970E-006  5.243052164366833E-007
  4.642619969417513E-006  5.243052164366833E-007
  5.223019192433070E-006  5.243052164366833E-007
  8.516387148192366E-006  5.243052164366833E-007
  9.853717992188616E-006  5.243052164366833E-007
  1.706183316002014E-005  5.243052164366833E-007
  1.948069716615005E-005  5.243052164366833E-007
  2.074088740996838E-005  5.243052164366833E-007
  2.263392597184577E-005  5.243052164366833E-007
  2.451237356987627E-005  5.243052164366833E-007
  2.456159817218753E-005  5.243052164366833E-007
  2.809484038643572E-005  5.243052164366833E-007
  2.933666141042687E-005  5.243052164366833E-007
  3.743989293987566E-005  5.243052164366833E-007
  4.017877549356731E-005  5.243052164366833E-007
  4.655908305370344E-005  5.243052164366833E-007
  5.076655864985193E-005  5.243052164366833E-007
  5.506986209043837E-005  5.243052164366833E-007
  5.703515287118996E-005  5.243052164366833E-007
  5.979504415549264E-005  5.243052164366833E-007
  6.328431694906762E-005  5.243052164366833E-007
  6.377426022149294E-005  5.243052164366833E-007
  6.856149589919996E-005  5.243052164366833E-007
  7.253291089755621E-005  5.243052164366833E-007
  7.476282252601456E-005  5.243052164366833E-007
  7.587062083466947E-005  5.243052164366833E-007
  7.869695844911930E-005  5.243052164366833E-007
  7.947931717060917E-005  5.243052164366833E-007
  8.355597583287895E-005  5.243052164366833E-007
  9.295477225468292E-005  5.243052164366833E-007
  1.027303872051472E-004  5.243052164366833E-007
  1.037095272093774E-004  5.243052164366833E-007
  1.140184640896203E-004  5.243052164366833E-007
  1.209929336122143E-004  5.243052164366833E-007
  1.233559808197083E-004  5.243052164366833E-007
  1.241705610852305E-004  5.243052164366833E-007
  1.307922511415482E-004  5.243052164366833E-007
  1.312734756762752E-004  5.243052164366833E-007
  1.400179621386157E-004  5.243052164366833E-007
  1.407118470482613E-004  5.243052164366833E-007
  1.485281829070203E-004  5.243052164366833E-007
  1.717457021562490E-004  5.243052164366833E-007
  1.751386310872086E-004  5.243052164366833E-007
  1.795917561885992E-004  5.243052164366833E-007
  1.948970938498758E-004  5.243052164366833E-007
  2.015479741998257E-004  5.243052164366833E-007
  2.048219700197171E-004  5.243052164366833E-007
  2.079857698280051E-004  5.243052164366833E-007
  2.417795120921034E-004  5.243052164366833E-007
  2.613845634893674E-004  5.243052164366833E-007
  2.618404191603769E-004  5.243052164366833E-007
  2.860618366194277E-004  5.243052164366833E-007
  2.864072569770140E-004  5.243052164366833E-007
  3.146036990298285E-004  5.243052164366833E-007
  3.210755967329402E-004  5.243052164366833E-007
  3.418922131694825E-004  5.243052164366833E-007
  3.690947407973711E-004  5.243052164366833E-007
  3.701937818530721E-004  5.243052164366833E-007
  3.714191315397321E-004  5.243052164366833E-007
  3.859679073221193E-004  5.243052164366833E-007
  3.879210348738007E-004  5.243052164366833E-007
  4.005793399453857E-004  5.243052164366833E-007
  4.205990681608608E-004  5.243052164366833E-007
  4.273309247048119E-004  5.243052164366833E-007
  4.344588898976893E-004  5.243052164366833E-007
  4.488267879208736E-004  5.243052164366833E-007
  4.710909888180263E-004  5.243052164366833E-007
  5.385466113395148E-004  5.243052164366833E-007
  5.932941325058707E-004  5.243052164366833E-007
  5.933096682615422E-004  5.243052164366833E-007
  5.938533213867259E-004  5.243052164366833E-007
  5.967721818099536E-004  5.243052164366833E-007
  5.968876534767907E-004  5.243052164366833E-007
  5.971166479761659E-004  5.243052164366833E-007
  5.985134335560506E-004  5.243052164366833E-007
  6.080525616577030E-004  5.243052164366833E-007
  6.183866978702725E-004  5.243052164366833E-007
  6.186657143800718E-004  5.243052164366833E-007
  6.199493314730277E-004  5.243052164366833E-007
  6.252058168929933E-004  5.243052164366833E-007
  6.272220843326656E-004  5.243052164366833E-007
  6.420669391777722E-004  5.243052164366833E-007
  6.464235347200183E-004  5.243052164366833E-007
  6.564314173764979E-004  5.243052164366833E-007
  6.570201998570191E-004  5.243052164366833E-007
  6.581476824288181E-004  5.243052164366833E-007
  7.466166197650068E-004  5.243052164366833E-007
  7.641342503939681E-004  5.243052164366833E-007
  7.930196344056098E-004  5.243052164366833E-007
  8.247963517116186E-004  5.243052164366833E-007
  9.158818316884962E-004  5.243052164366833E-007
  9.984758210137537E-004  5.243052164366833E-007
  1.052443818159530E-003  5.243052164366833E-007
  1.061714303432104E-003  5.243052164366833E-007
  1.061981337250194E-003  5.243052164366833E-007
  1.064526085154132E-003  5.243052164366833E-007
  1.084119949265771E-003  5.243052164366833E-007
  1.085594981106124E-003  5.243052164366833E-007
  1.132277033440789E-003  5.243052164366833E-007
  1.132345114887148E-003  5.243052164366833E-007
  1.138916041679895E-003  5.243052164366833E-007
  1.158816600852690E-003  5.243052164366833E-007
  1.160115547714703E-003  5.243052164366833E-007
  1.164643190810261E-003  5.243052164366833E-007
  1.166719582314717E-003  5.243052164366833E-007
  1.179067583268039E-003  5.243052164366833E-007
  1.179132349098743E-003  5.243052164366833E-007
  1.184139317523595E-003  5.243052164366833E-007
  1.189130445880479E-003  5.243052164366833E-007
  1.189403500466191E-003  5.243052164366833E-007
  1.438723496569477E-003  5.243052164366833E-007
  1.472762861869060E-003  5.243052164366833E-007
  1.735264839353505E-003  5.243052164366833E-007
  1.746504515194222E-003  5.243052164366833E-007
  1.781245141435359E-003  5.243052164366833E-007
  1.857037848752357E-003  5.243052164366833E-007
  1.937198685339642E-003  5.243052164366833E-007
  2.145270197329947E-003  5.243052164366833E-007
  2.307238754005111E-003  5.243052164366833E-007
  2.419500598108775E-003  5.243052164366833E-007
  2.619403482863090E-003  5.243052164366833E-007
  2.708134704967618E-003  5.243052164366833E-007
  2.761059845669744E-003  5.243052164366833E-007
  3.103225991016731E-003  5.243052164366833E-007
  3.232117591342580E-003  5.243052164366833E-007
  3.286991270908758E-003  5.243052164366833E-007
  3.483627033388419E-003  5.243052164366833E-007
  3.522051938627590E-003  5.243052164366833E-007
  3.677843424923378E-003  5.243052164366833E-007
  3.713284443415700E-003  5.243052164366833E-007
  3.918495298799717E-003  5.243052164366833E-007
  4.086199479601821E-003  5.243052164366833E-007
  4.087432546192474E-003  5.243052164366833E-007
 cut=1d-8, nber non-redundant internal coords=         135
 Check on Eigenvals of non-red overlap matrix:
  0.00000052  0.00000195  0.00000449  0.00000464  0.00000522  0.00000852  0.00000985  0.00001706
  0.00001948  0.00002074  0.00002263  0.00002451  0.00002456  0.00002809  0.00002934  0.00003744
  0.00004018  0.00004656  0.00005077  0.00005507  0.00005704  0.00005980  0.00006328  0.00006377
  0.00006856  0.00007253  0.00007476  0.00007587  0.00007870  0.00007948  0.00008356  0.00009295
  0.00010273  0.00010371  0.00011402  0.00012099  0.00012336  0.00012417  0.00013079  0.00013127
  0.00014002  0.00014071  0.00014853  0.00017175  0.00017514  0.00017959  0.00019490  0.00020155
  0.00020482  0.00020799  0.00024178  0.00026138  0.00026184  0.00028606  0.00028641  0.00031460
  0.00032108  0.00034189  0.00036909  0.00037019  0.00037142  0.00038597  0.00038792  0.00040058
  0.00042060  0.00042733  0.00043446  0.00044883  0.00047109  0.00053855  0.00059329  0.00059331
  0.00059385  0.00059677  0.00059689  0.00059712  0.00059851  0.00060805  0.00061839  0.00061867
  0.00061995  0.00062521  0.00062722  0.00064207  0.00064642  0.00065643  0.00065702  0.00065815
  0.00074662  0.00076413  0.00079302  0.00082480  0.00091588  0.00099848  0.00105244  0.00106171
  0.00106198  0.00106453  0.00108412  0.00108559  0.00113228  0.00113235  0.00113892  0.00115882
  0.00116012  0.00116464  0.00116672  0.00117907  0.00117913  0.00118414  0.00118913  0.00118940
  0.00143872  0.00147276  0.00173526  0.00174650  0.00178125  0.00185704  0.00193720  0.00214527
  0.00230724  0.00241950  0.00261940  0.00270813  0.00276106  0.00310323  0.00323212  0.00328699
  0.00348363  0.00352205  0.00367784  0.00371328  0.00391850  0.00408620  0.00408743
 Checking for correct frequencies
 recalc frequencies=
  -543.6 -516.6  -70.4  -64.6  -20.9   -0.0   -0.0   -0.0    0.0    0.0
     0.0   83.8   91.8   93.0  157.4  185.4  188.5  201.7  209.3  239.1
   247.3  253.4  336.5  345.0  347.3  355.8  372.9  397.3  398.3  450.9
   472.9  473.8  487.3  492.7  505.1  505.4  521.0  527.8  534.9  541.5
   560.8  575.8  581.0  617.5  641.0  647.8  658.7  663.5  691.8  697.3
   710.6  729.0  733.2  739.6  749.6  751.3  771.3  788.3  805.2  806.4
   824.9  827.6  830.5  838.4  853.2  865.1  906.2  907.5  912.5  937.5
   968.5  969.1  973.9  975.5  986.7 1007.0 1013.8 1055.5 1056.3 1089.1
  1096.7 1102.4 1121.0 1122.0 1134.6 1158.9 1161.0 1170.3 1174.7 1180.3
  1193.3 1205.9 1222.9 1240.1 1252.5 1265.8 1274.6 1286.5 1299.4 1316.3
  1331.9 1359.7 1385.7 1400.6 1412.0 1444.8 1447.5 1459.2 1464.2 1478.2
  1497.9 1503.2 1522.4 1542.8 1554.6 1594.0 1612.2 1627.5 1628.2 1635.7
  1639.6 1641.8 1646.2 1674.3 3152.0 3152.1 3156.8 3157.3 3157.4 3165.3
  3171.0 3171.2 3176.1 3176.2 3182.0 3201.3 3201.4 3447.2 3447.5 3591.2
  3592.3
 recalc symmetries=
     A2     B1     B1     A2     B1     A1     B2     A2     B1     B1 
     B2     B2     B1     A2     B1     A1     B1     A2     B2     A2 
     A1     B1     A2     A1     B2     B1     B1     A2     B2     A1 
     B1     B2     B2     A2     B2     A1     A1     B1     A2     B1 
     B1     A2     B2     A1     B1     B2     A1     A2     A1     B1 
     A2     B1     B2     A2     B1     A1     B1     B2     B1     A2 
     A1     A2     B1     A1     B1     B2     B1     A2     A2     A1 
     A2     B1     B1     A2     B1     B2     A1     B2     A1     A1 
     A1     B2     A1     B2     B2     B2     A1     A1     B2     A1 
     B2     B2     A1     B2     B2     A1     B2     A1     A1     B2 
     A1     B2     B2     A1     B2     B2     A1     A1     B2     A1 
     A1     B2     B2     B2     A1     A1     B2     A1     B2     B2 
     A1     A1     B2     A1     B2     A1     A1     B2     A1     B2 
     B2     A1     B2     A1     A1     B2     A1     A1     B2     A1 
     B2 
 recalc freqs check OK
 Zero-point lengths:
 10.6326 10.9076 29.5392 30.8388 54.1730 10.0000 10.0000 10.0000 10.0000 10.0000
 10.0000 27.0767 25.8713 25.7022 19.7572 18.2071 18.0581 17.4577 17.1379 16.0326
 15.7643 15.5722 13.5146 13.3469 13.3029 13.1421 12.8382 12.4369 12.4227 11.6754
 11.4002 11.3891 11.2308 11.1690 11.0304 11.0277 10.8611 10.7910 10.7189 10.6533
 10.4688 10.3310 10.2849  9.9767  9.7923  9.7407  9.6596  9.6243  9.4255  9.3885
  9.3002  9.1820  9.1554  9.1157  9.0550  9.0444  8.9263  8.8296  8.7368  8.7304
  8.6316  8.6173  8.6025  8.5616  8.4872  8.4286  8.2354  8.2296  8.2070  8.0965
  7.9660  7.9635  7.9439  7.9375  7.8923  7.8122  7.7862  7.6306  7.6278  7.5121
  7.4860  7.4665  7.4045  7.4013  7.3598  7.2823  7.2758  7.2467  7.2331  7.2159
  7.1767  7.1392  7.0894  7.0399  7.0048  6.9682  6.9439  6.9117  6.8774  6.8330
  6.7931  6.7232  6.6598  6.6244  6.5975  6.5222  6.5162  6.4900  6.4789  6.4481
  6.4055  6.3941  6.3538  6.3117  6.2877  6.2095  6.1743  6.1453  6.1439  6.1298
  6.1224  6.1183  6.1101  6.0587  4.4157  4.4157  4.4124  4.4120  4.4120  4.4064
  4.4025  4.4024  4.3990  4.3989  4.3949  4.3816  4.3815  4.2224  4.2222  4.1369
  4.1363
 highest evec of mol 1
  0.0000 -0.0000  0.0006
  0.0000  0.0031 -0.0014
  0.0000  0.0277 -0.1275
  0.0000 -0.0041  0.0008
  0.0000  0.0005  0.0011
  0.0000 -0.0004  0.0007
  0.0000 -0.0001  0.0000
  0.0000  0.0005 -0.0011
  0.0000 -0.0004 -0.0007
  0.0000 -0.0000 -0.0006
  0.0000  0.0031  0.0014
  0.0000  0.0277  0.1275
  0.0000 -0.0041 -0.0008
  0.0000  0.0009  0.0000
  0.0000 -0.0051  0.0000
  0.0000  0.1089 -0.0379
  0.0000  0.0014  0.0001
  0.0000  0.0002  0.0002
  0.0000 -0.0002 -0.0000
  0.0000 -0.0000  0.0000
  0.0000 -0.0000  0.0000
  0.0000  0.0000  0.0000
  0.0000 -0.0000 -0.0000
  0.0000 -0.0000 -0.0000
  0.0000 -0.0002  0.0000
  0.0000  0.0002 -0.0002
  0.0000  0.0014 -0.0001
  0.0000  0.1089  0.0379
  0.0000 -0.0008  0.0000
  0.0000  0.0001  0.0000
  0.0000  0.0005  0.0002
  0.0000 -0.0057  0.0036
  0.0000 -0.0469  0.5060
  0.0000  0.0000 -0.0010
  0.0000  0.0000  0.0010
  0.0000  0.0005 -0.0002
  0.0000 -0.0057 -0.0036
  0.0000 -0.0469 -0.5060
  0.0000 -0.4109  0.2062
  0.0000 -0.0016  0.0001
  0.0000  0.0001 -0.0000
  0.0000 -0.0000 -0.0000
  0.0000  0.0000  0.0000
  0.0000 -0.0000  0.0000
  0.0000  0.0001  0.0000
  0.0000 -0.0016 -0.0001
  0.0000 -0.4109 -0.2062
 generating redundant internal coords
         300        3600          47
 Adding extra bonds for z output only
           6           6           6           6           6           6
          16           6           6           6           6           6
           6           7           6           6           6           6
           6           6           6           6           6           6
           6           6           6           6           6           6
           1           1           1           1           1           1
           1           1           1           1           1           1
           1           1           1           1           1
 search for int coords
   1 str   2   1   1.379
   2 str   3   2   1.393
   3 str   4   3   1.415
   4 str   5   4   1.423
   5 str   6   1   1.378
   6 str   6   5   1.401
   7 str   7   5   1.743
   8 str   8   7   1.743
   9 str   9   8   1.401
  10 str  10   9   1.378
  11 str  11  10   1.379
  12 str  12  11   1.393
  13 str  13   8   1.423
  14 str  13  12   1.415
  15 str  14   4   1.497
  16 str  14  13   1.497
  17 str  15  14   1.493
  18 str  16  15   1.421
  19 str  17  16   1.401
  20 str  18  17   1.441
  21 str  19  18   1.360
  22 str  20  19   1.439
  23 str  21  20   1.402
  24 str  22  21   1.393
  25 str  23  22   1.393
  26 str  24  23   1.402
  27 str  25  24   1.439
  28 str  26  25   1.360
  29 str  27  26   1.441
  30 str  28  15   1.421
  31 str  28  27   1.401
  32 str  29  17   1.405
  33 str  29  27   1.405
  34 str  30  20   1.423
  35 str  30  24   1.423
  36 str  30  29   1.417
  37 str  31   1   1.082
  38 str  32   2   1.084
  39 str  33   3   1.053
  40 str  34   6   1.085
  41 str  35   9   1.085
  42 str  36  10   1.082
  43 str  37  11   1.084
  44 str  38  12   1.053
  45 str  39  16   1.054
  46 str  40  18   1.085
  47 str  41  19   1.085
  48 str  42  21   1.085
  49 str  43  22   1.084
  50 str  44  23   1.085
  51 str  45  25   1.085
  52 str  46  26   1.085
  53 str  47  28   1.054
 nber stretches=          53
  54 ben   1   2   3
  55 prop tor   1   2   3   4
  56 prop tor   1   2   3  33
  57 ben   1   2  32
  58 ben   1   6   5
  59 ben   1   6  34
  60 ben   2   1   6
  61 prop tor   2   1   6   5
  62 prop tor   2   1   6  34
  63 ben   2   1  31
  64 ben   2   3   4
  65 prop tor   2   3   4   5
  66 prop tor   2   3   4  14
  67 ben   2   3  33
  68 ben   3   2  32
  69 ben   3   4   5
  70 prop tor   3   4   5   6
  71 prop tor   3   4   5   7
  72 ben   3   4  14
  73 prop tor   3   4  14  13
  74 prop tor   3   4  14  15
  75 ben   4   3  33
  76 ben   4   5   6
  77 prop tor   4   5   6   1
  78 prop tor   4   5   6  34
  79 ben   4   5   7
  80 prop tor   4   5   7   8
  81 ben   4  14  13
  82 ben   4  14  15
  83 prop tor   4  14  15  16
  84 prop tor   4  14  15  28
  85 ben   5   4  14
  86 prop tor   5   4  14  13
  87 prop tor   5   4  14  15
  88 ben   5   6  34
  89 ben   5   7   8
  90 prop tor   5   7   8   9
  91 prop tor   5   7   8  13
  92 prop tor   6   1   2   3
  93 prop tor   6   1   2  32
  94 ben   6   1  31
  95 ben   6   5   7
  96 prop tor   6   5   7   8
  97 prop tor   7   5   6   1
  98 prop tor   7   5   6  34
  99 ben   7   8   9
 100 prop tor   7   8   9  10
 101 prop tor   7   8   9  35
 102 ben   7   8  13
 103 prop tor   7   8  13  12
 104 prop tor   7   8  13  14
 105 ben   8   9  10
 106 prop tor   8   9  10  11
 107 prop tor   8   9  10  36
 108 ben   8   9  35
 109 ben   8  13  12
 110 ben   8  13  14
 111 prop tor   8  13  14   4
 112 prop tor   8  13  14  15
 113 ben   9   8  13
 114 prop tor   9   8  13  12
 115 prop tor   9   8  13  14
 116 ben   9  10  11
 117 prop tor   9  10  11  12
 118 prop tor   9  10  11  37
 119 ben   9  10  36
 120 ben  10   9  35
 121 ben  10  11  12
 122 prop tor  10  11  12  13
 123 prop tor  10  11  12  38
 124 ben  10  11  37
 125 ben  11  10  36
 126 ben  11  12  13
 127 prop tor  11  12  13   8
 128 prop tor  11  12  13  14
 129 ben  11  12  38
 130 ben  12  11  37
 131 ben  12  13  14
 132 prop tor  12  13  14   4
 133 prop tor  12  13  14  15
 134 prop tor  13   8   9  10
 135 prop tor  13   8   9  35
 136 ben  13  12  38
 137 ben  13  14  15
 138 prop tor  13  14  15  16
 139 prop tor  13  14  15  28
 140 prop tor  14   4   5   6
 141 prop tor  14   4   5   7
 142 ben  14  15  16
 143 prop tor  14  15  16  17
 144 prop tor  14  15  16  39
 145 ben  14  15  28
 146 prop tor  14  15  28  27
 147 prop tor  14  15  28  47
 148 ben  15  16  17
 149 prop tor  15  16  17  18
 150 prop tor  15  16  17  29
 151 ben  15  16  39
 152 ben  15  28  27
 153 ben  15  28  47
 154 ben  16  15  28
 155 prop tor  16  15  28  27
 156 prop tor  16  15  28  47
 157 ben  16  17  18
 158 prop tor  16  17  18  19
 159 prop tor  16  17  18  40
 160 ben  16  17  29
 161 prop tor  16  17  29  27
 162 prop tor  16  17  29  30
 163 ben  17  16  39
 164 ben  17  18  19
 165 prop tor  17  18  19  20
 166 prop tor  17  18  19  41
 167 ben  17  18  40
 168 ben  17  29  27
 169 ben  17  29  30
 170 prop tor  17  29  30  20
 171 prop tor  17  29  30  24
 172 ben  18  17  29
 173 prop tor  18  17  29  27
 174 prop tor  18  17  29  30
 175 ben  18  19  20
 176 prop tor  18  19  20  21
 177 prop tor  18  19  20  30
 178 ben  18  19  41
 179 ben  19  18  40
 180 ben  19  20  21
 181 prop tor  19  20  21  22
 182 prop tor  19  20  21  42
 183 ben  19  20  30
 184 prop tor  19  20  30  24
 185 prop tor  19  20  30  29
 186 ben  20  19  41
 187 ben  20  21  22
 188 prop tor  20  21  22  23
 189 prop tor  20  21  22  43
 190 ben  20  21  42
 191 ben  20  30  24
 192 ben  20  30  29
 193 ben  21  20  30
 194 prop tor  21  20  30  24
 195 prop tor  21  20  30  29
 196 ben  21  22  23
 197 prop tor  21  22  23  24
 198 prop tor  21  22  23  44
 199 ben  21  22  43
 200 ben  22  21  42
 201 ben  22  23  24
 202 prop tor  22  23  24  25
 203 prop tor  22  23  24  30
 204 ben  22  23  44
 205 ben  23  22  43
 206 ben  23  24  25
 207 prop tor  23  24  25  26
 208 prop tor  23  24  25  45
 209 ben  23  24  30
 210 prop tor  23  24  30  20
 211 prop tor  23  24  30  29
 212 ben  24  23  44
 213 ben  24  25  26
 214 prop tor  24  25  26  27
 215 prop tor  24  25  26  46
 216 ben  24  25  45
 217 ben  24  30  29
 218 ben  25  24  30
 219 prop tor  25  24  30  20
 220 prop tor  25  24  30  29
 221 ben  25  26  27
 222 prop tor  25  26  27  28
 223 prop tor  25  26  27  29
 224 ben  25  26  46
 225 ben  26  25  45
 226 ben  26  27  28
 227 prop tor  26  27  28  15
 228 prop tor  26  27  28  47
 229 ben  26  27  29
 230 prop tor  26  27  29  17
 231 prop tor  26  27  29  30
 232 ben  27  26  46
 233 ben  27  28  47
 234 ben  27  29  30
 235 prop tor  27  29  30  20
 236 prop tor  27  29  30  24
 237 prop tor  28  15  16  17
 238 prop tor  28  15  16  39
 239 ben  28  27  29
 240 prop tor  28  27  29  17
 241 prop tor  28  27  29  30
 242 prop tor  29  17  18  19
 243 prop tor  29  17  18  40
 244 prop tor  29  27  28  15
 245 prop tor  29  27  28  47
 246 prop tor  30  20  21  22
 247 prop tor  30  20  21  42
 248 prop tor  30  24  25  26
 249 prop tor  30  24  25  45
 250 prop tor  31   1   2   3
 251 prop tor  31   1   2  32
 252 prop tor  31   1   6   5
 253 prop tor  31   1   6  34
 254 prop tor  32   2   3   4
 255 prop tor  32   2   3  33
 256 prop tor  33   3   4   5
 257 prop tor  33   3   4  14
 258 prop tor  35   9  10  11
 259 prop tor  35   9  10  36
 260 prop tor  36  10  11  12
 261 prop tor  36  10  11  37
 262 prop tor  37  11  12  13
 263 prop tor  37  11  12  38
 264 prop tor  38  12  13   8
 265 prop tor  38  12  13  14
 266 prop tor  39  16  17  18
 267 prop tor  39  16  17  29
 268 prop tor  40  18  19  20
 269 prop tor  40  18  19  41
 270 prop tor  41  19  20  21
 271 prop tor  41  19  20  30
 272 prop tor  42  21  22  23
 273 prop tor  42  21  22  43
 274 prop tor  43  22  23  24
 275 prop tor  43  22  23  44
 276 prop tor  44  23  24  25
 277 prop tor  44  23  24  30
 278 prop tor  45  25  26  27
 279 prop tor  45  25  26  46
 280 prop tor  46  26  27  28
 281 prop tor  46  26  27  29
 nber bend=              88
 nber lin bend=           0
 nber prop tor=         140
 nber impr tor=           0
 nber tot redund int=         281
 Reading file: 
 ./phenothiazine-pyrene_0_C1S0.log                                              
                                          
  Entering Gaussian System, Link 0=g16                                          
  
 Gaussian format, type: g94, g98, g03= F F F
  #P Geom=AllCheck Guess=TCheck SCRF=Check GenChk UB3LYP/6-311G(d,p) Fre    
 energy type= B3LYP   
 Original G94 input coords:
  6 -4.434587  3.754087  0.000000
  6 -3.044451  3.749143  0.000000
  6 -2.318180  2.571596  0.000000
  6 -2.858035  1.258415  0.000000
  6 -4.290279  1.324625  0.000000
  6 -5.034860  2.525263  0.000000
 16 -5.372080  0.000000  0.000000
  6 -4.290279 -1.324625  0.000000
  6 -5.034860 -2.525263  0.000000
  6 -4.434587 -3.754087  0.000000
  6 -3.044451 -3.749143  0.000000
  6 -2.318180 -2.571596  0.000000
  6 -2.858035 -1.258415  0.000000
  7 -2.091629  0.000000  0.000000
  6 -0.568270  0.000000  0.000000
  6  0.235503 -1.170763  0.000000
  6  1.634419 -1.198650  0.000000
  6  2.361220 -2.442387  0.000000
  6  3.720190 -2.455493  0.000000
  6  4.488637 -1.238981  0.000000
  6  5.888581 -1.213933  0.000000
  6  6.573263  0.000000  0.000000
  6  5.888581  1.213933  0.000000
  6  4.488637  1.238981  0.000000
  6  3.720190  2.455493  0.000000
  6  2.361220  2.442387  0.000000
  6  1.634419  1.198650  0.000000
  6  0.235503  1.170763  0.000000
  6  2.374684  0.000000  0.000000
  6  3.787664  0.000000  0.000000
  1 -5.010857  4.669417  0.000000
  1 -2.490201  4.679452  0.000000
  1 -1.285144  2.768506  0.000000
  1 -6.115981  2.443489  0.000000
  1 -6.115981 -2.443489  0.000000
  1 -5.010857 -4.669417  0.000000
  1 -2.490201 -4.679452  0.000000
  1 -1.285144 -2.768506  0.000000
  1 -0.129686 -2.158619  0.000000
  1  1.809121 -3.375891  0.000000
  1  4.253613 -3.399700  0.000000
  1  6.440717 -2.146949  0.000000
  1  7.656885  0.000000  0.000000
  1  6.440717  2.146949  0.000000
  1  4.253613  3.399700  0.000000
  1  1.809121  3.375891  0.000000
  1 -0.129686  2.158619  0.000000
 nber atoms=          47
 Original standard coords:
  6  0.000000  3.754087  4.103757
  6  0.000000  3.749143  2.713621
  6  0.000000  2.571596  1.987349
  6  0.000000  1.258415  2.527205
  6  0.000000  1.324625  3.959449
  6  0.000000  2.525263  4.704030
 16  0.000000  0.000000  5.041249
  6  0.000000 -1.324625  3.959449
  6  0.000000 -2.525263  4.704030
  6  0.000000 -3.754087  4.103757
  6  0.000000 -3.749143  2.713621
  6  0.000000 -2.571596  1.987349
  6  0.000000 -1.258415  2.527205
  7  0.000000  0.000000  1.760798
  6  0.000000  0.000000  0.237440
  6  0.000000 -1.170763 -0.566333
  6  0.000000 -1.198650 -1.965249
  6  0.000000 -2.442387 -2.692050
  6  0.000000 -2.455493 -4.051020
  6  0.000000 -1.238981 -4.819467
  6  0.000000 -1.213933 -6.219412
  6  0.000000  0.000000 -6.904093
  6  0.000000  1.213933 -6.219412
  6  0.000000  1.238981 -4.819467
  6  0.000000  2.455493 -4.051020
  6  0.000000  2.442387 -2.692050
  6  0.000000  1.198650 -1.965249
  6  0.000000  1.170763 -0.566333
  6  0.000000  0.000000 -2.705515
  6  0.000000  0.000000 -4.118494
  1  0.000000  4.669417  4.680027
  1  0.000000  4.679452  2.159370
  1  0.000000  2.768506  0.954314
  1  0.000000  2.443489  5.785150
  1  0.000000 -2.443489  5.785150
  1  0.000000 -4.669417  4.680027
  1  0.000000 -4.679452  2.159370
  1  0.000000 -2.768506  0.954314
  1  0.000000 -2.158619 -0.201144
  1  0.000000 -3.375891 -2.139952
  1  0.000000 -3.399700 -4.584444
  1  0.000000 -2.146949 -6.771547
  1  0.000000  0.000000 -7.987716
  1  0.000000  2.146949 -6.771547
  1  0.000000  3.399700 -4.584444
  1  0.000000  3.375891 -2.139952
  1  0.000000  2.158619 -0.201144
  SCF Done:  E(UB3LYP) =  -1530.15291547     A.U. after    1 cycles             
  
          23          40 "  -1530.15291547"
After scan for Atom:   Atom  AN      X      Y      Z        X      Y      Z        X      Y      Z   
After scan for Atom:   Atom  AN      X      Y      Z        X      Y      Z        X      Y      Z   
After scan for Atom:   Atom  AN      X      Y      Z        X      Y      Z        X      Y      Z   
After scan for Atom:   Atom  AN      X      Y      Z        X      Y      Z        X      Y      Z   
After scan for Atom:   Atom  AN      X      Y      Z        X      Y      Z        X      Y      Z   
After scan for Atom:   Atom  AN      X      Y      Z        X      Y      Z        X      Y      Z   
After scan for Atom:   Atom  AN      X      Y      Z        X      Y      Z        X      Y      Z   
After scan for Atom:   Atom  AN      X      Y      Z        X      Y      Z        X      Y      Z   
After scan for Atom:   Atom  AN      X      Y      Z        X      Y      Z        X      Y      Z   
After scan for Atom:   Atom  AN      X      Y      Z        X      Y      Z        X      Y      Z   
After scan for Atom:   Atom  AN      X      Y      Z        X      Y      Z        X      Y      Z   
After scan for Atom:   Atom  AN      X      Y      Z        X      Y      Z        X      Y      Z   
After scan for Atom:   Atom  AN      X      Y      Z        X      Y      Z        X      Y      Z   
After scan for Atom:   Atom  AN      X      Y      Z        X      Y      Z        X      Y      Z   
After scan for Atom:   Atom  AN      X      Y      Z        X      Y      Z        X      Y      Z   
After scan for Atom:   Atom  AN      X      Y      Z        X      Y      Z        X      Y      Z   
After scan for Atom:   Atom  AN      X      Y      Z        X      Y      Z        X      Y      Z   
After scan for Atom:   Atom  AN      X      Y      Z        X      Y      Z        X      Y      Z   
After scan for Atom:   Atom  AN      X      Y      Z        X      Y      Z        X      Y      Z   
After scan for Atom:   Atom  AN      X      Y      Z        X      Y      Z        X      Y      Z   
After scan for Atom:   Atom  AN      X      Y      Z        X      Y      Z        X      Y      Z   
After scan for Atom:   Atom  AN      X      Y      Z        X      Y      Z        X      Y      Z   
After scan for Atom:   Atom  AN      X      Y      Z        X      Y      Z        X      Y      Z   
After scan for Atom:   Atom  AN      X      Y      Z        X      Y      Z        X      Y      Z   
After scan for Atom:   Atom  AN      X      Y      Z        X      Y      Z        X      Y      Z   
After scan for Atom:   Atom  AN      X      Y      Z        X      Y      Z        X      Y      Z   
After scan for Atom:   Atom  AN      X      Y      Z        X      Y      Z        X      Y      Z   
After scan for Atom:   Atom  AN      X      Y      Z        X      Y      Z        X      Y      Z   
After scan for Atom:   Atom  AN      X      Y      Z        X      Y      Z        X      Y      Z   
After scan for Atom:   Atom  AN      X      Y      Z        X      Y      Z        X      Y      Z   
After scan for Atom:   Atom  AN      X      Y      Z        X      Y      Z        X      Y      Z   
After scan for Atom:   Atom  AN      X      Y      Z        X      Y      Z        X      Y      Z   
After scan for Atom:   Atom  AN      X      Y      Z        X      Y      Z        X      Y      Z   
After scan for Atom:   Atom  AN      X      Y      Z        X      Y      Z        X      Y      Z   
After scan for Atom:   Atom  AN      X      Y      Z        X      Y      Z        X      Y      Z   
After scan for Atom:   Atom  AN      X      Y      Z        X      Y      Z        X      Y      Z   
After scan for Atom:   Atom  AN      X      Y      Z        X      Y      Z        X      Y      Z   
After scan for Atom:   Atom  AN      X      Y      Z        X      Y      Z        X      Y      Z   
After scan for Atom:   Atom  AN      X      Y      Z        X      Y      Z        X      Y      Z   
After scan for Atom:   Atom  AN      X      Y      Z        X      Y      Z        X      Y      Z   
After scan for Atom:   Atom  AN      X      Y      Z        X      Y      Z        X      Y      Z   
After scan for Atom:   Atom  AN      X      Y      Z        X      Y      Z        X      Y      Z   
After scan for Atom:   Atom  AN      X      Y      Z        X      Y      Z        X      Y      Z   
After scan for Atom:   Atom  AN      X      Y      Z        X      Y      Z        X      Y      Z   
After scan for Atom:   Atom  AN      X      Y      Z        X      Y      Z        X      Y      Z   
 g94    frequencies=
     0.0    0.0    0.0    0.0    0.0    0.0 -541.6 -489.4  -68.3  -19.8
    31.1   82.5   86.4   94.3  171.5  179.7  191.6  192.5  202.8  227.9
   244.2  250.3  335.5  348.5  353.9  367.8  396.1  399.6  400.3  449.8
   472.5  475.5  482.5  483.4  500.4  501.0  504.7  520.5  525.4  532.5
   578.4  580.6  582.4  615.3  642.6  642.7  653.6  660.0  691.6  695.6
   710.5  726.8  743.4  745.4  746.4  755.0  780.2  791.0  814.5  816.3
   827.0  828.2  832.0  836.2  857.9  874.9  897.6  931.0  946.5  946.6
   986.8  987.6 1004.8 1005.0 1005.5 1006.2 1007.5 1041.4 1047.4 1074.7
  1090.5 1097.7 1099.0 1133.7 1134.9 1164.4 1172.4 1175.9 1177.3 1187.5
  1202.1 1210.3 1220.3 1241.4 1248.8 1267.7 1277.5 1296.2 1323.1 1328.1
  1328.8 1351.1 1363.9 1398.1 1398.1 1444.2 1445.4 1450.8 1463.0 1475.6
  1487.9 1493.3 1522.1 1528.5 1544.1 1588.7 1588.9 1619.9 1623.6 1624.6
  1632.8 1637.4 1644.8 1665.6 3165.2 3165.3 3173.5 3173.9 3174.1 3180.2
  3183.5 3183.6 3194.0 3194.1 3195.1 3217.8 3217.8 3460.4 3460.5 3602.9
  3603.7
 g94    symmetries=
                                                A2     B1     A2     B1
      B1     B2     A2     B1     B1     A1     B1     A2     B2     A2
      A1     B1     A2     B2     A1     B1     B1     B2     A2     A1
      B2     B1     A2     B2     A1     B2     A2     A1     B1     B1
      B2     A2     B1     A1     B1     B2     A1     A2     A1     B1
      A2     B1     A2     B2     A1     B1     B1     B2     B1     A2
      B1     A1     A2     A1     B1     B2     A1     A2     B1     A2
      B1     A2     A1     A2     B1     B2     B1     A1     B2     A1
      B2     B2     A1     B2     A1     A1     B2     B2     A1     A1
      B2     B2     A1     B2     B2     A1     A1     B2     A1     A1
      B2     B2     B2     B2     A1     A1     B2     A1     B2     A1
      A1     B2     B2     B2     A1     B2     A1     A1     A1     B2
      B2     B2     A1     A1     B2     A1     A1     A1     B2     B2
      A1     B2     A1     B2     A1     A1     B2     B2     A1     A1
      B2
 atomic masses:
 12.0000 12.0000 12.0000 12.0000 12.0000 12.0000 31.9721 12.0000 12.0000 12.0000
 12.0000 12.0000 12.0000 14.0031 12.0000 12.0000 12.0000 12.0000 12.0000 12.0000
 12.0000 12.0000 12.0000 12.0000 12.0000 12.0000 12.0000 12.0000 12.0000 12.0000
  1.0078  1.0078  1.0078  1.0078  1.0078  1.0078  1.0078  1.0078  1.0078  1.0078
  1.0078  1.0078  1.0078  1.0078  1.0078  1.0078  1.0078
 looking for force constants in 
 ./phenothiazine-pyrene_0_C1S0.fchk                                             
  
 Cartesian Force Constants                  R   N=       10011                  
  
 n3=         141       10011
 g94-fc frequencies=
  -541.6 -489.4  -68.3  -19.8   -6.8   -4.3   -3.1   -0.0   -0.0    0.0
    31.1   82.5   86.4   94.3  171.5  179.7  191.6  192.5  202.8  227.9
   244.2  250.3  335.5  348.5  353.9  367.8  396.1  399.6  400.4  449.8
   472.5  475.5  482.6  483.4  500.4  501.0  504.7  520.6  525.4  532.5
   578.4  580.6  582.4  615.3  642.6  642.7  653.6  660.1  691.7  695.7
   710.6  726.8  743.4  745.5  746.4  755.0  780.2  791.0  814.5  816.3
   827.1  828.2  832.0  836.2  857.9  875.0  897.6  931.0  946.5  946.6
   986.8  987.6 1004.9 1005.0 1005.5 1006.2 1007.5 1041.5 1047.5 1074.7
  1090.5 1097.7 1099.0 1133.8 1134.9 1164.4 1172.4 1175.9 1177.4 1187.5
  1202.1 1210.4 1220.4 1241.4 1248.8 1267.7 1277.6 1296.2 1323.2 1328.1
  1328.8 1351.1 1363.9 1398.1 1398.1 1444.2 1445.5 1450.8 1463.0 1475.7
  1487.9 1493.4 1522.1 1528.5 1544.1 1588.7 1588.9 1619.9 1623.6 1624.6
  1632.9 1637.4 1644.8 1665.7 3165.2 3165.3 3173.6 3173.9 3174.2 3180.3
  3183.6 3183.7 3194.1 3194.1 3195.2 3217.9 3217.9 3460.5 3460.6 3603.0
  3603.8
 at 99999: n3=         141
 symm operator            1 :  T  nop=           1
 symm operator            2 :  F  nop=           1
 symm operator            3 :  F  nop=           1
 symm operator            4 :  F  nop=           1
 symm operator            5 :  F  nop=           1
 symm operator            6 :  T  nop=           2
 symm operator            7 :  T  nop=           3
 The point group of the molecule is C2V
 enforcing symm op           1  jsymt=          -1          -1           1
 enforcing symm op           6  jsymt=           1          -1           1
 enforcing symm op           7  jsymt=          -1           1           1
 cartesian coord symmetries:
 A1 :   47 A2 :   20 B1 :   27 B2 :   47
 Symmetry rotation matrix:
   1.00000   0.00000   0.00000
   0.00000   1.00000   0.00000
   0.00000   0.00000   1.00000

 Projecting out zero-frequency components
 generating redundant internal coords
         300        3600          47
 search for int coords
   1 str   2   1   1.390
   2 str   3   2   1.384
   3 str   4   3   1.420
   4 str   5   4   1.434
   5 str   6   1   1.368
   6 str   6   5   1.413
   7 str   7   5   1.710
   8 str   7   6   2.548
   9 str   8   7   1.710
  10 str   9   7   2.548
  11 str   9   8   1.413
  12 str  10   9   1.368
  13 str  11  10   1.390
  14 str  12  11   1.384
  15 str  13   8   1.434
  16 str  13  12   1.420
  17 str  14   4   1.473
  18 str  14  13   1.473
  19 str  15  14   1.523
  20 str  16  15   1.420
  21 str  17  16   1.399
  22 str  18  17   1.441
  23 str  19  18   1.359
  24 str  20  19   1.439
  25 str  21  20   1.400
  26 str  22  21   1.394
  27 str  23  22   1.394
  28 str  24  23   1.400
  29 str  25  24   1.439
  30 str  26  25   1.359
  31 str  27  26   1.441
  32 str  28  15   1.420
  33 str  28  27   1.399
  34 str  29  17   1.409
  35 str  29  27   1.409
  36 str  30  20   1.424
  37 str  30  24   1.424
  38 str  30  29   1.413
  39 str  31   1   1.082
  40 str  32   2   1.083
  41 str  33   3   1.052
  42 str  34   6   1.084
  43 str  35   9   1.084
  44 str  36  10   1.082
  45 str  37  11   1.083
  46 str  38  12   1.052
  47 str  39  16   1.053
  48 str  40  18   1.085
  49 str  41  19   1.084
  50 str  42  21   1.084
  51 str  43  22   1.084
  52 str  44  23   1.084
  53 str  45  25   1.084
  54 str  46  26   1.085
  55 str  47  28   1.053
 nber stretches=          55
  56 ben   1   2   3
  57 prop tor   1   2   3   4
  58 prop tor   1   2   3  33
  59 ben   1   2  32
  60 ben   1   6   5
  61 ben   1   6   7
  62 prop tor   1   6   7   5
  63 prop tor   1   6   7   8
  64 prop tor   1   6   7   9
  65 ben   1   6  34
  66 ben   2   1   6
  67 prop tor   2   1   6   5
  68 prop tor   2   1   6   7
  69 prop tor   2   1   6  34
  70 ben   2   1  31
  71 ben   2   3   4
  72 prop tor   2   3   4   5
  73 prop tor   2   3   4  14
  74 ben   2   3  33
  75 ben   3   2  32
  76 ben   3   4   5
  77 prop tor   3   4   5   6
  78 prop tor   3   4   5   7
  79 ben   3   4  14
  80 prop tor   3   4  14  13
  81 prop tor   3   4  14  15
  82 ben   4   3  33
  83 ben   4   5   6
  84 prop tor   4   5   6   1
  85 prop tor   4   5   6   7
  86 prop tor   4   5   6  34
  87 ben   4   5   7
  88 prop tor   4   5   7   6
  89 prop tor   4   5   7   8
  90 prop tor   4   5   7   9
  91 ben   4  14  13
  92 ben   4  14  15
  93 prop tor   4  14  15  16
  94 prop tor   4  14  15  28
  95 ben   5   4  14
  96 prop tor   5   4  14  13
  97 prop tor   5   4  14  15
  98 ben   5   6   7
  99 prop tor   5   6   7   8
 100 prop tor   5   6   7   9
 101 ben   5   6  34
 102 ben   5   7   6
 103 ben   5   7   8
 104 prop tor   5   7   8   9
 105 prop tor   5   7   8  13
 106 ben   5   7   9
 107 prop tor   5   7   9   8
 108 prop tor   5   7   9  10
 109 prop tor   5   7   9  35
 110 prop tor   6   1   2   3
 111 prop tor   6   1   2  32
 112 ben   6   1  31
 113 ben   6   5   7
 114 prop tor   6   5   7   8
 115 prop tor   6   5   7   9
 116 ben   6   7   8
 117 prop tor   6   7   8   9
 118 prop tor   6   7   8  13
 119 ben   6   7   9
 120 prop tor   6   7   9   8
 121 prop tor   6   7   9  10
 122 prop tor   6   7   9  35
 123 prop tor   7   5   6   1
 124 prop tor   7   5   6  34
 125 ben   7   6  34
 126 ben   7   8   9
 127 prop tor   7   8   9  10
 128 prop tor   7   8   9  35
 129 ben   7   8  13
 130 prop tor   7   8  13  12
 131 prop tor   7   8  13  14
 132 ben   7   9   8
 133 ben   7   9  10
 134 prop tor   7   9  10  11
 135 prop tor   7   9  10  36
 136 ben   7   9  35
 137 ben   8   7   9
 138 prop tor   8   7   9  10
 139 prop tor   8   7   9  35
 140 ben   8   9  10
 141 prop tor   8   9  10  11
 142 prop tor   8   9  10  36
 143 ben   8   9  35
 144 ben   8  13  12
 145 ben   8  13  14
 146 prop tor   8  13  14   4
 147 prop tor   8  13  14  15
 148 prop tor   9   7   8  13
 149 ben   9   8  13
 150 prop tor   9   8  13  12
 151 prop tor   9   8  13  14
 152 ben   9  10  11
 153 prop tor   9  10  11  12
 154 prop tor   9  10  11  37
 155 ben   9  10  36
 156 ben  10   9  35
 157 ben  10  11  12
 158 prop tor  10  11  12  13
 159 prop tor  10  11  12  38
 160 ben  10  11  37
 161 ben  11  10  36
 162 ben  11  12  13
 163 prop tor  11  12  13   8
 164 prop tor  11  12  13  14
 165 ben  11  12  38
 166 ben  12  11  37
 167 ben  12  13  14
 168 prop tor  12  13  14   4
 169 prop tor  12  13  14  15
 170 prop tor  13   8   9   7
 171 prop tor  13   8   9  10
 172 prop tor  13   8   9  35
 173 ben  13  12  38
 174 ben  13  14  15
 175 prop tor  13  14  15  16
 176 prop tor  13  14  15  28
 177 prop tor  14   4   5   6
 178 prop tor  14   4   5   7
 179 ben  14  15  16
 180 prop tor  14  15  16  17
 181 prop tor  14  15  16  39
 182 ben  14  15  28
 183 prop tor  14  15  28  27
 184 prop tor  14  15  28  47
 185 ben  15  16  17
 186 prop tor  15  16  17  18
 187 prop tor  15  16  17  29
 188 ben  15  16  39
 189 ben  15  28  27
 190 ben  15  28  47
 191 ben  16  15  28
 192 prop tor  16  15  28  27
 193 prop tor  16  15  28  47
 194 ben  16  17  18
 195 prop tor  16  17  18  19
 196 prop tor  16  17  18  40
 197 ben  16  17  29
 198 prop tor  16  17  29  27
 199 prop tor  16  17  29  30
 200 ben  17  16  39
 201 ben  17  18  19
 202 prop tor  17  18  19  20
 203 prop tor  17  18  19  41
 204 ben  17  18  40
 205 ben  17  29  27
 206 ben  17  29  30
 207 prop tor  17  29  30  20
 208 prop tor  17  29  30  24
 209 ben  18  17  29
 210 prop tor  18  17  29  27
 211 prop tor  18  17  29  30
 212 ben  18  19  20
 213 prop tor  18  19  20  21
 214 prop tor  18  19  20  30
 215 ben  18  19  41
 216 ben  19  18  40
 217 ben  19  20  21
 218 prop tor  19  20  21  22
 219 prop tor  19  20  21  42
 220 ben  19  20  30
 221 prop tor  19  20  30  24
 222 prop tor  19  20  30  29
 223 ben  20  19  41
 224 ben  20  21  22
 225 prop tor  20  21  22  23
 226 prop tor  20  21  22  43
 227 ben  20  21  42
 228 ben  20  30  24
 229 ben  20  30  29
 230 ben  21  20  30
 231 prop tor  21  20  30  24
 232 prop tor  21  20  30  29
 233 ben  21  22  23
 234 prop tor  21  22  23  24
 235 prop tor  21  22  23  44
 236 ben  21  22  43
 237 ben  22  21  42
 238 ben  22  23  24
 239 prop tor  22  23  24  25
 240 prop tor  22  23  24  30
 241 ben  22  23  44
 242 ben  23  22  43
 243 ben  23  24  25
 244 prop tor  23  24  25  26
 245 prop tor  23  24  25  45
 246 ben  23  24  30
 247 prop tor  23  24  30  20
 248 prop tor  23  24  30  29
 249 ben  24  23  44
 250 ben  24  25  26
 251 prop tor  24  25  26  27
 252 prop tor  24  25  26  46
 253 ben  24  25  45
 254 ben  24  30  29
 255 ben  25  24  30
 256 prop tor  25  24  30  20
 257 prop tor  25  24  30  29
 258 ben  25  26  27
 259 prop tor  25  26  27  28
 260 prop tor  25  26  27  29
 261 ben  25  26  46
 262 ben  26  25  45
 263 ben  26  27  28
 264 prop tor  26  27  28  15
 265 prop tor  26  27  28  47
 266 ben  26  27  29
 267 prop tor  26  27  29  17
 268 prop tor  26  27  29  30
 269 ben  27  26  46
 270 ben  27  28  47
 271 ben  27  29  30
 272 prop tor  27  29  30  20
 273 prop tor  27  29  30  24
 274 prop tor  28  15  16  17
 275 prop tor  28  15  16  39
 276 ben  28  27  29
 277 prop tor  28  27  29  17
 278 prop tor  28  27  29  30
 279 prop tor  29  17  18  19
 280 prop tor  29  17  18  40
 281 prop tor  29  27  28  15
 282 prop tor  29  27  28  47
 283 prop tor  30  20  21  22
 284 prop tor  30  20  21  42
 285 prop tor  30  24  25  26
 286 prop tor  30  24  25  45
 287 prop tor  31   1   2   3
 288 prop tor  31   1   2  32
 289 prop tor  31   1   6   5
 290 prop tor  31   1   6   7
 291 prop tor  31   1   6  34
 292 prop tor  32   2   3   4
 293 prop tor  32   2   3  33
 294 prop tor  33   3   4   5
 295 prop tor  33   3   4  14
 296 prop tor  34   6   7   5
 297 prop tor  34   6   7   8
 298 prop tor  34   6   7   9
 299 prop tor  35   9  10  11
 300 prop tor  35   9  10  36
 301 prop tor  36  10  11  12
 302 prop tor  36  10  11  37
 303 prop tor  37  11  12  13
 304 prop tor  37  11  12  38
 305 prop tor  38  12  13   8
 306 prop tor  38  12  13  14
 307 prop tor  39  16  17  18
 308 prop tor  39  16  17  29
 309 prop tor  40  18  19  20
 310 prop tor  40  18  19  41
 311 prop tor  41  19  20  21
 312 prop tor  41  19  20  30
 313 prop tor  42  21  22  23
 314 prop tor  42  21  22  43
 315 prop tor  43  22  23  24
 316 prop tor  43  22  23  44
 317 prop tor  44  23  24  25
 318 prop tor  44  23  24  30
 319 prop tor  45  25  26  27
 320 prop tor  45  25  26  46
 321 prop tor  46  26  27  28
 322 prop tor  46  26  27  29
 nber bend=              99
 nber lin bend=           0
 nber prop tor=         168
 nber impr tor=           0
 nber tot redund int=         322
 Eigenvalues of G in red int coords
    Gval -0.00000000 -0.00000000 -0.00000000 -0.00000000 -0.00000000 -0.00000000 -0.00000000 -0.00000000
    Gval -0.00000000 -0.00000000 -0.00000000 -0.00000000 -0.00000000 -0.00000000 -0.00000000 -0.00000000
    Gval -0.00000000 -0.00000000 -0.00000000 -0.00000000 -0.00000000 -0.00000000 -0.00000000 -0.00000000
    Gval -0.00000000 -0.00000000 -0.00000000 -0.00000000 -0.00000000 -0.00000000 -0.00000000 -0.00000000
    Gval -0.00000000 -0.00000000 -0.00000000 -0.00000000 -0.00000000 -0.00000000 -0.00000000 -0.00000000
    Gval -0.00000000 -0.00000000 -0.00000000 -0.00000000 -0.00000000 -0.00000000 -0.00000000 -0.00000000
    Gval -0.00000000 -0.00000000 -0.00000000 -0.00000000 -0.00000000 -0.00000000 -0.00000000 -0.00000000
    Gval -0.00000000 -0.00000000 -0.00000000 -0.00000000 -0.00000000 -0.00000000 -0.00000000 -0.00000000
    Gval -0.00000000 -0.00000000 -0.00000000 -0.00000000 -0.00000000 -0.00000000 -0.00000000 -0.00000000
    Gval -0.00000000 -0.00000000 -0.00000000 -0.00000000 -0.00000000 -0.00000000 -0.00000000 -0.00000000
    Gval -0.00000000 -0.00000000 -0.00000000 -0.00000000 -0.00000000 -0.00000000 -0.00000000 -0.00000000
    Gval -0.00000000 -0.00000000  0.00000000  0.00000000  0.00000000  0.00000000  0.00000000  0.00000000
    Gval  0.00000000  0.00000000  0.00000000  0.00000000  0.00000000  0.00000000  0.00000000  0.00000000
    Gval  0.00000000  0.00000000  0.00000000  0.00000000  0.00000000  0.00000000  0.00000000  0.00000000
    Gval  0.00000000  0.00000000  0.00000000  0.00000000  0.00000000  0.00000000  0.00000000  0.00000000
    Gval  0.00000000  0.00000000  0.00000000  0.00000000  0.00000000  0.00000000  0.00000000  0.00000000
    Gval  0.00000000  0.00000000  0.00000000  0.00000000  0.00000000  0.00000000  0.00000000  0.00000000
    Gval  0.00000000  0.00000000  0.00000000  0.00000000  0.00000000  0.00000000  0.00000000  0.00000000
    Gval  0.00000000  0.00000000  0.00000000  0.00000000  0.00000000  0.00000000  0.00000000  0.00000000
    Gval  0.00000000  0.00000000  0.00000000  0.00000000  0.00000000  0.00000000  0.00000000  0.00000000
    Gval  0.00000000  0.00000000  0.00000000  0.00000000  0.00000000  0.00000000  0.00000000  0.00000000
    Gval  0.00000000  0.00000000  0.00000000  0.00000000  0.00000000  0.00000000  0.00000000  0.00000000
    Gval  0.00000000  0.00000000  0.00000000  0.00000000  0.00000000  0.00000000  0.00000000  0.00000000
    Gval  0.00000000  0.00000000  0.00000000  0.00000053  0.00000204  0.00000449  0.00000472  0.00000521
    Gval  0.00001205  0.00001662  0.00001947  0.00002102  0.00002455  0.00002458  0.00002936  0.00002947
    Gval  0.00003103  0.00004362  0.00004379  0.00005363  0.00005715  0.00005790  0.00006034  0.00006488
    Gval  0.00006819  0.00006846  0.00007011  0.00007629  0.00008098  0.00008437  0.00008981  0.00009331
    Gval  0.00009547  0.00010063  0.00010830  0.00011229  0.00012064  0.00012340  0.00013192  0.00013430
    Gval  0.00014002  0.00014108  0.00015323  0.00015352  0.00016546  0.00017482  0.00019127  0.00020148
    Gval  0.00020170  0.00022076  0.00022537  0.00025671  0.00026134  0.00027341  0.00028025  0.00029117
    Gval  0.00034498  0.00035631  0.00035909  0.00037066  0.00037272  0.00039481  0.00039503  0.00040326
    Gval  0.00042054  0.00042537  0.00043764  0.00043959  0.00044869  0.00047071  0.00048849  0.00054410
    Gval  0.00059370  0.00059376  0.00059385  0.00059712  0.00059805  0.00059841  0.00059852  0.00060807
    Gval  0.00061761  0.00062415  0.00062649  0.00062708  0.00062815  0.00064208  0.00064627  0.00065818
    Gval  0.00067562  0.00067742  0.00078477  0.00085890  0.00099665  0.00101349  0.00104625  0.00106633
    Gval  0.00108559  0.00108591  0.00108736  0.00108809  0.00108851  0.00114082  0.00116092  0.00116222
    Gval  0.00116675  0.00116808  0.00117017  0.00117043  0.00118720  0.00119241  0.00119271  0.00147090
    Gval  0.00149992  0.00161222  0.00161320  0.00175069  0.00194184  0.00208358  0.00216571  0.00224788
    Gval  0.00231353  0.00241926  0.00257095  0.00261913  0.00311314  0.00320563  0.00326419  0.00327546
    Gval  0.00346297  0.00360106  0.00368770  0.00372393  0.00392093  0.00393817  0.00411867  0.00460773
    Gval  0.00626853  0.00843893
  5.301435972325950E-007  5.301435972325950E-007
  2.036735095956634E-006  5.301435972325950E-007
  4.489574427048987E-006  5.301435972325950E-007
  4.723545117916788E-006  5.301435972325950E-007
  5.212692351846066E-006  5.301435972325950E-007
  1.205457207034266E-005  5.301435972325950E-007
  1.662420664590631E-005  5.301435972325950E-007
  1.947047852148777E-005  5.301435972325950E-007
  2.102240360874237E-005  5.301435972325950E-007
  2.454962228908713E-005  5.301435972325950E-007
  2.457859662873152E-005  5.301435972325950E-007
  2.935728057693835E-005  5.301435972325950E-007
  2.946642514936976E-005  5.301435972325950E-007
  3.102537670778260E-005  5.301435972325950E-007
  4.362078816191371E-005  5.301435972325950E-007
  4.379456864107176E-005  5.301435972325950E-007
  5.362640180556606E-005  5.301435972325950E-007
  5.715410917026182E-005  5.301435972325950E-007
  5.789525335094617E-005  5.301435972325950E-007
  6.033974809096175E-005  5.301435972325950E-007
  6.488486686353391E-005  5.301435972325950E-007
  6.819170634357442E-005  5.301435972325950E-007
  6.845511439893272E-005  5.301435972325950E-007
  7.010674354482434E-005  5.301435972325950E-007
  7.629484736142191E-005  5.301435972325950E-007
  8.098010672790439E-005  5.301435972325950E-007
  8.436693349628358E-005  5.301435972325950E-007
  8.980538565180472E-005  5.301435972325950E-007
  9.330652034380727E-005  5.301435972325950E-007
  9.547180064553904E-005  5.301435972325950E-007
  1.006349415620224E-004  5.301435972325950E-007
  1.082957614298604E-004  5.301435972325950E-007
  1.122940309986126E-004  5.301435972325950E-007
  1.206403675541310E-004  5.301435972325950E-007
  1.233972788126916E-004  5.301435972325950E-007
  1.319150784837812E-004  5.301435972325950E-007
  1.343022221614365E-004  5.301435972325950E-007
  1.400203549979988E-004  5.301435972325950E-007
  1.410807697407274E-004  5.301435972325950E-007
  1.532270877256283E-004  5.301435972325950E-007
  1.535241145743296E-004  5.301435972325950E-007
  1.654550474214150E-004  5.301435972325950E-007
  1.748249536207924E-004  5.301435972325950E-007
  1.912726144668574E-004  5.301435972325950E-007
  2.014750339226947E-004  5.301435972325950E-007
  2.017007423121926E-004  5.301435972325950E-007
  2.207551102581104E-004  5.301435972325950E-007
  2.253743904827656E-004  5.301435972325950E-007
  2.567087395184288E-004  5.301435972325950E-007
  2.613366992202904E-004  5.301435972325950E-007
  2.734064909048312E-004  5.301435972325950E-007
  2.802489419434346E-004  5.301435972325950E-007
  2.911741913779731E-004  5.301435972325950E-007
  3.449819062751876E-004  5.301435972325950E-007
  3.563074536544759E-004  5.301435972325950E-007
  3.590946921415650E-004  5.301435972325950E-007
  3.706603550176220E-004  5.301435972325950E-007
  3.727229564395627E-004  5.301435972325950E-007
  3.948083644095233E-004  5.301435972325950E-007
  3.950272225919339E-004  5.301435972325950E-007
  4.032608611749995E-004  5.301435972325950E-007
  4.205419832658870E-004  5.301435972325950E-007
  4.253652784380127E-004  5.301435972325950E-007
  4.376370394894083E-004  5.301435972325950E-007
  4.395862189517152E-004  5.301435972325950E-007
  4.486862425648905E-004  5.301435972325950E-007
  4.707107115449343E-004  5.301435972325950E-007
  4.884883592316516E-004  5.301435972325950E-007
  5.440976485938127E-004  5.301435972325950E-007
  5.936987371009532E-004  5.301435972325950E-007
  5.937552342368504E-004  5.301435972325950E-007
  5.938511215603230E-004  5.301435972325950E-007
  5.971235928700262E-004  5.301435972325950E-007
  5.980514397517009E-004  5.301435972325950E-007
  5.984097636101450E-004  5.301435972325950E-007
  5.985241561291268E-004  5.301435972325950E-007
  6.080739615277578E-004  5.301435972325950E-007
  6.176083274558079E-004  5.301435972325950E-007
  6.241510388076344E-004  5.301435972325950E-007
  6.264925229307435E-004  5.301435972325950E-007
  6.270770514191146E-004  5.301435972325950E-007
  6.281466649181858E-004  5.301435972325950E-007
  6.420765354229581E-004  5.301435972325950E-007
  6.462662160748791E-004  5.301435972325950E-007
  6.581759296132215E-004  5.301435972325950E-007
  6.756160663637774E-004  5.301435972325950E-007
  6.774196134179299E-004  5.301435972325950E-007
  7.847671927983309E-004  5.301435972325950E-007
  8.589017303678170E-004  5.301435972325950E-007
  9.966482171712722E-004  5.301435972325950E-007
  1.013488018838324E-003  5.301435972325950E-007
  1.046251690208212E-003  5.301435972325950E-007
  1.066330028653097E-003  5.301435972325950E-007
  1.085594895405243E-003  5.301435972325950E-007
  1.085908122199183E-003  5.301435972325950E-007
  1.087361107460607E-003  5.301435972325950E-007
  1.088089393689796E-003  5.301435972325950E-007
  1.088507917899574E-003  5.301435972325950E-007
  1.140819807329174E-003  5.301435972325950E-007
  1.160917077046923E-003  5.301435972325950E-007
  1.162222931803006E-003  5.301435972325950E-007
  1.166753895416374E-003  5.301435972325950E-007
  1.168082209007173E-003  5.301435972325950E-007
  1.170165240646857E-003  5.301435972325950E-007
  1.170432530380782E-003  5.301435972325950E-007
  1.187198440523541E-003  5.301435972325950E-007
  1.192405355344781E-003  5.301435972325950E-007
  1.192705122587895E-003  5.301435972325950E-007
  1.470904671720300E-003  5.301435972325950E-007
  1.499920765276448E-003  5.301435972325950E-007
  1.612223869191343E-003  5.301435972325950E-007
  1.613196560260397E-003  5.301435972325950E-007
  1.750692164104784E-003  5.301435972325950E-007
  1.941840404958277E-003  5.301435972325950E-007
  2.083579073683994E-003  5.301435972325950E-007
  2.165711780121763E-003  5.301435972325950E-007
  2.247880845187091E-003  5.301435972325950E-007
  2.313531171512347E-003  5.301435972325950E-007
  2.419264755899574E-003  5.301435972325950E-007
  2.570951686772519E-003  5.301435972325950E-007
  2.619126226003205E-003  5.301435972325950E-007
  3.113136527449854E-003  5.301435972325950E-007
  3.205633380500528E-003  5.301435972325950E-007
  3.264186991098918E-003  5.301435972325950E-007
  3.275458122311321E-003  5.301435972325950E-007
  3.462968728149563E-003  5.301435972325950E-007
  3.601059117028550E-003  5.301435972325950E-007
  3.687701348963891E-003  5.301435972325950E-007
  3.723929454156640E-003  5.301435972325950E-007
  3.920934712039991E-003  5.301435972325950E-007
  3.938168200020860E-003  5.301435972325950E-007
  4.118666350431097E-003  5.301435972325950E-007
  4.607730119795247E-003  5.301435972325950E-007
  6.268526125933056E-003  5.301435972325950E-007
  8.438928952832755E-003  5.301435972325950E-007
 cut=1d-8, nber non-redundant internal coords=         135
 Check on Eigenvals of non-red overlap matrix:
  0.00000053  0.00000204  0.00000449  0.00000472  0.00000521  0.00001205  0.00001662  0.00001947
  0.00002102  0.00002455  0.00002458  0.00002936  0.00002947  0.00003103  0.00004362  0.00004379
  0.00005363  0.00005715  0.00005790  0.00006034  0.00006488  0.00006819  0.00006846  0.00007011
  0.00007629  0.00008098  0.00008437  0.00008981  0.00009331  0.00009547  0.00010063  0.00010830
  0.00011229  0.00012064  0.00012340  0.00013192  0.00013430  0.00014002  0.00014108  0.00015323
  0.00015352  0.00016546  0.00017482  0.00019127  0.00020148  0.00020170  0.00022076  0.00022537
  0.00025671  0.00026134  0.00027341  0.00028025  0.00029117  0.00034498  0.00035631  0.00035909
  0.00037066  0.00037272  0.00039481  0.00039503  0.00040326  0.00042054  0.00042537  0.00043764
  0.00043959  0.00044869  0.00047071  0.00048849  0.00054410  0.00059370  0.00059376  0.00059385
  0.00059712  0.00059805  0.00059841  0.00059852  0.00060807  0.00061761  0.00062415  0.00062649
  0.00062708  0.00062815  0.00064208  0.00064627  0.00065818  0.00067562  0.00067742  0.00078477
  0.00085890  0.00099665  0.00101349  0.00104625  0.00106633  0.00108559  0.00108591  0.00108736
  0.00108809  0.00108851  0.00114082  0.00116092  0.00116222  0.00116675  0.00116808  0.00117017
  0.00117043  0.00118720  0.00119241  0.00119271  0.00147090  0.00149992  0.00161222  0.00161320
  0.00175069  0.00194184  0.00208358  0.00216571  0.00224788  0.00231353  0.00241926  0.00257095
  0.00261913  0.00311314  0.00320563  0.00326419  0.00327546  0.00346297  0.00360106  0.00368770
[...]
  58 prop tor   1   2   3  33
  59 ben   1   2  32
  60 ben   1   6   5
  61 ben   1   6   7
  62 prop tor   1   6   7   5
  63 prop tor   1   6   7   8
  64 prop tor   1   6   7   9
  65 ben   1   6  34
  66 ben   2   1   6
  67 prop tor   2   1   6   5
  68 prop tor   2   1   6   7
  69 prop tor   2   1   6  34
  70 ben   2   1  31
  71 ben   2   3   4
  72 prop tor   2   3   4   5
  73 prop tor   2   3   4  14
  74 ben   2   3  33
  75 ben   3   2  32
  76 ben   3   4   5
  77 prop tor   3   4   5   6
  78 prop tor   3   4   5   7
  79 ben   3   4  14
  80 prop tor   3   4  14  13
  81 prop tor   3   4  14  15
  82 ben   4   3  33
  83 ben   4   5   6
  84 prop tor   4   5   6   1
  85 prop tor   4   5   6   7
  86 prop tor   4   5   6  34
  87 ben   4   5   7
  88 prop tor   4   5   7   6
  89 prop tor   4   5   7   8
  90 prop tor   4   5   7   9
  91 ben   4  14  13
  92 ben   4  14  15
  93 prop tor   4  14  15  16
  94 prop tor   4  14  15  28
  95 ben   5   4  14
  96 prop tor   5   4  14  13
  97 prop tor   5   4  14  15
  98 ben   5   6   7
  99 prop tor   5   6   7   8
 100 prop tor   5   6   7   9
 101 ben   5   6  34
 102 ben   5   7   6
 103 ben   5   7   8
 104 prop tor   5   7   8   9
 105 prop tor   5   7   8  13
 106 ben   5   7   9
 107 prop tor   5   7   9   8
 108 prop tor   5   7   9  10
 109 prop tor   5   7   9  35
 110 prop tor   6   1   2   3
 111 prop tor   6   1   2  32
 112 ben   6   1  31
 113 ben   6   5   7
 114 prop tor   6   5   7   8
 115 prop tor   6   5   7   9
 116 ben   6   7   8
 117 prop tor   6   7   8   9
 118 prop tor   6   7   8  13
 119 ben   6   7   9
 120 prop tor   6   7   9   8
 121 prop tor   6   7   9  10
 122 prop tor   6   7   9  35
 123 prop tor   7   5   6   1
 124 prop tor   7   5   6  34
 125 ben   7   6  34
 126 ben   7   8   9
 127 prop tor   7   8   9  10
 128 prop tor   7   8   9  35
 129 ben   7   8  13
 130 prop tor   7   8  13  12
 131 prop tor   7   8  13  14
 132 ben   7   9   8
 133 ben   7   9  10
 134 prop tor   7   9  10  11
 135 prop tor   7   9  10  36
 136 ben   7   9  35
 137 ben   8   7   9
 138 prop tor   8   7   9  10
 139 prop tor   8   7   9  35
 140 ben   8   9  10
 141 prop tor   8   9  10  11
 142 prop tor   8   9  10  36
 143 ben   8   9  35
 144 ben   8  13  12
 145 ben   8  13  14
 146 prop tor   8  13  14   4
 147 prop tor   8  13  14  15
 148 prop tor   9   7   8  13
 149 ben   9   8  13
 150 prop tor   9   8  13  12
 151 prop tor   9   8  13  14
 152 ben   9  10  11
 153 prop tor   9  10  11  12
 154 prop tor   9  10  11  37
 155 ben   9  10  36
 156 ben  10   9  35
 157 ben  10  11  12
 158 prop tor  10  11  12  13
 159 prop tor  10  11  12  38
 160 ben  10  11  37
 161 ben  11  10  36
 162 ben  11  12  13
 163 prop tor  11  12  13   8
 164 prop tor  11  12  13  14
 165 ben  11  12  38
 166 ben  12  11  37
 167 ben  12  13  14
 168 prop tor  12  13  14   4
 169 prop tor  12  13  14  15
 170 prop tor  13   8   9   7
 171 prop tor  13   8   9  10
 172 prop tor  13   8   9  35
 173 ben  13  12  38
 174 ben  13  14  15
 175 prop tor  13  14  15  16
 176 prop tor  13  14  15  28
 177 prop tor  14   4   5   6
 178 prop tor  14   4   5   7
 179 ben  14  15  16
 180 prop tor  14  15  16  17
 181 prop tor  14  15  16  39
 182 ben  14  15  28
 183 prop tor  14  15  28  27
 184 prop tor  14  15  28  47
 185 ben  15  16  17
 186 prop tor  15  16  17  18
 187 prop tor  15  16  17  29
 188 ben  15  16  39
 189 ben  15  28  27
 190 ben  15  28  47
 191 ben  16  15  28
 192 prop tor  16  15  28  27
 193 prop tor  16  15  28  47
 194 ben  16  17  18
 195 prop tor  16  17  18  19
 196 prop tor  16  17  18  40
 197 ben  16  17  29
 198 prop tor  16  17  29  27
 199 prop tor  16  17  29  30
 200 ben  17  16  39
 201 ben  17  18  19
 202 prop tor  17  18  19  20
 203 prop tor  17  18  19  41
 204 ben  17  18  40
 205 ben  17  29  27
 206 ben  17  29  30
 207 prop tor  17  29  30  20
 208 prop tor  17  29  30  24
 209 ben  18  17  29
 210 prop tor  18  17  29  27
 211 prop tor  18  17  29  30
 212 ben  18  19  20
 213 prop tor  18  19  20  21
 214 prop tor  18  19  20  30
 215 ben  18  19  41
 216 ben  19  18  40
 217 ben  19  20  21
 218 prop tor  19  20  21  22
 219 prop tor  19  20  21  42
 220 ben  19  20  30
 221 prop tor  19  20  30  24
 222 prop tor  19  20  30  29
 223 ben  20  19  41
 224 ben  20  21  22
 225 prop tor  20  21  22  23
 226 prop tor  20  21  22  43
 227 ben  20  21  42
 228 ben  20  30  24
 229 ben  20  30  29
 230 ben  21  20  30
 231 prop tor  21  20  30  24
 232 prop tor  21  20  30  29
 233 ben  21  22  23
 234 prop tor  21  22  23  24
 235 prop tor  21  22  23  44
 236 ben  21  22  43
 237 ben  22  21  42
 238 ben  22  23  24
 239 prop tor  22  23  24  25
 240 prop tor  22  23  24  30
 241 ben  22  23  44
 242 ben  23  22  43
 243 ben  23  24  25
 244 prop tor  23  24  25  26
 245 prop tor  23  24  25  45
 246 ben  23  24  30
 247 prop tor  23  24  30  20
 248 prop tor  23  24  30  29
 249 ben  24  23  44
 250 ben  24  25  26
 251 prop tor  24  25  26  27
 252 prop tor  24  25  26  46
 253 ben  24  25  45
 254 ben  24  30  29
 255 ben  25  24  30
 256 prop tor  25  24  30  20
 257 prop tor  25  24  30  29
 258 ben  25  26  27
 259 prop tor  25  26  27  28
 260 prop tor  25  26  27  29
 261 ben  25  26  46
 262 ben  26  25  45
 263 ben  26  27  28
 264 prop tor  26  27  28  15
 265 prop tor  26  27  28  47
 266 ben  26  27  29
 267 prop tor  26  27  29  17
 268 prop tor  26  27  29  30
 269 ben  27  26  46
 270 ben  27  28  47
 271 ben  27  29  30
 272 prop tor  27  29  30  20
 273 prop tor  27  29  30  24
 274 prop tor  28  15  16  17
 275 prop tor  28  15  16  39
 276 ben  28  27  29
 277 prop tor  28  27  29  17
 278 prop tor  28  27  29  30
 279 prop tor  29  17  18  19
 280 prop tor  29  17  18  40
 281 prop tor  29  27  28  15
 282 prop tor  29  27  28  47
 283 prop tor  30  20  21  22
 284 prop tor  30  20  21  42
 285 prop tor  30  24  25  26
 286 prop tor  30  24  25  45
 287 prop tor  31   1   2   3
 288 prop tor  31   1   2  32
 289 prop tor  31   1   6   5
 290 prop tor  31   1   6   7
 291 prop tor  31   1   6  34
 292 prop tor  32   2   3   4
 293 prop tor  32   2   3  33
 294 prop tor  33   3   4   5
 295 prop tor  33   3   4  14
 296 prop tor  34   6   7   5
 297 prop tor  34   6   7   8
 298 prop tor  34   6   7   9
 299 prop tor  35   9  10  11
 300 prop tor  35   9  10  36
 301 prop tor  36  10  11  12
 302 prop tor  36  10  11  37
 303 prop tor  37  11  12  13
 304 prop tor  37  11  12  38
 305 prop tor  38  12  13   8
 306 prop tor  38  12  13  14
 307 prop tor  39  16  17  18
 308 prop tor  39  16  17  29
 309 prop tor  40  18  19  20
 310 prop tor  40  18  19  41
 311 prop tor  41  19  20  21
 312 prop tor  41  19  20  30
 313 prop tor  42  21  22  23
 314 prop tor  42  21  22  43
 315 prop tor  43  22  23  24
 316 prop tor  43  22  23  44
 317 prop tor  44  23  24  25
 318 prop tor  44  23  24  30
 319 prop tor  45  25  26  27
 320 prop tor  45  25  26  46
 321 prop tor  46  26  27  28
 322 prop tor  46  26  27  29
 nber bend=              99
 nber lin bend=           0
 nber prop tor=         168
 nber impr tor=           0
 nber tot redund int=         322
 Eigenvalues of G in red int coords
    Gval -0.00000000 -0.00000000 -0.00000000 -0.00000000 -0.00000000 -0.00000000 -0.00000000 -0.00000000
    Gval -0.00000000 -0.00000000 -0.00000000 -0.00000000 -0.00000000 -0.00000000 -0.00000000 -0.00000000
    Gval -0.00000000 -0.00000000 -0.00000000 -0.00000000 -0.00000000 -0.00000000 -0.00000000 -0.00000000
    Gval -0.00000000 -0.00000000 -0.00000000 -0.00000000 -0.00000000 -0.00000000 -0.00000000 -0.00000000
    Gval -0.00000000 -0.00000000 -0.00000000 -0.00000000 -0.00000000 -0.00000000 -0.00000000 -0.00000000
    Gval -0.00000000 -0.00000000 -0.00000000 -0.00000000 -0.00000000 -0.00000000 -0.00000000 -0.00000000
    Gval -0.00000000 -0.00000000 -0.00000000 -0.00000000 -0.00000000 -0.00000000 -0.00000000 -0.00000000
    Gval -0.00000000 -0.00000000 -0.00000000 -0.00000000 -0.00000000 -0.00000000 -0.00000000 -0.00000000
    Gval -0.00000000 -0.00000000 -0.00000000 -0.00000000 -0.00000000 -0.00000000 -0.00000000 -0.00000000
    Gval -0.00000000 -0.00000000 -0.00000000 -0.00000000 -0.00000000 -0.00000000 -0.00000000 -0.00000000
    Gval -0.00000000 -0.00000000 -0.00000000 -0.00000000 -0.00000000 -0.00000000 -0.00000000 -0.00000000
    Gval -0.00000000 -0.00000000 -0.00000000 -0.00000000 -0.00000000 -0.00000000 -0.00000000 -0.00000000
    Gval  0.00000000  0.00000000  0.00000000  0.00000000  0.00000000  0.00000000  0.00000000  0.00000000
    Gval  0.00000000  0.00000000  0.00000000  0.00000000  0.00000000  0.00000000  0.00000000  0.00000000
    Gval  0.00000000  0.00000000  0.00000000  0.00000000  0.00000000  0.00000000  0.00000000  0.00000000
    Gval  0.00000000  0.00000000  0.00000000  0.00000000  0.00000000  0.00000000  0.00000000  0.00000000
    Gval  0.00000000  0.00000000  0.00000000  0.00000000  0.00000000  0.00000000  0.00000000  0.00000000
    Gval  0.00000000  0.00000000  0.00000000  0.00000000  0.00000000  0.00000000  0.00000000  0.00000000
    Gval  0.00000000  0.00000000  0.00000000  0.00000000  0.00000000  0.00000000  0.00000000  0.00000000
    Gval  0.00000000  0.00000000  0.00000000  0.00000000  0.00000000  0.00000000  0.00000000  0.00000000
    Gval  0.00000000  0.00000000  0.00000000  0.00000000  0.00000000  0.00000000  0.00000000  0.00000000
    Gval  0.00000000  0.00000000  0.00000000  0.00000000  0.00000000  0.00000000  0.00000000  0.00000000
    Gval  0.00000000  0.00000000  0.00000000  0.00000000  0.00000000  0.00000000  0.00000000  0.00000000
    Gval  0.00000000  0.00000000  0.00000000  0.00000053  0.00000204  0.00000449  0.00000472  0.00000521
    Gval  0.00001205  0.00001662  0.00001947  0.00002102  0.00002455  0.00002458  0.00002936  0.00002947
    Gval  0.00003103  0.00004362  0.00004379  0.00005363  0.00005715  0.00005790  0.00006034  0.00006488
    Gval  0.00006819  0.00006846  0.00007011  0.00007629  0.00008098  0.00008437  0.00008981  0.00009331
    Gval  0.00009547  0.00010063  0.00010830  0.00011229  0.00012064  0.00012340  0.00013192  0.00013430
    Gval  0.00014002  0.00014108  0.00015323  0.00015352  0.00016546  0.00017482  0.00019127  0.00020148
    Gval  0.00020170  0.00022076  0.00022537  0.00025671  0.00026134  0.00027341  0.00028025  0.00029117
    Gval  0.00034498  0.00035631  0.00035909  0.00037066  0.00037272  0.00039481  0.00039503  0.00040326
    Gval  0.00042054  0.00042537  0.00043764  0.00043959  0.00044869  0.00047071  0.00048849  0.00054410
    Gval  0.00059370  0.00059376  0.00059385  0.00059712  0.00059805  0.00059841  0.00059852  0.00060807
    Gval  0.00061761  0.00062415  0.00062649  0.00062708  0.00062815  0.00064208  0.00064627  0.00065818
    Gval  0.00067562  0.00067742  0.00078477  0.00085890  0.00099665  0.00101349  0.00104625  0.00106633
    Gval  0.00108559  0.00108591  0.00108736  0.00108809  0.00108851  0.00114082  0.00116092  0.00116222
    Gval  0.00116675  0.00116808  0.00117017  0.00117043  0.00118720  0.00119241  0.00119271  0.00147090
    Gval  0.00149992  0.00161222  0.00161320  0.00175069  0.00194184  0.00208358  0.00216571  0.00224788
    Gval  0.00231353  0.00241926  0.00257095  0.00261913  0.00311314  0.00320563  0.00326419  0.00327546
    Gval  0.00346297  0.00360106  0.00368770  0.00372393  0.00392093  0.00393817  0.00411867  0.00460773
    Gval  0.00626853  0.00843893
  5.301435972327191E-007  5.301435972327191E-007
  2.036735095956669E-006  5.301435972327191E-007
  4.489574427048647E-006  5.301435972327191E-007
  4.723545117917192E-006  5.301435972327191E-007
  5.212692351845968E-006  5.301435972327191E-007
  1.205457207034245E-005  5.301435972327191E-007
  1.662420664590637E-005  5.301435972327191E-007
  1.947047852148788E-005  5.301435972327191E-007
  2.102240360874213E-005  5.301435972327191E-007
  2.454962228908690E-005  5.301435972327191E-007
  2.457859662873148E-005  5.301435972327191E-007
  2.935728057693814E-005  5.301435972327191E-007
  2.946642514936991E-005  5.301435972327191E-007
  3.102537670778259E-005  5.301435972327191E-007
  4.362078816191341E-005  5.301435972327191E-007
  4.379456864107190E-005  5.301435972327191E-007
  5.362640180556577E-005  5.301435972327191E-007
  5.715410917026144E-005  5.301435972327191E-007
  5.789525335094606E-005  5.301435972327191E-007
  6.033974809096161E-005  5.301435972327191E-007
  6.488486686353397E-005  5.301435972327191E-007
  6.819170634357457E-005  5.301435972327191E-007
  6.845511439893273E-005  5.301435972327191E-007
  7.010674354482410E-005  5.301435972327191E-007
  7.629484736142197E-005  5.301435972327191E-007
  8.098010672790405E-005  5.301435972327191E-007
  8.436693349628351E-005  5.301435972327191E-007
  8.980538565180437E-005  5.301435972327191E-007
  9.330652034380731E-005  5.301435972327191E-007
  9.547180064553862E-005  5.301435972327191E-007
  1.006349415620219E-004  5.301435972327191E-007
  1.082957614298600E-004  5.301435972327191E-007
  1.122940309986122E-004  5.301435972327191E-007
  1.206403675541308E-004  5.301435972327191E-007
  1.233972788126914E-004  5.301435972327191E-007
  1.319150784837805E-004  5.301435972327191E-007
  1.343022221614365E-004  5.301435972327191E-007
  1.400203549979987E-004  5.301435972327191E-007
  1.410807697407273E-004  5.301435972327191E-007
  1.532270877256282E-004  5.301435972327191E-007
  1.535241145743295E-004  5.301435972327191E-007
  1.654550474214142E-004  5.301435972327191E-007
  1.748249536207922E-004  5.301435972327191E-007
  1.912726144668569E-004  5.301435972327191E-007
  2.014750339226944E-004  5.301435972327191E-007
  2.017007423121935E-004  5.301435972327191E-007
  2.207551102581099E-004  5.301435972327191E-007
  2.253743904827654E-004  5.301435972327191E-007
  2.567087395184287E-004  5.301435972327191E-007
  2.613366992202898E-004  5.301435972327191E-007
  2.734064909048309E-004  5.301435972327191E-007
  2.802489419434334E-004  5.301435972327191E-007
  2.911741913779732E-004  5.301435972327191E-007
  3.449819062751867E-004  5.301435972327191E-007
  3.563074536544757E-004  5.301435972327191E-007
  3.590946921415652E-004  5.301435972327191E-007
  3.706603550176209E-004  5.301435972327191E-007
  3.727229564395618E-004  5.301435972327191E-007
  3.948083644095224E-004  5.301435972327191E-007
  3.950272225919330E-004  5.301435972327191E-007
  4.032608611749985E-004  5.301435972327191E-007
  4.205419832658853E-004  5.301435972327191E-007
  4.253652784380129E-004  5.301435972327191E-007
  4.376370394894077E-004  5.301435972327191E-007
  4.395862189517148E-004  5.301435972327191E-007
  4.486862425648888E-004  5.301435972327191E-007
  4.707107115449336E-004  5.301435972327191E-007
  4.884883592316510E-004  5.301435972327191E-007
  5.440976485938119E-004  5.301435972327191E-007
  5.936987371009531E-004  5.301435972327191E-007
  5.937552342368497E-004  5.301435972327191E-007
  5.938511215603221E-004  5.301435972327191E-007
  5.971235928700251E-004  5.301435972327191E-007
  5.980514397517011E-004  5.301435972327191E-007
  5.984097636101459E-004  5.301435972327191E-007
  5.985241561291258E-004  5.301435972327191E-007
  6.080739615277570E-004  5.301435972327191E-007
  6.176083274558078E-004  5.301435972327191E-007
  6.241510388076345E-004  5.301435972327191E-007
  6.264925229307427E-004  5.301435972327191E-007
  6.270770514191146E-004  5.301435972327191E-007
  6.281466649181858E-004  5.301435972327191E-007
  6.420765354229585E-004  5.301435972327191E-007
  6.462662160748798E-004  5.301435972327191E-007
  6.581759296132209E-004  5.301435972327191E-007
  6.756160663637781E-004  5.301435972327191E-007
  6.774196134179301E-004  5.301435972327191E-007
  7.847671927983311E-004  5.301435972327191E-007
  8.589017303678164E-004  5.301435972327191E-007
  9.966482171712681E-004  5.301435972327191E-007
  1.013488018838323E-003  5.301435972327191E-007
  1.046251690208213E-003  5.301435972327191E-007
  1.066330028653093E-003  5.301435972327191E-007
  1.085594895405244E-003  5.301435972327191E-007
  1.085908122199181E-003  5.301435972327191E-007
  1.087361107460607E-003  5.301435972327191E-007
  1.088089393689795E-003  5.301435972327191E-007
  1.088507917899574E-003  5.301435972327191E-007
  1.140819807329172E-003  5.301435972327191E-007
  1.160917077046922E-003  5.301435972327191E-007
  1.162222931803007E-003  5.301435972327191E-007
  1.166753895416374E-003  5.301435972327191E-007
  1.168082209007172E-003  5.301435972327191E-007
  1.170165240646853E-003  5.301435972327191E-007
  1.170432530380782E-003  5.301435972327191E-007
  1.187198440523538E-003  5.301435972327191E-007
  1.192405355344781E-003  5.301435972327191E-007
  1.192705122587893E-003  5.301435972327191E-007
  1.470904671720298E-003  5.301435972327191E-007
  1.499920765276447E-003  5.301435972327191E-007
  1.612223869191346E-003  5.301435972327191E-007
  1.613196560260408E-003  5.301435972327191E-007
  1.750692164104782E-003  5.301435972327191E-007
  1.941840404958275E-003  5.301435972327191E-007
  2.083579073683994E-003  5.301435972327191E-007
  2.165711780121763E-003  5.301435972327191E-007
  2.247880845187091E-003  5.301435972327191E-007
  2.313531171512346E-003  5.301435972327191E-007
  2.419264755899574E-003  5.301435972327191E-007
  2.570951686772520E-003  5.301435972327191E-007
  2.619126226003200E-003  5.301435972327191E-007
  3.113136527449852E-003  5.301435972327191E-007
  3.205633380500524E-003  5.301435972327191E-007
  3.264186991098923E-003  5.301435972327191E-007
  3.275458122311319E-003  5.301435972327191E-007
  3.462968728149560E-003  5.301435972327191E-007
  3.601059117028550E-003  5.301435972327191E-007
  3.687701348963888E-003  5.301435972327191E-007
  3.723929454156636E-003  5.301435972327191E-007
  3.920934712039990E-003  5.301435972327191E-007
  3.938168200020858E-003  5.301435972327191E-007
  4.118666350431098E-003  5.301435972327191E-007
  4.607730119795239E-003  5.301435972327191E-007
  6.268526125933052E-003  5.301435972327191E-007
  8.438928952832764E-003  5.301435972327191E-007
 cut=1d-8, nber non-redundant internal coords=         135
 Check on Eigenvals of non-red overlap matrix:
  0.00000053  0.00000204  0.00000449  0.00000472  0.00000521  0.00001205  0.00001662  0.00001947
  0.00002102  0.00002455  0.00002458  0.00002936  0.00002947  0.00003103  0.00004362  0.00004379
  0.00005363  0.00005715  0.00005790  0.00006034  0.00006488  0.00006819  0.00006846  0.00007011
  0.00007629  0.00008098  0.00008437  0.00008981  0.00009331  0.00009547  0.00010063  0.00010830
  0.00011229  0.00012064  0.00012340  0.00013192  0.00013430  0.00014002  0.00014108  0.00015323
  0.00015352  0.00016546  0.00017482  0.00019127  0.00020148  0.00020170  0.00022076  0.00022537
  0.00025671  0.00026134  0.00027341  0.00028025  0.00029117  0.00034498  0.00035631  0.00035909
  0.00037066  0.00037272  0.00039481  0.00039503  0.00040326  0.00042054  0.00042537  0.00043764
  0.00043959  0.00044869  0.00047071  0.00048849  0.00054410  0.00059370  0.00059376  0.00059385
  0.00059712  0.00059805  0.00059841  0.00059852  0.00060807  0.00061761  0.00062415  0.00062649
  0.00062708  0.00062815  0.00064208  0.00064627  0.00065818  0.00067562  0.00067742  0.00078477
  0.00085890  0.00099665  0.00101349  0.00104625  0.00106633  0.00108559  0.00108591  0.00108736
  0.00108809  0.00108851  0.00114082  0.00116092  0.00116222  0.00116675  0.00116808  0.00117017
  0.00117043  0.00118720  0.00119241  0.00119271  0.00147090  0.00149992  0.00161222  0.00161320
  0.00175069  0.00194184  0.00208358  0.00216571  0.00224788  0.00231353  0.00241926  0.00257095
  0.00261913  0.00311314  0.00320563  0.00326419  0.00327546  0.00346297  0.00360106  0.00368770
  0.00372393  0.00392093  0.00393817  0.00411867  0.00460773  0.00626853  0.00843893
 int defn changed for coord           8
           8           7           0           0
           7           6           0           0
