 Enter ifcurve (0=recti, 1=orth curvi, 2=apprx curvi, -1 = skip
 And atom ordering flag, 0= never changes, 1= use the first order thenceforth,
  2= deduce it (does read on fail), 3= always read it
 Reading file: 
 ./CDT-A_5_C0S1.log                                                             
                                          
  Entering Gaussian System, Link 0=g16                                          
  
 Gaussian format, type: g94, g98, g03= F F F
  #P Geom=AllCheck Guess=TCheck SCRF=Check GenChk RB3LYP TD(FC,Read)/6-3    
 energy type= TD      
 Original G94 input coords:
  6  2.023385-36.888908  4.546176
  6  0.901772-36.030110  5.141578
  6  0.045877-36.780739  6.168299
  7  1.416340-34.739658  5.683108
  6  0.961314-33.559418  5.053300
  8  0.181733-33.611286  4.108885
  6  1.465051-32.286873  5.583134
  6  1.047691-31.089602  4.998043
  6  1.502726-29.874586  5.472351
  6  2.401811-29.787717  6.559707
  6  2.885433-28.521320  7.065600
  6  2.485693-27.284440  6.501987
  6  2.950834-26.085530  6.987637
  6  3.845617-26.043453  8.068599
  6  4.312529-24.755086  8.537198
  8  3.986585-23.673926  8.065676
  7  5.217848-24.787968  9.654399
  6  5.693439-23.545530 10.150311
  6  5.641161-23.262706 11.523291
  6  6.108545-22.057994 12.008407
  6  6.642238-21.083878 11.136662
  6  7.128118-19.831444 11.655221
  6  7.390787-19.490132 12.995849
  6  7.856321-18.196059 13.139178
  6  8.301726-17.299120 14.272228
  6  8.660446-16.033304 13.528071
  6  9.143446-14.757188 13.844725
  6  9.290203-13.976228 12.715343
 16  8.842088-14.782767 11.242657
  6  8.445093-16.204814 12.147566
  6  7.963606-17.505729 11.907636
 16  7.471104-18.473246 10.568379
  6  6.683820-21.378524  9.757861
  6  6.221701-22.585588  9.273811
  6  5.678540-25.984198 10.306942
  8  6.454343-25.888972 11.248578
  6  5.176654-27.229431  9.763728
  6  5.593209-28.437101 10.345811
  6  5.138244-29.644133  9.870723
  6  4.235672-29.722867  8.781488
  6  3.751027-30.989162  8.275890
  6  4.143696-32.226980  8.834017
  6  3.674222-33.429787  8.342523
  6  2.786245-33.463654  7.265818
  6  2.307409-34.760284  6.769000
  8  2.661126-35.822923  7.269806
  6  2.363062-32.254357  6.672496
  6  2.842884-30.999181  7.173814
  6  3.795549-28.507720  8.168912
  6  4.277073-27.248591  8.671670
  1  1.583900-37.751493  4.036253
  1  2.704914-37.245688  5.317243
  1  2.592072-36.317787  3.807459
  1  0.251868-35.714282  4.328250
  1  0.645394-37.131827  7.007152
  1 -0.423526-37.642493  5.684291
  1 -0.750818-36.135374  6.547850
  1  0.359116-31.141235  4.164222
  1  1.152765-28.973835  4.988112
  1  1.797699-27.270136  5.669043
  1  2.637019-25.147799  6.546861
  1  5.236182-23.998055 12.200307
  1  6.031385-21.858597 13.069506
  1  7.258923-20.192726 13.805050
  1  7.504268-17.136459 15.004062
  1  9.156646-17.716285 14.813632
  1  9.379878-14.402788 14.838089
  1  9.641673-12.956967 12.663008
  1  7.109231-20.666479  9.059749
  1  6.260388-22.796492  8.216956
  1  6.282784-28.391936 11.179212
  1  5.485375-30.549054 10.348166
  1  4.829755-32.249213  9.668987
  1  3.982931-34.371111  8.779305
 nber atoms=          74
  Total Energy, E(TD-HF/TD-DFT) =  -2822.30842335                               
  
          32          49 "  -2822.30842335"
After scan for Atom:   Atom  AN      X      Y      Z        X      Y      Z        X      Y      Z   
After scan for Atom:   Atom  AN      X      Y      Z        X      Y      Z        X      Y      Z   
After scan for Atom:   Atom  AN      X      Y      Z        X      Y      Z        X      Y      Z   
After scan for Atom:   Atom  AN      X      Y      Z        X      Y      Z        X      Y      Z   
After scan for Atom:   Atom  AN      X      Y      Z        X      Y      Z        X      Y      Z   
After scan for Atom:   Atom  AN      X      Y      Z        X      Y      Z        X      Y      Z   
After scan for Atom:   Atom  AN      X      Y      Z        X      Y      Z        X      Y      Z   
After scan for Atom:   Atom  AN      X      Y      Z        X      Y      Z        X      Y      Z   
After scan for Atom:   Atom  AN      X      Y      Z        X      Y      Z        X      Y      Z   
After scan for Atom:   Atom  AN      X      Y      Z        X      Y      Z        X      Y      Z   
After scan for Atom:   Atom  AN      X      Y      Z        X      Y      Z        X      Y      Z   
After scan for Atom:   Atom  AN      X      Y      Z        X      Y      Z        X      Y      Z   
After scan for Atom:   Atom  AN      X      Y      Z        X      Y      Z        X      Y      Z   
After scan for Atom:   Atom  AN      X      Y      Z        X      Y      Z        X      Y      Z   
After scan for Atom:   Atom  AN      X      Y      Z        X      Y      Z        X      Y      Z   
After scan for Atom:   Atom  AN      X      Y      Z        X      Y      Z        X      Y      Z   
After scan for Atom:   Atom  AN      X      Y      Z        X      Y      Z        X      Y      Z   
After scan for Atom:   Atom  AN      X      Y      Z        X      Y      Z        X      Y      Z   
After scan for Atom:   Atom  AN      X      Y      Z        X      Y      Z        X      Y      Z   
After scan for Atom:   Atom  AN      X      Y      Z        X      Y      Z        X      Y      Z   
After scan for Atom:   Atom  AN      X      Y      Z        X      Y      Z        X      Y      Z   
After scan for Atom:   Atom  AN      X      Y      Z        X      Y      Z        X      Y      Z   
After scan for Atom:   Atom  AN      X      Y      Z        X      Y      Z        X      Y      Z   
After scan for Atom:   Atom  AN      X      Y      Z        X      Y      Z        X      Y      Z   
After scan for Atom:   Atom  AN      X      Y      Z        X      Y      Z        X      Y      Z   
After scan for Atom:   Atom  AN      X      Y      Z        X      Y      Z        X      Y      Z   
After scan for Atom:   Atom  AN      X      Y      Z        X      Y      Z        X      Y      Z   
After scan for Atom:   Atom  AN      X      Y      Z        X      Y      Z        X      Y      Z   
After scan for Atom:   Atom  AN      X      Y      Z        X      Y      Z        X      Y      Z   
After scan for Atom:   Atom  AN      X      Y      Z        X      Y      Z        X      Y      Z   
After scan for Atom:   Atom  AN      X      Y      Z        X      Y      Z        X      Y      Z   
After scan for Atom:   Atom  AN      X      Y      Z        X      Y      Z        X      Y      Z   
After scan for Atom:   Atom  AN      X      Y      Z        X      Y      Z        X      Y      Z   
After scan for Atom:   Atom  AN      X      Y      Z        X      Y      Z        X      Y      Z   
After scan for Atom:   Atom  AN      X      Y      Z        X      Y      Z        X      Y      Z   
After scan for Atom:   Atom  AN      X      Y      Z        X      Y      Z        X      Y      Z   
After scan for Atom:   Atom  AN      X      Y      Z        X      Y      Z        X      Y      Z   
After scan for Atom:   Atom  AN      X      Y      Z        X      Y      Z        X      Y      Z   
After scan for Atom:   Atom  AN      X      Y      Z        X      Y      Z        X      Y      Z   
After scan for Atom:   Atom  AN      X      Y      Z        X      Y      Z        X      Y      Z   
After scan for Atom:   Atom  AN      X      Y      Z        X      Y      Z        X      Y      Z   
After scan for Atom:   Atom  AN      X      Y      Z        X      Y      Z        X      Y      Z   
After scan for Atom:   Atom  AN      X      Y      Z        X      Y      Z        X      Y      Z   
After scan for Atom:   Atom  AN      X      Y      Z        X      Y      Z        X      Y      Z   
After scan for Atom:   Atom  AN      X      Y      Z        X      Y      Z        X      Y      Z   
After scan for Atom:   Atom  AN      X      Y      Z        X      Y      Z        X      Y      Z   
After scan for Atom:   Atom  AN      X      Y      Z        X      Y      Z        X      Y      Z   
After scan for Atom:   Atom  AN      X      Y      Z        X      Y      Z        X      Y      Z   
After scan for Atom:   Atom  AN      X      Y      Z        X      Y      Z        X      Y      Z   
After scan for Atom:   Atom  AN      X      Y      Z        X      Y      Z        X      Y      Z   
After scan for Atom:   Atom  AN      X      Y      Z        X      Y      Z        X      Y      Z   
After scan for Atom:   Atom  AN      X      Y      Z        X      Y      Z        X      Y      Z   
After scan for Atom:   Atom  AN      X      Y      Z        X      Y      Z        X      Y      Z   
After scan for Atom:   Atom  AN      X      Y      Z        X      Y      Z        X      Y      Z   
After scan for Atom:   Atom  AN      X      Y      Z        X      Y      Z        X      Y      Z   
After scan for Atom:   Atom  AN      X      Y      Z        X      Y      Z        X      Y      Z   
After scan for Atom:   Atom  AN      X      Y      Z        X      Y      Z        X      Y      Z   
After scan for Atom:   Atom  AN      X      Y      Z        X      Y      Z        X      Y      Z   
After scan for Atom:   Atom  AN      X      Y      Z        X      Y      Z        X      Y      Z   
After scan for Atom:   Atom  AN      X      Y      Z        X      Y      Z        X      Y      Z   
After scan for Atom:   Atom  AN      X      Y      Z        X      Y      Z        X      Y      Z   
After scan for Atom:   Atom  AN      X      Y      Z        X      Y      Z        X      Y      Z   
After scan for Atom:   Atom  AN      X      Y      Z        X      Y      Z        X      Y      Z   
After scan for Atom:   Atom  AN      X      Y      Z        X      Y      Z        X      Y      Z   
After scan for Atom:   Atom  AN      X      Y      Z        X      Y      Z        X      Y      Z   
After scan for Atom:   Atom  AN      X      Y      Z        X      Y      Z        X      Y      Z   
After scan for Atom:   Atom  AN      X      Y      Z        X      Y      Z        X      Y      Z   
After scan for Atom:   Atom  AN      X      Y      Z        X      Y      Z        X      Y      Z   
After scan for Atom:   Atom  AN      X      Y      Z        X      Y      Z        X      Y      Z   
After scan for Atom:   Atom  AN      X      Y      Z        X      Y      Z        X      Y      Z   
After scan for Atom:   Atom  AN      X      Y      Z        X      Y      Z        X      Y      Z   
After scan for Atom:   Atom  AN      X      Y      Z        X      Y      Z        X      Y      Z   
 g94    frequencies=
     0.0    0.0    0.0    0.0    0.0    0.0    7.3   13.7   14.8   25.3
    28.1   40.2   55.0   57.8   65.4   70.6   86.0   92.1   94.0  105.2
   111.4  125.9  140.5  155.1  169.5  181.1  189.4  196.6  204.3  212.5
   223.9  233.0  234.5  236.0  252.1  263.6  276.8  290.6  299.6  310.6
   333.6  343.9  349.3  364.6  372.8  394.0  395.9  409.4  418.2  428.3
   435.3  442.8  443.2  448.2  454.0  464.1  467.1  471.4  499.1  503.6
   504.0  509.5  517.2  525.5  534.1  547.8  559.8  571.8  579.5  582.9
   592.0  597.3  605.0  624.1  625.7  635.6  647.2  659.0  662.1  667.4
   689.9  709.2  713.2  715.3  729.9  739.7  740.8  748.0  758.3  758.5
   769.8  785.6  802.4  808.5  810.2  814.8  815.5  819.6  821.6  824.8
   831.1  836.8  838.0  849.2  857.2  861.2  903.1  907.8  919.2  930.5
   942.8  949.8  955.2  957.1  961.6  970.0  972.9  973.2  974.7  982.7
   986.0  987.2  997.2 1023.6 1031.5 1065.8 1079.4 1082.5 1093.6 1106.6
  1146.0 1151.6 1154.7 1157.7 1164.1 1164.3 1174.4 1188.2 1190.4 1196.4
  1199.3 1205.1 1220.0 1226.1 1230.1 1235.6 1247.3 1265.1 1279.8 1280.4
  1297.8 1304.3 1317.7 1328.3 1336.8 1340.6 1345.8 1358.5 1363.4 1367.8
  1372.1 1384.2 1392.7 1393.0 1397.2 1410.0 1424.5 1430.1 1438.2 1443.5
  1457.9 1463.1 1465.3 1469.6 1470.8 1477.2 1483.4 1483.6 1487.0 1495.4
  1506.9 1523.8 1534.8 1536.8 1540.9 1560.7 1573.4 1573.7 1580.6 1593.1
  1612.9 1619.5 1623.5 1630.6 1679.1 1705.9 1714.5 1737.1 3027.8 3032.6
  3045.2 3076.0 3085.0 3088.2 3108.1 3130.9 3140.6 3173.8 3189.8 3190.1
  3193.6 3196.3 3196.6 3206.2 3206.5 3219.9 3220.1 3221.5 3234.5 3246.9
  3247.7 3249.8
 g94    symmetries=
                                                 A      A      A      A
       A      A      A      A      A      A      A      A      A      A
       A      A      A      A      A      A      A      A      A      A
       A      A      A      A      A      A      A      A      A      A
       A      A      A      A      A      A      A      A      A      A
       A      A      A      A      A      A      A      A      A      A
       A      A      A      A      A      A      A      A      A      A
       A      A      A      A      A      A      A      A      A      A
       A      A      A      A      A      A      A      A      A      A
       A      A      A      A      A      A      A      A      A      A
       A      A      A      A      A      A      A      A      A      A
       A      A      A      A      A      A      A      A      A      A
       A      A      A      A      A      A      A      A      A      A
       A      A      A      A      A      A      A      A      A      A
       A      A      A      A      A      A      A      A      A      A
       A      A      A      A      A      A      A      A      A      A
       A      A      A      A      A      A      A      A      A      A
       A      A      A      A      A      A      A      A      A      A
       A      A      A      A      A      A      A      A      A      A
       A      A      A      A      A      A      A      A      A      A
       A      A      A      A      A      A      A      A      A      A
       A      A      A      A      A      A      A      A      A      A
       A      A
 atomic masses:
 12.0000 12.0000 12.0000 14.0031 12.0000 15.9949 12.0000 12.0000 12.0000 12.0000
 12.0000 12.0000 12.0000 12.0000 12.0000 15.9949 14.0031 12.0000 12.0000 12.0000
 12.0000 12.0000 12.0000 12.0000 12.0000 12.0000 12.0000 12.0000 31.9721 12.0000
 12.0000 31.9721 12.0000 12.0000 12.0000 15.9949 12.0000 12.0000 12.0000 12.0000
 12.0000 12.0000 12.0000 12.0000 12.0000 15.9949 12.0000 12.0000 12.0000 12.0000
  1.0078  1.0078  1.0078  1.0078  1.0078  1.0078  1.0078  1.0078  1.0078  1.0078
  1.0078  1.0078  1.0078  1.0078  1.0078  1.0078  1.0078  1.0078  1.0078  1.0078
  1.0078  1.0078  1.0078  1.0078
 looking for force constants in 
 ./CDT-A_5_C0S1.fchk                                                            
  
 Cartesian Force Constants                  R   N=       24753                  
  
 n3=         222       24753
 g94-fc frequencies=
    -1.8   -0.0   -0.0    0.0    0.9    3.2    7.4   13.8   14.8   25.3
    28.1   40.2   55.0   57.8   65.4   70.6   86.0   92.1   94.0  105.2
   111.4  125.9  140.5  155.1  169.5  181.1  189.4  196.6  204.3  212.5
   223.9  233.0  234.5  236.0  252.1  263.6  276.8  290.6  299.6  310.6
   333.6  343.9  349.4  364.7  372.8  394.0  395.9  409.4  418.2  428.3
   435.3  442.8  443.3  448.2  454.0  464.1  467.1  471.5  499.1  503.6
   504.0  509.5  517.2  525.5  534.1  547.8  559.8  571.8  579.5  582.9
   592.1  597.3  605.0  624.2  625.8  635.6  647.2  659.0  662.1  667.4
   689.9  709.2  713.2  715.3  729.9  739.7  740.8  748.1  758.3  758.5
   769.8  785.6  802.4  808.5  810.2  814.8  815.6  819.6  821.6  824.9
   831.1  836.8  838.0  849.2  857.2  861.2  903.2  907.8  919.3  930.5
   942.8  949.8  955.2  957.2  961.6  970.1  972.9  973.2  974.7  982.7
   986.0  987.2  997.2 1023.7 1031.5 1065.8 1079.4 1082.5 1093.7 1106.6
  1146.0 1151.6 1154.7 1157.7 1164.1 1164.3 1174.4 1188.2 1190.4 1196.4
  1199.3 1205.1 1220.0 1226.1 1230.1 1235.6 1247.3 1265.1 1279.8 1280.4
  1297.9 1304.4 1317.7 1328.3 1336.8 1340.7 1345.8 1358.5 1363.4 1367.9
  1372.1 1384.2 1392.7 1393.0 1397.2 1410.0 1424.5 1430.1 1438.2 1443.6
  1457.9 1463.2 1465.3 1469.6 1470.9 1477.2 1483.5 1483.7 1487.0 1495.4
  1506.9 1523.8 1534.8 1536.8 1540.9 1560.8 1573.4 1573.8 1580.7 1593.1
  1612.9 1619.6 1623.5 1630.6 1679.1 1706.0 1714.5 1737.2 3027.8 3032.7
  3045.3 3076.1 3085.1 3088.2 3108.1 3131.0 3140.7 3173.9 3189.9 3190.1
  3193.6 3196.3 3196.7 3206.3 3206.6 3220.0 3220.2 3221.6 3234.5 3246.9
  3247.8 3249.9
 at 99999: n3=         222
 symm operator            1 :  F  nop=           0
 symm operator            2 :  F  nop=           0
 symm operator            3 :  F  nop=           0
 symm operator            4 :  F  nop=           0
 symm operator            5 :  F  nop=           0
 symm operator            6 :  F  nop=           0
 symm operator            7 :  F  nop=           0
 The point group of the molecule is  C1
 Symmetry rotation matrix:
   1.00000   0.00000   0.00000
   0.00000   1.00000   0.00000
   0.00000   0.00000   1.00000

 Projecting out zero-frequency components
 generating redundant internal coords
         300        3600          74
 search for int coords
   1 str   2   1   1.533
   2 str   3   2   1.533
   3 str   4   2   1.491
   4 str   5   4   1.413
   5 str   6   5   1.226
   6 str   7   5   1.468
   7 str   8   7   1.396
   8 str   9   8   1.381
   9 str  10   9   1.414
  10 str  11  10   1.447
  11 str  12  11   1.417
  12 str  13  12   1.375
  13 str  14  13   1.404
  14 str  15  14   1.448
  15 str  16  15   1.224
  16 str  17  15   1.438
  17 str  18  17   1.420
  18 str  19  18   1.403
  19 str  20  19   1.380
  20 str  21  20   1.412
  21 str  22  21   1.440
  22 str  23  22   1.408
  23 str  24  23   1.383
  24 str  25  24   1.512
  25 str  26  25   1.512
  26 str  27  26   1.401
  27 str  28  27   1.381
  28 str  29  28   1.738
  29 str  30  26   1.408
  30 str  30  29   1.732
  31 str  31  24   1.416
  32 str  31  30   1.408
  33 str  32  22   1.773
  34 str  32  31   1.724
  35 str  33  21   1.411
  36 str  34  18   1.403
  37 str  34  33   1.380
  38 str  35  17   1.438
  39 str  36  35   1.224
  40 str  37  35   1.448
  41 str  38  37   1.404
  42 str  39  38   1.375
  43 str  40  39   1.417
  44 str  41  40   1.447
  45 str  42  41   1.413
  46 str  43  42   1.382
  47 str  44  43   1.396
  48 str  45   4   1.405
  49 str  45  44   1.469
  50 str  46  45   1.227
  51 str  47   7   1.412
  52 str  47  44   1.412
  53 str  48  10   1.428
  54 str  48  41   1.428
  55 str  48  47   1.434
  56 str  49  11   1.430
  57 str  49  40   1.430
  58 str  50  14   1.415
  59 str  50  37   1.415
  60 str  50  49   1.439
  61 str  51   1   1.094
  62 str  52   1   1.089
  63 str  53   1   1.093
  64 str  54   2   1.088
  65 str  55   3   1.089
  66 str  56   3   1.094
  67 str  57   3   1.093
  68 str  58   8   1.083
  69 str  59   9   1.081
  70 str  60  12   1.080
  71 str  61  13   1.083
  72 str  62  19   1.078
  73 str  63  20   1.082
  74 str  64  23   1.080
  75 str  65  25   1.095
  76 str  66  25   1.095
  77 str  67  27   1.081
  78 str  68  28   1.079
  79 str  69  33   1.084
  80 str  70  34   1.078
  81 str  71  38   1.083
  82 str  72  39   1.080
  83 str  73  42   1.081
  84 str  74  43   1.083
 nber stretches=          84
  85 ben   1   2   3
  86 prop tor   1   2   3  55
  87 prop tor   1   2   3  56
  88 prop tor   1   2   3  57
  89 ben   1   2   4
  90 prop tor   1   2   4   5
  91 prop tor   1   2   4  45
  92 ben   1   2  54
  93 ben   2   1  51
  94 ben   2   1  52
  95 ben   2   1  53
  96 ben   2   3  55
  97 ben   2   3  56
  98 ben   2   3  57
  99 ben   2   4   5
 100 prop tor   2   4   5   6
 101 prop tor   2   4   5   7
 102 ben   2   4  45
 103 prop tor   2   4  45  44
 104 prop tor   2   4  45  46
 105 ben   3   2   4
 106 prop tor   3   2   4   5
 107 prop tor   3   2   4  45
 108 ben   3   2  54
 109 prop tor   4   2   3  55
 110 prop tor   4   2   3  56
 111 prop tor   4   2   3  57
 112 ben   4   2  54
 113 ben   4   5   6
 114 ben   4   5   7
 115 prop tor   4   5   7   8
 116 prop tor   4   5   7  47
 117 ben   4  45  44
 118 ben   4  45  46
 119 ben   5   4  45
 120 prop tor   5   4  45  44
 121 prop tor   5   4  45  46
 122 ben   5   7   8
 123 prop tor   5   7   8   9
 124 prop tor   5   7   8  58
 125 ben   5   7  47
 126 prop tor   5   7  47  44
 127 prop tor   5   7  47  48
 128 ben   6   5   7
 129 prop tor   6   5   7   8
 130 prop tor   6   5   7  47
 131 ben   7   8   9
 132 prop tor   7   8   9  10
 133 prop tor   7   8   9  59
 134 ben   7   8  58
 135 ben   7  47  44
 136 ben   7  47  48
 137 prop tor   7  47  48  10
 138 prop tor   7  47  48  41
 139 ben   8   7  47
 140 prop tor   8   7  47  44
 141 prop tor   8   7  47  48
 142 ben   8   9  10
 143 prop tor   8   9  10  11
 144 prop tor   8   9  10  48
 145 ben   8   9  59
 146 ben   9   8  58
 147 ben   9  10  11
 148 prop tor   9  10  11  12
 149 prop tor   9  10  11  49
 150 ben   9  10  48
 151 prop tor   9  10  48  41
 152 prop tor   9  10  48  47
 153 ben  10   9  59
 154 ben  10  11  12
 155 prop tor  10  11  12  13
 156 prop tor  10  11  12  60
 157 ben  10  11  49
 158 prop tor  10  11  49  40
 159 prop tor  10  11  49  50
 160 ben  10  48  41
 161 ben  10  48  47
 162 ben  11  10  48
 163 prop tor  11  10  48  41
 164 prop tor  11  10  48  47
 165 ben  11  12  13
 166 prop tor  11  12  13  14
 167 prop tor  11  12  13  61
 168 ben  11  12  60
 169 ben  11  49  40
 170 ben  11  49  50
 171 prop tor  11  49  50  14
 172 prop tor  11  49  50  37
 173 ben  12  11  49
 174 prop tor  12  11  49  40
 175 prop tor  12  11  49  50
 176 ben  12  13  14
 177 prop tor  12  13  14  15
 178 prop tor  12  13  14  50
 179 ben  12  13  61
 180 ben  13  12  60
 181 ben  13  14  15
 182 prop tor  13  14  15  16
 183 prop tor  13  14  15  17
 184 ben  13  14  50
 185 prop tor  13  14  50  37
 186 prop tor  13  14  50  49
 187 ben  14  13  61
 188 ben  14  15  16
 189 ben  14  15  17
 190 prop tor  14  15  17  18
 191 prop tor  14  15  17  35
 192 ben  14  50  37
 193 ben  14  50  49
 194 ben  15  14  50
 195 prop tor  15  14  50  37
 196 prop tor  15  14  50  49
 197 ben  15  17  18
 198 prop tor  15  17  18  19
 199 prop tor  15  17  18  34
 200 ben  15  17  35
 201 prop tor  15  17  35  36
 202 prop tor  15  17  35  37
 203 ben  16  15  17
 204 prop tor  16  15  17  18
 205 prop tor  16  15  17  35
 206 ben  17  18  19
 207 prop tor  17  18  19  20
 208 prop tor  17  18  19  62
 209 ben  17  18  34
 210 prop tor  17  18  34  33
 211 prop tor  17  18  34  70
 212 ben  17  35  36
 213 ben  17  35  37
 214 prop tor  17  35  37  38
 215 prop tor  17  35  37  50
 216 ben  18  17  35
 217 prop tor  18  17  35  36
 218 prop tor  18  17  35  37
 219 ben  18  19  20
 220 prop tor  18  19  20  21
 221 prop tor  18  19  20  63
 222 ben  18  19  62
 223 ben  18  34  33
 224 ben  18  34  70
 225 ben  19  18  34
 226 prop tor  19  18  34  33
 227 prop tor  19  18  34  70
 228 ben  19  20  21
 229 prop tor  19  20  21  22
 230 prop tor  19  20  21  33
 231 ben  19  20  63
 232 ben  20  19  62
 233 ben  20  21  22
 234 prop tor  20  21  22  23
 235 prop tor  20  21  22  32
 236 ben  20  21  33
 237 prop tor  20  21  33  34
 238 prop tor  20  21  33  69
 239 ben  21  20  63
 240 ben  21  22  23
 241 prop tor  21  22  23  24
 242 prop tor  21  22  23  64
 243 ben  21  22  32
 244 prop tor  21  22  32  31
 245 ben  21  33  34
 246 prop tor  21  33  34  18
 247 prop tor  21  33  34  70
 248 ben  21  33  69
 249 ben  22  21  33
 250 prop tor  22  21  33  34
 251 prop tor  22  21  33  69
 252 ben  22  23  24
 253 prop tor  22  23  24  25
 254 prop tor  22  23  24  31
 255 ben  22  23  64
 256 ben  22  32  31
 257 ben  23  22  32
 258 prop tor  23  22  32  31
 259 ben  23  24  25
 260 prop tor  23  24  25  26
 261 prop tor  23  24  25  65
 262 prop tor  23  24  25  66
 263 ben  23  24  31
 264 prop tor  23  24  31  30
 265 prop tor  23  24  31  32
 266 ben  24  23  64
 267 ben  24  25  26
 268 prop tor  24  25  26  27
 269 prop tor  24  25  26  30
 270 ben  24  25  65
 271 ben  24  25  66
 272 ben  24  31  30
 273 ben  24  31  32
 274 prop tor  24  31  32  22
 275 ben  25  24  31
 276 prop tor  25  24  31  30
 277 prop tor  25  24  31  32
 278 ben  25  26  27
 279 prop tor  25  26  27  28
 280 prop tor  25  26  27  67
 281 ben  25  26  30
 282 prop tor  25  26  30  29
 283 prop tor  25  26  30  31
 284 ben  26  25  65
 285 ben  26  25  66
 286 ben  26  27  28
 287 prop tor  26  27  28  29
 288 prop tor  26  27  28  68
 289 ben  26  27  67
 290 ben  26  30  29
 291 ben  26  30  31
 292 prop tor  26  30  31  24
 293 prop tor  26  30  31  32
 294 ben  27  26  30
 295 prop tor  27  26  30  29
 296 prop tor  27  26  30  31
 297 ben  27  28  29
 298 prop tor  27  28  29  30
 299 ben  27  28  68
 300 ben  28  27  67
 301 ben  28  29  30
 302 prop tor  28  29  30  26
 303 prop tor  28  29  30  31
 304 ben  29  28  68
 305 ben  29  30  31
 306 prop tor  29  30  31  24
 307 prop tor  29  30  31  32
 308 prop tor  30  26  27  28
 309 prop tor  30  26  27  67
 310 ben  30  31  32
 311 prop tor  30  31  32  22
 312 prop tor  31  24  25  26
 313 prop tor  31  24  25  65
 314 prop tor  31  24  25  66
 315 prop tor  32  22  23  24
 316 prop tor  32  22  23  64
 317 prop tor  33  21  22  23
 318 prop tor  33  21  22  32
 319 ben  33  34  70
 320 prop tor  34  18  19  20
 321 prop tor  34  18  19  62
 322 ben  34  33  69
 323 prop tor  35  17  18  19
 324 prop tor  35  17  18  34
 325 ben  35  37  38
 326 prop tor  35  37  38  39
 327 prop tor  35  37  38  71
 328 ben  35  37  50
 329 prop tor  35  37  50  14
 330 prop tor  35  37  50  49
 331 ben  36  35  37
 332 prop tor  36  35  37  38
 333 prop tor  36  35  37  50
 334 ben  37  38  39
 335 prop tor  37  38  39  40
 336 prop tor  37  38  39  72
 337 ben  37  38  71
 338 ben  37  50  49
 339 ben  38  37  50
 340 prop tor  38  37  50  14
 341 prop tor  38  37  50  49
 342 ben  38  39  40
 343 prop tor  38  39  40  41
 344 prop tor  38  39  40  49
 345 ben  38  39  72
 346 ben  39  38  71
 347 ben  39  40  41
 348 prop tor  39  40  41  42
 349 prop tor  39  40  41  48
 350 ben  39  40  49
 351 prop tor  39  40  49  11
 352 prop tor  39  40  49  50
 353 ben  40  39  72
 354 ben  40  41  42
 355 prop tor  40  41  42  43
 356 prop tor  40  41  42  73
 357 ben  40  41  48
 358 prop tor  40  41  48  10
 359 prop tor  40  41  48  47
 360 ben  40  49  50
 361 prop tor  40  49  50  14
 362 prop tor  40  49  50  37
 363 ben  41  40  49
 364 prop tor  41  40  49  11
 365 prop tor  41  40  49  50
 366 ben  41  42  43
 367 prop tor  41  42  43  44
 368 prop tor  41  42  43  74
 369 ben  41  42  73
 370 ben  41  48  47
 371 ben  42  41  48
 372 prop tor  42  41  48  10
 373 prop tor  42  41  48  47
 374 ben  42  43  44
 375 prop tor  42  43  44  45
 376 prop tor  42  43  44  47
 377 ben  42  43  74
 378 ben  43  42  73
 379 ben  43  44  45
 380 prop tor  43  44  45   4
 381 prop tor  43  44  45  46
 382 ben  43  44  47
 383 prop tor  43  44  47   7
 384 prop tor  43  44  47  48
 385 ben  44  43  74
 386 ben  44  45  46
 387 ben  44  47  48
 388 prop tor  44  47  48  10
 389 prop tor  44  47  48  41
 390 prop tor  45   4   5   6
 391 prop tor  45   4   5   7
 392 ben  45  44  47
 393 prop tor  45  44  47   7
 394 prop tor  45  44  47  48
 395 prop tor  47   7   8   9
 396 prop tor  47   7   8  58
 397 prop tor  47  44  45   4
 398 prop tor  47  44  45  46
 399 prop tor  48  10  11  12
 400 prop tor  48  10  11  49
 401 prop tor  48  41  42  43
 402 prop tor  48  41  42  73
 403 prop tor  49  11  12  13
 404 prop tor  49  11  12  60
 405 prop tor  49  40  41  42
 406 prop tor  49  40  41  48
 407 prop tor  50  14  15  16
 408 prop tor  50  14  15  17
 409 prop tor  50  37  38  39
 410 prop tor  50  37  38  71
 411 prop tor  51   1   2   3
 412 prop tor  51   1   2   4
 413 prop tor  51   1   2  54
 414 ben  51   1  52
 415 ben  51   1  53
 416 prop tor  52   1   2   3
 417 prop tor  52   1   2   4
 418 prop tor  52   1   2  54
 419 ben  52   1  53
 420 prop tor  53   1   2   3
 421 prop tor  53   1   2   4
 422 prop tor  53   1   2  54
 423 prop tor  54   2   3  55
 424 prop tor  54   2   3  56
 425 prop tor  54   2   3  57
 426 prop tor  54   2   4   5
 427 prop tor  54   2   4  45
 428 ben  55   3  56
 429 ben  55   3  57
 430 ben  56   3  57
 431 prop tor  58   8   9  10
 432 prop tor  58   8   9  59
 433 prop tor  59   9  10  11
 434 prop tor  59   9  10  48
 435 prop tor  60  12  13  14
 436 prop tor  60  12  13  61
 437 prop tor  61  13  14  15
 438 prop tor  61  13  14  50
 439 prop tor  62  19  20  21
 440 prop tor  62  19  20  63
 441 prop tor  63  20  21  22
 442 prop tor  63  20  21  33
 443 prop tor  64  23  24  25
 444 prop tor  64  23  24  31
 445 prop tor  65  25  26  27
 446 prop tor  65  25  26  30
 447 ben  65  25  66
 448 prop tor  66  25  26  27
 449 prop tor  66  25  26  30
 450 prop tor  67  27  28  29
 451 prop tor  67  27  28  68
 452 prop tor  68  28  29  30
 453 prop tor  69  33  34  18
 454 prop tor  69  33  34  70
 455 prop tor  71  38  39  40
 456 prop tor  71  38  39  72
 457 prop tor  72  39  40  41
 458 prop tor  72  39  40  49
 459 prop tor  73  42  43  44
 460 prop tor  73  42  43  74
 461 prop tor  74  43  44  45
 462 prop tor  74  43  44  47
 nber bend=             146
 nber lin bend=           0
 nber prop tor=         232
 nber impr tor=           0
 nber tot redund int=         462
 Eigenvalues of G in red int coords
    Gval -0.00000000 -0.00000000 -0.00000000 -0.00000000 -0.00000000 -0.00000000 -0.00000000 -0.00000000
    Gval -0.00000000 -0.00000000 -0.00000000 -0.00000000 -0.00000000 -0.00000000 -0.00000000 -0.00000000
    Gval -0.00000000 -0.00000000 -0.00000000 -0.00000000 -0.00000000 -0.00000000 -0.00000000 -0.00000000
    Gval -0.00000000 -0.00000000 -0.00000000 -0.00000000 -0.00000000 -0.00000000 -0.00000000 -0.00000000
    Gval -0.00000000 -0.00000000 -0.00000000 -0.00000000 -0.00000000 -0.00000000 -0.00000000 -0.00000000
    Gval -0.00000000 -0.00000000 -0.00000000 -0.00000000 -0.00000000 -0.00000000 -0.00000000 -0.00000000
    Gval -0.00000000 -0.00000000 -0.00000000 -0.00000000 -0.00000000 -0.00000000 -0.00000000 -0.00000000
    Gval -0.00000000 -0.00000000 -0.00000000 -0.00000000 -0.00000000 -0.00000000 -0.00000000 -0.00000000
    Gval -0.00000000 -0.00000000 -0.00000000 -0.00000000 -0.00000000 -0.00000000 -0.00000000 -0.00000000
    Gval -0.00000000 -0.00000000 -0.00000000 -0.00000000 -0.00000000 -0.00000000 -0.00000000 -0.00000000
    Gval -0.00000000 -0.00000000 -0.00000000 -0.00000000 -0.00000000 -0.00000000 -0.00000000 -0.00000000
    Gval -0.00000000 -0.00000000 -0.00000000 -0.00000000 -0.00000000 -0.00000000 -0.00000000 -0.00000000
    Gval -0.00000000 -0.00000000 -0.00000000 -0.00000000 -0.00000000 -0.00000000 -0.00000000 -0.00000000
    Gval -0.00000000 -0.00000000 -0.00000000 -0.00000000 -0.00000000 -0.00000000 -0.00000000 -0.00000000
    Gval -0.00000000 -0.00000000 -0.00000000 -0.00000000 -0.00000000 -0.00000000 -0.00000000 -0.00000000
    Gval -0.00000000 -0.00000000  0.00000000  0.00000000  0.00000000  0.00000000  0.00000000  0.00000000
    Gval  0.00000000  0.00000000  0.00000000  0.00000000  0.00000000  0.00000000  0.00000000  0.00000000
    Gval  0.00000000  0.00000000  0.00000000  0.00000000  0.00000000  0.00000000  0.00000000  0.00000000
    Gval  0.00000000  0.00000000  0.00000000  0.00000000  0.00000000  0.00000000  0.00000000  0.00000000
    Gval  0.00000000  0.00000000  0.00000000  0.00000000  0.00000000  0.00000000  0.00000000  0.00000000
    Gval  0.00000000  0.00000000  0.00000000  0.00000000  0.00000000  0.00000000  0.00000000  0.00000000
    Gval  0.00000000  0.00000000  0.00000000  0.00000000  0.00000000  0.00000000  0.00000000  0.00000000
    Gval  0.00000000  0.00000000  0.00000000  0.00000000  0.00000000  0.00000000  0.00000000  0.00000000
    Gval  0.00000000  0.00000000  0.00000000  0.00000000  0.00000000  0.00000000  0.00000000  0.00000000
    Gval  0.00000000  0.00000000  0.00000000  0.00000000  0.00000000  0.00000000  0.00000000  0.00000000
    Gval  0.00000000  0.00000000  0.00000000  0.00000000  0.00000000  0.00000000  0.00000000  0.00000000
    Gval  0.00000000  0.00000000  0.00000000  0.00000000  0.00000000  0.00000000  0.00000000  0.00000000
    Gval  0.00000000  0.00000000  0.00000000  0.00000000  0.00000000  0.00000000  0.00000000  0.00000000
    Gval  0.00000000  0.00000000  0.00000000  0.00000000  0.00000000  0.00000000  0.00000000  0.00000000
    Gval  0.00000000  0.00000000  0.00000000  0.00000000  0.00000000  0.00000000  0.00000000  0.00000000
    Gval  0.00000000  0.00000000  0.00000000  0.00000000  0.00000000  0.00000000  0.00000010  0.00000021
    Gval  0.00000074  0.00000102  0.00000179  0.00000277  0.00000322  0.00000339  0.00000509  0.00000675
    Gval  0.00000718  0.00000867  0.00001054  0.00001101  0.00001240  0.00001375  0.00001566  0.00001630
    Gval  0.00001665  0.00001763  0.00001832  0.00001864  0.00002162  0.00002256  0.00002392  0.00002422
    Gval  0.00002528  0.00002641  0.00002828  0.00002930  0.00003001  0.00003395  0.00003786  0.00003893
    Gval  0.00003995  0.00004465  0.00004587  0.00004891  0.00004896  0.00005094  0.00005224  0.00005354
    Gval  0.00005433  0.00005701  0.00005899  0.00006147  0.00006432  0.00006526  0.00006860  0.00007168
    Gval  0.00007313  0.00007815  0.00007919  0.00008148  0.00008245  0.00008534  0.00008754  0.00008835
    Gval  0.00009083  0.00009312  0.00009386  0.00009478  0.00009822  0.00010360  0.00011322  0.00011768
    Gval  0.00011801  0.00012097  0.00012247  0.00013359  0.00013458  0.00013617  0.00013719  0.00014040
    Gval  0.00014676  0.00015485  0.00015890  0.00015908  0.00016474  0.00017173  0.00018025  0.00018179
    Gval  0.00020238  0.00020556  0.00021980  0.00022341  0.00022855  0.00023117  0.00026765  0.00026877
    Gval  0.00028514  0.00028636  0.00028703  0.00029059  0.00029640  0.00030081  0.00030579  0.00034287
    Gval  0.00034782  0.00035971  0.00036462  0.00037260  0.00038009  0.00038122  0.00038539  0.00039077
    Gval  0.00039135  0.00039421  0.00041134  0.00042185  0.00042484  0.00042716  0.00043036  0.00043615
    Gval  0.00044048  0.00044155  0.00044902  0.00046304  0.00046838  0.00046853  0.00048430  0.00049424
    Gval  0.00053332  0.00053732  0.00054289  0.00055354  0.00055582  0.00055591  0.00055955  0.00057238
    Gval  0.00058321  0.00059674  0.00059848  0.00059876  0.00059926  0.00059961  0.00059987  0.00060031
    Gval  0.00060222  0.00061040  0.00061954  0.00062417  0.00062756  0.00063996  0.00064152  0.00064490
    Gval  0.00064575  0.00064750  0.00065002  0.00066950  0.00069326  0.00069678  0.00076931  0.00079399
    Gval  0.00082367  0.00093779  0.00099410  0.00107932  0.00108270  0.00108959  0.00109335  0.00109430
    Gval  0.00109496  0.00109549  0.00111248  0.00114539  0.00114681  0.00114922  0.00116199  0.00116434
    Gval  0.00116484  0.00116557  0.00116608  0.00116791  0.00116845  0.00117681  0.00118343  0.00121203
    Gval  0.00126302  0.00129142  0.00132976  0.00136297  0.00139052  0.00149434  0.00153978  0.00167052
    Gval  0.00172372  0.00174288  0.00184049  0.00191881  0.00196475  0.00208068  0.00227649  0.00234066
    Gval  0.00235955  0.00249162  0.00252107  0.00253869  0.00256387  0.00267333  0.00277970  0.00292519
    Gval  0.00302180  0.00303017  0.00304257  0.00308328  0.00309065  0.00363300  0.00366369  0.00366541
    Gval  0.00371155  0.00371308  0.00374858  0.00376585  0.00393055  0.00408010
  1.013072896100568E-007  1.013072896100568E-007
  2.133258892535050E-007  1.013072896100568E-007
  7.403581722773364E-007  1.013072896100568E-007
  1.020861978316767E-006  1.013072896100568E-007
  1.790286489805959E-006  1.013072896100568E-007
  2.767261504951546E-006  1.013072896100568E-007
  3.216609261445695E-006  1.013072896100568E-007
  3.388965871793570E-006  1.013072896100568E-007
  5.088790836118714E-006  1.013072896100568E-007
  6.746380894299318E-006  1.013072896100568E-007
  7.179162919633346E-006  1.013072896100568E-007
  8.673300777290416E-006  1.013072896100568E-007
  1.053928436284712E-005  1.013072896100568E-007
  1.100802597174857E-005  1.013072896100568E-007
  1.239837045667378E-005  1.013072896100568E-007
  1.375241123573779E-005  1.013072896100568E-007
  1.566069921140806E-005  1.013072896100568E-007
  1.629831416449180E-005  1.013072896100568E-007
  1.664778212427457E-005  1.013072896100568E-007
  1.763396229637945E-005  1.013072896100568E-007
  1.832425816946417E-005  1.013072896100568E-007
  1.863793973730599E-005  1.013072896100568E-007
  2.161654874089186E-005  1.013072896100568E-007
  2.255716539701596E-005  1.013072896100568E-007
  2.392214806664137E-005  1.013072896100568E-007
  2.422103925996632E-005  1.013072896100568E-007
  2.527936094288508E-005  1.013072896100568E-007
  2.640586470005875E-005  1.013072896100568E-007
  2.828197485143517E-005  1.013072896100568E-007
  2.930118713649672E-005  1.013072896100568E-007
  3.000859458601950E-005  1.013072896100568E-007
  3.395463687653748E-005  1.013072896100568E-007
  3.786136786982103E-005  1.013072896100568E-007
  3.893023418836364E-005  1.013072896100568E-007
  3.995358358029312E-005  1.013072896100568E-007
  4.464730844711477E-005  1.013072896100568E-007
  4.587368586516141E-005  1.013072896100568E-007
  4.891339008781631E-005  1.013072896100568E-007
  4.896004134323585E-005  1.013072896100568E-007
  5.094327074289655E-005  1.013072896100568E-007
  5.224344290375900E-005  1.013072896100568E-007
  5.354126108655011E-005  1.013072896100568E-007
  5.433277246988974E-005  1.013072896100568E-007
  5.700855773194114E-005  1.013072896100568E-007
  5.898555337395777E-005  1.013072896100568E-007
  6.147399976094214E-005  1.013072896100568E-007
  6.431641335430247E-005  1.013072896100568E-007
  6.526062692361458E-005  1.013072896100568E-007
  6.859831877111676E-005  1.013072896100568E-007
  7.167577130376076E-005  1.013072896100568E-007
  7.313272268179757E-005  1.013072896100568E-007
  7.815206601601959E-005  1.013072896100568E-007
  7.919075234140138E-005  1.013072896100568E-007
  8.147918635806912E-005  1.013072896100568E-007
  8.245111280413573E-005  1.013072896100568E-007
  8.533850300940644E-005  1.013072896100568E-007
  8.753661453138655E-005  1.013072896100568E-007
  8.835139169897081E-005  1.013072896100568E-007
  9.083058551624115E-005  1.013072896100568E-007
  9.312024432023974E-005  1.013072896100568E-007
  9.386204079132632E-005  1.013072896100568E-007
  9.478373017306793E-005  1.013072896100568E-007
  9.821870037664907E-005  1.013072896100568E-007
  1.035990445319032E-004  1.013072896100568E-007
  1.132225868997769E-004  1.013072896100568E-007
  1.176826739302623E-004  1.013072896100568E-007
  1.180056265814333E-004  1.013072896100568E-007
  1.209721557199473E-004  1.013072896100568E-007
  1.224746222661831E-004  1.013072896100568E-007
  1.335910967988944E-004  1.013072896100568E-007
  1.345805730175109E-004  1.013072896100568E-007
  1.361734499643336E-004  1.013072896100568E-007
  1.371875851786323E-004  1.013072896100568E-007
  1.404023908668301E-004  1.013072896100568E-007
  1.467633859962327E-004  1.013072896100568E-007
  1.548458984968058E-004  1.013072896100568E-007
  1.589015482921123E-004  1.013072896100568E-007
  1.590794025045102E-004  1.013072896100568E-007
  1.647374880381211E-004  1.013072896100568E-007
  1.717264988219220E-004  1.013072896100568E-007
  1.802530587890449E-004  1.013072896100568E-007
  1.817941170999607E-004  1.013072896100568E-007
  2.023846737245444E-004  1.013072896100568E-007
  2.055588759050358E-004  1.013072896100568E-007
  2.197956620074648E-004  1.013072896100568E-007
  2.234104369655075E-004  1.013072896100568E-007
  2.285514794118119E-004  1.013072896100568E-007
  2.311689317878722E-004  1.013072896100568E-007
  2.676508271380002E-004  1.013072896100568E-007
  2.687738537994225E-004  1.013072896100568E-007
  2.851361205724858E-004  1.013072896100568E-007
  2.863630598416974E-004  1.013072896100568E-007
  2.870343620213408E-004  1.013072896100568E-007
  2.905936740120636E-004  1.013072896100568E-007
  2.963951204609013E-004  1.013072896100568E-007
  3.008140493825752E-004  1.013072896100568E-007
  3.057891763427393E-004  1.013072896100568E-007
  3.428710895254296E-004  1.013072896100568E-007
  3.478224644696886E-004  1.013072896100568E-007
  3.597122831460206E-004  1.013072896100568E-007
  3.646205436517314E-004  1.013072896100568E-007
  3.725985355597433E-004  1.013072896100568E-007
  3.800898175282872E-004  1.013072896100568E-007
  3.812181529663007E-004  1.013072896100568E-007
  3.853902441633725E-004  1.013072896100568E-007
  3.907737041363896E-004  1.013072896100568E-007
  3.913457134488272E-004  1.013072896100568E-007
  3.942072224290686E-004  1.013072896100568E-007
  4.113390674454345E-004  1.013072896100568E-007
  4.218461242375929E-004  1.013072896100568E-007
  4.248363226033624E-004  1.013072896100568E-007
  4.271564624436085E-004  1.013072896100568E-007
  4.303576883498917E-004  1.013072896100568E-007
  4.361459067764041E-004  1.013072896100568E-007
  4.404792535818475E-004  1.013072896100568E-007
  4.415528558817113E-004  1.013072896100568E-007
  4.490184159826609E-004  1.013072896100568E-007
  4.630397440413383E-004  1.013072896100568E-007
  4.683787406881252E-004  1.013072896100568E-007
  4.685254264094956E-004  1.013072896100568E-007
  4.842968881381329E-004  1.013072896100568E-007
  4.942405808266997E-004  1.013072896100568E-007
  5.333197009597069E-004  1.013072896100568E-007
  5.373242001042694E-004  1.013072896100568E-007
  5.428945212028849E-004  1.013072896100568E-007
  5.535434441868882E-004  1.013072896100568E-007
  5.558206814493652E-004  1.013072896100568E-007
  5.559130593595603E-004  1.013072896100568E-007
  5.595473257516103E-004  1.013072896100568E-007
  5.723783436893436E-004  1.013072896100568E-007
  5.832106875975021E-004  1.013072896100568E-007
  5.967439215062834E-004  1.013072896100568E-007
  5.984791020012686E-004  1.013072896100568E-007
  5.987646199748315E-004  1.013072896100568E-007
  5.992587963857268E-004  1.013072896100568E-007
  5.996062993115661E-004  1.013072896100568E-007
  5.998691419500826E-004  1.013072896100568E-007
  6.003119729063250E-004  1.013072896100568E-007
  6.022175861618763E-004  1.013072896100568E-007
  6.104020240981403E-004  1.013072896100568E-007
  6.195418524807043E-004  1.013072896100568E-007
  6.241726817316269E-004  1.013072896100568E-007
  6.275648542028883E-004  1.013072896100568E-007
  6.399607911691686E-004  1.013072896100568E-007
  6.415184032934665E-004  1.013072896100568E-007
  6.449026519484082E-004  1.013072896100568E-007
  6.457511536797870E-004  1.013072896100568E-007
  6.474973772898086E-004  1.013072896100568E-007
  6.500185779295489E-004  1.013072896100568E-007
  6.694986269124843E-004  1.013072896100568E-007
  6.932570485895243E-004  1.013072896100568E-007
  6.967824106956577E-004  1.013072896100568E-007
  7.693100032441472E-004  1.013072896100568E-007
  7.939900231449445E-004  1.013072896100568E-007
  8.236730857571248E-004  1.013072896100568E-007
  9.377851393508533E-004  1.013072896100568E-007
  9.941046101684325E-004  1.013072896100568E-007
  1.079318695445463E-003  1.013072896100568E-007
  1.082696043893296E-003  1.013072896100568E-007
  1.089588747020343E-003  1.013072896100568E-007
  1.093349740329394E-003  1.013072896100568E-007
  1.094295710527436E-003  1.013072896100568E-007
  1.094957064159022E-003  1.013072896100568E-007
  1.095494640104776E-003  1.013072896100568E-007
  1.112481499661504E-003  1.013072896100568E-007
  1.145388600700309E-003  1.013072896100568E-007
  1.146813414757573E-003  1.013072896100568E-007
  1.149218213236159E-003  1.013072896100568E-007
  1.161986464813297E-003  1.013072896100568E-007
  1.164338278868532E-003  1.013072896100568E-007
  1.164842200760988E-003  1.013072896100568E-007
  1.165567971518276E-003  1.013072896100568E-007
  1.166082247310856E-003  1.013072896100568E-007
  1.167914937810612E-003  1.013072896100568E-007
  1.168454721317123E-003  1.013072896100568E-007
  1.176811114200210E-003  1.013072896100568E-007
  1.183429286928904E-003  1.013072896100568E-007
  1.212028694587543E-003  1.013072896100568E-007
  1.263015210668230E-003  1.013072896100568E-007
  1.291423564027742E-003  1.013072896100568E-007
  1.329764100138982E-003  1.013072896100568E-007
  1.362971308613213E-003  1.013072896100568E-007
  1.390520777015310E-003  1.013072896100568E-007
  1.494343321797704E-003  1.013072896100568E-007
  1.539779695780252E-003  1.013072896100568E-007
  1.670519763035933E-003  1.013072896100568E-007
  1.723716972781747E-003  1.013072896100568E-007
  1.742879217620363E-003  1.013072896100568E-007
  1.840493677613225E-003  1.013072896100568E-007
  1.918808680051723E-003  1.013072896100568E-007
  1.964750034729664E-003  1.013072896100568E-007
  2.080684726600000E-003  1.013072896100568E-007
  2.276486514414806E-003  1.013072896100568E-007
  2.340663346626567E-003  1.013072896100568E-007
  2.359549416137545E-003  1.013072896100568E-007
  2.491622408581289E-003  1.013072896100568E-007
  2.521072161915310E-003  1.013072896100568E-007
  2.538685271941590E-003  1.013072896100568E-007
  2.563871947966132E-003  1.013072896100568E-007
  2.673333437478257E-003  1.013072896100568E-007
  2.779704347219067E-003  1.013072896100568E-007
  2.925186951442167E-003  1.013072896100568E-007
  3.021799652682294E-003  1.013072896100568E-007
  3.030168387039287E-003  1.013072896100568E-007
  3.042573456560637E-003  1.013072896100568E-007
  3.083283450162659E-003  1.013072896100568E-007
  3.090652361944831E-003  1.013072896100568E-007
  3.633000611684537E-003  1.013072896100568E-007
  3.663688516196690E-003  1.013072896100568E-007
  3.665407308989318E-003  1.013072896100568E-007
  3.711548894973331E-003  1.013072896100568E-007
  3.713079445402629E-003  1.013072896100568E-007
  3.748584709074885E-003  1.013072896100568E-007
  3.765849331613649E-003  1.013072896100568E-007
  3.930545849298341E-003  1.013072896100568E-007
  4.080101064888390E-003  1.013072896100568E-007
 cut=1d-8, nber non-redundant internal coords=         216
 Check on Eigenvals of non-red overlap matrix:
  0.00000010  0.00000021  0.00000074  0.00000102  0.00000179  0.00000277  0.00000322  0.00000339
  0.00000509  0.00000675  0.00000718  0.00000867  0.00001054  0.00001101  0.00001240  0.00001375
  0.00001566  0.00001630  0.00001665  0.00001763  0.00001832  0.00001864  0.00002162  0.00002256
  0.00002392  0.00002422  0.00002528  0.00002641  0.00002828  0.00002930  0.00003001  0.00003395
  0.00003786  0.00003893  0.00003995  0.00004465  0.00004587  0.00004891  0.00004896  0.00005094
  0.00005224  0.00005354  0.00005433  0.00005701  0.00005899  0.00006147  0.00006432  0.00006526
  0.00006860  0.00007168  0.00007313  0.00007815  0.00007919  0.00008148  0.00008245  0.00008534
  0.00008754  0.00008835  0.00009083  0.00009312  0.00009386  0.00009478  0.00009822  0.00010360
  0.00011322  0.00011768  0.00011801  0.00012097  0.00012247  0.00013359  0.00013458  0.00013617
  0.00013719  0.00014040  0.00014676  0.00015485  0.00015890  0.00015908  0.00016474  0.00017173
  0.00018025  0.00018179  0.00020238  0.00020556  0.00021980  0.00022341  0.00022855  0.00023117
  0.00026765  0.00026877  0.00028514  0.00028636  0.00028703  0.00029059  0.00029640  0.00030081
  0.00030579  0.00034287  0.00034782  0.00035971  0.00036462  0.00037260  0.00038009  0.00038122
  0.00038539  0.00039077  0.00039135  0.00039421  0.00041134  0.00042185  0.00042484  0.00042716
  0.00043036  0.00043615  0.00044048  0.00044155  0.00044902  0.00046304  0.00046838  0.00046853
  0.00048430  0.00049424  0.00053332  0.00053732  0.00054289  0.00055354  0.00055582  0.00055591
  0.00055955  0.00057238  0.00058321  0.00059674  0.00059848  0.00059876  0.00059926  0.00059961
  0.00059987  0.00060031  0.00060222  0.00061040  0.00061954  0.00062417  0.00062756  0.00063996
  0.00064152  0.00064490  0.00064575  0.00064750  0.00065002  0.00066950  0.00069326  0.00069678
  0.00076931  0.00079399  0.00082367  0.00093779  0.00099410  0.00107932  0.00108270  0.00108959
  0.00109335  0.00109430  0.00109496  0.00109549  0.00111248  0.00114539  0.00114681  0.00114922
  0.00116199  0.00116434  0.00116484  0.00116557  0.00116608  0.00116791  0.00116845  0.00117681
  0.00118343  0.00121203  0.00126302  0.00129142  0.00132976  0.00136297  0.00139052  0.00149434
  0.00153978  0.00167052  0.00172372  0.00174288  0.00184049  0.00191881  0.00196475  0.00208068
  0.00227649  0.00234066  0.00235955  0.00249162  0.00252107  0.00253869  0.00256387  0.00267333
  0.00277970  0.00292519  0.00302180  0.00303017  0.00304257  0.00308328  0.00309065  0.00363300
  0.00366369  0.00366541  0.00371155  0.00371308  0.00374858  0.00376585  0.00393055  0.00408010
 Checking for correct frequencies
 recalc frequencies=
    -0.0   -0.0   -0.0    0.0    0.0    0.0    7.3   13.7   14.8   25.3
    28.1   40.2   55.0   57.8   65.4   70.6   86.0   92.1   94.0  105.2
   111.4  125.9  140.5  155.1  169.5  181.1  189.4  196.6  204.3  212.5
   223.9  233.0  234.5  236.0  252.1  263.6  276.8  290.6  299.6  310.6
   333.6  343.9  349.4  364.7  372.8  394.0  395.9  409.4  418.2  428.3
   435.3  442.8  443.3  448.2  454.0  464.1  467.1  471.5  499.1  503.6
   504.0  509.5  517.2  525.5  534.1  547.8  559.8  571.8  579.5  582.9
   592.1  597.3  605.0  624.2  625.8  635.6  647.2  659.0  662.1  667.4
   689.9  709.2  713.2  715.3  729.9  739.7  740.8  748.1  758.3  758.5
   769.8  785.6  802.4  808.5  810.2  814.8  815.6  819.6  821.6  824.9
   831.1  836.8  838.0  849.2  857.2  861.2  903.2  907.8  919.3  930.5
   942.8  949.8  955.2  957.2  961.6  970.1  972.9  973.2  974.7  982.7
   986.0  987.2  997.2 1023.7 1031.5 1065.8 1079.4 1082.5 1093.7 1106.6
  1146.0 1151.6 1154.7 1157.7 1164.1 1164.3 1174.4 1188.2 1190.4 1196.4
  1199.3 1205.1 1220.0 1226.1 1230.1 1235.6 1247.3 1265.1 1279.8 1280.4
  1297.9 1304.4 1317.7 1328.3 1336.8 1340.7 1345.8 1358.5 1363.4 1367.9
  1372.1 1384.2 1392.7 1393.0 1397.2 1410.0 1424.5 1430.1 1438.2 1443.6
  1457.9 1463.2 1465.3 1469.6 1470.9 1477.2 1483.5 1483.7 1487.0 1495.4
  1506.9 1523.8 1534.8 1536.8 1540.9 1560.8 1573.4 1573.8 1580.7 1593.1
  1612.9 1619.6 1623.5 1630.6 1679.1 1706.0 1714.5 1737.2 3027.8 3032.7
  3045.3 3076.1 3085.1 3088.2 3108.1 3131.0 3140.7 3173.9 3189.9 3190.1
  3193.6 3196.3 3196.7 3206.3 3206.6 3220.0 3220.2 3221.6 3234.5 3246.9
  3247.8 3249.9
 recalc symmetries=
                                                                       
                                                                       
                                                                       
                                                                       
                                                                       
                                                                       
                                                                       
                                                                       
                                                                       
                                                                       
                                                                       
                                                                       
                                                                       
                                                                       
                                                                       
                                                                       
                                                                       
                                                                       
                                                                       
                                                                       
                                                                       
                                                                       
               
 recalc freqs check OK
 Zero-point lengths:
 10.0000 10.0000 10.0000 10.0000 10.0000 10.0000 91.7737 66.8645 64.4713 49.2744
 46.7629 39.0985 33.4373 32.6049 30.6601 29.5034 26.7368 25.8262 25.5639 24.1728
 23.4879 22.0963 20.9145 19.9031 19.0444 18.4235 18.0146 17.6806 17.3445 17.0065
 16.5676 16.2411 16.1889 16.1378 15.6151 15.2702 14.9007 14.5425 14.3220 14.0666
 13.5736 13.3676 13.2637 12.9824 12.8394 12.4897 12.4594 12.2522 12.1225 11.9787
 11.8817 11.7806 11.7752 11.7103 11.6354 11.5074 11.4707 11.4176 11.0969 11.0474
 11.0425 10.9833 10.9006 10.8143 10.7267 10.5925 10.4777 10.3677 10.2980 10.2685
 10.1886 10.1437 10.0786  9.9232  9.9105  9.8335  9.7448  9.6573  9.6344  9.5964
  9.4385  9.3090  9.2832  9.2696  9.1763  9.1150  9.1087  9.0642  9.0026  9.0016
  8.9354  8.8451  8.7517  8.7189  8.7094  8.6850  8.6810  8.6597  8.6490  8.6319
  8.5994  8.5702  8.5637  8.5072  8.4676  8.4479  8.2493  8.2281  8.1767  8.1272
  8.0741  8.0442  8.0212  8.0132  7.9945  7.9597  7.9482  7.9467  7.9405  7.9082
  7.8949  7.8904  7.8506  7.7485  7.7190  7.5936  7.5457  7.5349  7.4964  7.4524
  7.3232  7.3053  7.2956  7.2861  7.2661  7.2654  7.2341  7.1921  7.1853  7.1673
  7.1586  7.1414  7.0977  7.0799  7.0685  7.0526  7.0196  6.9699  6.9298  6.9283
  6.8815  6.8643  6.8294  6.8021  6.7805  6.7707  6.7578  6.7261  6.7140  6.7031
  6.6926  6.6634  6.6430  6.6422  6.6323  6.6022  6.5684  6.5555  6.5370  6.5249
  6.4928  6.4811  6.4763  6.4669  6.4641  6.4501  6.4366  6.4362  6.4289  6.4109
  6.3863  6.3508  6.3280  6.3238  6.3155  6.2752  6.2499  6.2492  6.2355  6.2112
  6.1729  6.1602  6.1527  6.1393  6.0500  6.0022  5.9872  5.9480  4.5054  4.5018
  4.4924  4.4699  4.4634  4.4611  4.4468  4.4305  4.4237  4.4005  4.3894  4.3893
  4.3868  4.3850  4.3848  4.3782  4.3780  4.3689  4.3687  4.3678  4.3590  4.3507
  4.3501  4.3487
 highest evec of mol 1
  0.0000  0.0000  0.0000
  0.0000  0.0000  0.0000
  0.0000  0.0000  0.0000
 -0.0000 -0.0000 -0.0000
  0.0000  0.0000  0.0000
 -0.0000 -0.0000 -0.0000
 -0.0000 -0.0000 -0.0000
  0.0000  0.0000  0.0000
 -0.0000  0.0000 -0.0000
 -0.0000 -0.0000 -0.0000
  0.0000  0.0000  0.0000
  0.0000 -0.0000  0.0000
  0.0000 -0.0000  0.0000
 -0.0000 -0.0000 -0.0000
  0.0000  0.0000  0.0001
 -0.0000 -0.0000 -0.0000
 -0.0000 -0.0001 -0.0000
  0.0000  0.0001  0.0000
  0.0009  0.0015 -0.0014
 -0.0000 -0.0002 -0.0004
  0.0001  0.0002  0.0000
 -0.0001 -0.0003  0.0001
  0.0002  0.0011 -0.0011
 -0.0000  0.0000 -0.0002
  0.0001  0.0002  0.0000
 -0.0027 -0.0069 -0.0025
  0.0162  0.0185  0.0861
  0.0911  0.2682 -0.0255
 -0.0006 -0.0009 -0.0021
 -0.0013 -0.0034 -0.0004
  0.0000 -0.0001  0.0004
  0.0000  0.0001  0.0000
 -0.0001 -0.0002  0.0000
 -0.0001  0.0005  0.0023
 -0.0000  0.0001 -0.0000
 -0.0000 -0.0000  0.0000
 -0.0000 -0.0000 -0.0000
 -0.0000  0.0000 -0.0000
 -0.0000  0.0000 -0.0000
  0.0000  0.0000  0.0000
 -0.0000 -0.0000  0.0000
 -0.0000 -0.0000 -0.0000
 -0.0000  0.0000  0.0000
 -0.0000 -0.0000 -0.0000
  0.0000  0.0000  0.0000
  0.0000 -0.0000  0.0000
 -0.0000 -0.0000 -0.0000
  0.0000 -0.0000  0.0000
 -0.0000 -0.0000 -0.0000
  0.0000  0.0000  0.0000
 -0.0000 -0.0000 -0.0000
  0.0000  0.0000  0.0000
 -0.0000  0.0000  0.0000
 -0.0000  0.0000 -0.0000
  0.0000  0.0000 -0.0000
 -0.0000 -0.0000 -0.0000
  0.0000  0.0000  0.0000
 -0.0000 -0.0000 -0.0000
  0.0000  0.0000  0.0000
 -0.0001 -0.0000 -0.0001
 -0.0000  0.0001 -0.0000
 -0.0027 -0.0050  0.0046
 -0.0001  0.0003  0.0013
 -0.0006 -0.0033  0.0037
  0.0000  0.0004  0.0001
  0.0002  0.0003  0.0000
 -0.0552 -0.0815 -0.2360
 -0.2991 -0.8682  0.0475
  0.0002  0.0004 -0.0003
  0.0003 -0.0015 -0.0075
  0.0000  0.0000  0.0000
  0.0000 -0.0001  0.0001
  0.0000  0.0000  0.0001
  0.0000 -0.0000  0.0000
 generating redundant internal coords
         300        3600          74
 Adding extra bonds for z output only
           6           6           6           7           6           8
           6           6           6           6           6           6
           6           6           6           8           7           6
           6           6           6           6           6           6
           6           6           6           6          16           6
           6          16           6           6           6           8
           6           6           6           6           6           6
           6           6           6           8           6           6
           6           6           1           1           1           1
           1           1           1           1           1           1
           1           1           1           1           1           1
           1           1           1           1           1           1
           1           1
 search for int coords
   1 str   2   1   1.533
   2 str   3   2   1.533
   3 str   4   2   1.491
   4 str   5   4   1.413
   5 str   6   5   1.226
   6 str   7   5   1.468
   7 str   8   7   1.396
   8 str   9   8   1.381
   9 str  10   9   1.414
  10 str  11  10   1.447
  11 str  12  11   1.417
  12 str  13  12   1.375
  13 str  14  13   1.404
  14 str  15  14   1.448
  15 str  16  15   1.224
  16 str  17  15   1.438
  17 str  18  17   1.420
  18 str  19  18   1.403
  19 str  20  19   1.380
  20 str  21  20   1.412
  21 str  22  21   1.440
  22 str  23  22   1.408
  23 str  24  23   1.383
  24 str  25  24   1.512
  25 str  26  25   1.512
  26 str  27  26   1.401
  27 str  28  27   1.381
  28 str  29  28   1.738
  29 str  30  26   1.408
  30 str  30  29   1.732
  31 str  31  24   1.416
  32 str  31  30   1.408
  33 str  32  22   1.773
  34 str  32  31   1.724
  35 str  33  21   1.411
  36 str  34  18   1.403
  37 str  34  33   1.380
  38 str  35  17   1.438
  39 str  36  35   1.224
  40 str  37  35   1.448
  41 str  38  37   1.404
  42 str  39  38   1.375
  43 str  40  39   1.417
  44 str  41  40   1.447
  45 str  42  41   1.413
  46 str  43  42   1.382
  47 str  44  43   1.396
  48 str  45   4   1.405
  49 str  45  44   1.469
  50 str  46  45   1.227
  51 str  47   7   1.412
  52 str  47  44   1.412
  53 str  48  10   1.428
  54 str  48  41   1.428
  55 str  48  47   1.434
  56 str  49  11   1.430
  57 str  49  40   1.430
  58 str  50  14   1.415
  59 str  50  37   1.415
  60 str  50  49   1.439
  61 str  51   1   1.094
  62 str  52   1   1.089
  63 str  53   1   1.093
  64 str  54   2   1.088
  65 str  55   3   1.089
  66 str  56   3   1.094
  67 str  57   3   1.093
  68 str  58   8   1.083
  69 str  59   9   1.081
  70 str  60  12   1.080
  71 str  61  13   1.083
  72 str  62  19   1.078
  73 str  63  20   1.082
  74 str  64  23   1.080
  75 str  65  25   1.095
  76 str  66  25   1.095
  77 str  67  27   1.081
  78 str  68  28   1.079
  79 str  69  33   1.084
  80 str  70  34   1.078
  81 str  71  38   1.083
  82 str  72  39   1.080
  83 str  73  42   1.081
  84 str  74  43   1.083
 nber stretches=          84
  85 ben   1   2   3
  86 prop tor   1   2   3  55
  87 prop tor   1   2   3  56
  88 prop tor   1   2   3  57
  89 ben   1   2   4
  90 prop tor   1   2   4   5
  91 prop tor   1   2   4  45
  92 ben   1   2  54
  93 ben   2   1  51
  94 ben   2   1  52
  95 ben   2   1  53
  96 ben   2   3  55
  97 ben   2   3  56
  98 ben   2   3  57
  99 ben   2   4   5
 100 prop tor   2   4   5   6
 101 prop tor   2   4   5   7
 102 ben   2   4  45
 103 prop tor   2   4  45  44
 104 prop tor   2   4  45  46
 105 ben   3   2   4
 106 prop tor   3   2   4   5
 107 prop tor   3   2   4  45
 108 ben   3   2  54
 109 prop tor   4   2   3  55
 110 prop tor   4   2   3  56
 111 prop tor   4   2   3  57
 112 ben   4   2  54
 113 ben   4   5   6
 114 ben   4   5   7
 115 prop tor   4   5   7   8
 116 prop tor   4   5   7  47
 117 ben   4  45  44
 118 ben   4  45  46
 119 ben   5   4  45
 120 prop tor   5   4  45  44
 121 prop tor   5   4  45  46
 122 ben   5   7   8
 123 prop tor   5   7   8   9
 124 prop tor   5   7   8  58
 125 ben   5   7  47
 126 prop tor   5   7  47  44
 127 prop tor   5   7  47  48
 128 ben   6   5   7
 129 prop tor   6   5   7   8
 130 prop tor   6   5   7  47
 131 ben   7   8   9
 132 prop tor   7   8   9  10
 133 prop tor   7   8   9  59
 134 ben   7   8  58
 135 ben   7  47  44
 136 ben   7  47  48
 137 prop tor   7  47  48  10
 138 prop tor   7  47  48  41
 139 ben   8   7  47
 140 prop tor   8   7  47  44
 141 prop tor   8   7  47  48
 142 ben   8   9  10
 143 prop tor   8   9  10  11
 144 prop tor   8   9  10  48
 145 ben   8   9  59
 146 ben   9   8  58
 147 ben   9  10  11
 148 prop tor   9  10  11  12
 149 prop tor   9  10  11  49
 150 ben   9  10  48
 151 prop tor   9  10  48  41
 152 prop tor   9  10  48  47
 153 ben  10   9  59
 154 ben  10  11  12
 155 prop tor  10  11  12  13
 156 prop tor  10  11  12  60
 157 ben  10  11  49
 158 prop tor  10  11  49  40
 159 prop tor  10  11  49  50
 160 ben  10  48  41
 161 ben  10  48  47
 162 ben  11  10  48
 163 prop tor  11  10  48  41
 164 prop tor  11  10  48  47
 165 ben  11  12  13
 166 prop tor  11  12  13  14
 167 prop tor  11  12  13  61
 168 ben  11  12  60
 169 ben  11  49  40
 170 ben  11  49  50
 171 prop tor  11  49  50  14
 172 prop tor  11  49  50  37
 173 ben  12  11  49
 174 prop tor  12  11  49  40
 175 prop tor  12  11  49  50
 176 ben  12  13  14
 177 prop tor  12  13  14  15
 178 prop tor  12  13  14  50
 179 ben  12  13  61
 180 ben  13  12  60
 181 ben  13  14  15
 182 prop tor  13  14  15  16
 183 prop tor  13  14  15  17
 184 ben  13  14  50
 185 prop tor  13  14  50  37
 186 prop tor  13  14  50  49
 187 ben  14  13  61
 188 ben  14  15  16
 189 ben  14  15  17
 190 prop tor  14  15  17  18
 191 prop tor  14  15  17  35
 192 ben  14  50  37
 193 ben  14  50  49
 194 ben  15  14  50
 195 prop tor  15  14  50  37
 196 prop tor  15  14  50  49
 197 ben  15  17  18
 198 prop tor  15  17  18  19
 199 prop tor  15  17  18  34
 200 ben  15  17  35
 201 prop tor  15  17  35  36
 202 prop tor  15  17  35  37
 203 ben  16  15  17
 204 prop tor  16  15  17  18
 205 prop tor  16  15  17  35
 206 ben  17  18  19
 207 prop tor  17  18  19  20
 208 prop tor  17  18  19  62
 209 ben  17  18  34
 210 prop tor  17  18  34  33
 211 prop tor  17  18  34  70
 212 ben  17  35  36
 213 ben  17  35  37
 214 prop tor  17  35  37  38
 215 prop tor  17  35  37  50
 216 ben  18  17  35
 217 prop tor  18  17  35  36
 218 prop tor  18  17  35  37
 219 ben  18  19  20
 220 prop tor  18  19  20  21
 221 prop tor  18  19  20  63
 222 ben  18  19  62
 223 ben  18  34  33
 224 ben  18  34  70
 225 ben  19  18  34
 226 prop tor  19  18  34  33
 227 prop tor  19  18  34  70
 228 ben  19  20  21
 229 prop tor  19  20  21  22
 230 prop tor  19  20  21  33
 231 ben  19  20  63
 232 ben  20  19  62
 233 ben  20  21  22
 234 prop tor  20  21  22  23
 235 prop tor  20  21  22  32
 236 ben  20  21  33
 237 prop tor  20  21  33  34
 238 prop tor  20  21  33  69
 239 ben  21  20  63
 240 ben  21  22  23
 241 prop tor  21  22  23  24
 242 prop tor  21  22  23  64
 243 ben  21  22  32
 244 prop tor  21  22  32  31
 245 ben  21  33  34
 246 prop tor  21  33  34  18
 247 prop tor  21  33  34  70
 248 ben  21  33  69
 249 ben  22  21  33
 250 prop tor  22  21  33  34
 251 prop tor  22  21  33  69
 252 ben  22  23  24
 253 prop tor  22  23  24  25
 254 prop tor  22  23  24  31
 255 ben  22  23  64
 256 ben  22  32  31
 257 ben  23  22  32
 258 prop tor  23  22  32  31
 259 ben  23  24  25
 260 prop tor  23  24  25  26
 261 prop tor  23  24  25  65
 262 prop tor  23  24  25  66
 263 ben  23  24  31
 264 prop tor  23  24  31  30
 265 prop tor  23  24  31  32
 266 ben  24  23  64
 267 ben  24  25  26
 268 prop tor  24  25  26  27
 269 prop tor  24  25  26  30
 270 ben  24  25  65
 271 ben  24  25  66
 272 ben  24  31  30
 273 ben  24  31  32
 274 prop tor  24  31  32  22
 275 ben  25  24  31
 276 prop tor  25  24  31  30
 277 prop tor  25  24  31  32
 278 ben  25  26  27
 279 prop tor  25  26  27  28
 280 prop tor  25  26  27  67
 281 ben  25  26  30
 282 prop tor  25  26  30  29
 283 prop tor  25  26  30  31
 284 ben  26  25  65
 285 ben  26  25  66
 286 ben  26  27  28
 287 prop tor  26  27  28  29
 288 prop tor  26  27  28  68
 289 ben  26  27  67
 290 ben  26  30  29
 291 ben  26  30  31
 292 prop tor  26  30  31  24
 293 prop tor  26  30  31  32
 294 ben  27  26  30
 295 prop tor  27  26  30  29
 296 prop tor  27  26  30  31
 297 ben  27  28  29
 298 prop tor  27  28  29  30
 299 ben  27  28  68
 300 ben  28  27  67
 301 ben  28  29  30
 302 prop tor  28  29  30  26
 303 prop tor  28  29  30  31
 304 ben  29  28  68
 305 ben  29  30  31
 306 prop tor  29  30  31  24
 307 prop tor  29  30  31  32
 308 prop tor  30  26  27  28
 309 prop tor  30  26  27  67
 310 ben  30  31  32
 311 prop tor  30  31  32  22
 312 prop tor  31  24  25  26
 313 prop tor  31  24  25  65
 314 prop tor  31  24  25  66
 315 prop tor  32  22  23  24
 316 prop tor  32  22  23  64
 317 prop tor  33  21  22  23
 318 prop tor  33  21  22  32
 319 ben  33  34  70
 320 prop tor  34  18  19  20
 321 prop tor  34  18  19  62
 322 ben  34  33  69
 323 prop tor  35  17  18  19
 324 prop tor  35  17  18  34
 325 ben  35  37  38
 326 prop tor  35  37  38  39
 327 prop tor  35  37  38  71
 328 ben  35  37  50
 329 prop tor  35  37  50  14
 330 prop tor  35  37  50  49
 331 ben  36  35  37
 332 prop tor  36  35  37  38
 333 prop tor  36  35  37  50
 334 ben  37  38  39
 335 prop tor  37  38  39  40
 336 prop tor  37  38  39  72
 337 ben  37  38  71
 338 ben  37  50  49
 339 ben  38  37  50
 340 prop tor  38  37  50  14
 341 prop tor  38  37  50  49
 342 ben  38  39  40
 343 prop tor  38  39  40  41
 344 prop tor  38  39  40  49
 345 ben  38  39  72
 346 ben  39  38  71
 347 ben  39  40  41
 348 prop tor  39  40  41  42
 349 prop tor  39  40  41  48
 350 ben  39  40  49
 351 prop tor  39  40  49  11
 352 prop tor  39  40  49  50
 353 ben  40  39  72
 354 ben  40  41  42
 355 prop tor  40  41  42  43
 356 prop tor  40  41  42  73
 357 ben  40  41  48
 358 prop tor  40  41  48  10
 359 prop tor  40  41  48  47
 360 ben  40  49  50
 361 prop tor  40  49  50  14
 362 prop tor  40  49  50  37
 363 ben  41  40  49
 364 prop tor  41  40  49  11
 365 prop tor  41  40  49  50
 366 ben  41  42  43
 367 prop tor  41  42  43  44
 368 prop tor  41  42  43  74
 369 ben  41  42  73
 370 ben  41  48  47
 371 ben  42  41  48
 372 prop tor  42  41  48  10
 373 prop tor  42  41  48  47
 374 ben  42  43  44
 375 prop tor  42  43  44  45
 376 prop tor  42  43  44  47
 377 ben  42  43  74
 378 ben  43  42  73
 379 ben  43  44  45
 380 prop tor  43  44  45   4
 381 prop tor  43  44  45  46
 382 ben  43  44  47
 383 prop tor  43  44  47   7
 384 prop tor  43  44  47  48
 385 ben  44  43  74
 386 ben  44  45  46
 387 ben  44  47  48
 388 prop tor  44  47  48  10
 389 prop tor  44  47  48  41
 390 prop tor  45   4   5   6
 391 prop tor  45   4   5   7
 392 ben  45  44  47
 393 prop tor  45  44  47   7
 394 prop tor  45  44  47  48
 395 prop tor  47   7   8   9
 396 prop tor  47   7   8  58
 397 prop tor  47  44  45   4
 398 prop tor  47  44  45  46
 399 prop tor  48  10  11  12
 400 prop tor  48  10  11  49
 401 prop tor  48  41  42  43
 402 prop tor  48  41  42  73
 403 prop tor  49  11  12  13
 404 prop tor  49  11  12  60
 405 prop tor  49  40  41  42
 406 prop tor  49  40  41  48
 407 prop tor  50  14  15  16
 408 prop tor  50  14  15  17
 409 prop tor  50  37  38  39
 410 prop tor  50  37  38  71
 411 prop tor  51   1   2   3
 412 prop tor  51   1   2   4
 413 prop tor  51   1   2  54
 414 ben  51   1  52
 415 ben  51   1  53
 416 prop tor  52   1   2   3
 417 prop tor  52   1   2   4
 418 prop tor  52   1   2  54
 419 ben  52   1  53
 420 prop tor  53   1   2   3
 421 prop tor  53   1   2   4
 422 prop tor  53   1   2  54
 423 prop tor  54   2   3  55
 424 prop tor  54   2   3  56
 425 prop tor  54   2   3  57
 426 prop tor  54   2   4   5
 427 prop tor  54   2   4  45
 428 ben  55   3  56
 429 ben  55   3  57
 430 ben  56   3  57
 431 prop tor  58   8   9  10
 432 prop tor  58   8   9  59
 433 prop tor  59   9  10  11
 434 prop tor  59   9  10  48
 435 prop tor  60  12  13  14
 436 prop tor  60  12  13  61
 437 prop tor  61  13  14  15
 438 prop tor  61  13  14  50
 439 prop tor  62  19  20  21
 440 prop tor  62  19  20  63
 441 prop tor  63  20  21  22
 442 prop tor  63  20  21  33
 443 prop tor  64  23  24  25
 444 prop tor  64  23  24  31
 445 prop tor  65  25  26  27
 446 prop tor  65  25  26  30
 447 ben  65  25  66
 448 prop tor  66  25  26  27
 449 prop tor  66  25  26  30
 450 prop tor  67  27  28  29
 451 prop tor  67  27  28  68
 452 prop tor  68  28  29  30
 453 prop tor  69  33  34  18
 454 prop tor  69  33  34  70
 455 prop tor  71  38  39  40
 456 prop tor  71  38  39  72
 457 prop tor  72  39  40  41
 458 prop tor  72  39  40  49
 459 prop tor  73  42  43  44
 460 prop tor  73  42  43  74
 461 prop tor  74  43  44  45
 462 prop tor  74  43  44  47
 nber bend=             146
 nber lin bend=           0
 nber prop tor=         232
 nber impr tor=           0
 nber tot redund int=         462
 Reading file: 
 ./CDT-A_5_C1S0.log                                                             
                                          
  Entering Gaussian System, Link 0=g16                                          
  
 Gaussian format, type: g94, g98, g03= F F F
  #P Geom=AllCheck Guess=TCheck SCRF=Check GenChk UB3LYP/6-311G(d,p) Fre    
 energy type= B3LYP   
 Original G94 input coords:
  6  6.436178-14.987971-35.579995
  6  5.128969-15.603725-35.071802
  6  4.786128-16.944547-35.728079
  7  5.108463-15.698968-33.573253
  6  6.031037-16.529665-32.928436
  8  6.851616-17.178016-33.549693
  6  5.974413-16.594185-31.440516
  6  6.867528-17.404511-30.767865
  6  6.836786-17.482947-29.372748
  6  5.919633-16.758784-28.612609
  6  5.880145-16.833853-27.147342
  6  6.759831-17.637389-26.420119
  6  6.714936-17.703760-25.030065
  6  5.783821-16.964182-24.318377
  6  5.773394-17.065609-22.852262
  8  6.542117-17.761633-22.221400
  7  4.797494-16.272796-22.167325
  6  4.760889-16.343214-20.747219
  6  4.733567-15.166586-19.979159
  6  4.701874-15.234069-18.603926
  6  4.688758-16.482566-17.931152
  6  4.652031-16.542115-16.501487
  6  4.540547-15.470933-15.587336
  6  4.531210-15.883547-14.271936
  6  4.435396-15.238916-12.907327
  6  4.504729-16.447178-12.002090
  6  4.482592-16.697023-10.624759
  6  4.582676-18.049041-10.355767
 16  4.705481-19.043661-11.774864
  6  4.622481-17.625752-12.765889
  6  4.636960-17.291907-14.132152
 16  4.750572-18.097929-15.649037
  6  4.713307-17.656458-18.724142
  6  4.752032-17.590537-20.098982
  6  3.856706-15.413660-22.820502
  8  3.054348-14.781008-22.165216
  6  3.923709-15.369395-24.288052
  6  3.029252-14.560612-24.970906
  6  3.058771-14.487426-26.361034
  6  3.978822-15.215775-27.116932
  6  4.018828-15.142456-28.582330
  6  3.142317-14.342419-29.313849
  6  3.188190-14.278275-30.709220
  6  4.119296-15.018417-31.411056
  6  4.145162-14.930158-32.897502
  8  3.360174-14.218083-33.493158
  6  5.027195-15.842787-30.712873
  6  4.988117-15.915398-29.288960
  6  4.910807-16.059829-26.434989
  6  4.872637-16.131421-25.008228
  1  6.343843-14.799354-36.652626
  1  7.286017-15.649454-35.417010
  1  6.630668-14.030394-35.090234
  1  4.321484-14.906716-35.283677
  1  5.570667-17.684030-35.573498
  1  4.662069-16.789439-36.802876
  1  3.843683-17.338017-35.338667
  1  7.587649-17.973977-31.341443
  1  7.555296-18.130678-28.889915
  1  7.503094-18.232398-26.931213
  1  7.406313-18.334016-24.485199
  1  4.742366-14.205239-20.469891
  1  4.703490-14.310179-18.041291
  1  4.461551-14.441733-15.906355
  1  3.501680-14.681296-12.780540
  1  5.256586-14.538220-12.724520
  1  4.398737-15.948638 -9.848965
  1  4.591314-18.525725 -9.386298
  1  4.686695-18.632540-18.254240
  1  4.770795-18.499074-20.681333
  1  2.307779-13.986579-24.403407
  1  2.341968-13.842594-26.848970
  1  2.396600-13.745232-28.807711
  1  2.498871-13.651064-31.259842
 nber atoms=          74
  SCF Done:  E(UB3LYP) =  -2822.11031190     A.U. after    1 cycles             
  
          23          40 "  -2822.11031190"
After scan for Atom:   Atom  AN      X      Y      Z        X      Y      Z        X      Y      Z   
After scan for Atom:   Atom  AN      X      Y      Z        X      Y      Z        X      Y      Z   
After scan for Atom:   Atom  AN      X      Y      Z        X      Y      Z        X      Y      Z   
After scan for Atom:   Atom  AN      X      Y      Z        X      Y      Z        X      Y      Z   
After scan for Atom:   Atom  AN      X      Y      Z        X      Y      Z        X      Y      Z   
After scan for Atom:   Atom  AN      X      Y      Z        X      Y      Z        X      Y      Z   
After scan for Atom:   Atom  AN      X      Y      Z        X      Y      Z        X      Y      Z   
After scan for Atom:   Atom  AN      X      Y      Z        X      Y      Z        X      Y      Z   
After scan for Atom:   Atom  AN      X      Y      Z        X      Y      Z        X      Y      Z   
After scan for Atom:   Atom  AN      X      Y      Z        X      Y      Z        X      Y      Z   
After scan for Atom:   Atom  AN      X      Y      Z        X      Y      Z        X      Y      Z   
After scan for Atom:   Atom  AN      X      Y      Z        X      Y      Z        X      Y      Z   
After scan for Atom:   Atom  AN      X      Y      Z        X      Y      Z        X      Y      Z   
After scan for Atom:   Atom  AN      X      Y      Z        X      Y      Z        X      Y      Z   
After scan for Atom:   Atom  AN      X      Y      Z        X      Y      Z        X      Y      Z   
After scan for Atom:   Atom  AN      X      Y      Z        X      Y      Z        X      Y      Z   
After scan for Atom:   Atom  AN      X      Y      Z        X      Y      Z        X      Y      Z   
After scan for Atom:   Atom  AN      X      Y      Z        X      Y      Z        X      Y      Z   
After scan for Atom:   Atom  AN      X      Y      Z        X      Y      Z        X      Y      Z   
After scan for Atom:   Atom  AN      X      Y      Z        X      Y      Z        X      Y      Z   
After scan for Atom:   Atom  AN      X      Y      Z        X      Y      Z        X      Y      Z   
After scan for Atom:   Atom  AN      X      Y      Z        X      Y      Z        X      Y      Z   
After scan for Atom:   Atom  AN      X      Y      Z        X      Y      Z        X      Y      Z   
After scan for Atom:   Atom  AN      X      Y      Z        X      Y      Z        X      Y      Z   
After scan for Atom:   Atom  AN      X      Y      Z        X      Y      Z        X      Y      Z   
After scan for Atom:   Atom  AN      X      Y      Z        X      Y      Z        X      Y      Z   
After scan for Atom:   Atom  AN      X      Y      Z        X      Y      Z        X      Y      Z   
After scan for Atom:   Atom  AN      X      Y      Z        X      Y      Z        X      Y      Z   
After scan for Atom:   Atom  AN      X      Y      Z        X      Y      Z        X      Y      Z   
After scan for Atom:   Atom  AN      X      Y      Z        X      Y      Z        X      Y      Z   
After scan for Atom:   Atom  AN      X      Y      Z        X      Y      Z        X      Y      Z   
After scan for Atom:   Atom  AN      X      Y      Z        X      Y      Z        X      Y      Z   
After scan for Atom:   Atom  AN      X      Y      Z        X      Y      Z        X      Y      Z   
After scan for Atom:   Atom  AN      X      Y      Z        X      Y      Z        X      Y      Z   
After scan for Atom:   Atom  AN      X      Y      Z        X      Y      Z        X      Y      Z   
After scan for Atom:   Atom  AN      X      Y      Z        X      Y      Z        X      Y      Z   
After scan for Atom:   Atom  AN      X      Y      Z        X      Y      Z        X      Y      Z   
After scan for Atom:   Atom  AN      X      Y      Z        X      Y      Z        X      Y      Z   
After scan for Atom:   Atom  AN      X      Y      Z        X      Y      Z        X      Y      Z   
After scan for Atom:   Atom  AN      X      Y      Z        X      Y      Z        X      Y      Z   
After scan for Atom:   Atom  AN      X      Y      Z        X      Y      Z        X      Y      Z   
After scan for Atom:   Atom  AN      X      Y      Z        X      Y      Z        X      Y      Z   
After scan for Atom:   Atom  AN      X      Y      Z        X      Y      Z        X      Y      Z   
After scan for Atom:   Atom  AN      X      Y      Z        X      Y      Z        X      Y      Z   
After scan for Atom:   Atom  AN      X      Y      Z        X      Y      Z        X      Y      Z   
After scan for Atom:   Atom  AN      X      Y      Z        X      Y      Z        X      Y      Z   
After scan for Atom:   Atom  AN      X      Y      Z        X      Y      Z        X      Y      Z   
After scan for Atom:   Atom  AN      X      Y      Z        X      Y      Z        X      Y      Z   
After scan for Atom:   Atom  AN      X      Y      Z        X      Y      Z        X      Y      Z   
After scan for Atom:   Atom  AN      X      Y      Z        X      Y      Z        X      Y      Z   
After scan for Atom:   Atom  AN      X      Y      Z        X      Y      Z        X      Y      Z   
After scan for Atom:   Atom  AN      X      Y      Z        X      Y      Z        X      Y      Z   
After scan for Atom:   Atom  AN      X      Y      Z        X      Y      Z        X      Y      Z   
After scan for Atom:   Atom  AN      X      Y      Z        X      Y      Z        X      Y      Z   
After scan for Atom:   Atom  AN      X      Y      Z        X      Y      Z        X      Y      Z   
After scan for Atom:   Atom  AN      X      Y      Z        X      Y      Z        X      Y      Z   
After scan for Atom:   Atom  AN      X      Y      Z        X      Y      Z        X      Y      Z   
After scan for Atom:   Atom  AN      X      Y      Z        X      Y      Z        X      Y      Z   
After scan for Atom:   Atom  AN      X      Y      Z        X      Y      Z        X      Y      Z   
After scan for Atom:   Atom  AN      X      Y      Z        X      Y      Z        X      Y      Z   
After scan for Atom:   Atom  AN      X      Y      Z        X      Y      Z        X      Y      Z   
After scan for Atom:   Atom  AN      X      Y      Z        X      Y      Z        X      Y      Z   
After scan for Atom:   Atom  AN      X      Y      Z        X      Y      Z        X      Y      Z   
After scan for Atom:   Atom  AN      X      Y      Z        X      Y      Z        X      Y      Z   
After scan for Atom:   Atom  AN      X      Y      Z        X      Y      Z        X      Y      Z   
After scan for Atom:   Atom  AN      X      Y      Z        X      Y      Z        X      Y      Z   
After scan for Atom:   Atom  AN      X      Y      Z        X      Y      Z        X      Y      Z   
After scan for Atom:   Atom  AN      X      Y      Z        X      Y      Z        X      Y      Z   
After scan for Atom:   Atom  AN      X      Y      Z        X      Y      Z        X      Y      Z   
After scan for Atom:   Atom  AN      X      Y      Z        X      Y      Z        X      Y      Z   
After scan for Atom:   Atom  AN      X      Y      Z        X      Y      Z        X      Y      Z   
After scan for Atom:   Atom  AN      X      Y      Z        X      Y      Z        X      Y      Z   
 g94    frequencies=
     0.0    0.0    0.0    0.0    0.0    0.0    7.6   11.7   14.1   22.5
    28.3   41.7   51.1   56.4   63.7   68.6   82.0   90.0   91.5  101.0
   109.4  127.3  139.5  149.1  163.4  176.9  183.0  186.0  204.6  216.2
   218.2  230.6  236.2  237.2  252.8  269.8  279.8  288.3  312.4  314.8
   331.5  345.5  351.3  364.2  369.8  389.9  394.7  407.4  428.6  432.2
   436.3  436.9  444.1  446.2  446.2  462.2  466.7  474.7  478.0  478.3
   502.6  507.7  512.3  533.0  534.9  551.6  556.5  571.9  577.5  585.0
[...]
   -0.   -1.    0.   -0.   -2.   -1.   -1.   -0.   -0.    1.   -1.   -1.   -0.   -1.   -3.    1.   -0.    0.   -1.    1.
   -2.   -0.    0.    0.    0.   -0.   -0.    1.    1.    2.  -11.   -0.    1.  -17.    0.    0.   -2.   -1.    0.    1.
    0.    0.    0.   -4.   -2.    0.   -1.   -3.    0.    0.    0.    1.  -11.   -3.    0.   -5.   -4.  -10.   -2.    6.
    2.   -1.   -7.    2.   -3.   -5.   -2.    2.   -2.    0.    1.   -0.   -3.    2.    0.   -3.    1.    0.    0.   -1.
   -2.   -4.  -40.   10.    2.   -0.   -1.    1.   -6.   -0.   -0.    0.   -0.    0.   -2.    0.   -7.   -0.    1.    2.
   -0.   -1.    0.   -0.    0.   -0.   -0.    2.   -0.   -2.   -3.   -0.    1.   -0.    0.    0.   -2.    1.    0.   -0.
    0.   -0.    0.   -0.   -0.    1.    0.    0.    0.    0.    0.   -0.    0.    0.    0.    0.    0.    0.   -0.    1.
   -1.    0.

 Displacement: in terms of nc of 1 THEN of nc of 2

   1     freq=    -0. Q= -0.000 lam=    -0.0     freq=    -0. Q= -0.000 lam=    -0.0
   2     freq=    -0. Q= -0.000 lam=    -0.0     freq=    -0. Q= -0.000 lam=    -0.0
   3     freq=    -0. Q=  0.000 lam=    -0.0     freq=    -0. Q=  0.000 lam=    -0.0
   4     freq=     0. Q=  0.000 lam=     0.0     freq=     0. Q=  0.000 lam=     0.0
   5     freq=     0. Q= -0.000 lam=     0.0     freq=     0. Q= -0.000 lam=     0.0
   6     freq=     0. Q=  0.000 lam=     0.0     freq=     0. Q=  0.000 lam=     0.0
   7     freq=     7. Q= -2.942 lam=    31.6     freq=     8. Q= -2.849 lam=    30.9
   8     freq=    14. Q=  7.637 lam=   400.9     freq=    12. Q= 10.844 lam=   688.8
   9     freq=    15. Q=-10.519 lam=   817.9     freq=    14. Q= -4.970 lam=   174.2
  10     freq=    25. Q= -3.126 lam=   123.7     freq=    23. Q= -2.850 lam=    91.4
  11     freq=    28. Q= -1.788 lam=    44.9     freq=    28. Q= -0.135 lam=     0.3
  12     freq=    40. Q=  0.498 lam=     5.0     freq=    42. Q=  0.484 lam=     4.9
  13     freq=    55. Q= -9.017 lam=  2234.5     freq=    51. Q= -8.941 lam=  2043.5
  14     freq=    58. Q=  5.642 lam=   920.1     freq=    56. Q=  4.089 lam=   471.2
  15     freq=    65. Q= 11.341 lam=  4204.4     freq=    64. Q=  9.941 lam=  3145.2
  16     freq=    71. Q=  3.115 lam=   342.5     freq=    69. Q=  1.258 lam=    54.3
  17     freq=    86. Q=  8.220 lam=  2904.2     freq=    82. Q=  9.028 lam=  3342.0
  18     freq=    92. Q=  2.362 lam=   257.1     freq=    90. Q=  6.970 lam=  2186.5
  19     freq=    94. Q=  2.910 lam=   398.1     freq=    92. Q=  1.097 lam=    55.1
  20     freq=   105. Q=  2.785 lam=   407.8     freq=   101. Q=  1.517 lam=   116.2
  21     freq=   111. Q=  9.929 lam=  5491.6     freq=   109. Q= 11.366 lam=  7065.5
  22     freq=   126. Q=  0.176 lam=     1.9     freq=   127. Q=  2.038 lam=   264.3
  23     freq=   141. Q=  0.569 lam=    22.8     freq=   140. Q=  1.023 lam=    72.9
  24     freq=   155. Q= -0.575 lam=    25.6     freq=   149. Q= -0.702 lam=    36.7
  25     freq=   169. Q=  4.112 lam=  1432.9     freq=   163. Q=  4.133 lam=  1395.3
  26     freq=   181. Q=  0.120 lam=     1.3     freq=   177. Q=  1.146 lam=   116.2
  27     freq=   189. Q=  1.355 lam=   173.9     freq=   183. Q=  0.486 lam=    21.6
  28     freq=   197. Q=  1.874 lam=   345.2     freq=   186. Q=  2.214 lam=   455.9
  29     freq=   204. Q= -0.171 lam=     3.0     freq=   205. Q= -1.998 lam=   408.6
  30     freq=   212. Q= -1.250 lam=   165.9     freq=   216. Q= -0.146 lam=     2.3
  31     freq=   224. Q= -0.227 lam=     5.8     freq=   218. Q= -1.172 lam=   149.8
  32     freq=   233. Q=  2.589 lam=   781.1     freq=   231. Q=  0.479 lam=    26.5
  33     freq=   235. Q=  1.087 lam=   138.5     freq=   236. Q=  4.311 lam=  2194.1
  34     freq=   236. Q=  4.341 lam=  2223.8     freq=   237. Q=  1.955 lam=   453.4
  35     freq=   252. Q=  0.005 lam=     0.0     freq=   253. Q=  0.112 lam=     1.6
  36     freq=   264. Q= -0.699 lam=    64.5     freq=   270. Q= -0.647 lam=    56.5
  37     freq=   277. Q=  0.635 lam=    55.9     freq=   280. Q=  0.438 lam=    26.8
  38     freq=   291. Q=  5.100 lam=  3779.0     freq=   288. Q=  4.848 lam=  3388.9
  39     freq=   300. Q= -0.201 lam=     6.1     freq=   312. Q= -0.201 lam=     6.3
  40     freq=   311. Q= -0.117 lam=     2.1     freq=   315. Q= -0.625 lam=    61.4
  41     freq=   334. Q= -1.661 lam=   459.9     freq=   332. Q= -3.022 lam=  1513.8
  42     freq=   344. Q= -1.050 lam=   189.6     freq=   345. Q= -0.861 lam=   128.2
  43     freq=   349. Q= -3.682 lam=  2368.3     freq=   351. Q= -3.189 lam=  1786.0
  44     freq=   365. Q=  0.967 lam=   170.5     freq=   364. Q=  1.994 lam=   724.2
  45     freq=   373. Q= -1.151 lam=   247.1     freq=   370. Q= -1.291 lam=   308.3
  46     freq=   394. Q= -0.244 lam=    11.7     freq=   390. Q= -0.457 lam=    40.7
  47     freq=   396. Q=  0.397 lam=    31.2     freq=   395. Q=  0.585 lam=    67.6
  48     freq=   409. Q=  2.365 lam=  1144.7     freq=   407. Q=  2.381 lam=  1155.1
  49     freq=   418. Q=  0.229 lam=    11.0     freq=   429. Q=  0.638 lam=    87.2
  50     freq=   428. Q= -0.291 lam=    18.2     freq=   432. Q= -1.489 lam=   479.1
  51     freq=   435. Q=  2.373 lam=  1225.5     freq=   436. Q=  1.064 lam=   246.9
  52     freq=   443. Q= -1.026 lam=   233.2     freq=   437. Q= -0.651 lam=    92.6
  53     freq=   443. Q=  0.320 lam=    22.8     freq=   444. Q=  1.411 lam=   442.2
  54     freq=   448. Q=  0.017 lam=     0.1     freq=   446. Q=  1.758 lam=   689.4
  55     freq=   454. Q= -2.752 lam=  1718.5     freq=   446. Q= -0.437 lam=    42.6
  56     freq=   464. Q= -0.098 lam=     2.2     freq=   462. Q= -0.113 lam=     3.0
  57     freq=   467. Q=  1.086 lam=   275.2     freq=   467. Q=  1.976 lam=   911.3
  58     freq=   471. Q=  2.638 lam=  1640.4     freq=   475. Q=  2.039 lam=   986.6
  59     freq=   499. Q= -0.737 lam=   135.4     freq=   478. Q= -1.510 lam=   544.6
  60     freq=   504. Q=  0.637 lam=   102.3     freq=   478. Q=  0.193 lam=     8.9
  61     freq=   504. Q= -0.384 lam=    37.2     freq=   503. Q= -0.225 lam=    12.7
  62     freq=   509. Q=  0.425 lam=    46.1     freq=   508. Q=  0.274 lam=    19.1
  63     freq=   517. Q=  0.031 lam=     0.2     freq=   512. Q=  0.180 lam=     8.3
  64     freq=   526. Q= -0.228 lam=    13.7     freq=   533. Q= -0.036 lam=     0.4
  65     freq=   534. Q= -0.001 lam=     0.0     freq=   535. Q= -0.419 lam=    46.9
  66     freq=   548. Q=  0.507 lam=    70.4     freq=   552. Q=  0.383 lam=    40.4
  67     freq=   560. Q= -0.037 lam=     0.4     freq=   556. Q= -0.088 lam=     2.1
  68     freq=   572. Q=  0.032 lam=     0.3     freq=   572. Q=  0.079 lam=     1.8
  69     freq=   580. Q= -0.024 lam=     0.2     freq=   577. Q= -0.042 lam=     0.5
  70     freq=   583. Q=  0.416 lam=    50.3     freq=   585. Q=  0.337 lam=    33.2
  71     freq=   592. Q=  0.449 lam=    59.7     freq=   585. Q=  0.094 lam=     2.6
  72     freq=   597. Q= -0.081 lam=     2.0     freq=   595. Q= -0.464 lam=    64.0
  73     freq=   605. Q=  0.431 lam=    56.3     freq=   605. Q=  0.309 lam=    28.8
  74     freq=   624. Q= -0.042 lam=     0.5     freq=   623. Q= -0.006 lam=     0.0
  75     freq=   626. Q= -0.012 lam=     0.0     freq=   630. Q= -0.060 lam=     1.1
  76     freq=   636. Q= -0.006 lam=     0.0     freq=   633. Q= -0.026 lam=     0.2
  77     freq=   647. Q=  0.028 lam=     0.2     freq=   646. Q=  0.009 lam=     0.0
  78     freq=   659. Q=  0.215 lam=    15.2     freq=   657. Q=  0.232 lam=    17.7
  79     freq=   662. Q= -0.038 lam=     0.5     freq=   660. Q= -0.033 lam=     0.4
  80     freq=   667. Q=  0.049 lam=     0.8     freq=   667. Q=  0.043 lam=     0.6
  81     freq=   690. Q= -0.126 lam=     5.4     freq=   688. Q= -0.034 lam=     0.4
  82     freq=   709. Q=  0.229 lam=    18.7     freq=   710. Q=  0.149 lam=     7.9
  83     freq=   713. Q=  0.009 lam=     0.0     freq=   714. Q=  0.006 lam=     0.0
  84     freq=   715. Q= -0.088 lam=     2.8     freq=   716. Q= -0.008 lam=     0.0
  85     freq=   730. Q= -0.167 lam=    10.2     freq=   724. Q= -0.180 lam=    11.7
  86     freq=   740. Q= -0.028 lam=     0.3     freq=   736. Q= -0.090 lam=     3.0
  87     freq=   741. Q=  0.020 lam=     0.1     freq=   740. Q=  0.088 lam=     2.9
  88     freq=   748. Q= -0.172 lam=    11.1     freq=   749. Q= -0.003 lam=     0.0
  89     freq=   758. Q=  0.049 lam=     0.9     freq=   753. Q=  0.039 lam=     0.6
  90     freq=   758. Q= -0.128 lam=     6.2     freq=   760. Q= -0.119 lam=     5.4
  91     freq=   770. Q=  0.170 lam=    11.1     freq=   770. Q=  0.135 lam=     7.0
  92     freq=   786. Q=  0.136 lam=     7.3     freq=   784. Q=  0.166 lam=    10.8
  93     freq=   802. Q= -0.073 lam=     2.2     freq=   795. Q= -0.036 lam=     0.5
  94     freq=   808. Q= -0.207 lam=    17.2     freq=   802. Q= -0.167 lam=    11.2
  95     freq=   810. Q=  0.333 lam=    44.9     freq=   806. Q=  0.350 lam=    49.3
  96     freq=   815. Q=  0.059 lam=     1.4     freq=   811. Q=  0.074 lam=     2.2
  97     freq=   816. Q= -0.052 lam=     1.1     freq=   818. Q= -0.022 lam=     0.2
  98     freq=   820. Q=  0.082 lam=     2.8     freq=   821. Q=  0.039 lam=     0.6
  99     freq=   822. Q=  0.059 lam=     1.5     freq=   836. Q=  0.156 lam=    10.2
 100     freq=   825. Q= -0.000 lam=     0.0     freq=   845. Q= -0.101 lam=     4.3
 101     freq=   831. Q= -0.034 lam=     0.5     freq=   856. Q= -0.273 lam=    31.8
 102     freq=   837. Q=  0.191 lam=    15.2     freq=   860. Q=  0.021 lam=     0.2
 103     freq=   838. Q=  0.240 lam=    24.2     freq=   865. Q=  0.033 lam=     0.5
 104     freq=   849. Q=  0.076 lam=     2.4     freq=   866. Q=  0.001 lam=     0.0
 105     freq=   857. Q=  0.029 lam=     0.4     freq=   872. Q=  0.025 lam=     0.3
 106     freq=   861. Q= -0.040 lam=     0.7     freq=   873. Q= -0.007 lam=     0.0
 107     freq=   903. Q=  0.008 lam=     0.0     freq=   906. Q=  0.002 lam=     0.0
 108     freq=   908. Q=  0.164 lam=    12.2     freq=   908. Q=  0.142 lam=     9.2
 109     freq=   919. Q= -0.252 lam=    29.1     freq=   918. Q= -0.172 lam=    13.6
 110     freq=   930. Q=  0.276 lam=    35.4     freq=   926. Q=  0.194 lam=    17.5
 111     freq=   943. Q=  1.471 lam=  1019.4     freq=   946. Q=  1.362 lam=   877.5
 112     freq=   950. Q=  0.002 lam=     0.0     freq=   951. Q=  0.002 lam=     0.0
 113     freq=   955. Q= -2.055 lam=  2017.8     freq=   957. Q= -0.063 lam=     1.9
 114     freq=   957. Q= -0.011 lam=     0.1     freq=   957. Q= -2.159 lam=  2232.1
 115     freq=   962. Q= -0.010 lam=     0.0     freq=   965. Q= -0.011 lam=     0.1
 116     freq=   970. Q= -0.009 lam=     0.0     freq=   974. Q= -0.019 lam=     0.2
 117     freq=   973. Q= -0.141 lam=     9.7     freq=   978. Q= -0.246 lam=    29.6
 118     freq=   973. Q=  0.027 lam=     0.4     freq=   984. Q=  0.138 lam=     9.3
 119     freq=   975. Q= -0.164 lam=    13.1     freq=   995. Q= -0.017 lam=     0.1
 120     freq=   983. Q= -0.046 lam=     1.0     freq=   996. Q= -0.077 lam=     2.9
 121     freq=   986. Q= -0.015 lam=     0.1     freq=   999. Q= -0.015 lam=     0.1
 122     freq=   987. Q=  0.334 lam=    55.1     freq=  1004. Q=  0.038 lam=     0.7
 123     freq=   997. Q=  0.171 lam=    14.5     freq=  1008. Q=  0.002 lam=     0.0
 124     freq=  1024. Q= -0.199 lam=    20.2     freq=  1022. Q= -0.531 lam=   143.8
 125     freq=  1031. Q=  0.515 lam=   136.9     freq=  1026. Q=  0.251 lam=    32.2
 126     freq=  1066. Q=  0.149 lam=    11.9     freq=  1065. Q=  0.050 lam=     1.4
 127     freq=  1079. Q= -0.156 lam=    13.2     freq=  1081. Q= -0.115 lam=     7.1
 128     freq=  1082. Q= -0.578 lam=   180.7     freq=  1102. Q= -0.377 lam=    78.4
 129     freq=  1094. Q= -0.121 lam=     8.0     freq=  1107. Q= -0.049 lam=     1.3
 130     freq=  1107. Q= -0.057 lam=     1.8     freq=  1116. Q= -0.026 lam=     0.4
 131     freq=  1146. Q= -0.122 lam=     8.6     freq=  1154. Q= -0.059 lam=     2.0
 132     freq=  1152. Q= -0.155 lam=    13.9     freq=  1154. Q= -0.073 lam=     3.0
 133     freq=  1155. Q=  1.382 lam=  1102.4     freq=  1156. Q=  1.505 lam=  1309.5
 134     freq=  1158. Q=  0.334 lam=    64.7     freq=  1164. Q=  0.352 lam=    72.1
 135     freq=  1164. Q= -0.025 lam=     0.4     freq=  1165. Q= -0.006 lam=     0.0
 136     freq=  1164. Q= -0.002 lam=     0.0     freq=  1168. Q= -0.628 lam=   230.5
 137     freq=  1174. Q=  0.395 lam=    91.6     freq=  1179. Q=  0.545 lam=   175.3
 138     freq=  1188. Q= -1.342 lam=  1070.1     freq=  1196. Q= -1.426 lam=  1215.5
 139     freq=  1190. Q=  0.215 lam=    27.5     freq=  1197. Q=  0.213 lam=    27.3
 140     freq=  1196. Q= -0.680 lam=   276.6     freq=  1205. Q= -0.884 lam=   471.2
 141     freq=  1199. Q=  0.986 lam=   583.3     freq=  1211. Q=  0.346 lam=    72.7
 142     freq=  1205. Q=  0.174 lam=    18.2     freq=  1215. Q=  0.202 lam=    24.9
 143     freq=  1220. Q=  0.438 lam=   117.1     freq=  1220. Q=  0.936 lam=   535.0
 144     freq=  1226. Q= -0.840 lam=   432.9     freq=  1223. Q= -0.218 lam=    29.1
 145     freq=  1230. Q= -0.327 lam=    65.9     freq=  1230. Q= -0.459 lam=   129.3
 146     freq=  1236. Q=  0.569 lam=   200.1     freq=  1241. Q=  0.722 lam=   323.2
 147     freq=  1247. Q= -0.138 lam=    11.8     freq=  1249. Q= -0.325 lam=    66.1
 148     freq=  1265. Q=  0.016 lam=     0.2     freq=  1271. Q=  0.282 lam=    50.6
 149     freq=  1280. Q=  0.039 lam=     1.0     freq=  1275. Q=  0.354 lam=    80.1
 150     freq=  1280. Q=  0.010 lam=     0.1     freq=  1281. Q=  0.015 lam=     0.1
 151     freq=  1298. Q= -0.580 lam=   218.1     freq=  1305. Q= -0.175 lam=    20.0
 152     freq=  1304. Q=  0.626 lam=   255.9     freq=  1317. Q=  0.029 lam=     0.6
 153     freq=  1318. Q= -0.026 lam=     0.4     freq=  1323. Q= -0.428 lam=   121.2
 154     freq=  1328. Q= -0.349 lam=    81.0     freq=  1331. Q= -0.302 lam=    60.7
 155     freq=  1337. Q= -0.182 lam=    22.0     freq=  1336. Q= -0.041 lam=     1.1
 156     freq=  1341. Q=  0.075 lam=     3.8     freq=  1340. Q=  0.373 lam=    93.2
 157     freq=  1346. Q= -0.010 lam=     0.1     freq=  1342. Q= -0.134 lam=    12.1
 158     freq=  1358. Q=  0.050 lam=     1.7     freq=  1349. Q=  0.025 lam=     0.4
 159     freq=  1363. Q=  0.114 lam=     8.9     freq=  1368. Q=  0.022 lam=     0.3
 160     freq=  1368. Q=  0.034 lam=     0.8     freq=  1370. Q=  0.136 lam=    12.7
 161     freq=  1372. Q=  0.278 lam=    53.0     freq=  1374. Q=  0.264 lam=    47.7
 162     freq=  1384. Q= -4.937 lam= 16866.9     freq=  1376. Q= -0.578 lam=   229.7
 163     freq=  1393. Q=  0.094 lam=     6.2     freq=  1381. Q=  5.966 lam= 24575.5
 164     freq=  1393. Q=  0.039 lam=     1.1     freq=  1403. Q=  1.546 lam=  1676.9
 165     freq=  1397. Q=  3.850 lam= 10355.4     freq=  1406. Q=  0.242 lam=    41.2
 166     freq=  1410. Q= -0.222 lam=    34.8     freq=  1420. Q= -0.063 lam=     2.8
 167     freq=  1424. Q= -0.836 lam=   497.8     freq=  1428. Q= -0.164 lam=    19.2
 168     freq=  1430. Q= -0.337 lam=    81.2     freq=  1434. Q= -0.133 lam=    12.7
 169     freq=  1438. Q= -0.619 lam=   275.6     freq=  1439. Q= -0.881 lam=   558.6
 170     freq=  1444. Q= -0.034 lam=     0.8     freq=  1445. Q= -0.022 lam=     0.3
 171     freq=  1458. Q= -0.005 lam=     0.0     freq=  1454. Q= -0.060 lam=     2.7
 172     freq=  1463. Q= -0.097 lam=     6.9     freq=  1464. Q= -0.016 lam=     0.2
 173     freq=  1465. Q=  0.034 lam=     0.8     freq=  1465. Q=  0.046 lam=     1.6
 174     freq=  1470. Q= -0.051 lam=     1.9     freq=  1473. Q= -0.074 lam=     4.0
 175     freq=  1471. Q= -0.029 lam=     0.6     freq=  1477. Q= -0.241 lam=    42.7
 176     freq=  1477. Q= -0.041 lam=     1.3     freq=  1486. Q= -0.012 lam=     0.1
 177     freq=  1483. Q=  0.083 lam=     5.1     freq=  1486. Q=  1.087 lam=   878.2
 178     freq=  1484. Q= -1.193 lam=  1055.1     freq=  1490. Q= -0.013 lam=     0.1
 179     freq=  1487. Q=  0.004 lam=     0.0     freq=  1499. Q=  0.104 lam=     8.2
 180     freq=  1495. Q=  0.060 lam=     2.7     freq=  1505. Q=  0.309 lam=    71.9
 181     freq=  1507. Q=  0.218 lam=    35.8     freq=  1506. Q=  0.016 lam=     0.2
 182     freq=  1524. Q=  0.223 lam=    38.0     freq=  1522. Q=  0.193 lam=    28.4
 183     freq=  1535. Q=  0.119 lam=    10.8     freq=  1537. Q=  0.000 lam=     0.0
 184     freq=  1537. Q= -0.020 lam=     0.3     freq=  1538. Q= -0.005 lam=     0.0
 185     freq=  1541. Q= -0.144 lam=    16.1     freq=  1544. Q= -0.055 lam=     2.4
 186     freq=  1561. Q= -0.057 lam=     2.5     freq=  1560. Q= -0.004 lam=     0.0
 187     freq=  1573. Q= -0.013 lam=     0.1     freq=  1562. Q= -0.031 lam=     0.8
 188     freq=  1574. Q= -0.006 lam=     0.0     freq=  1603. Q= -0.281 lam=    63.1
 189     freq=  1581. Q=  0.021 lam=     0.4     freq=  1608. Q=  0.067 lam=     3.6
 190     freq=  1593. Q=  0.018 lam=     0.3     freq=  1618. Q=  0.265 lam=    56.8
 191     freq=  1613. Q=  0.022 lam=     0.4     freq=  1627. Q=  0.464 lam=   174.9
 192     freq=  1620. Q= -0.397 lam=   127.8     freq=  1629. Q= -0.068 lam=     3.8
 193     freq=  1623. Q= -0.393 lam=   125.1     freq=  1633. Q= -0.177 lam=    25.6
 194     freq=  1631. Q= -0.263 lam=    56.5     freq=  1647. Q= -0.019 lam=     0.3
 195     freq=  1679. Q=  0.095 lam=     7.5     freq=  1719. Q=  0.081 lam=     5.7
 196     freq=  1706. Q= -0.002 lam=     0.0     freq=  1726. Q= -0.000 lam=     0.0
 197     freq=  1715. Q=  0.018 lam=     0.3     freq=  1757. Q=  0.257 lam=    57.9
 198     freq=  1737. Q=  0.508 lam=   224.4     freq=  1763. Q=  0.097 lam=     8.4
 199     freq=  3028. Q= -0.012 lam=     0.2     freq=  3037. Q= -0.024 lam=     0.9
 200     freq=  3033. Q=  0.019 lam=     0.6     freq=  3041. Q=  0.007 lam=     0.1
 201     freq=  3045. Q= -0.001 lam=     0.0     freq=  3042. Q= -0.005 lam=     0.0
 202     freq=  3076. Q=  0.000 lam=     0.0     freq=  3073. Q=  0.000 lam=     0.0
 203     freq=  3085. Q=  0.019 lam=     0.6     freq=  3096. Q=  0.003 lam=     0.0
 204     freq=  3088. Q= -0.003 lam=     0.0     freq=  3099. Q= -0.023 lam=     0.8
 205     freq=  3108. Q=  0.005 lam=     0.0     freq=  3115. Q=  0.007 lam=     0.1
 206     freq=  3131. Q=  0.183 lam=    52.3     freq=  3134. Q=  0.180 lam=    50.8
 207     freq=  3141. Q= -0.001 lam=     0.0     freq=  3145. Q= -0.001 lam=     0.0
 208     freq=  3174. Q=  0.030 lam=     1.5     freq=  3181. Q=  0.022 lam=     0.8
 209     freq=  3190. Q=  0.001 lam=     0.0     freq=  3197. Q=  0.004 lam=     0.0
 210     freq=  3190. Q= -0.000 lam=     0.0     freq=  3197. Q= -0.002 lam=     0.0
 211     freq=  3194. Q=  0.032 lam=     1.6     freq=  3202. Q=  0.034 lam=     1.8
 212     freq=  3196. Q=  0.001 lam=     0.0     freq=  3204. Q=  0.001 lam=     0.0
 213     freq=  3197. Q= -0.001 lam=     0.0     freq=  3204. Q= -0.000 lam=     0.0
 214     freq=  3206. Q= -0.001 lam=     0.0     freq=  3211. Q= -0.000 lam=     0.0
 215     freq=  3207. Q= -0.001 lam=     0.0     freq=  3211. Q= -0.000 lam=     0.0
 216     freq=  3220. Q= -0.001 lam=     0.0     freq=  3219. Q= -0.002 lam=     0.0
 217     freq=  3220. Q=  0.003 lam=     0.0     freq=  3222. Q=  0.000 lam=     0.0
 218     freq=  3222. Q= -0.006 lam=     0.1     freq=  3222. Q= -0.000 lam=     0.0
 219     freq=  3234. Q= -0.005 lam=     0.0     freq=  3228. Q= -0.038 lam=     2.3
 220     freq=  3247. Q=  0.215 lam=    74.9     freq=  3237. Q=  0.119 lam=    22.9
 221     freq=  3248. Q=  0.188 lam=    57.1     freq=  3237. Q=  0.251 lam=   101.6
 222     freq=  3250. Q= -0.007 lam=     0.1     freq=  3242. Q= -0.008 lam=     0.1

 total reorg energy (cm**-1, kcal/mol)=    76706.    76697.    219.31    219.28
 Nber of molecules processed=           2
