 Enter ifcurve (0=recti, 1=orth curvi, 2=apprx curvi, -1 = skip
 And atom ordering flag, 0= never changes, 1= use the first order thenceforth,
  2= deduce it (does read on fail), 3= always read it
 Reading file: 
 ./CDT_1_C0S0.log                                                               
                                          
  Entering Gaussian System, Link 0=g16                                          
  
 Gaussian format, type: g94, g98, g03= F F F
  #P Geom=AllCheck Guess=TCheck SCRF=Check GenChk RB3LYP/6-311G(d,p) Fre    
 energy type= B3LYP   
 Original G94 input coords:
  6 -1.493629 -1.371932  0.263522
  6 -1.524273 -0.022851  0.610368
  6 -0.381492  0.760306  0.491140
  6  0.826789  0.209456  0.031941
  6  2.038657  1.020698 -0.107442
  6  3.089331  0.851246 -0.985454
  6  4.098728  1.827605 -0.834947
  6  5.425750  2.162469 -1.486163
  6  5.849635  3.393657 -0.710816
  6  6.946463  4.291836 -0.702313
  6  6.803946  5.266958  0.249101
 16  5.319201  5.104107  1.157791
  6  4.892524  3.704420  0.237691
  6  3.818852  2.745492  0.160273
 16  2.311944  2.421258  0.938406
  6  0.844994 -1.155933 -0.303281
  6 -0.302677 -1.932420 -0.195925
  1 -2.386049 -1.980508  0.353229
  1 -2.445064  0.426059  0.965771
  1 -0.429769  1.815219  0.736637
  1  3.101519  0.062906 -1.726746
  1  5.317459  2.368342 -2.556994
  1  6.149334  1.345454 -1.387761
  1  7.803921  4.233487 -1.360074
  1  7.474043  6.079307  0.483508
  1  1.772747 -1.612890 -0.626914
  1 -0.263472 -2.983716 -0.458968
 nber atoms=          27
  SCF Done:  E(RB3LYP) =  -1374.15707775     A.U. after    1 cycles             
  
          23          40 "  -1374.15707775"
After scan for Atom:   Atom  AN      X      Y      Z        X      Y      Z        X      Y      Z   
After scan for Atom:   Atom  AN      X      Y      Z        X      Y      Z        X      Y      Z   
After scan for Atom:   Atom  AN      X      Y      Z        X      Y      Z        X      Y      Z   
After scan for Atom:   Atom  AN      X      Y      Z        X      Y      Z        X      Y      Z   
After scan for Atom:   Atom  AN      X      Y      Z        X      Y      Z        X      Y      Z   
After scan for Atom:   Atom  AN      X      Y      Z        X      Y      Z        X      Y      Z   
After scan for Atom:   Atom  AN      X      Y      Z        X      Y      Z        X      Y      Z   
After scan for Atom:   Atom  AN      X      Y      Z        X      Y      Z        X      Y      Z   
After scan for Atom:   Atom  AN      X      Y      Z        X      Y      Z        X      Y      Z   
After scan for Atom:   Atom  AN      X      Y      Z        X      Y      Z        X      Y      Z   
After scan for Atom:   Atom  AN      X      Y      Z        X      Y      Z        X      Y      Z   
After scan for Atom:   Atom  AN      X      Y      Z        X      Y      Z        X      Y      Z   
After scan for Atom:   Atom  AN      X      Y      Z        X      Y      Z        X      Y      Z   
After scan for Atom:   Atom  AN      X      Y      Z        X      Y      Z        X      Y      Z   
After scan for Atom:   Atom  AN      X      Y      Z        X      Y      Z        X      Y      Z   
After scan for Atom:   Atom  AN      X      Y      Z        X      Y      Z        X      Y      Z   
After scan for Atom:   Atom  AN      X      Y      Z        X      Y      Z        X      Y      Z   
After scan for Atom:   Atom  AN      X      Y      Z        X      Y      Z        X      Y      Z   
After scan for Atom:   Atom  AN      X      Y      Z        X      Y      Z        X      Y      Z   
After scan for Atom:   Atom  AN      X      Y      Z        X      Y      Z        X      Y      Z   
After scan for Atom:   Atom  AN      X      Y      Z        X      Y      Z        X      Y      Z   
After scan for Atom:   Atom  AN      X      Y      Z        X      Y      Z        X      Y      Z   
After scan for Atom:   Atom  AN      X      Y      Z        X      Y      Z        X      Y      Z   
After scan for Atom:   Atom  AN      X      Y      Z        X      Y      Z        X      Y      Z   
After scan for Atom:   Atom  AN      X      Y      Z        X      Y      Z        X      Y      Z   
 g94    frequencies=
     0.0    0.0    0.0    0.0    0.0    0.0   39.5   45.2   78.4  124.3
   143.8  186.4  224.5  253.3  259.4  289.9  357.1  414.2  435.9  466.7
   476.8  516.0  556.2  570.4  585.1  608.3  632.4  633.8  658.9  696.3
   698.1  708.3  713.6  773.6  816.9  847.5  850.1  876.5  919.8  924.0
   936.5  958.0  977.9  999.2 1001.5 1013.7 1028.5 1053.4 1103.9 1109.7
  1148.8 1174.4 1182.9 1206.5 1211.9 1234.1 1267.5 1317.1 1357.0 1361.4
  1403.9 1423.1 1439.5 1457.6 1468.4 1478.9 1519.5 1531.8 1556.0 1613.3
  1641.0 3027.3 3054.9 3160.5 3166.7 3176.8 3183.1 3191.1 3199.1 3200.6
  3246.0
 g94    symmetries=
                                                 A      A      A      A
       A      A      A      A      A      A      A      A      A      A
       A      A      A      A      A      A      A      A      A      A
       A      A      A      A      A      A      A      A      A      A
       A      A      A      A      A      A      A      A      A      A
       A      A      A      A      A      A      A      A      A      A
       A      A      A      A      A      A      A      A      A      A
       A      A      A      A      A      A      A      A      A      A
       A
 atomic masses:
 12.0000 12.0000 12.0000 12.0000 12.0000 12.0000 12.0000 12.0000 12.0000 12.0000
 12.0000 31.9721 12.0000 12.0000 31.9721 12.0000 12.0000  1.0078  1.0078  1.0078
  1.0078  1.0078  1.0078  1.0078  1.0078  1.0078  1.0078
 looking for force constants in 
 ./CDT_1_C0S0.fchk                                                              
  
 Cartesian Force Constants                  R   N=        3321                  
  
 n3=          81        3321
 g94-fc frequencies=
    -3.1   -1.0   -0.0    0.0    0.0    2.2   39.5   45.2   78.4  124.3
   143.8  186.4  224.5  253.3  259.4  289.9  357.1  414.2  435.9  466.7
   476.8  516.0  556.2  570.4  585.1  608.3  632.4  633.8  658.9  696.3
   698.2  708.3  713.6  773.6  817.0  847.5  850.1  876.5  919.8  924.1
   936.5  958.0  977.9  999.3 1001.5 1013.8 1028.5 1053.4 1103.9 1109.7
  1148.8 1174.5 1183.0 1206.5 1212.0 1234.1 1267.5 1317.2 1357.1 1361.4
  1403.9 1423.2 1439.5 1457.6 1468.4 1478.9 1519.5 1531.8 1556.0 1613.3
  1641.1 3027.4 3054.9 3160.6 3166.8 3176.8 3183.1 3191.2 3199.2 3200.6
  3246.0
 at 99999: n3=          81
 symm operator            1 :  F  nop=           0
 symm operator            2 :  F  nop=           0
 symm operator            3 :  F  nop=           0
 symm operator            4 :  F  nop=           0
 symm operator            5 :  F  nop=           0
 symm operator            6 :  F  nop=           0
 symm operator            7 :  F  nop=           0
 The point group of the molecule is  C1
 Symmetry rotation matrix:
   1.00000   0.00000   0.00000
   0.00000   1.00000   0.00000
   0.00000   0.00000   1.00000

 Projecting out zero-frequency components
 generating redundant internal coords
         300        3600          27
 search for int coords
   1 str   2   1   1.393
   2 str   3   2   1.391
   3 str   4   3   1.405
   4 str   5   4   1.465
   5 str   6   5   1.380
   6 str   7   6   1.412
   7 str   8   7   1.516
   8 str   9   8   1.515
   9 str  10   9   1.418
  10 str  11  10   1.370
  11 str  12  11   1.748
  12 str  13   9   1.383
  13 str  13  12   1.729
  14 str  14   7   1.383
  15 str  14  13   1.442
  16 str  15   5   1.769
  17 str  15  14   1.727
  18 str  16   4   1.406
  19 str  17   1   1.394
  20 str  17  16   1.390
  21 str  18   1   1.084
  22 str  19   2   1.084
  23 str  20   3   1.084
  24 str  21   6   1.082
  25 str  22   8   1.096
  26 str  23   8   1.096
  27 str  24  10   1.082
  28 str  25  11   1.079
  29 str  26  16   1.084
  30 str  27  17   1.084
 nber stretches=          30
  31 ben   1   2   3
  32 prop tor   1   2   3   4
  33 prop tor   1   2   3  20
  34 ben   1   2  19
  35 ben   1  17  16
  36 ben   1  17  27
  37 ben   2   1  17
  38 prop tor   2   1  17  16
  39 prop tor   2   1  17  27
  40 ben   2   1  18
  41 ben   2   3   4
  42 prop tor   2   3   4   5
  43 prop tor   2   3   4  16
  44 ben   2   3  20
  45 ben   3   2  19
  46 ben   3   4   5
  47 prop tor   3   4   5   6
  48 prop tor   3   4   5  15
  49 ben   3   4  16
  50 prop tor   3   4  16  17
  51 prop tor   3   4  16  26
  52 ben   4   3  20
  53 ben   4   5   6
  54 prop tor   4   5   6   7
  55 prop tor   4   5   6  21
  56 ben   4   5  15
  57 prop tor   4   5  15  14
  58 ben   4  16  17
  59 prop tor   4  16  17   1
  60 prop tor   4  16  17  27
  61 ben   4  16  26
  62 ben   5   4  16
  63 prop tor   5   4  16  17
  64 prop tor   5   4  16  26
  65 ben   5   6   7
  66 prop tor   5   6   7   8
  67 prop tor   5   6   7  14
  68 ben   5   6  21
  69 ben   5  15  14
  70 ben   6   5  15
  71 prop tor   6   5  15  14
  72 ben   6   7   8
  73 prop tor   6   7   8   9
  74 prop tor   6   7   8  22
  75 prop tor   6   7   8  23
  76 ben   6   7  14
  77 prop tor   6   7  14  13
  78 prop tor   6   7  14  15
  79 ben   7   6  21
  80 ben   7   8   9
  81 prop tor   7   8   9  10
  82 prop tor   7   8   9  13
  83 ben   7   8  22
  84 ben   7   8  23
  85 ben   7  14  13
  86 ben   7  14  15
  87 prop tor   7  14  15   5
  88 ben   8   7  14
  89 prop tor   8   7  14  13
  90 prop tor   8   7  14  15
  91 ben   8   9  10
  92 prop tor   8   9  10  11
  93 prop tor   8   9  10  24
  94 ben   8   9  13
  95 prop tor   8   9  13  12
  96 prop tor   8   9  13  14
  97 ben   9   8  22
  98 ben   9   8  23
  99 ben   9  10  11
 100 prop tor   9  10  11  12
 101 prop tor   9  10  11  25
 102 ben   9  10  24
 103 ben   9  13  12
 104 ben   9  13  14
 105 prop tor   9  13  14   7
 106 prop tor   9  13  14  15
 107 ben  10   9  13
 108 prop tor  10   9  13  12
 109 prop tor  10   9  13  14
 110 ben  10  11  12
 111 prop tor  10  11  12  13
 112 ben  10  11  25
 113 ben  11  10  24
 114 ben  11  12  13
 115 prop tor  11  12  13   9
 116 prop tor  11  12  13  14
 117 ben  12  11  25
 118 ben  12  13  14
 119 prop tor  12  13  14   7
 120 prop tor  12  13  14  15
 121 prop tor  13   9  10  11
 122 prop tor  13   9  10  24
 123 ben  13  14  15
 124 prop tor  13  14  15   5
 125 prop tor  14   7   8   9
 126 prop tor  14   7   8  22
 127 prop tor  14   7   8  23
 128 prop tor  15   5   6   7
 129 prop tor  15   5   6  21
 130 prop tor  16   4   5   6
 131 prop tor  16   4   5  15
 132 ben  16  17  27
 133 prop tor  17   1   2   3
 134 prop tor  17   1   2  19
 135 ben  17   1  18
 136 ben  17  16  26
 137 prop tor  18   1   2   3
 138 prop tor  18   1   2  19
 139 prop tor  18   1  17  16
 140 prop tor  18   1  17  27
 141 prop tor  19   2   3   4
 142 prop tor  19   2   3  20
 143 prop tor  20   3   4   5
 144 prop tor  20   3   4  16
 145 prop tor  21   6   7   8
 146 prop tor  21   6   7  14
 147 prop tor  22   8   9  10
 148 prop tor  22   8   9  13
 149 ben  22   8  23
 150 prop tor  23   8   9  10
 151 prop tor  23   8   9  13
 152 prop tor  24  10  11  12
 153 prop tor  24  10  11  25
 154 prop tor  25  11  12  13
 155 prop tor  26  16  17   1
 156 prop tor  26  16  17  27
 nber bend=              50
 nber lin bend=           0
 nber prop tor=          76
 nber impr tor=           0
 nber tot redund int=         156
 Eigenvalues of G in red int coords
    Gval -0.00000000 -0.00000000 -0.00000000 -0.00000000 -0.00000000 -0.00000000 -0.00000000 -0.00000000
    Gval -0.00000000 -0.00000000 -0.00000000 -0.00000000 -0.00000000 -0.00000000 -0.00000000 -0.00000000
    Gval -0.00000000 -0.00000000 -0.00000000 -0.00000000 -0.00000000 -0.00000000 -0.00000000 -0.00000000
    Gval -0.00000000 -0.00000000 -0.00000000 -0.00000000 -0.00000000 -0.00000000 -0.00000000 -0.00000000
    Gval -0.00000000 -0.00000000 -0.00000000 -0.00000000 -0.00000000 -0.00000000 -0.00000000 -0.00000000
    Gval -0.00000000  0.00000000  0.00000000  0.00000000  0.00000000  0.00000000  0.00000000  0.00000000
    Gval  0.00000000  0.00000000  0.00000000  0.00000000  0.00000000  0.00000000  0.00000000  0.00000000
    Gval  0.00000000  0.00000000  0.00000000  0.00000000  0.00000000  0.00000000  0.00000000  0.00000000
    Gval  0.00000000  0.00000000  0.00000000  0.00000000  0.00000000  0.00000000  0.00000000  0.00000000
    Gval  0.00000000  0.00000000  0.00000000  0.00000000  0.00000000  0.00000000  0.00000000  0.00000000
    Gval  0.00000000  0.00000187  0.00000428  0.00000666  0.00001060  0.00001762  0.00002359  0.00002467
    Gval  0.00002721  0.00003891  0.00004466  0.00004873  0.00005342  0.00005622  0.00006386  0.00006509
    Gval  0.00007535  0.00007683  0.00009289  0.00009475  0.00010476  0.00010714  0.00011787  0.00012811
    Gval  0.00013442  0.00016279  0.00019311  0.00020362  0.00023121  0.00027089  0.00028450  0.00030209
    Gval  0.00030251  0.00035463  0.00036699  0.00037311  0.00038295  0.00040892  0.00042959  0.00053624
    Gval  0.00058329  0.00059153  0.00059306  0.00059540  0.00059676  0.00060433  0.00062072  0.00062365
    Gval  0.00062594  0.00065384  0.00066080  0.00103238  0.00105078  0.00108137  0.00110529  0.00110879
    Gval  0.00113831  0.00114187  0.00117002  0.00117252  0.00118435  0.00133672  0.00137735  0.00145211
    Gval  0.00166005  0.00186157  0.00195880  0.00208947  0.00234056  0.00266455  0.00302540  0.00311355
    Gval  0.00371020  0.00373239  0.00406724  0.00408090
  1.866639019464604E-006  1.866639019464604E-006
  4.280026127672071E-006  1.866639019464604E-006
  6.664286171879384E-006  1.866639019464604E-006
  1.060086036019329E-005  1.866639019464604E-006
  1.761597169956475E-005  1.866639019464604E-006
  2.359419099210610E-005  1.866639019464604E-006
  2.466771296301410E-005  1.866639019464604E-006
  2.720921602627495E-005  1.866639019464604E-006
  3.890535332324974E-005  1.866639019464604E-006
  4.466404185495579E-005  1.866639019464604E-006
  4.873059426978046E-005  1.866639019464604E-006
  5.341934478789091E-005  1.866639019464604E-006
  5.621553873340900E-005  1.866639019464604E-006
  6.386466011762636E-005  1.866639019464604E-006
  6.509201155203061E-005  1.866639019464604E-006
  7.534659253361161E-005  1.866639019464604E-006
  7.682764133132110E-005  1.866639019464604E-006
  9.288945300782224E-005  1.866639019464604E-006
  9.475285678943808E-005  1.866639019464604E-006
  1.047573214621957E-004  1.866639019464604E-006
  1.071377021262062E-004  1.866639019464604E-006
  1.178738350508199E-004  1.866639019464604E-006
  1.281118774418735E-004  1.866639019464604E-006
  1.344226532256920E-004  1.866639019464604E-006
  1.627892502773812E-004  1.866639019464604E-006
  1.931066019546540E-004  1.866639019464604E-006
  2.036238080472579E-004  1.866639019464604E-006
  2.312066458844502E-004  1.866639019464604E-006
  2.708851291792528E-004  1.866639019464604E-006
  2.844981313392770E-004  1.866639019464604E-006
  3.020915388119044E-004  1.866639019464604E-006
  3.025135577257179E-004  1.866639019464604E-006
  3.546270393710789E-004  1.866639019464604E-006
  3.669947273046706E-004  1.866639019464604E-006
  3.731140065466053E-004  1.866639019464604E-006
  3.829525872348139E-004  1.866639019464604E-006
  4.089179865679603E-004  1.866639019464604E-006
  4.295895876006692E-004  1.866639019464604E-006
  5.362382690371647E-004  1.866639019464604E-006
  5.832897784118785E-004  1.866639019464604E-006
  5.915282349673902E-004  1.866639019464604E-006
  5.930635941792616E-004  1.866639019464604E-006
  5.954026561058762E-004  1.866639019464604E-006
  5.967627822685955E-004  1.866639019464604E-006
  6.043349786339810E-004  1.866639019464604E-006
  6.207245737849889E-004  1.866639019464604E-006
  6.236532982686536E-004  1.866639019464604E-006
  6.259448381336840E-004  1.866639019464604E-006
  6.538406346650825E-004  1.866639019464604E-006
  6.608042762523914E-004  1.866639019464604E-006
  1.032384271937560E-003  1.866639019464604E-006
  1.050781178213023E-003  1.866639019464604E-006
  1.081370496034418E-003  1.866639019464604E-006
  1.105293490793179E-003  1.866639019464604E-006
  1.108794484066277E-003  1.866639019464604E-006
  1.138312525837525E-003  1.866639019464604E-006
  1.141869127385880E-003  1.866639019464604E-006
  1.170019065566038E-003  1.866639019464604E-006
  1.172516279507921E-003  1.866639019464604E-006
  1.184351777548620E-003  1.866639019464604E-006
  1.336716395125152E-003  1.866639019464604E-006
  1.377347231392728E-003  1.866639019464604E-006
  1.452111144643065E-003  1.866639019464604E-006
  1.660054260034541E-003  1.866639019464604E-006
  1.861566840774346E-003  1.866639019464604E-006
  1.958796811145326E-003  1.866639019464604E-006
  2.089470294520107E-003  1.866639019464604E-006
  2.340560453908749E-003  1.866639019464604E-006
  2.664545035842349E-003  1.866639019464604E-006
  3.025400712210617E-003  1.866639019464604E-006
  3.113551248662054E-003  1.866639019464604E-006
  3.710202817432346E-003  1.866639019464604E-006
  3.732391707264633E-003  1.866639019464604E-006
  4.067242070191652E-003  1.866639019464604E-006
  4.080902071972202E-003  1.866639019464604E-006
 cut=1d-8, nber non-redundant internal coords=          75
 Check on Eigenvals of non-red overlap matrix:
  0.00000187  0.00000428  0.00000666  0.00001060  0.00001762  0.00002359  0.00002467  0.00002721
  0.00003891  0.00004466  0.00004873  0.00005342  0.00005622  0.00006386  0.00006509  0.00007535
  0.00007683  0.00009289  0.00009475  0.00010476  0.00010714  0.00011787  0.00012811  0.00013442
  0.00016279  0.00019311  0.00020362  0.00023121  0.00027089  0.00028450  0.00030209  0.00030251
  0.00035463  0.00036699  0.00037311  0.00038295  0.00040892  0.00042959  0.00053624  0.00058329
  0.00059153  0.00059306  0.00059540  0.00059676  0.00060433  0.00062072  0.00062365  0.00062594
  0.00065384  0.00066080  0.00103238  0.00105078  0.00108137  0.00110529  0.00110879  0.00113831
  0.00114187  0.00117002  0.00117252  0.00118435  0.00133672  0.00137735  0.00145211  0.00166005
  0.00186157  0.00195880  0.00208947  0.00234056  0.00266455  0.00302540  0.00311355  0.00371020
  0.00373239  0.00406724  0.00408090
 Checking for correct frequencies
 recalc frequencies=
    -0.0    0.0    0.0    0.0    0.0    0.0   39.5   45.2   78.4  124.3
   143.8  186.4  224.5  253.3  259.4  289.9  357.1  414.2  435.9  466.7
   476.8  516.0  556.2  570.4  585.1  608.3  632.4  633.8  658.9  696.3
   698.2  708.3  713.6  773.6  817.0  847.5  850.1  876.5  919.8  924.1
   936.5  958.0  977.9  999.3 1001.5 1013.8 1028.5 1053.4 1103.9 1109.7
  1148.8 1174.5 1183.0 1206.5 1212.0 1234.1 1267.5 1317.2 1357.1 1361.4
  1403.9 1423.2 1439.5 1457.6 1468.4 1478.9 1519.5 1531.8 1556.0 1613.3
  1641.1 3027.4 3054.9 3160.6 3166.8 3176.8 3183.1 3191.2 3199.2 3200.6
  3246.0
 recalc symmetries=
                                                                       
                                                                       
                                                                       
                                                                       
                                                                       
                                                                       
                                                                       
                                                                       
        
 recalc freqs check OK
 Zero-point lengths:
 10.0000 10.0000 10.0000 10.0000 10.0000 10.0000 39.4419 36.8823 27.9982 22.2377
 20.6758 18.1574 16.5464 15.5755 15.3913 14.5600 13.1189 12.1811 11.8741 11.4756
 11.3531 10.9136 10.5119 10.3801 10.2489 10.0517  9.8584  9.8474  9.6581  9.3949
  9.3825  9.3152  9.2802  8.9131  8.6735  8.5156  8.5026  8.3736  8.1743  8.1554
  8.1011  8.0097  7.9278  7.8425  7.8337  7.7862  7.7302  7.6382  7.4614  7.4420
  7.3143  7.2340  7.2079  7.1373  7.1212  7.0569  6.9633  6.8309  6.7297  6.7190
  6.6164  6.5715  6.5342  6.4934  6.4695  6.4465  6.3599  6.3342  6.2847  6.1722
  6.1197  4.5057  4.4853  4.4097  4.4054  4.3984  4.3941  4.3885  4.3830  4.3821
  4.3513
 highest evec of mol 1
 -0.0000 -0.0000 -0.0000
 -0.0001  0.0000  0.0000
  0.0000  0.0001  0.0000
 -0.0000 -0.0000 -0.0000
  0.0000  0.0001  0.0001
  0.0001 -0.0001 -0.0002
 -0.0001 -0.0003 -0.0002
 -0.0002 -0.0001  0.0000
  0.0057  0.0035 -0.0010
 -0.0483  0.0147  0.0470
 -0.1713 -0.2218 -0.0723
  0.0017 -0.0002 -0.0014
  0.0018  0.0028  0.0011
  0.0000  0.0003  0.0003
 -0.0001 -0.0000  0.0000
  0.0001 -0.0000 -0.0000
  0.0000 -0.0001 -0.0000
  0.0001  0.0001 -0.0000
  0.0003 -0.0001 -0.0001
  0.0000 -0.0003 -0.0001
  0.0000  0.0004  0.0004
 -0.0002 -0.0002 -0.0002
 -0.0001 -0.0003 -0.0001
  0.1434 -0.0121 -0.1121
  0.5799  0.7067  0.2060
 -0.0002  0.0001  0.0000
 -0.0000  0.0003  0.0001
 generating redundant internal coords
         300        3600          27
 Adding extra bonds for z output only
           6           6           6           6           6           6
           6           6           6           6           6          16
           6           6          16           6           6           1
           1           1           1           1           1           1
           1           1           1
 search for int coords
   1 str   2   1   1.393
   2 str   3   2   1.391
   3 str   4   3   1.405
   4 str   5   4   1.465
   5 str   6   5   1.380
   6 str   7   6   1.412
   7 str   8   7   1.516
   8 str   9   8   1.515
   9 str  10   9   1.418
  10 str  11  10   1.370
  11 str  12  11   1.748
  12 str  13   9   1.383
  13 str  13  12   1.729
  14 str  14   7   1.383
  15 str  14  13   1.442
  16 str  15   5   1.769
  17 str  15  14   1.727
  18 str  16   4   1.406
  19 str  17   1   1.394
  20 str  17  16   1.390
  21 str  18   1   1.084
  22 str  19   2   1.084
  23 str  20   3   1.084
  24 str  21   6   1.082
  25 str  22   8   1.096
  26 str  23   8   1.096
  27 str  24  10   1.082
  28 str  25  11   1.079
  29 str  26  16   1.084
  30 str  27  17   1.084
 nber stretches=          30
  31 ben   1   2   3
  32 prop tor   1   2   3   4
  33 prop tor   1   2   3  20
  34 ben   1   2  19
  35 ben   1  17  16
  36 ben   1  17  27
  37 ben   2   1  17
  38 prop tor   2   1  17  16
  39 prop tor   2   1  17  27
  40 ben   2   1  18
  41 ben   2   3   4
  42 prop tor   2   3   4   5
  43 prop tor   2   3   4  16
  44 ben   2   3  20
  45 ben   3   2  19
  46 ben   3   4   5
  47 prop tor   3   4   5   6
  48 prop tor   3   4   5  15
  49 ben   3   4  16
  50 prop tor   3   4  16  17
  51 prop tor   3   4  16  26
  52 ben   4   3  20
  53 ben   4   5   6
  54 prop tor   4   5   6   7
  55 prop tor   4   5   6  21
  56 ben   4   5  15
  57 prop tor   4   5  15  14
  58 ben   4  16  17
  59 prop tor   4  16  17   1
  60 prop tor   4  16  17  27
  61 ben   4  16  26
  62 ben   5   4  16
  63 prop tor   5   4  16  17
  64 prop tor   5   4  16  26
  65 ben   5   6   7
  66 prop tor   5   6   7   8
  67 prop tor   5   6   7  14
  68 ben   5   6  21
  69 ben   5  15  14
  70 ben   6   5  15
  71 prop tor   6   5  15  14
  72 ben   6   7   8
  73 prop tor   6   7   8   9
  74 prop tor   6   7   8  22
  75 prop tor   6   7   8  23
  76 ben   6   7  14
  77 prop tor   6   7  14  13
  78 prop tor   6   7  14  15
  79 ben   7   6  21
  80 ben   7   8   9
  81 prop tor   7   8   9  10
  82 prop tor   7   8   9  13
  83 ben   7   8  22
  84 ben   7   8  23
  85 ben   7  14  13
  86 ben   7  14  15
  87 prop tor   7  14  15   5
  88 ben   8   7  14
  89 prop tor   8   7  14  13
  90 prop tor   8   7  14  15
  91 ben   8   9  10
  92 prop tor   8   9  10  11
  93 prop tor   8   9  10  24
  94 ben   8   9  13
  95 prop tor   8   9  13  12
  96 prop tor   8   9  13  14
  97 ben   9   8  22
  98 ben   9   8  23
  99 ben   9  10  11
 100 prop tor   9  10  11  12
 101 prop tor   9  10  11  25
 102 ben   9  10  24
 103 ben   9  13  12
 104 ben   9  13  14
 105 prop tor   9  13  14   7
 106 prop tor   9  13  14  15
 107 ben  10   9  13
 108 prop tor  10   9  13  12
 109 prop tor  10   9  13  14
 110 ben  10  11  12
 111 prop tor  10  11  12  13
 112 ben  10  11  25
 113 ben  11  10  24
 114 ben  11  12  13
 115 prop tor  11  12  13   9
 116 prop tor  11  12  13  14
 117 ben  12  11  25
 118 ben  12  13  14
 119 prop tor  12  13  14   7
 120 prop tor  12  13  14  15
 121 prop tor  13   9  10  11
 122 prop tor  13   9  10  24
 123 ben  13  14  15
 124 prop tor  13  14  15   5
 125 prop tor  14   7   8   9
 126 prop tor  14   7   8  22
 127 prop tor  14   7   8  23
 128 prop tor  15   5   6   7
 129 prop tor  15   5   6  21
 130 prop tor  16   4   5   6
 131 prop tor  16   4   5  15
 132 ben  16  17  27
 133 prop tor  17   1   2   3
 134 prop tor  17   1   2  19
 135 ben  17   1  18
 136 ben  17  16  26
 137 prop tor  18   1   2   3
 138 prop tor  18   1   2  19
 139 prop tor  18   1  17  16
 140 prop tor  18   1  17  27
 141 prop tor  19   2   3   4
 142 prop tor  19   2   3  20
 143 prop tor  20   3   4   5
 144 prop tor  20   3   4  16
 145 prop tor  21   6   7   8
 146 prop tor  21   6   7  14
 147 prop tor  22   8   9  10
 148 prop tor  22   8   9  13
 149 ben  22   8  23
 150 prop tor  23   8   9  10
 151 prop tor  23   8   9  13
 152 prop tor  24  10  11  12
 153 prop tor  24  10  11  25
 154 prop tor  25  11  12  13
 155 prop tor  26  16  17   1
 156 prop tor  26  16  17  27
 nber bend=              50
 nber lin bend=           0
 nber prop tor=          76
 nber impr tor=           0
 nber tot redund int=         156
 Reading file: 
 ./CDT_1_C1S0.log                                                               
                                          
  Entering Gaussian System, Link 0=g16                                          
  
 Gaussian format, type: g94, g98, g03= F F F
  #P Geom=AllCheck Guess=TCheck SCRF=Check GenChk UB3LYP/6-311G(d,p) Fre    
 energy type= B3LYP   
 Original G94 input coords:
  6 -1.476604 -1.328436  0.240446
  6 -1.410581 -0.086161  0.878499
  6 -0.272509  0.690988  0.765493
  6  0.837037  0.245505  0.007224
  6  2.026590  1.044420 -0.118441
  6  3.199598  0.750134 -0.847620
  6  4.154027  1.740346 -0.753912
  6  5.547002  1.991803 -1.285079
  6  5.855855  3.341078 -0.679042
  6  6.921077  4.245398 -0.686461
  6  6.636996  5.364961  0.076697
 16  5.067078  5.338373  0.818277
  6  4.765186  3.791733  0.098588
  6  3.741230  2.833214  0.055743
 16  2.157691  2.615773  0.697330
  6  0.749470 -1.016527 -0.631390
  6 -0.392587 -1.787800 -0.513047
  1 -2.369211 -1.935779  0.330310
  1 -2.250501  0.269901  1.461897
  1 -0.240696  1.651786  1.266113
  1  3.318060 -0.160889 -1.415941
  1  5.572465  2.015095 -2.379438
  1  6.255936  1.222202 -0.962707
  1  7.857561  4.114874 -1.210767
  1  7.275954  6.219673  0.246905
  1  1.577893 -1.391126 -1.217790
  1 -0.444607 -2.750509 -1.006306
 nber atoms=          27
  SCF Done:  E(UB3LYP) =  -1373.91536290     A.U. after    1 cycles             
  
          23          40 "  -1373.91536290"
After scan for Atom:   Atom  AN      X      Y      Z        X      Y      Z        X      Y      Z   
After scan for Atom:   Atom  AN      X      Y      Z        X      Y      Z        X      Y      Z   
After scan for Atom:   Atom  AN      X      Y      Z        X      Y      Z        X      Y      Z   
After scan for Atom:   Atom  AN      X      Y      Z        X      Y      Z        X      Y      Z   
After scan for Atom:   Atom  AN      X      Y      Z        X      Y      Z        X      Y      Z   
After scan for Atom:   Atom  AN      X      Y      Z        X      Y      Z        X      Y      Z   
After scan for Atom:   Atom  AN      X      Y      Z        X      Y      Z        X      Y      Z   
After scan for Atom:   Atom  AN      X      Y      Z        X      Y      Z        X      Y      Z   
After scan for Atom:   Atom  AN      X      Y      Z        X      Y      Z        X      Y      Z   
After scan for Atom:   Atom  AN      X      Y      Z        X      Y      Z        X      Y      Z   
After scan for Atom:   Atom  AN      X      Y      Z        X      Y      Z        X      Y      Z   
After scan for Atom:   Atom  AN      X      Y      Z        X      Y      Z        X      Y      Z   
After scan for Atom:   Atom  AN      X      Y      Z        X      Y      Z        X      Y      Z   
After scan for Atom:   Atom  AN      X      Y      Z        X      Y      Z        X      Y      Z   
After scan for Atom:   Atom  AN      X      Y      Z        X      Y      Z        X      Y      Z   
After scan for Atom:   Atom  AN      X      Y      Z        X      Y      Z        X      Y      Z   
After scan for Atom:   Atom  AN      X      Y      Z        X      Y      Z        X      Y      Z   
After scan for Atom:   Atom  AN      X      Y      Z        X      Y      Z        X      Y      Z   
After scan for Atom:   Atom  AN      X      Y      Z        X      Y      Z        X      Y      Z   
After scan for Atom:   Atom  AN      X      Y      Z        X      Y      Z        X      Y      Z   
After scan for Atom:   Atom  AN      X      Y      Z        X      Y      Z        X      Y      Z   
After scan for Atom:   Atom  AN      X      Y      Z        X      Y      Z        X      Y      Z   
After scan for Atom:   Atom  AN      X      Y      Z        X      Y      Z        X      Y      Z   
After scan for Atom:   Atom  AN      X      Y      Z        X      Y      Z        X      Y      Z   
After scan for Atom:   Atom  AN      X      Y      Z        X      Y      Z        X      Y      Z   
 g94    frequencies=
     0.0    0.0    0.0    0.0    0.0    0.0   13.4   42.5   94.3  115.3
   137.8  204.4  206.3  253.0  268.6  329.3  361.4  392.7  441.8  444.0
   465.0  519.9  550.5  571.8  586.1  600.8  622.4  645.9  654.0  675.9
   687.4  712.0  754.9  780.4  817.4  829.6  862.1  907.9  914.6  942.2
   951.9  955.7  993.7  994.6 1007.7 1024.1 1025.2 1046.0 1104.9 1112.9
  1166.7 1185.6 1198.4 1207.2 1220.2 1227.1 1280.4 1331.4 1336.0 1359.2
  1368.6 1431.6 1438.8 1461.1 1474.1 1480.7 1489.3 1524.4 1545.3 1590.8
  1624.3 3042.7 3073.5 3177.0 3187.1 3195.8 3204.0 3209.5 3219.8 3230.0
  3240.6
 g94    symmetries=
                                                 A      A      A      A
       A      A      A      A      A      A      A      A      A      A
       A      A      A      A      A      A      A      A      A      A
       A      A      A      A      A      A      A      A      A      A
       A      A      A      A      A      A      A      A      A      A
       A      A      A      A      A      A      A      A      A      A
       A      A      A      A      A      A      A      A      A      A
       A      A      A      A      A      A      A      A      A      A
       A
 atomic masses:
 12.0000 12.0000 12.0000 12.0000 12.0000 12.0000 12.0000 12.0000 12.0000 12.0000
 12.0000 31.9721 12.0000 12.0000 31.9721 12.0000 12.0000  1.0078  1.0078  1.0078
  1.0078  1.0078  1.0078  1.0078  1.0078  1.0078  1.0078
 looking for force constants in 
 ./CDT_1_C1S0.fchk                                                              
  
 Cartesian Force Constants                  R   N=        3321                  
  
 n3=          81        3321
 g94-fc frequencies=
    -1.2   -0.0   -0.0    0.0    2.1    2.7   13.5   42.5   94.3  115.3
   137.8  204.4  206.3  253.0  268.6  329.3  361.4  392.7  441.8  444.0
   465.0  520.0  550.5  571.8  586.2  600.8  622.4  645.9  654.0  675.9
   687.4  712.0  754.9  780.4  817.4  829.6  862.1  908.0  914.6  942.2
   951.9  955.8  993.7  994.6 1007.7 1024.1 1025.2 1046.0 1105.0 1112.9
  1166.8 1185.7 1198.4 1207.2 1220.2 1227.2 1280.5 1331.5 1336.1 1359.2
  1368.7 1431.6 1438.8 1461.1 1474.1 1480.8 1489.3 1524.5 1545.4 1590.8
  1624.3 3042.8 3073.6 3177.1 3187.1 3195.9 3204.0 3209.5 3219.9 3230.1
  3240.7
 at 99999: n3=          81
 symm operator            1 :  F  nop=           0
 symm operator            2 :  F  nop=           0
 symm operator            3 :  F  nop=           0
 symm operator            4 :  F  nop=           0
 symm operator            5 :  F  nop=           0
 symm operator            6 :  F  nop=           0
 symm operator            7 :  F  nop=           0
 The point group of the molecule is  C1
 Symmetry rotation matrix:
   1.00000   0.00000   0.00000
   0.00000   1.00000   0.00000
   0.00000   0.00000   1.00000

 Projecting out zero-frequency components
 generating redundant internal coords
         300        3600          27
 search for int coords
   1 str   2   1   1.398
   2 str   3   2   1.383
   3 str   4   3   1.416
   4 str   5   4   1.438
   5 str   6   5   1.412
   6 str   7   6   1.378
   7 str   8   7   1.512
   8 str   9   8   1.511
   9 str  10   9   1.397
  10 str  11  10   1.384
  11 str  12  11   1.736
  12 str  13   9   1.413
  13 str  13  12   1.732
  14 str  14   7   1.421
  15 str  14  13   1.403
  16 str  15   5   1.775
  17 str  15  14   1.722
  18 str  16   4   1.417
  19 str  17   1   1.398
  20 str  17  16   1.383
  21 str  18   1   1.083
  22 str  19   2   1.083
  23 str  20   3   1.084
  24 str  21   6   1.080
  25 str  22   8   1.095
  26 str  23   8   1.095
  27 str  24  10   1.081
  28 str  25  11   1.081
  29 str  26  16   1.082
  30 str  27  17   1.083
 nber stretches=          30
  31 ben   1   2   3
  32 prop tor   1   2   3   4
  33 prop tor   1   2   3  20
  34 ben   1   2  19
  35 ben   1  17  16
  36 ben   1  17  27
  37 ben   2   1  17
  38 prop tor   2   1  17  16
  39 prop tor   2   1  17  27
  40 ben   2   1  18
  41 ben   2   3   4
  42 prop tor   2   3   4   5
  43 prop tor   2   3   4  16
  44 ben   2   3  20
  45 ben   3   2  19
  46 ben   3   4   5
  47 prop tor   3   4   5   6
  48 prop tor   3   4   5  15
  49 ben   3   4  16
  50 prop tor   3   4  16  17
  51 prop tor   3   4  16  26
  52 ben   4   3  20
  53 ben   4   5   6
  54 prop tor   4   5   6   7
  55 prop tor   4   5   6  21
  56 ben   4   5  15
  57 prop tor   4   5  15  14
  58 ben   4  16  17
  59 prop tor   4  16  17   1
  60 prop tor   4  16  17  27
  61 ben   4  16  26
  62 ben   5   4  16
  63 prop tor   5   4  16  17
  64 prop tor   5   4  16  26
  65 ben   5   6   7
  66 prop tor   5   6   7   8
  67 prop tor   5   6   7  14
  68 ben   5   6  21
  69 ben   5  15  14
  70 ben   6   5  15
  71 prop tor   6   5  15  14
  72 ben   6   7   8
  73 prop tor   6   7   8   9
  74 prop tor   6   7   8  22
  75 prop tor   6   7   8  23
  76 ben   6   7  14
  77 prop tor   6   7  14  13
  78 prop tor   6   7  14  15
  79 ben   7   6  21
  80 ben   7   8   9
  81 prop tor   7   8   9  10
  82 prop tor   7   8   9  13
  83 ben   7   8  22
  84 ben   7   8  23
  85 ben   7  14  13
  86 ben   7  14  15
  87 prop tor   7  14  15   5
  88 ben   8   7  14
  89 prop tor   8   7  14  13
  90 prop tor   8   7  14  15
  91 ben   8   9  10
  92 prop tor   8   9  10  11
  93 prop tor   8   9  10  24
  94 ben   8   9  13
  95 prop tor   8   9  13  12
  96 prop tor   8   9  13  14
  97 ben   9   8  22
  98 ben   9   8  23
  99 ben   9  10  11
 100 prop tor   9  10  11  12
 101 prop tor   9  10  11  25
 102 ben   9  10  24
 103 ben   9  13  12
 104 ben   9  13  14
 105 prop tor   9  13  14   7
 106 prop tor   9  13  14  15
 107 ben  10   9  13
 108 prop tor  10   9  13  12
 109 prop tor  10   9  13  14
 110 ben  10  11  12
 111 prop tor  10  11  12  13
 112 ben  10  11  25
 113 ben  11  10  24
 114 ben  11  12  13
 115 prop tor  11  12  13   9
 116 prop tor  11  12  13  14
 117 ben  12  11  25
 118 ben  12  13  14
 119 prop tor  12  13  14   7
 120 prop tor  12  13  14  15
 121 prop tor  13   9  10  11
 122 prop tor  13   9  10  24
 123 ben  13  14  15
 124 prop tor  13  14  15   5
 125 prop tor  14   7   8   9
 126 prop tor  14   7   8  22
 127 prop tor  14   7   8  23
 128 prop tor  15   5   6   7
 129 prop tor  15   5   6  21
 130 prop tor  16   4   5   6
 131 prop tor  16   4   5  15
 132 ben  16  17  27
 133 prop tor  17   1   2   3
 134 prop tor  17   1   2  19
 135 ben  17   1  18
 136 ben  17  16  26
 137 prop tor  18   1   2   3
 138 prop tor  18   1   2  19
 139 prop tor  18   1  17  16
 140 prop tor  18   1  17  27
 141 prop tor  19   2   3   4
 142 prop tor  19   2   3  20
 143 prop tor  20   3   4   5
 144 prop tor  20   3   4  16
 145 prop tor  21   6   7   8
 146 prop tor  21   6   7  14
 147 prop tor  22   8   9  10
 148 prop tor  22   8   9  13
 149 ben  22   8  23
 150 prop tor  23   8   9  10
 151 prop tor  23   8   9  13
 152 prop tor  24  10  11  12
 153 prop tor  24  10  11  25
 154 prop tor  25  11  12  13
 155 prop tor  26  16  17   1
 156 prop tor  26  16  17  27
 nber bend=              50
 nber lin bend=           0
 nber prop tor=          76
 nber impr tor=           0
 nber tot redund int=         156
 Eigenvalues of G in red int coords
    Gval -0.00000000 -0.00000000 -0.00000000 -0.00000000 -0.00000000 -0.00000000 -0.00000000 -0.00000000
    Gval -0.00000000 -0.00000000 -0.00000000 -0.00000000 -0.00000000 -0.00000000 -0.00000000 -0.00000000
    Gval -0.00000000 -0.00000000 -0.00000000 -0.00000000 -0.00000000 -0.00000000 -0.00000000 -0.00000000
    Gval -0.00000000 -0.00000000 -0.00000000 -0.00000000 -0.00000000 -0.00000000 -0.00000000 -0.00000000
    Gval -0.00000000 -0.00000000 -0.00000000  0.00000000  0.00000000  0.00000000  0.00000000  0.00000000
    Gval  0.00000000  0.00000000  0.00000000  0.00000000  0.00000000  0.00000000  0.00000000  0.00000000
    Gval  0.00000000  0.00000000  0.00000000  0.00000000  0.00000000  0.00000000  0.00000000  0.00000000
    Gval  0.00000000  0.00000000  0.00000000  0.00000000  0.00000000  0.00000000  0.00000000  0.00000000
    Gval  0.00000000  0.00000000  0.00000000  0.00000000  0.00000000  0.00000000  0.00000000  0.00000000
    Gval  0.00000000  0.00000000  0.00000000  0.00000000  0.00000000  0.00000000  0.00000000  0.00000000
    Gval  0.00000000  0.00000180  0.00000427  0.00000813  0.00000960  0.00001704  0.00002387  0.00002414
    Gval  0.00002731  0.00003879  0.00004466  0.00004888  0.00005339  0.00005780  0.00006434  0.00006876
    Gval  0.00007547  0.00007597  0.00009216  0.00009483  0.00010219  0.00010714  0.00011777  0.00012985
    Gval  0.00013498  0.00016352  0.00019151  0.00020141  0.00022654  0.00027005  0.00028401  0.00030050
    Gval  0.00030238  0.00035999  0.00036508  0.00037042  0.00038439  0.00041786  0.00043681  0.00053106
    Gval  0.00056798  0.00058325  0.00059304  0.00059362  0.00059673  0.00060404  0.00062139  0.00062397
    Gval  0.00062475  0.00063225  0.00066040  0.00104180  0.00105203  0.00108124  0.00111041  0.00111589
    Gval  0.00113907  0.00114439  0.00117294  0.00117353  0.00118163  0.00132645  0.00138490  0.00145568
    Gval  0.00167134  0.00188180  0.00196435  0.00208260  0.00235251  0.00265606  0.00302814  0.00312168
    Gval  0.00373391  0.00375140  0.00406423  0.00407642
  1.803001903742979E-006  1.803001903742979E-006
  4.271958957740104E-006  1.803001903742979E-006
  8.128729350899831E-006  1.803001903742979E-006
  9.601614792123428E-006  1.803001903742979E-006
  1.703636426326350E-005  1.803001903742979E-006
  2.386563518496655E-005  1.803001903742979E-006
  2.414322918806138E-005  1.803001903742979E-006
  2.731062981870512E-005  1.803001903742979E-006
  3.879310633289200E-005  1.803001903742979E-006
  4.466375347861087E-005  1.803001903742979E-006
  4.888098486518469E-005  1.803001903742979E-006
  5.338766035719279E-005  1.803001903742979E-006
  5.780453668436815E-005  1.803001903742979E-006
  6.434461330626633E-005  1.803001903742979E-006
  6.875876381685689E-005  1.803001903742979E-006
  7.547496399726984E-005  1.803001903742979E-006
  7.597497870451434E-005  1.803001903742979E-006
  9.216216687120163E-005  1.803001903742979E-006
  9.483131625962516E-005  1.803001903742979E-006
  1.021949116102551E-004  1.803001903742979E-006
  1.071430188694918E-004  1.803001903742979E-006
  1.177709555228781E-004  1.803001903742979E-006
  1.298513034812361E-004  1.803001903742979E-006
  1.349764663435103E-004  1.803001903742979E-006
  1.635210486328149E-004  1.803001903742979E-006
  1.915076492580353E-004  1.803001903742979E-006
  2.014097260800335E-004  1.803001903742979E-006
  2.265370952158459E-004  1.803001903742979E-006
  2.700543126614516E-004  1.803001903742979E-006
  2.840101352537653E-004  1.803001903742979E-006
  3.004966317993459E-004  1.803001903742979E-006
  3.023779942159268E-004  1.803001903742979E-006
  3.599873854113245E-004  1.803001903742979E-006
  3.650804199501688E-004  1.803001903742979E-006
  3.704180336064992E-004  1.803001903742979E-006
  3.843934284099844E-004  1.803001903742979E-006
  4.178564371400981E-004  1.803001903742979E-006
  4.368143055113904E-004  1.803001903742979E-006
  5.310614214661997E-004  1.803001903742979E-006
  5.679838586545282E-004  1.803001903742979E-006
  5.832507742983533E-004  1.803001903742979E-006
  5.930434082726948E-004  1.803001903742979E-006
  5.936211595040353E-004  1.803001903742979E-006
  5.967317078973337E-004  1.803001903742979E-006
  6.040434676647934E-004  1.803001903742979E-006
  6.213878397835732E-004  1.803001903742979E-006
  6.239657689229391E-004  1.803001903742979E-006
  6.247465394536804E-004  1.803001903742979E-006
  6.322470326476679E-004  1.803001903742979E-006
  6.604017896836628E-004  1.803001903742979E-006
  1.041795518392588E-003  1.803001903742979E-006
  1.052031505889040E-003  1.803001903742979E-006
  1.081241589361087E-003  1.803001903742979E-006
  1.110412271687400E-003  1.803001903742979E-006
  1.115888011373961E-003  1.803001903742979E-006
  1.139065300382748E-003  1.803001903742979E-006
  1.144391430221663E-003  1.803001903742979E-006
  1.172938745903355E-003  1.803001903742979E-006
  1.173528934576276E-003  1.803001903742979E-006
  1.181630912724126E-003  1.803001903742979E-006
  1.326451319952903E-003  1.803001903742979E-006
  1.384898332136663E-003  1.803001903742979E-006
  1.455679141976918E-003  1.803001903742979E-006
  1.671344533383213E-003  1.803001903742979E-006
  1.881800991311933E-003  1.803001903742979E-006
  1.964350392758837E-003  1.803001903742979E-006
  2.082597694037663E-003  1.803001903742979E-006
  2.352509068821217E-003  1.803001903742979E-006
  2.656061728851034E-003  1.803001903742979E-006
  3.028141084123403E-003  1.803001903742979E-006
  3.121680649131839E-003  1.803001903742979E-006
  3.733911242693528E-003  1.803001903742979E-006
  3.751399279686193E-003  1.803001903742979E-006
  4.064234461386982E-003  1.803001903742979E-006
  4.076423795186279E-003  1.803001903742979E-006
 cut=1d-8, nber non-redundant internal coords=          75
 Check on Eigenvals of non-red overlap matrix:
  0.00000180  0.00000427  0.00000813  0.00000960  0.00001704  0.00002387  0.00002414  0.00002731
  0.00003879  0.00004466  0.00004888  0.00005339  0.00005780  0.00006434  0.00006876  0.00007547
  0.00007597  0.00009216  0.00009483  0.00010219  0.00010714  0.00011777  0.00012985  0.00013498
  0.00016352  0.00019151  0.00020141  0.00022654  0.00027005  0.00028401  0.00030050  0.00030238
  0.00035999  0.00036508  0.00037042  0.00038439  0.00041786  0.00043681  0.00053106  0.00056798
  0.00058325  0.00059304  0.00059362  0.00059673  0.00060404  0.00062139  0.00062397  0.00062475
  0.00063225  0.00066040  0.00104180  0.00105203  0.00108124  0.00111041  0.00111589  0.00113907
  0.00114439  0.00117294  0.00117353  0.00118163  0.00132645  0.00138490  0.00145568  0.00167134
  0.00188180  0.00196435  0.00208260  0.00235251  0.00265606  0.00302814  0.00312168  0.00373391
  0.00375140  0.00406423  0.00407642
 Checking for correct frequencies
 recalc frequencies=
    -0.0   -0.0    0.0    0.0    0.0    0.0   13.4   42.5   94.3  115.3
   137.8  204.4  206.3  253.0  268.6  329.3  361.4  392.7  441.8  444.0
   465.0  520.0  550.5  571.8  586.2  600.8  622.4  645.9  654.0  675.9
   687.4  712.0  754.9  780.4  817.4  829.6  862.1  908.0  914.6  942.2
   951.9  955.8  993.7  994.6 1007.7 1024.1 1025.2 1046.0 1105.0 1112.9
  1166.8 1185.7 1198.4 1207.2 1220.2 1227.2 1280.5 1331.5 1336.1 1359.2
  1368.7 1431.6 1438.8 1461.1 1474.1 1480.8 1489.3 1524.5 1545.4 1590.8
  1624.3 3042.8 3073.6 3177.1 3187.1 3195.9 3204.0 3209.5 3219.9 3230.1
  3240.7
 recalc symmetries=
                                                                       
                                                                       
                                                                       
                                                                       
                                                                       
                                                                       
                                                                       
                                                                       
        
 recalc freqs check OK
 Zero-point lengths:
 10.0000 10.0000 10.0000 10.0000 10.0000 10.0000 67.8120 38.0491 25.5249 23.0888
 21.1194 17.3419 17.2588 15.5855 15.1278 13.6607 13.0401 12.5101 11.7949 11.7656
 11.4964 10.8721 10.5660 10.3675 10.2398 10.1139  9.9373  9.7549  9.6943  9.5356
  9.4553  9.2910  9.0232  8.8745  8.6710  8.6073  8.4433  8.2274  8.1975  8.0765
  8.0351  8.0190  7.8643  7.8608  7.8097  7.7469  7.7428  7.6653  7.4580  7.4313
  7.2578  7.1997  7.1612  7.1351  7.0971  7.0769  6.9281  6.7941  6.7824  6.7243
  6.7011  6.5521  6.5357  6.4857  6.4570  6.4425  6.4239  6.3495  6.3064  6.2157
  6.1512  4.4943  4.4717  4.3983  4.3913  4.3853  4.3797  4.3760  4.3690  4.3620
  4.3549
 highest evec of mol 2
 -0.0000 -0.0000 -0.0000
 -0.0002  0.0002  0.0002
 -0.0001  0.0001  0.0001
  0.0001  0.0000 -0.0000
 -0.0001  0.0001  0.0001
  0.0001 -0.0010 -0.0006
  0.0001 -0.0002 -0.0001
 -0.0003 -0.0001  0.0001
  0.0066  0.0053 -0.0002
 -0.0957  0.0244  0.0597
 -0.1546 -0.2236 -0.0506
  0.0022 -0.0001 -0.0011
  0.0034  0.0027 -0.0001
 -0.0005 -0.0000  0.0002
 -0.0000 -0.0000  0.0000
  0.0004 -0.0002 -0.0003
  0.0000 -0.0003 -0.0002
  0.0001  0.0001 -0.0000
  0.0006 -0.0003 -0.0004
 -0.0000 -0.0004 -0.0002
 -0.0003  0.0031  0.0019
 -0.0002 -0.0004 -0.0003
 -0.0001 -0.0005 -0.0000
  0.2956 -0.0436 -0.1668
  0.5244  0.7056  0.1420
 -0.0012  0.0005  0.0009
  0.0001  0.0009  0.0004
 Enter nber and list of atoms to keep of mol #2
 keep list:          27           1           2           3           4
           5           6           7           8           9          10
          11          12          13          14          15          16
          17          18          19          20          21          22
          23          24          25          26          27
 reordering atoms
           1  -5.61517878639861     
           2  -4.78378904216044     
           3  -3.40974411425983     
           4  -2.82555638844190     
           5  -1.39775710151204     
           6 -0.668871131216463     
           7  0.695867856778605     
           8   1.93856587408978     
           9   3.02583167909457     
          10   4.42295401840304     
          11   4.90427372149259     
          12   3.66489158790626     
          13   2.45919118366741     
          14   1.06019693521053     
          15 -0.309564660576730     
          16  -3.68612524152657     
          17  -5.05958841267605     
          18  -6.69149082385788     
          19  -5.21417890070149     
          20  -2.78169149499734     
          21  -1.14828715855264     
          22   1.99016458407684     
          23   1.99060820462559     
          24   5.07040645107918     
          25   5.93827869258548     
          26  -3.27635090174880     
          27  -5.70455758796874     
           1           1
           2           2
           3           3
           4           4
           5           5
           6           6
           7           7
           8           8
           9           9
          10          10
          11          11
          12          12
          13          13
          14          14
          15          15
          16          16
          17          17
          18          18
          19          19
          20          20
          21          21
          22          22
          23          23
          24          24
          25          25
          26          26
          27          27
 initial cartes coords mol 1
   6   0.00571  -0.19792  -5.66148
   6  -0.44302  -1.23192  -4.84248
   6  -0.46087  -1.07762  -3.46068
   6  -0.01813   0.11357  -2.86127
   6  -0.03683   0.29705  -1.40795
   6  -0.17004   1.46881  -0.69186
   6  -0.14099   1.26896   0.70600
   6  -0.24947   2.12427   1.95255
   6  -0.12738   1.08772   3.05133
   6  -0.12800   1.06857   4.46889
   6   0.02242  -0.19930   4.96512
  16   0.16943  -1.39959   3.70242
   6   0.02466  -0.16978   2.49645
   6   0.01463  -0.05859   1.05914
  16   0.13787  -1.08824  -0.32144
   6   0.44254   1.14360  -3.70021
   6   0.44603   0.99098  -5.08162
   1   0.01556  -0.31792  -6.73867
   1  -0.79135  -2.16035  -5.28106
   1  -0.84113  -1.88047  -2.83916
   1  -0.31362   2.42722  -1.17350
   1  -1.20274   2.66264   1.99964
   1   0.54658   2.87543   2.00584
   1  -0.23391   1.93909   5.10314
   1   0.05777  -0.51720   5.99544
   1   0.82171   2.05895  -3.26131
   1   0.80751   1.79910  -5.70791
 initial cartes coords mol 2
   6  -0.00005  -0.20461  -5.61518
   6  -0.01538  -1.32856  -4.78379
   6  -0.01557  -1.17384  -3.40974
   6  -0.00059   0.11574  -2.82556
   6  -0.00089   0.29033  -1.39776
   6  -0.00561   1.49986  -0.66887
   6  -0.00507   1.30564   0.69587
   6  -0.00933   2.16670   1.93857
   6  -0.00477   1.11739   3.02583
   6  -0.00472   1.09297   4.42295
   6   0.00087  -0.20505   4.90427
  16   0.00615  -1.42127   3.66489
   6   0.00084  -0.17730   2.45919
   6   0.00037  -0.06824   1.06020
  16   0.00508  -1.11239  -0.30956
   6   0.01482   1.24153  -3.68613
   6   0.01516   1.07795  -5.05959
   1   0.00012  -0.32806  -6.69149
   1  -0.02757  -2.32215  -5.21418
   1  -0.02909  -2.05709  -2.78169
   1  -0.01107   2.46791  -1.14829
   1  -0.89313   2.81094   1.99016
   1   0.86836   2.81919   1.99061
   1  -0.00851   1.95883   5.07041
   1   0.00217  -0.51906   5.93828
   1   0.02845   2.24272  -3.27635
   1   0.02769   1.94782  -5.70456
 loop 1 0
 mod cartes coords mol 2
   6  -0.00005  -0.20461  -5.61518
   6  -0.01538  -1.32856  -4.78379
   6  -0.01557  -1.17384  -3.40974
   6  -0.00059   0.11574  -2.82556
   6  -0.00089   0.29033  -1.39776
   6  -0.00561   1.49986  -0.66887
   6  -0.00507   1.30564   0.69587
   6  -0.00933   2.16670   1.93857
   6  -0.00477   1.11739   3.02583
   6  -0.00472   1.09297   4.42295
   6   0.00087  -0.20505   4.90427
  16   0.00615  -1.42127   3.66489
   6   0.00084  -0.17730   2.45919
   6   0.00037  -0.06824   1.06020
  16   0.00508  -1.11239  -0.30956
   6   0.01482   1.24153  -3.68613
   6   0.01516   1.07795  -5.05959
   1   0.00012  -0.32806  -6.69149
   1  -0.02757  -2.32215  -5.21418
   1  -0.02909  -2.05709  -2.78169
   1  -0.01107   2.46791  -1.14829
   1  -0.89313   2.81094   1.99016
   1   0.86836   2.81919   1.99061
   1  -0.00851   1.95883   5.07041
   1   0.00217  -0.51906   5.93828
   1   0.02845   2.24272  -3.27635
   1   0.02769   1.94782  -5.70456
 read in order, maxerr=  0.83 for atom  20
 loop 1 1
 mod cartes coords mol 2
   6   0.00005  -0.20461  -5.61518
   6   0.01538  -1.32856  -4.78379
   6   0.01557  -1.17384  -3.40974
   6   0.00059   0.11574  -2.82556
   6   0.00089   0.29033  -1.39776
   6   0.00561   1.49986  -0.66887
   6   0.00507   1.30564   0.69587
   6   0.00933   2.16670   1.93857
   6   0.00477   1.11739   3.02583
   6   0.00472   1.09297   4.42295
   6  -0.00087  -0.20505   4.90427
  16  -0.00615  -1.42127   3.66489
   6  -0.00084  -0.17730   2.45919
   6  -0.00037  -0.06824   1.06020
  16  -0.00508  -1.11239  -0.30956
   6  -0.01482   1.24153  -3.68613
   6  -0.01516   1.07795  -5.05959
   1  -0.00012  -0.32806  -6.69149
   1   0.02757  -2.32215  -5.21418
   1   0.02909  -2.05709  -2.78169
   1   0.01107   2.46791  -1.14829
   1   0.89313   2.81094   1.99016
   1  -0.86836   2.81919   1.99061
   1   0.00851   1.95883   5.07041
   1  -0.00217  -0.51906   5.93828
   1  -0.02845   2.24272  -3.27635
   1  -0.02769   1.94782  -5.70456
 read in order, maxerr=  2.10 for atom  22
 loop 1 2
 mod cartes coords mol 2
   6  -0.00005   0.20461  -5.61518
   6  -0.01538   1.32856  -4.78379
   6  -0.01557   1.17384  -3.40974
   6  -0.00059  -0.11574  -2.82556
   6  -0.00089  -0.29033  -1.39776
   6  -0.00561  -1.49986  -0.66887
   6  -0.00507  -1.30564   0.69587
   6  -0.00933  -2.16670   1.93857
   6  -0.00477  -1.11739   3.02583
   6  -0.00472  -1.09297   4.42295
   6   0.00087   0.20505   4.90427
  16   0.00615   1.42127   3.66489
   6   0.00084   0.17730   2.45919
   6   0.00037   0.06824   1.06020
  16   0.00508   1.11239  -0.30956
   6   0.01482  -1.24153  -3.68613
   6   0.01516  -1.07795  -5.05959
   1   0.00012   0.32806  -6.69149
   1  -0.02757   2.32215  -5.21418
   1  -0.02909   2.05709  -2.78169
   1  -0.01107  -2.46791  -1.14829
   1  -0.89313  -2.81094   1.99016
   1   0.86836  -2.81919   1.99061
   1  -0.00851  -1.95883   5.07041
   1   0.00217   0.51906   5.93828
   1   0.02845  -2.24272  -3.27635
   1   0.02769  -1.94782  -5.70456
 read in order, maxerr=  5.70 for atom  23
 loop 1 3
 mod cartes coords mol 2
   6   0.00005   0.20461  -5.61518
   6   0.01538   1.32856  -4.78379
   6   0.01557   1.17384  -3.40974
   6   0.00059  -0.11574  -2.82556
   6   0.00089  -0.29033  -1.39776
   6   0.00561  -1.49986  -0.66887
   6   0.00507  -1.30564   0.69587
   6   0.00933  -2.16670   1.93857
   6   0.00477  -1.11739   3.02583
   6   0.00472  -1.09297   4.42295
   6  -0.00087   0.20505   4.90427
  16  -0.00615   1.42127   3.66489
   6  -0.00084   0.17730   2.45919
   6  -0.00037   0.06824   1.06020
  16  -0.00508   1.11239  -0.30956
   6  -0.01482  -1.24153  -3.68613
   6  -0.01516  -1.07795  -5.05959
   1  -0.00012   0.32806  -6.69149
   1   0.02757   2.32215  -5.21418
   1   0.02909   2.05709  -2.78169
   1   0.01107  -2.46791  -1.14829
   1   0.89313  -2.81094   1.99016
   1  -0.86836  -2.81919   1.99061
   1   0.00851  -1.95883   5.07041
   1  -0.00217   0.51906   5.93828
   1  -0.02845  -2.24272  -3.27635
   1  -0.02769  -1.94782  -5.70456
 read in order, maxerr=  5.87 for atom  23
 loop 1 4
 mod cartes coords mol 2
   6  -0.00005  -0.20461   5.61518
   6  -0.01538  -1.32856   4.78379
   6  -0.01557  -1.17384   3.40974
   6  -0.00059   0.11574   2.82556
   6  -0.00089   0.29033   1.39776
   6  -0.00561   1.49986   0.66887
   6  -0.00507   1.30564  -0.69587
   6  -0.00933   2.16670  -1.93857
   6  -0.00477   1.11739  -3.02583
   6  -0.00472   1.09297  -4.42295
   6   0.00087  -0.20505  -4.90427
  16   0.00615  -1.42127  -3.66489
   6   0.00084  -0.17730  -2.45919
   6   0.00037  -0.06824  -1.06020
  16   0.00508  -1.11239   0.30956
   6   0.01482   1.24153   3.68613
   6   0.01516   1.07795   5.05959
   1   0.00012  -0.32806   6.69149
   1  -0.02757  -2.32215   5.21418
   1  -0.02909  -2.05709   2.78169
   1  -0.01107   2.46791   1.14829
   1  -0.89313   2.81094  -1.99016
   1   0.86836   2.81919  -1.99061
   1  -0.00851   1.95883  -5.07041
   1   0.00217  -0.51906  -5.93828
   1   0.02845   2.24272   3.27635
   1   0.02769   1.94782   5.70456
 read in order, maxerr= 13.43 for atom  18
 loop 1 5
 mod cartes coords mol 2
   6   0.00005  -0.20461   5.61518
   6   0.01538  -1.32856   4.78379
   6   0.01557  -1.17384   3.40974
   6   0.00059   0.11574   2.82556
   6   0.00089   0.29033   1.39776
   6   0.00561   1.49986   0.66887
   6   0.00507   1.30564  -0.69587
   6   0.00933   2.16670  -1.93857
   6   0.00477   1.11739  -3.02583
   6   0.00472   1.09297  -4.42295
   6  -0.00087  -0.20505  -4.90427
  16  -0.00615  -1.42127  -3.66489
   6  -0.00084  -0.17730  -2.45919
   6  -0.00037  -0.06824  -1.06020
  16  -0.00508  -1.11239   0.30956
   6  -0.01482   1.24153   3.68613
   6  -0.01516   1.07795   5.05959
   1  -0.00012  -0.32806   6.69149
   1   0.02757  -2.32215   5.21418
   1   0.02909  -2.05709   2.78169
   1   0.01107   2.46791   1.14829
   1   0.89313   2.81094  -1.99016
   1  -0.86836   2.81919  -1.99061
   1   0.00851   1.95883  -5.07041
   1  -0.00217  -0.51906  -5.93828
   1  -0.02845   2.24272   3.27635
   1  -0.02769   1.94782   5.70456
 read in order, maxerr= 13.43 for atom  18
 loop 1 6
 mod cartes coords mol 2
   6  -0.00005   0.20461   5.61518
   6  -0.01538   1.32856   4.78379
   6  -0.01557   1.17384   3.40974
   6  -0.00059  -0.11574   2.82556
   6  -0.00089  -0.29033   1.39776
   6  -0.00561  -1.49986   0.66887
   6  -0.00507  -1.30564  -0.69587
   6  -0.00933  -2.16670  -1.93857
   6  -0.00477  -1.11739  -3.02583
   6  -0.00472  -1.09297  -4.42295
   6   0.00087   0.20505  -4.90427
  16   0.00615   1.42127  -3.66489
   6   0.00084   0.17730  -2.45919
   6   0.00037   0.06824  -1.06020
  16   0.00508   1.11239   0.30956
   6   0.01482  -1.24153   3.68613
   6   0.01516  -1.07795   5.05959
   1   0.00012   0.32806   6.69149
   1  -0.02757   2.32215   5.21418
   1  -0.02909   2.05709   2.78169
   1  -0.01107  -2.46791   1.14829
   1  -0.89313  -2.81094  -1.99016
   1   0.86836  -2.81919  -1.99061
   1  -0.00851  -1.95883  -5.07041
   1   0.00217   0.51906  -5.93828
   1   0.02845  -2.24272   3.27635
   1   0.02769  -1.94782   5.70456
 read in order, maxerr= 13.45 for atom  18
 loop 1 7
 mod cartes coords mol 2
   6   0.00005   0.20461   5.61518
   6   0.01538   1.32856   4.78379
   6   0.01557   1.17384   3.40974
   6   0.00059  -0.11574   2.82556
   6   0.00089  -0.29033   1.39776
   6   0.00561  -1.49986   0.66887
   6   0.00507  -1.30564  -0.69587
   6   0.00933  -2.16670  -1.93857
   6   0.00477  -1.11739  -3.02583
   6   0.00472  -1.09297  -4.42295
   6  -0.00087   0.20505  -4.90427
  16  -0.00615   1.42127  -3.66489
   6  -0.00084   0.17730  -2.45919
   6  -0.00037   0.06824  -1.06020
  16  -0.00508   1.11239   0.30956
   6  -0.01482  -1.24153   3.68613
   6  -0.01516  -1.07795   5.05959
   1  -0.00012   0.32806   6.69149
   1   0.02757   2.32215   5.21418
   1   0.02909   2.05709   2.78169
   1   0.01107  -2.46791   1.14829
   1   0.89313  -2.81094  -1.99016
   1  -0.86836  -2.81919  -1.99061
   1   0.00851  -1.95883  -5.07041
   1  -0.00217   0.51906  -5.93828
   1  -0.02845  -2.24272   3.27635
   1  -0.02769  -1.94782   5.70456
 read in order, maxerr= 13.45 for atom  18
 loop 2 0
 mod cartes coords mol 2
   6  -0.00005  -5.61518  -0.20461
   6  -0.01538  -4.78379  -1.32856
   6  -0.01557  -3.40974  -1.17384
   6  -0.00059  -2.82556   0.11574
   6  -0.00089  -1.39776   0.29033
   6  -0.00561  -0.66887   1.49986
   6  -0.00507   0.69587   1.30564
   6  -0.00933   1.93857   2.16670
   6  -0.00477   3.02583   1.11739
   6  -0.00472   4.42295   1.09297
   6   0.00087   4.90427  -0.20505
  16   0.00615   3.66489  -1.42127
   6   0.00084   2.45919  -0.17730
   6   0.00037   1.06020  -0.06824
  16   0.00508  -0.30956  -1.11239
   6   0.01482  -3.68613   1.24153
   6   0.01516  -5.05959   1.07795
   1   0.00012  -6.69149  -0.32806
   1  -0.02757  -5.21418  -2.32215
   1  -0.02909  -2.78169  -2.05709
   1  -0.01107  -1.14829   2.46791
   1  -0.89313   1.99016   2.81094
   1   0.86836   1.99061   2.81919
   1  -0.00851   5.07041   1.95883
   1   0.00217   5.93828  -0.51906
   1   0.02845  -3.27635   2.24272
   1   0.02769  -5.70456   1.94782
 read in order, maxerr= 10.75 for atom  27
 loop 2 1
 mod cartes coords mol 2
   6   0.00005  -5.61518  -0.20461
   6   0.01538  -4.78379  -1.32856
   6   0.01557  -3.40974  -1.17384
   6   0.00059  -2.82556   0.11574
   6   0.00089  -1.39776   0.29033
   6   0.00561  -0.66887   1.49986
   6   0.00507   0.69587   1.30564
   6   0.00933   1.93857   2.16670
   6   0.00477   3.02583   1.11739
   6   0.00472   4.42295   1.09297
   6  -0.00087   4.90427  -0.20505
  16  -0.00615   3.66489  -1.42127
   6  -0.00084   2.45919  -0.17730
   6  -0.00037   1.06020  -0.06824
  16  -0.00508  -0.30956  -1.11239
   6  -0.01482  -3.68613   1.24153
   6  -0.01516  -5.05959   1.07795
   1  -0.00012  -6.69149  -0.32806
   1   0.02757  -5.21418  -2.32215
   1   0.02909  -2.78169  -2.05709
   1   0.01107  -1.14829   2.46791
   1   0.89313   1.99016   2.81094
   1  -0.86836   1.99061   2.81919
   1   0.00851   5.07041   1.95883
   1  -0.00217   5.93828  -0.51906
   1  -0.02845  -3.27635   2.24272
   1  -0.02769  -5.70456   1.94782
 read in order, maxerr= 10.75 for atom  27
 loop 2 2
 mod cartes coords mol 2
   6  -0.00005  -5.61518   0.20461
   6  -0.01538  -4.78379   1.32856
   6  -0.01557  -3.40974   1.17384
   6  -0.00059  -2.82556  -0.11574
   6  -0.00089  -1.39776  -0.29033
   6  -0.00561  -0.66887  -1.49986
   6  -0.00507   0.69587  -1.30564
   6  -0.00933   1.93857  -2.16670
   6  -0.00477   3.02583  -1.11739
   6  -0.00472   4.42295  -1.09297
   6   0.00087   4.90427   0.20505
  16   0.00615   3.66489   1.42127
   6   0.00084   2.45919   0.17730
   6   0.00037   1.06020   0.06824
  16   0.00508  -0.30956   1.11239
   6   0.01482  -3.68613  -1.24153
   6   0.01516  -5.05959  -1.07795
   1   0.00012  -6.69149   0.32806
   1  -0.02757  -5.21418   2.32215
   1  -0.02909  -2.78169   2.05709
   1  -0.01107  -1.14829  -2.46791
   1  -0.89313   1.99016  -2.81094
   1   0.86836   1.99061  -2.81919
   1  -0.00851   5.07041  -1.95883
   1   0.00217   5.93828   0.51906
   1   0.02845  -3.27635  -2.24272
   1   0.02769  -5.70456  -1.94782
 read in order, maxerr=  9.52 for atom  18
 loop 2 3
 mod cartes coords mol 2
   6   0.00005  -5.61518   0.20461
   6   0.01538  -4.78379   1.32856
   6   0.01557  -3.40974   1.17384
   6   0.00059  -2.82556  -0.11574
   6   0.00089  -1.39776  -0.29033
   6   0.00561  -0.66887  -1.49986
   6   0.00507   0.69587  -1.30564
   6   0.00933   1.93857  -2.16670
   6   0.00477   3.02583  -1.11739
   6   0.00472   4.42295  -1.09297
   6  -0.00087   4.90427   0.20505
  16  -0.00615   3.66489   1.42127
   6  -0.00084   2.45919   0.17730
   6  -0.00037   1.06020   0.06824
  16  -0.00508  -0.30956   1.11239
   6  -0.01482  -3.68613  -1.24153
   6  -0.01516  -5.05959  -1.07795
   1  -0.00012  -6.69149   0.32806
   1   0.02757  -5.21418   2.32215
   1   0.02909  -2.78169   2.05709
   1   0.01107  -1.14829  -2.46791
   1   0.89313   1.99016  -2.81094
   1  -0.86836   1.99061  -2.81919
   1   0.00851   5.07041  -1.95883
   1  -0.00217   5.93828   0.51906
   1  -0.02845  -3.27635  -2.24272
   1  -0.02769  -5.70456  -1.94782
 read in order, maxerr=  9.52 for atom  18
 loop 2 4
 mod cartes coords mol 2
   6  -0.00005   5.61518  -0.20461
   6  -0.01538   4.78379  -1.32856
   6  -0.01557   3.40974  -1.17384
   6  -0.00059   2.82556   0.11574
   6  -0.00089   1.39776   0.29033
   6  -0.00561   0.66887   1.49986
   6  -0.00507  -0.69587   1.30564
   6  -0.00933  -1.93857   2.16670
   6  -0.00477  -3.02583   1.11739
   6  -0.00472  -4.42295   1.09297
   6   0.00087  -4.90427  -0.20505
  16   0.00615  -3.66489  -1.42127
   6   0.00084  -2.45919  -0.17730
   6   0.00037  -1.06020  -0.06824
  16   0.00508   0.30956  -1.11239
   6   0.01482   3.68613   1.24153
   6   0.01516   5.05959   1.07795
   1   0.00012   6.69149  -0.32806
   1  -0.02757   5.21418  -2.32215
   1  -0.02909   2.78169  -2.05709
   1  -0.01107   1.14829   2.46791
   1  -0.89313  -1.99016   2.81094
   1   0.86836  -1.99061   2.81919
   1  -0.00851  -5.07041   1.95883
   1   0.00217  -5.93828  -0.51906
   1   0.02845   3.27635   2.24272
   1   0.02769   5.70456   1.94782
 read in order, maxerr=  9.50 for atom  18
 loop 2 5
 mod cartes coords mol 2
   6   0.00005   5.61518  -0.20461
   6   0.01538   4.78379  -1.32856
   6   0.01557   3.40974  -1.17384
   6   0.00059   2.82556   0.11574
   6   0.00089   1.39776   0.29033
   6   0.00561   0.66887   1.49986
   6   0.00507  -0.69587   1.30564
   6   0.00933  -1.93857   2.16670
   6   0.00477  -3.02583   1.11739
   6   0.00472  -4.42295   1.09297
   6  -0.00087  -4.90427  -0.20505
  16  -0.00615  -3.66489  -1.42127
   6  -0.00084  -2.45919  -0.17730
   6  -0.00037  -1.06020  -0.06824
  16  -0.00508   0.30956  -1.11239
   6  -0.01482   3.68613   1.24153
   6  -0.01516   5.05959   1.07795
   1  -0.00012   6.69149  -0.32806
   1   0.02757   5.21418  -2.32215
   1   0.02909   2.78169  -2.05709
   1   0.01107   1.14829   2.46791
   1   0.89313  -1.99016   2.81094
   1  -0.86836  -1.99061   2.81919
   1   0.00851  -5.07041   1.95883
   1  -0.00217  -5.93828  -0.51906
   1  -0.02845   3.27635   2.24272
   1  -0.02769   5.70456   1.94782
 read in order, maxerr=  9.50 for atom  18
 loop 2 6
 mod cartes coords mol 2
   6  -0.00005   5.61518   0.20461
   6  -0.01538   4.78379   1.32856
   6  -0.01557   3.40974   1.17384
   6  -0.00059   2.82556  -0.11574
   6  -0.00089   1.39776  -0.29033
   6  -0.00561   0.66887  -1.49986
   6  -0.00507  -0.69587  -1.30564
   6  -0.00933  -1.93857  -2.16670
   6  -0.00477  -3.02583  -1.11739
   6  -0.00472  -4.42295  -1.09297
   6   0.00087  -4.90427   0.20505
  16   0.00615  -3.66489   1.42127
   6   0.00084  -2.45919   0.17730
   6   0.00037  -1.06020   0.06824
  16   0.00508   0.30956   1.11239
   6   0.01482   3.68613  -1.24153
   6   0.01516   5.05959  -1.07795
   1   0.00012   6.69149   0.32806
   1  -0.02757   5.21418   2.32215
   1  -0.02909   2.78169   2.05709
   1  -0.01107   1.14829  -2.46791
   1  -0.89313  -1.99016  -2.81094
   1   0.86836  -1.99061  -2.81919
   1  -0.00851  -5.07041  -1.95883
   1   0.00217  -5.93828   0.51906
   1   0.02845   3.27635  -2.24272
   1   0.02769   5.70456  -1.94782
 read in order, maxerr= 10.62 for atom  19
 loop 2 7
 mod cartes coords mol 2
   6   0.00005   5.61518   0.20461
   6   0.01538   4.78379   1.32856
   6   0.01557   3.40974   1.17384
   6   0.00059   2.82556  -0.11574
   6   0.00089   1.39776  -0.29033
   6   0.00561   0.66887  -1.49986
   6   0.00507  -0.69587  -1.30564
   6   0.00933  -1.93857  -2.16670
   6   0.00477  -3.02583  -1.11739
   6   0.00472  -4.42295  -1.09297
   6  -0.00087  -4.90427   0.20505
  16  -0.00615  -3.66489   1.42127
   6  -0.00084  -2.45919   0.17730
   6  -0.00037  -1.06020   0.06824
  16  -0.00508   0.30956   1.11239
   6  -0.01482   3.68613  -1.24153
   6  -0.01516   5.05959  -1.07795
   1  -0.00012   6.69149   0.32806
   1   0.02757   5.21418   2.32215
   1   0.02909   2.78169   2.05709
   1   0.01107   1.14829  -2.46791
   1   0.89313  -1.99016  -2.81094
   1  -0.86836  -1.99061  -2.81919
   1   0.00851  -5.07041  -1.95883
   1  -0.00217  -5.93828   0.51906
   1  -0.02845   3.27635  -2.24272
   1  -0.02769   5.70456  -1.94782
 read in order, maxerr= 10.62 for atom  19
 loop 3 0
 mod cartes coords mol 2
   6  -0.20461  -0.00005  -5.61518
   6  -1.32856  -0.01538  -4.78379
   6  -1.17384  -0.01557  -3.40974
   6   0.11574  -0.00059  -2.82556
   6   0.29033  -0.00089  -1.39776
   6   1.49986  -0.00561  -0.66887
   6   1.30564  -0.00507   0.69587
   6   2.16670  -0.00933   1.93857
   6   1.11739  -0.00477   3.02583
   6   1.09297  -0.00472   4.42295
   6  -0.20505   0.00087   4.90427
  16  -1.42127   0.00615   3.66489
   6  -0.17730   0.00084   2.45919
   6  -0.06824   0.00037   1.06020
  16  -1.11239   0.00508  -0.30956
   6   1.24153   0.01482  -3.68613
   6   1.07795   0.01516  -5.05959
   1  -0.32806   0.00012  -6.69149
   1  -2.32215  -0.02757  -5.21418
   1  -2.05709  -0.02909  -2.78169
   1   2.46791  -0.01107  -1.14829
   1   2.81094  -0.89313   1.99016
   1   2.81919   0.86836   1.99061
   1   1.95883  -0.00851   5.07041
   1  -0.51906   0.00217   5.93828
   1   2.24272   0.02845  -3.27635
   1   1.94782   0.02769  -5.70456
 read in order, maxerr=  5.36 for atom  22
 loop 3 1
 mod cartes coords mol 2
   6  -0.20461   0.00005  -5.61518
   6  -1.32856   0.01538  -4.78379
   6  -1.17384   0.01557  -3.40974
   6   0.11574   0.00059  -2.82556
   6   0.29033   0.00089  -1.39776
   6   1.49986   0.00561  -0.66887
   6   1.30564   0.00507   0.69587
   6   2.16670   0.00933   1.93857
   6   1.11739   0.00477   3.02583
   6   1.09297   0.00472   4.42295
   6  -0.20505  -0.00087   4.90427
  16  -1.42127  -0.00615   3.66489
   6  -0.17730  -0.00084   2.45919
   6  -0.06824  -0.00037   1.06020
  16  -1.11239  -0.00508  -0.30956
   6   1.24153  -0.01482  -3.68613
   6   1.07795  -0.01516  -5.05959
   1  -0.32806  -0.00012  -6.69149
   1  -2.32215   0.02757  -5.21418
   1  -2.05709   0.02909  -2.78169
   1   2.46791   0.01107  -1.14829
   1   2.81094   0.89313   1.99016
   1   2.81919  -0.86836   1.99061
   1   1.95883   0.00851   5.07041
   1  -0.51906  -0.00217   5.93828
   1   2.24272  -0.02845  -3.27635
   1   1.94782  -0.02769  -5.70456
 read in order, maxerr=  4.39 for atom  22
 loop 3 2
 mod cartes coords mol 2
   6   0.20461  -0.00005  -5.61518
   6   1.32856  -0.01538  -4.78379
   6   1.17384  -0.01557  -3.40974
   6  -0.11574  -0.00059  -2.82556
   6  -0.29033  -0.00089  -1.39776
   6  -1.49986  -0.00561  -0.66887
   6  -1.30564  -0.00507   0.69587
   6  -2.16670  -0.00933   1.93857
   6  -1.11739  -0.00477   3.02583
   6  -1.09297  -0.00472   4.42295
   6   0.20505   0.00087   4.90427
  16   1.42127   0.00615   3.66489
   6   0.17730   0.00084   2.45919
   6   0.06824   0.00037   1.06020
  16   1.11239   0.00508  -0.30956
   6  -1.24153   0.01482  -3.68613
   6  -1.07795   0.01516  -5.05959
   1   0.32806   0.00012  -6.69149
   1   2.32215  -0.02757  -5.21418
   1   2.05709  -0.02909  -2.78169
   1  -2.46791  -0.01107  -1.14829
   1  -2.81094  -0.89313   1.99016
   1  -2.81919   0.86836   1.99061
   1  -1.95883  -0.00851   5.07041
   1   0.51906   0.00217   5.93828
   1  -2.24272   0.02845  -3.27635
   1  -1.94782   0.02769  -5.70456
 read in order, maxerr=  3.92 for atom  23
 loop 3 3
 mod cartes coords mol 2
   6   0.20461   0.00005  -5.61518
   6   1.32856   0.01538  -4.78379
   6   1.17384   0.01557  -3.40974
   6  -0.11574   0.00059  -2.82556
   6  -0.29033   0.00089  -1.39776
   6  -1.49986   0.00561  -0.66887
   6  -1.30564   0.00507   0.69587
   6  -2.16670   0.00933   1.93857
   6  -1.11739   0.00477   3.02583
   6  -1.09297   0.00472   4.42295
   6   0.20505  -0.00087   4.90427
  16   1.42127  -0.00615   3.66489
   6   0.17730  -0.00084   2.45919
   6   0.06824  -0.00037   1.06020
  16   1.11239  -0.00508  -0.30956
   6  -1.24153  -0.01482  -3.68613
   6  -1.07795  -0.01516  -5.05959
   1   0.32806  -0.00012  -6.69149
   1   2.32215   0.02757  -5.21418
   1   2.05709   0.02909  -2.78169
   1  -2.46791   0.01107  -1.14829
   1  -2.81094   0.89313   1.99016
   1  -2.81919  -0.86836   1.99061
   1  -1.95883   0.00851   5.07041
   1   0.51906  -0.00217   5.93828
   1  -2.24272  -0.02845  -3.27635
   1  -1.94782  -0.02769  -5.70456
 read in order, maxerr=  5.03 for atom  23
 loop 3 4
 mod cartes coords mol 2
   6  -0.20461  -0.00005   5.61518
   6  -1.32856  -0.01538   4.78379
   6  -1.17384  -0.01557   3.40974
   6   0.11574  -0.00059   2.82556
   6   0.29033  -0.00089   1.39776
   6   1.49986  -0.00561   0.66887
   6   1.30564  -0.00507  -0.69587
   6   2.16670  -0.00933  -1.93857
   6   1.11739  -0.00477  -3.02583
   6   1.09297  -0.00472  -4.42295
   6  -0.20505   0.00087  -4.90427
  16  -1.42127   0.00615  -3.66489
   6  -0.17730   0.00084  -2.45919
   6  -0.06824   0.00037  -1.06020
  16  -1.11239   0.00508   0.30956
   6   1.24153   0.01482   3.68613
   6   1.07795   0.01516   5.05959
   1  -0.32806   0.00012   6.69149
   1  -2.32215  -0.02757   5.21418
   1  -2.05709  -0.02909   2.78169
   1   2.46791  -0.01107   1.14829
   1   2.81094  -0.89313  -1.99016
   1   2.81919   0.86836  -1.99061
   1   1.95883  -0.00851  -5.07041
   1  -0.51906   0.00217  -5.93828
   1   2.24272   0.02845   3.27635
   1   1.94782   0.02769   5.70456
 read in order, maxerr= 13.44 for atom  18
 loop 3 5
 mod cartes coords mol 2
   6  -0.20461   0.00005   5.61518
   6  -1.32856   0.01538   4.78379
   6  -1.17384   0.01557   3.40974
   6   0.11574   0.00059   2.82556
   6   0.29033   0.00089   1.39776
   6   1.49986   0.00561   0.66887
   6   1.30564   0.00507  -0.69587
   6   2.16670   0.00933  -1.93857
   6   1.11739   0.00477  -3.02583
   6   1.09297   0.00472  -4.42295
   6  -0.20505  -0.00087  -4.90427
  16  -1.42127  -0.00615  -3.66489
   6  -0.17730  -0.00084  -2.45919
   6  -0.06824  -0.00037  -1.06020
  16  -1.11239  -0.00508   0.30956
   6   1.24153  -0.01482   3.68613
   6   1.07795  -0.01516   5.05959
   1  -0.32806  -0.00012   6.69149
   1  -2.32215   0.02757   5.21418
   1  -2.05709   0.02909   2.78169
   1   2.46791   0.01107   1.14829
   1   2.81094   0.89313  -1.99016
   1   2.81919  -0.86836  -1.99061
   1   1.95883   0.00851  -5.07041
   1  -0.51906  -0.00217  -5.93828
   1   2.24272  -0.02845   3.27635
   1   1.94782  -0.02769   5.70456
 read in order, maxerr= 13.44 for atom  18
 loop 3 6
 mod cartes coords mol 2
   6   0.20461  -0.00005   5.61518
   6   1.32856  -0.01538   4.78379
   6   1.17384  -0.01557   3.40974
   6  -0.11574  -0.00059   2.82556
   6  -0.29033  -0.00089   1.39776
   6  -1.49986  -0.00561   0.66887
   6  -1.30564  -0.00507  -0.69587
   6  -2.16670  -0.00933  -1.93857
   6  -1.11739  -0.00477  -3.02583
   6  -1.09297  -0.00472  -4.42295
   6   0.20505   0.00087  -4.90427
  16   1.42127   0.00615  -3.66489
   6   0.17730   0.00084  -2.45919
   6   0.06824   0.00037  -1.06020
  16   1.11239   0.00508   0.30956
   6  -1.24153   0.01482   3.68613
   6  -1.07795   0.01516   5.05959
   1   0.32806   0.00012   6.69149
   1   2.32215  -0.02757   5.21418
   1   2.05709  -0.02909   2.78169
   1  -2.46791  -0.01107   1.14829
   1  -2.81094  -0.89313  -1.99016
   1  -2.81919   0.86836  -1.99061
   1  -1.95883  -0.00851  -5.07041
   1   0.51906   0.00217  -5.93828
   1  -2.24272   0.02845   3.27635
   1  -1.94782   0.02769   5.70456
 read in order, maxerr= 13.44 for atom  18
 loop 3 7
 mod cartes coords mol 2
   6   0.20461   0.00005   5.61518
   6   1.32856   0.01538   4.78379
   6   1.17384   0.01557   3.40974
   6  -0.11574   0.00059   2.82556
   6  -0.29033   0.00089   1.39776
   6  -1.49986   0.00561   0.66887
   6  -1.30564   0.00507  -0.69587
   6  -2.16670   0.00933  -1.93857
   6  -1.11739   0.00477  -3.02583
   6  -1.09297   0.00472  -4.42295
   6   0.20505  -0.00087  -4.90427
  16   1.42127  -0.00615  -3.66489
   6   0.17730  -0.00084  -2.45919
   6   0.06824  -0.00037  -1.06020
  16   1.11239  -0.00508   0.30956
   6  -1.24153  -0.01482   3.68613
   6  -1.07795  -0.01516   5.05959
   1   0.32806  -0.00012   6.69149
   1   2.32215   0.02757   5.21418
   1   2.05709   0.02909   2.78169
   1  -2.46791   0.01107   1.14829
   1  -2.81094   0.89313  -1.99016
   1  -2.81919  -0.86836  -1.99061
   1  -1.95883   0.00851  -5.07041
   1   0.51906  -0.00217  -5.93828
   1  -2.24272  -0.02845   3.27635
   1  -1.94782  -0.02769   5.70456
 read in order, maxerr= 13.44 for atom  18
 loop 4 0
 mod cartes coords mol 2
   6  -5.61518  -0.00005  -0.20461
   6  -4.78379  -0.01538  -1.32856
   6  -3.40974  -0.01557  -1.17384
   6  -2.82556  -0.00059   0.11574
   6  -1.39776  -0.00089   0.29033
   6  -0.66887  -0.00561   1.49986
   6   0.69587  -0.00507   1.30564
   6   1.93857  -0.00933   2.16670
   6   3.02583  -0.00477   1.11739
   6   4.42295  -0.00472   1.09297
   6   4.90427   0.00087  -0.20505
  16   3.66489   0.00615  -1.42127
   6   2.45919   0.00084  -0.17730
   6   1.06020   0.00037  -0.06824
  16  -0.30956   0.00508  -1.11239
   6  -3.68613   0.01482   1.24153
   6  -5.05959   0.01516   1.07795
   1  -6.69149   0.00012  -0.32806
   1  -5.21418  -0.02757  -2.32215
   1  -2.78169  -0.02909  -2.05709
   1  -1.14829  -0.01107   2.46791
   1   1.99016  -0.89313   2.81094
   1   1.99061   0.86836   2.81919
   1   5.07041  -0.00851   1.95883
   1   5.93828   0.00217  -0.51906
   1  -3.27635   0.02845   2.24272
   1  -5.70456   0.02769   1.94782
 read in order, maxerr= 10.21 for atom  27
 loop 4 1
 mod cartes coords mol 2
   6  -5.61518   0.00005  -0.20461
   6  -4.78379   0.01538  -1.32856
   6  -3.40974   0.01557  -1.17384
   6  -2.82556   0.00059   0.11574
   6  -1.39776   0.00089   0.29033
   6  -0.66887   0.00561   1.49986
   6   0.69587   0.00507   1.30564
   6   1.93857   0.00933   2.16670
   6   3.02583   0.00477   1.11739
   6   4.42295   0.00472   1.09297
   6   4.90427  -0.00087  -0.20505
  16   3.66489  -0.00615  -1.42127
   6   2.45919  -0.00084  -0.17730
   6   1.06020  -0.00037  -0.06824
  16  -0.30956  -0.00508  -1.11239
   6  -3.68613  -0.01482   1.24153
   6  -5.05959  -0.01516   1.07795
   1  -6.69149  -0.00012  -0.32806
   1  -5.21418   0.02757  -2.32215
   1  -2.78169   0.02909  -2.05709
   1  -1.14829   0.01107   2.46791
   1   1.99016   0.89313   2.81094
   1   1.99061  -0.86836   2.81919
   1   5.07041   0.00851   1.95883
   1   5.93828  -0.00217  -0.51906
   1  -3.27635  -0.02845   2.24272
   1  -5.70456  -0.02769   1.94782
 read in order, maxerr= 10.22 for atom  27
 loop 4 2
 mod cartes coords mol 2
   6  -5.61518  -0.00005   0.20461
   6  -4.78379  -0.01538   1.32856
   6  -3.40974  -0.01557   1.17384
   6  -2.82556  -0.00059  -0.11574
   6  -1.39776  -0.00089  -0.29033
   6  -0.66887  -0.00561  -1.49986
   6   0.69587  -0.00507  -1.30564
   6   1.93857  -0.00933  -2.16670
   6   3.02583  -0.00477  -1.11739
   6   4.42295  -0.00472  -1.09297
   6   4.90427   0.00087   0.20505
  16   3.66489   0.00615   1.42127
   6   2.45919   0.00084   0.17730
   6   1.06020   0.00037   0.06824
  16  -0.30956   0.00508   1.11239
   6  -3.68613   0.01482  -1.24153
   6  -5.05959   0.01516  -1.07795
   1  -6.69149   0.00012   0.32806
   1  -5.21418  -0.02757   2.32215
   1  -2.78169  -0.02909   2.05709
   1  -1.14829  -0.01107  -2.46791
   1   1.99016  -0.89313  -2.81094
   1   1.99061   0.86836  -2.81919
   1   5.07041  -0.00851  -1.95883
   1   5.93828   0.00217   0.51906
   1  -3.27635   0.02845  -2.24272
   1  -5.70456   0.02769  -1.94782
 read in order, maxerr=  9.75 for atom  18
 loop 4 3
 mod cartes coords mol 2
   6  -5.61518   0.00005   0.20461
   6  -4.78379   0.01538   1.32856
   6  -3.40974   0.01557   1.17384
   6  -2.82556   0.00059  -0.11574
   6  -1.39776   0.00089  -0.29033
   6  -0.66887   0.00561  -1.49986
   6   0.69587   0.00507  -1.30564
   6   1.93857   0.00933  -2.16670
   6   3.02583   0.00477  -1.11739
   6   4.42295   0.00472  -1.09297
   6   4.90427  -0.00087   0.20505
  16   3.66489  -0.00615   1.42127
   6   2.45919  -0.00084   0.17730
   6   1.06020  -0.00037   0.06824
  16  -0.30956  -0.00508   1.11239
   6  -3.68613  -0.01482  -1.24153
   6  -5.05959  -0.01516  -1.07795
   1  -6.69149  -0.00012   0.32806
   1  -5.21418   0.02757   2.32215
   1  -2.78169   0.02909   2.05709
   1  -1.14829   0.01107  -2.46791
   1   1.99016   0.89313  -2.81094
   1   1.99061  -0.86836  -2.81919
   1   5.07041   0.00851  -1.95883
   1   5.93828  -0.00217   0.51906
   1  -3.27635  -0.02845  -2.24272
   1  -5.70456  -0.02769  -1.94782
 read in order, maxerr=  9.75 for atom  18
 loop 4 4
 mod cartes coords mol 2
   6   5.61518  -0.00005  -0.20461
   6   4.78379  -0.01538  -1.32856
   6   3.40974  -0.01557  -1.17384
   6   2.82556  -0.00059   0.11574
   6   1.39776  -0.00089   0.29033
   6   0.66887  -0.00561   1.49986
   6  -0.69587  -0.00507   1.30564
   6  -1.93857  -0.00933   2.16670
   6  -3.02583  -0.00477   1.11739
   6  -4.42295  -0.00472   1.09297
   6  -4.90427   0.00087  -0.20505
  16  -3.66489   0.00615  -1.42127
   6  -2.45919   0.00084  -0.17730
   6  -1.06020   0.00037  -0.06824
  16   0.30956   0.00508  -1.11239
   6   3.68613   0.01482   1.24153
   6   5.05959   0.01516   1.07795
   1   6.69149   0.00012  -0.32806
   1   5.21418  -0.02757  -2.32215
   1   2.78169  -0.02909  -2.05709
   1   1.14829  -0.01107   2.46791
   1  -1.99016  -0.89313   2.81094
   1  -1.99061   0.86836   2.81919
   1  -5.07041  -0.00851   1.95883
   1  -5.93828   0.00217  -0.51906
   1   3.27635   0.02845   2.24272
   1   5.70456   0.02769   1.94782
 read in order, maxerr=  9.26 for atom  18
 loop 4 5
 mod cartes coords mol 2
[...]
 nber times 1st assigned=          74           0
 nber times 1st assigned=          75           0
 nber times 1st assigned=          76           0
 nber times 1st assigned=          77           0
 nber times 1st assigned=          78           0
 nber times 1st assigned=          79           0
 nber times 1st assigned=          80           0
 nber times 1st assigned=          81           0
 Dushinsky matrix written to .out file
 modes represented=   81.1416301213749     

 Dushinsky matrix, ncs 1 in terms of ncs 2

   mode   freq    coeff     %      %tot     of    at

   7        40. -0.9167    84.0   137.2   7        13.
                -0.4064    16.5           8        42.
   8        45.  0.3951    15.6   282.5   7        13.
                -0.9128    83.3           8        42.
                -0.4121    17.0          17       361.
                -0.3818    14.6          58      1331.
                 0.5122    26.2          59      1336.
                 0.4109    16.9          66      1481.
                 0.3443    11.9          70      1591.
   9        78.  0.9705    94.2   430.3   9        94.
                 0.4450    19.8          10       115.
                -0.5090    25.9          13       206.
                -0.5839    34.1          23       551.
                 0.6546    42.9          25       586.
                 0.3961    15.7          30       676.
                -0.6208    38.5          34       780.
  10       124.  0.8849    78.3   138.4  10       115.
  11       144. -0.9657    93.3    99.0  11       138.
  12       186. -0.9308    86.6   121.6  12       204.
  13       224.  0.7326    53.7    99.5  13       206.
                 0.4001    16.0          16       329.
  14       253. -0.9563    91.5   100.0  14       253.
  15       259. -0.9474    89.8   103.7  15       269.
  16       290. -0.3372    11.4   102.0  13       206.
                 0.7790    60.7          16       329.
  17       357.  0.7803    60.9   109.5  17       361.
  18       414.  0.9956    99.1    99.5  18       393.
  19       436.  0.9805    96.1   102.9  19       442.
  20       467.  0.7475    55.9    97.5  20       444.
                 0.5084    25.8          21       465.
  21       477.  0.3743    14.0    98.6  20       444.
                -0.7757    60.2          21       465.
                -0.3419    11.7          22       520.
  22       516.  0.8883    78.9    96.2  22       520.
  23       556.  0.7369    54.3    98.9  23       551.
  24       570. -0.9800    96.0    99.8  24       572.
  25       585. -0.6546    42.9    98.6  25       586.
  26       608.  0.9801    96.1    99.9  26       601.
  27       632.  0.4559    20.8   100.2  27       622.
                 0.7823    61.2          28       646.
                -0.3460    12.0          33       755.
  28       634.  0.8194    67.1    99.4  27       622.
                -0.4207    17.7          28       646.
  29       659.  0.9715    94.4   100.0  29       654.
  30       696.  0.4194    17.6    99.3  28       646.
                 0.8760    76.7          33       755.
  31       698. -0.8565    73.4   102.0  31       687.
  32       708.  0.8685    75.4    99.6  30       676.
  33       714. -0.9844    96.9   100.2  32       712.
  34       774.  0.7286    53.1    98.2  34       780.
  35       817. -0.9955    99.1    99.6  35       817.
  36       848.  0.6499    42.2   100.2  36       830.
                -0.7045    49.6          37       862.
  37       850.  0.7442    55.4   100.4  36       830.
                 0.6220    38.7          37       862.
  38       877. -0.9842    96.9    99.7  38       908.
  39       920. -0.8443    71.3   100.5  39       915.
                 0.4398    19.3          40       942.
  40       924. -0.4346    18.9    99.1  39       915.
                -0.8086    65.4          40       942.
  41       936.  0.9687    93.8   100.4  41       952.
  42       958. -0.9674    93.6    98.7  42       956.
  43       978. -0.9898    98.0   100.4  43       994.
  44       999. -0.9788    95.8   100.0  47      1025.
  45      1001.  0.9461    89.5   100.3  44       995.
  46      1014. -0.9861    97.2    99.8  45      1008.
  47      1028.  0.9515    90.5   100.3  46      1024.
  48      1053. -0.9927    98.5   100.1  48      1046.
  49      1104.  0.9650    93.1    99.7  50      1113.
  50      1110.  0.9840    96.8   100.0  49      1105.
  51      1149.  0.9994    99.9   100.2  51      1167.
  52      1174. -0.6672    44.5   100.2  52      1186.
                 0.4075    16.6          53      1198.
                 0.5141    26.4          54      1207.
  53      1183.  0.4791    23.0   100.2  52      1186.
                 0.8333    69.4          53      1198.
  54      1206. -0.4340    18.8   100.1  54      1207.
                 0.7952    63.2          55      1220.
  55      1212. -0.4846    23.5    99.9  55      1220.
                -0.7671    58.8          56      1227.
  56      1234.  0.6047    36.6    99.7  54      1207.
                -0.5269    27.8          56      1227.
  57      1268.  0.9522    90.7    99.9  57      1280.
  58      1317.  0.4656    21.7   100.4  58      1331.
                -0.6662    44.4          59      1336.
  59      1357.  0.9661    93.3   100.1  61      1369.
  60      1361. -0.5647    31.9    99.3  58      1331.
                -0.3946    15.6          60      1359.
                 0.4168    17.4          65      1474.
  61      1404.  0.3562    12.7    99.9  58      1331.
                 0.7853    61.7          65      1474.
  62      1423. -0.6885    47.4   100.0  60      1359.
                 0.3626    13.1          63      1439.
  63      1439.  0.8131    66.1    99.9  62      1432.
                -0.3213    10.3          64      1461.
  64      1458.  0.4167    17.4    99.6  60      1359.
                 0.6491    42.1          67      1489.
                 0.3274    10.7          69      1545.
  65      1468. -0.5326    28.4    99.4  64      1461.
                 0.4205    17.7          67      1489.
                -0.5775    33.3          69      1545.
  66      1479.  0.6967    48.5    99.9  66      1481.
                 0.4415    19.5          69      1545.
  67      1519. -0.3854    14.9   100.3  64      1461.
                -0.6450    41.6          68      1524.
                 0.3685    13.6          69      1545.
  68      1532.  0.5691    32.4   101.0  63      1439.
                -0.6066    36.8          64      1461.
                -0.3522    12.4          67      1489.
                 0.3250    10.6          68      1524.
  69      1556. -0.3254    10.6   100.6  62      1432.
                -0.4930    24.3          63      1439.
                 0.6355    40.4          68      1524.
  70      1613.  0.8970    80.5   100.3  70      1591.
  71      1641.  0.9897    97.9    99.8  71      1624.
  72      3027.  1.0000   100.0   100.0  72      3043.
  73      3055.  1.0000   100.0   100.0  73      3074.
  74      3161.  0.6377    40.7   100.0  74      3177.
                -0.7532    56.7          75      3187.
  75      3167.  0.5924    35.1   100.0  74      3177.
                 0.5495    30.2          75      3187.
                 0.5725    32.8          76      3196.
  76      3177.  0.4255    18.1   100.0  74      3177.
                 0.3544    12.6          75      3187.
                -0.8122    66.0          76      3196.
  77      3183.  0.9093    82.7   100.0  77      3204.
                -0.3394    11.5          78      3209.
  78      3191. -0.3267    10.7   100.0  77      3204.
                -0.9330    87.0          78      3209.
  79      3199.  0.9805    96.1   100.0  79      3220.
  80      3201. -0.9917    98.4   100.0  80      3230.
  81      3246.  0.9849    97.0   100.0  81      3241.
 nber times 1st assigned=           1           0
 nber times 1st assigned=           2           0
 nber times 1st assigned=           3           0
 nber times 1st assigned=           4           0
 nber times 1st assigned=           5           0
 nber times 1st assigned=           6           0
 nber times 1st assigned=           7           0
 nber times 1st assigned=           8           0
 nber times 1st assigned=           9           0
 nber times 1st assigned=          10           0
 nber times 1st assigned=          11           0
 nber times 1st assigned=          12           0
 nber times 1st assigned=          13           0
 nber times 1st assigned=          14           0
 nber times 1st assigned=          15           0
 nber times 1st assigned=          16           0
 nber times 1st assigned=          17           0
 nber times 1st assigned=          18           0
 nber times 1st assigned=          19           0
 nber times 1st assigned=          20           0
 nber times 1st assigned=          21           0
 nber times 1st assigned=          22           0
 nber times 1st assigned=          23           0
 nber times 1st assigned=          24           0
 nber times 1st assigned=          25           0
 nber times 1st assigned=          26           0
 nber times 1st assigned=          27           0
 nber times 1st assigned=          28           0
 nber times 1st assigned=          29           0
 nber times 1st assigned=          30           0
 nber times 1st assigned=          31           0
 nber times 1st assigned=          32           0
 nber times 1st assigned=          33           0
 nber times 1st assigned=          34           0
 nber times 1st assigned=          35           0
 nber times 1st assigned=          36           0
 nber times 1st assigned=          37           0
 nber times 1st assigned=          38           0
 nber times 1st assigned=          39           0
 nber times 1st assigned=          40           0
 nber times 1st assigned=          41           0
 nber times 1st assigned=          42           0
 nber times 1st assigned=          43           0
 nber times 1st assigned=          44           0
 nber times 1st assigned=          45           0
 nber times 1st assigned=          46           0
 nber times 1st assigned=          47           0
 nber times 1st assigned=          48           0
 nber times 1st assigned=          49           0
 nber times 1st assigned=          50           0
 nber times 1st assigned=          51           0
 nber times 1st assigned=          52           0
 nber times 1st assigned=          53           0
 nber times 1st assigned=          54           0
 nber times 1st assigned=          55           0
 nber times 1st assigned=          56           0
 nber times 1st assigned=          57           0
 nber times 1st assigned=          58           0
 nber times 1st assigned=          59           0
 nber times 1st assigned=          60           0
 nber times 1st assigned=          61           0
 nber times 1st assigned=          62           0
 nber times 1st assigned=          63           0
 nber times 1st assigned=          64           0
 nber times 1st assigned=          65           0
 nber times 1st assigned=          66           0
 nber times 1st assigned=          67           0
 nber times 1st assigned=          68           0
 nber times 1st assigned=          69           0
 nber times 1st assigned=          70           0
 nber times 1st assigned=          71           0
 nber times 1st assigned=          72           0
 nber times 1st assigned=          73           0
 nber times 1st assigned=          74           0
 nber times 1st assigned=          75           0
 nber times 1st assigned=          76           0
 nber times 1st assigned=          77           0
 nber times 1st assigned=          78           0
 nber times 1st assigned=          79           0
 nber times 1st assigned=          80           0
 nber times 1st assigned=          81           0
 modes represented=   81.1416301213749     
 p1=
   -0.   -0.    0.   -0.   -0.    0. -155.   65.    1.   -5.    8.   14.   -7.    4.   17.    1.    1.   -3.    4.   -2.
   -2.    1.   -0.    1.    1.   -6.    0.   -0.   -2.   -0.    3.   -1.    3.    1.   -2.    1.    0.   -0.   -1.   -1.
   -0.    1.    0.    0.    1.   -1.   -1.    1.    0.   -0.   -0.   -0.    0.    1.   -1.    1.   -0.    0.    1.   -2.
    2.   -2.    1.    0.   -3.    1.    0.    0.    1.   -0.   -1.    0.    0.    0.   -0.   -0.   -0.   -0.   -0.    0.
    0.
 p2=
    0.    0.    0.    0.   -0.   -0. -170.   -0.   -5.    1.    1.   13.    8.    1.   14.   -1.   -2.    1.   -5.    1.
   -0.   -3.   -0.    1.   -0.    6.    1.    0.    1.    0.    4.    3.    0.    0.   -1.    1.   -1.    0.   -1.    0.
   -0.    1.   -0.   -2.   -1.    0.   -0.    1.    0.   -1.    0.   -1.    1.   -1.   -2.    1.    0.   -2.   -2.   -3.
   -0.    0.    0.   -0.   -2.    1.    1.   -1.   -3.   -0.    1.   -0.    0.    0.    0.   -0.   -0.   -0.    0.    0.
   -0.

 Displacement: in terms of nc of 1 THEN of nc of 2

   1     freq=    -0. Q= -0.000 lam=    -0.0     freq=    -0. Q= -0.000 lam=    -0.0
   2     freq=     0. Q= -0.000 lam=     0.0     freq=    -0. Q= -0.000 lam=    -0.0
   3     freq=     0. Q=  0.000 lam=     0.0     freq=     0. Q=  0.000 lam=     0.0
   4     freq=     0. Q= -0.000 lam=     0.0     freq=     0. Q= -0.000 lam=     0.0
   5     freq=     0. Q= -0.000 lam=     0.0     freq=     0. Q= -0.000 lam=     0.0
   6     freq=     0. Q=  0.000 lam=     0.0     freq=     0. Q=  0.000 lam=     0.0
   7     freq=    40. Q= -3.918 lam=   303.2     freq=    13. Q= -2.501 lam=    41.8
   8     freq=    45. Q=  1.770 lam=    70.7     freq=    42. Q=  0.006 lam=     0.0
   9     freq=    78. Q=  0.053 lam=     0.1     freq=    94. Q=  0.200 lam=     1.9
  10     freq=   124. Q= -0.239 lam=     3.6     freq=   115. Q= -0.056 lam=     0.2
  11     freq=   144. Q=  0.410 lam=    12.1     freq=   138. Q=  0.036 lam=     0.1
  12     freq=   186. Q=  0.759 lam=    53.7     freq=   204. Q=  0.734 lam=    55.1
  13     freq=   224. Q= -0.431 lam=    20.8     freq=   206. Q= -0.481 lam=    23.9
  14     freq=   253. Q=  0.260 lam=     8.6     freq=   253. Q=  0.043 lam=     0.2
  15     freq=   259. Q=  1.085 lam=   152.7     freq=   269. Q=  0.934 lam=   117.2
  16     freq=   290. Q=  0.036 lam=     0.2     freq=   329. Q=  0.066 lam=     0.7
  17     freq=   357. Q=  0.053 lam=     0.5     freq=   361. Q=  0.143 lam=     3.7
  18     freq=   414. Q= -0.262 lam=    14.2     freq=   393. Q= -0.116 lam=     2.6
  19     freq=   436. Q=  0.311 lam=    21.1     freq=   442. Q=  0.387 lam=    33.1
  20     freq=   467. Q= -0.134 lam=     4.2     freq=   444. Q= -0.108 lam=     2.6
  21     freq=   477. Q= -0.214 lam=    10.9     freq=   465. Q= -0.039 lam=     0.3
  22     freq=   516. Q=  0.124 lam=     4.0     freq=   520. Q=  0.306 lam=    24.3
  23     freq=   556. Q= -0.020 lam=     0.1     freq=   551. Q= -0.004 lam=     0.0
  24     freq=   570. Q=  0.054 lam=     0.8     freq=   572. Q=  0.076 lam=     1.7
  25     freq=   585. Q=  0.094 lam=     2.6     freq=   586. Q=  0.048 lam=     0.7
  26     freq=   608. Q= -0.568 lam=    98.1     freq=   601. Q= -0.593 lam=   105.7
  27     freq=   632. Q=  0.012 lam=     0.0     freq=   622. Q=  0.065 lam=     1.3
  28     freq=   634. Q= -0.039 lam=     0.5     freq=   646. Q= -0.041 lam=     0.5
  29     freq=   659. Q= -0.183 lam=    11.0     freq=   654. Q= -0.114 lam=     4.2
  30     freq=   696. Q= -0.044 lam=     0.7     freq=   676. Q= -0.005 lam=     0.0
  31     freq=   698. Q=  0.314 lam=    34.4     freq=   687. Q=  0.376 lam=    48.6
  32     freq=   708. Q= -0.137 lam=     6.7     freq=   712. Q= -0.353 lam=    44.2
  33     freq=   714. Q=  0.352 lam=    44.3     freq=   755. Q=  0.013 lam=     0.1
  34     freq=   774. Q=  0.077 lam=     2.3     freq=   780. Q=  0.019 lam=     0.1
  35     freq=   817. Q= -0.179 lam=    13.1     freq=   817. Q= -0.158 lam=    10.2
  36     freq=   848. Q=  0.137 lam=     8.0     freq=   830. Q=  0.166 lam=    11.4
  37     freq=   850. Q=  0.057 lam=     1.4     freq=   862. Q=  0.062 lam=     1.6
  38     freq=   877. Q= -0.009 lam=     0.0     freq=   908. Q= -0.012 lam=     0.1
  39     freq=   920. Q= -0.149 lam=    10.2     freq=   915. Q= -0.135 lam=     8.4
  40     freq=   924. Q= -0.081 lam=     3.0     freq=   942. Q= -0.004 lam=     0.0
  41     freq=   936. Q= -0.003 lam=     0.0     freq=   952. Q= -0.010 lam=     0.0
  42     freq=   958. Q=  0.067 lam=     2.2     freq=   956. Q=  0.107 lam=     5.5
  43     freq=   978. Q=  0.050 lam=     1.2     freq=   994. Q=  0.062 lam=     1.9
  44     freq=   999. Q=  0.026 lam=     0.3     freq=   995. Q=  0.245 lam=    29.8
  45     freq=  1001. Q=  0.189 lam=    17.9     freq=  1008. Q=  0.128 lam=     8.2
  46     freq=  1014. Q= -0.127 lam=     8.1     freq=  1024. Q= -0.063 lam=     2.0
  47     freq=  1028. Q= -0.172 lam=    15.2     freq=  1025. Q= -0.003 lam=     0.0
  48     freq=  1053. Q=  0.069 lam=     2.5     freq=  1046. Q=  0.075 lam=     3.0
  49     freq=  1104. Q=  0.049 lam=     1.4     freq=  1105. Q=  0.045 lam=     1.1
  50     freq=  1110. Q= -0.019 lam=     0.2     freq=  1113. Q= -0.123 lam=     8.4
  51     freq=  1149. Q= -0.000 lam=     0.0     freq=  1167. Q= -0.000 lam=     0.0
  52     freq=  1174. Q= -0.064 lam=     2.4     freq=  1186. Q= -0.172 lam=    17.5
  53     freq=  1183. Q=  0.007 lam=     0.0     freq=  1198. Q=  0.088 lam=     4.7
  54     freq=  1206. Q=  0.098 lam=     5.8     freq=  1207. Q=  0.129 lam=    10.0
  55     freq=  1212. Q= -0.134 lam=    10.9     freq=  1220. Q= -0.321 lam=    62.7
  56     freq=  1234. Q=  0.200 lam=    24.8     freq=  1227. Q=  0.103 lam=     6.5
  57     freq=  1268. Q= -0.060 lam=     2.3     freq=  1280. Q= -0.034 lam=     0.7
  58     freq=  1317. Q=  0.027 lam=     0.5     freq=  1331. Q=  0.365 lam=    88.5
  59     freq=  1357. Q=  0.107 lam=     7.7     freq=  1336. Q=  0.237 lam=    37.6
  60     freq=  1361. Q= -0.368 lam=    92.2     freq=  1359. Q= -0.419 lam=   119.2
  61     freq=  1404. Q=  0.370 lam=    96.1     freq=  1369. Q=  0.060 lam=     2.4
  62     freq=  1423. Q= -0.256 lam=    46.8     freq=  1432. Q= -0.029 lam=     0.6
  63     freq=  1439. Q=  0.213 lam=    32.6     freq=  1439. Q=  0.061 lam=     2.7
  64     freq=  1458. Q=  0.070 lam=     3.6     freq=  1461. Q=  0.065 lam=     3.1
  65     freq=  1468. Q= -0.527 lam=   203.5     freq=  1474. Q= -0.315 lam=    73.2
  66     freq=  1479. Q=  0.126 lam=    11.8     freq=  1481. Q=  0.111 lam=     9.1
  67     freq=  1519. Q=  0.036 lam=     1.0     freq=  1489. Q=  0.173 lam=    22.2
  68     freq=  1532. Q=  0.028 lam=     0.6     freq=  1524. Q=  0.202 lam=    31.1
  69     freq=  1556. Q=  0.162 lam=    20.5     freq=  1545. Q=  0.407 lam=   128.3
  70     freq=  1613. Q= -0.010 lam=     0.1     freq=  1591. Q= -0.036 lam=     1.0
  71     freq=  1641. Q= -0.095 lam=     7.4     freq=  1624. Q= -0.119 lam=    11.4
  72     freq=  3027. Q=  0.014 lam=     0.3     freq=  3043. Q=  0.016 lam=     0.4
  73     freq=  3055. Q=  0.000 lam=     0.0     freq=  3074. Q=  0.000 lam=     0.0
  74     freq=  3161. Q=  0.009 lam=     0.1     freq=  3177. Q=  0.000 lam=     0.0
  75     freq=  3167. Q= -0.001 lam=     0.0     freq=  3187. Q= -0.005 lam=     0.0
  76     freq=  3177. Q= -0.006 lam=     0.1     freq=  3196. Q= -0.005 lam=     0.0
  77     freq=  3183. Q= -0.001 lam=     0.0     freq=  3204. Q= -0.004 lam=     0.0
  78     freq=  3191. Q= -0.020 lam=     0.6     freq=  3209. Q= -0.023 lam=     0.8
  79     freq=  3199. Q= -0.013 lam=     0.3     freq=  3220. Q= -0.016 lam=     0.4
  80     freq=  3201. Q=  0.019 lam=     0.6     freq=  3230. Q=  0.021 lam=     0.7
  81     freq=  3246. Q=  0.013 lam=     0.3     freq=  3241. Q=  0.012 lam=     0.2

 total reorg energy (cm**-1, kcal/mol)=     1539.     1242.      4.40      3.55
 Nber of molecules processed=           2
