 Enter ifcurve (0=recti, 1=orth curvi, 2=apprx curvi, -1 = skip
 And atom ordering flag, 0= never changes, 1= use the first order thenceforth,
  2= deduce it (does read on fail), 3= always read it
 Reading file: 
 ./Non-cov-phenyl-N_3_C0S0.log                                                  
                                          
  Entering Gaussian System, Link 0=g16                                          
  
 Gaussian format, type: g94, g98, g03= F F F
  #P Geom=AllCheck Guess=TCheck SCRF=Check GenChk RB3LYP/6-311G(d,p) Fre    
 energy type= B3LYP   
 Original G94 input coords:
  6  7.567728  0.000000  0.000000
  6  6.862042 -1.200570  0.000000
  6  5.471631 -1.200142  0.000000
  6  4.740102  0.000000  0.000000
  6  3.256015  0.000000  0.000000
  6  2.484644  1.172910  0.000000
  7  1.157748  1.185635  0.000000
  6  0.527750  0.000000  0.000000
  6 -0.952057  0.000000  0.000000
  6 -1.665400  1.207653  0.000000
  6 -3.051862  1.207501  0.000000
  6 -3.764864  0.000000  0.000000
  6 -5.247330  0.000000  0.000000
  7 -5.869523  1.191504  0.000000
  6 -7.199965  1.179548  0.000000
  6 -7.937199  0.000000  0.000000
  6 -7.199965 -1.179548  0.000000
  7 -5.869523 -1.191504  0.000000
  6 -3.051862 -1.207501  0.000000
  6 -1.665400 -1.207653  0.000000
  7  1.157748 -1.185635  0.000000
  6  2.484644 -1.172910  0.000000
  6  5.471631  1.200142  0.000000
  6  6.862042  1.200570  0.000000
  1  8.651721  0.000000  0.000000
  1  7.394711 -2.145051  0.000000
  1  4.959308 -2.153025  0.000000
  1  2.953556  2.151769  0.000000
  1 -1.113593  2.137975  0.000000
  1 -3.603971  2.137668  0.000000
  1 -7.690762  2.149523  0.000000
  1 -9.018993  0.000000  0.000000
  1 -7.690762 -2.149523  0.000000
  1 -3.603971 -2.137668  0.000000
  1 -1.113593 -2.137975  0.000000
  1  2.953556 -2.151769  0.000000
  1  4.959308  2.153025  0.000000
  1  7.394711  2.145051  0.000000
 nber atoms=          38
 Original standard coords:
  6  0.000000  0.000000 -7.793529
  6  0.000000  1.200570 -7.087842
  6  0.000000  1.200142 -5.697431
  6  0.000000  0.000000 -4.965902
  6  0.000000  0.000000 -3.481816
  6  0.000000 -1.172910 -2.710444
  7  0.000000 -1.185635 -1.383549
  6  0.000000  0.000000 -0.753550
  6  0.000000  0.000000  0.726256
  6  0.000000 -1.207653  1.439600
  6  0.000000 -1.207501  2.826062
  6  0.000000  0.000000  3.539063
  6  0.000000  0.000000  5.021530
  7  0.000000 -1.191504  5.643722
  6  0.000000 -1.179548  6.974165
  6  0.000000  0.000000  7.711398
  6  0.000000  1.179548  6.974165
  7  0.000000  1.191504  5.643722
  6  0.000000  1.207501  2.826062
  6  0.000000  1.207653  1.439600
  7  0.000000  1.185635 -1.383549
  6  0.000000  1.172910 -2.710444
  6  0.000000 -1.200142 -5.697431
  6  0.000000 -1.200570 -7.087842
  1  0.000000  0.000000 -8.877522
  1  0.000000  2.145051 -7.620511
  1  0.000000  2.153025 -5.185108
  1  0.000000 -2.151769 -3.179357
  1  0.000000 -2.137975  0.887793
  1  0.000000 -2.137668  3.378171
  1  0.000000 -2.149523  7.464962
  1  0.000000  0.000000  8.793193
  1  0.000000  2.149523  7.464962
  1  0.000000  2.137668  3.378171
  1  0.000000  2.137975  0.887793
  1  0.000000  2.151769 -3.179357
  1  0.000000 -2.153025 -5.185108
  1  0.000000 -2.145051 -7.620511
  SCF Done:  E(RB3LYP) =  -989.811856142     A.U. after    1 cycles             
  
          23          40 "  -989.811856142"
After scan for Atom:   Atom  AN      X      Y      Z        X      Y      Z        X      Y      Z   
After scan for Atom:   Atom  AN      X      Y      Z        X      Y      Z        X      Y      Z   
After scan for Atom:   Atom  AN      X      Y      Z        X      Y      Z        X      Y      Z   
After scan for Atom:   Atom  AN      X      Y      Z        X      Y      Z        X      Y      Z   
After scan for Atom:   Atom  AN      X      Y      Z        X      Y      Z        X      Y      Z   
After scan for Atom:   Atom  AN      X      Y      Z        X      Y      Z        X      Y      Z   
After scan for Atom:   Atom  AN      X      Y      Z        X      Y      Z        X      Y      Z   
After scan for Atom:   Atom  AN      X      Y      Z        X      Y      Z        X      Y      Z   
After scan for Atom:   Atom  AN      X      Y      Z        X      Y      Z        X      Y      Z   
After scan for Atom:   Atom  AN      X      Y      Z        X      Y      Z        X      Y      Z   
After scan for Atom:   Atom  AN      X      Y      Z        X      Y      Z        X      Y      Z   
After scan for Atom:   Atom  AN      X      Y      Z        X      Y      Z        X      Y      Z   
After scan for Atom:   Atom  AN      X      Y      Z        X      Y      Z        X      Y      Z   
After scan for Atom:   Atom  AN      X      Y      Z        X      Y      Z        X      Y      Z   
After scan for Atom:   Atom  AN      X      Y      Z        X      Y      Z        X      Y      Z   
After scan for Atom:   Atom  AN      X      Y      Z        X      Y      Z        X      Y      Z   
After scan for Atom:   Atom  AN      X      Y      Z        X      Y      Z        X      Y      Z   
After scan for Atom:   Atom  AN      X      Y      Z        X      Y      Z        X      Y      Z   
After scan for Atom:   Atom  AN      X      Y      Z        X      Y      Z        X      Y      Z   
After scan for Atom:   Atom  AN      X      Y      Z        X      Y      Z        X      Y      Z   
After scan for Atom:   Atom  AN      X      Y      Z        X      Y      Z        X      Y      Z   
After scan for Atom:   Atom  AN      X      Y      Z        X      Y      Z        X      Y      Z   
After scan for Atom:   Atom  AN      X      Y      Z        X      Y      Z        X      Y      Z   
After scan for Atom:   Atom  AN      X      Y      Z        X      Y      Z        X      Y      Z   
After scan for Atom:   Atom  AN      X      Y      Z        X      Y      Z        X      Y      Z   
After scan for Atom:   Atom  AN      X      Y      Z        X      Y      Z        X      Y      Z   
After scan for Atom:   Atom  AN      X      Y      Z        X      Y      Z        X      Y      Z   
After scan for Atom:   Atom  AN      X      Y      Z        X      Y      Z        X      Y      Z   
After scan for Atom:   Atom  AN      X      Y      Z        X      Y      Z        X      Y      Z   
After scan for Atom:   Atom  AN      X      Y      Z        X      Y      Z        X      Y      Z   
After scan for Atom:   Atom  AN      X      Y      Z        X      Y      Z        X      Y      Z   
After scan for Atom:   Atom  AN      X      Y      Z        X      Y      Z        X      Y      Z   
After scan for Atom:   Atom  AN      X      Y      Z        X      Y      Z        X      Y      Z   
After scan for Atom:   Atom  AN      X      Y      Z        X      Y      Z        X      Y      Z   
After scan for Atom:   Atom  AN      X      Y      Z        X      Y      Z        X      Y      Z   
After scan for Atom:   Atom  AN      X      Y      Z        X      Y      Z        X      Y      Z   
 g94    frequencies=
     0.0    0.0    0.0    0.0    0.0    0.0  -74.4   19.9   33.7   52.9
    58.3   66.1  119.8  134.1  162.2  173.4  211.3  256.9  336.8  349.4
   378.2  390.4  409.3  414.3  420.9  442.8  444.6  482.9  506.8  514.5
   562.1  590.0  631.9  640.8  656.4  657.7  671.1  700.2  713.3  750.7
   779.8  784.6  814.0  816.4  826.2  840.9  849.1  875.7  905.0  925.8
   961.5  970.0  986.8 1001.4 1003.4 1005.7 1009.2 1012.9 1018.7 1018.9
  1020.0 1033.5 1054.4 1064.2 1071.0 1100.1 1110.6 1112.2 1113.1 1128.4
  1186.4 1194.3 1219.7 1222.6 1237.5 1274.9 1288.4 1303.0 1313.8 1332.3
  1344.0 1351.1 1366.0 1371.5 1409.9 1435.1 1448.3 1468.2 1471.7 1483.6
  1538.0 1541.9 1564.2 1589.2 1614.8 1614.9 1619.0 1621.7 1646.4 1652.5
  3143.1 3145.0 3156.6 3157.7 3164.0 3172.6 3186.6 3201.1 3201.9 3202.8
  3203.3 3206.5 3214.8 3216.4
 g94    symmetries=
                                                A2     B1     A2     B2
      B1     A2     B1     B2     B1     A1     B2     B1     A1     B1
      B2     A2     A2     A2     A2     B1     B2     A1     B2     B1
      B1     B1     B2     B2     B2     A1     B2     B1     A1     B1
      B1     A1     B1     B1     A1     A2     B1     A2     B1     B1
      B1     A2     A2     A2     B1     B1     A1     A1     A2     B1
      A1     A1     A1     A1     A1     A1     B2     A1     B2     B2
      B2     A1     A1     B2     B2     B2     B2     A1     B2     B2
      A1     B2     A1     B2     B2     B2     A1     B2     A1     B2
      A1     A1     B2     B2     B2     A1     A1     B2     A1     A1
      A1     B2     B2     A1     A1     B2     A1     B2     A1     B2
      A1     A1     B2     A1
 atomic masses:
 12.0000 12.0000 12.0000 12.0000 12.0000 12.0000 14.0031 12.0000 12.0000 12.0000
 12.0000 12.0000 12.0000 14.0031 12.0000 12.0000 12.0000 14.0031 12.0000 12.0000
 14.0031 12.0000 12.0000 12.0000  1.0078  1.0078  1.0078  1.0078  1.0078  1.0078
  1.0078  1.0078  1.0078  1.0078  1.0078  1.0078  1.0078  1.0078
 looking for force constants in 
 ./Non-cov-phenyl-N_3_C0S0.fchk                                                 
  
 Cartesian Force Constants                  R   N=        6555                  
  
 n3=         114        6555
 g94-fc frequencies=
   -74.4   -2.1   -1.8   -0.0   -0.0    0.0    2.1   19.9   33.7   52.9
    58.3   66.1  119.8  134.1  162.3  173.4  211.3  256.9  336.8  349.4
   378.2  390.4  409.3  414.3  420.9  442.8  444.6  482.9  506.8  514.5
   562.1  590.0  632.0  640.8  656.5  657.7  671.2  700.2  713.3  750.7
   779.8  784.6  814.0  816.4  826.2  841.0  849.1  875.7  905.0  925.8
   961.5  970.0  986.8 1001.5 1003.4 1005.7 1009.2 1012.9 1018.7 1018.9
  1020.0 1033.5 1054.4 1064.2 1071.0 1100.1 1110.7 1112.2 1113.1 1128.5
  1186.4 1194.3 1219.7 1222.6 1237.5 1274.9 1288.5 1303.0 1313.8 1332.3
  1344.0 1351.1 1366.1 1371.6 1410.0 1435.1 1448.3 1468.2 1471.7 1483.7
  1538.0 1542.0 1564.2 1589.3 1614.8 1615.0 1619.0 1621.8 1646.5 1652.6
  3143.2 3145.0 3156.7 3157.8 3164.0 3172.7 3186.7 3201.2 3201.9 3202.8
  3203.3 3206.5 3214.9 3216.5
 at 99999: n3=         114
 symm operator            1 :  T  nop=           1
 symm operator            2 :  F  nop=           1
 symm operator            3 :  F  nop=           1
 symm operator            4 :  F  nop=           1
 symm operator            5 :  F  nop=           1
 symm operator            6 :  T  nop=           2
 symm operator            7 :  T  nop=           3
 The point group of the molecule is C2V
 enforcing symm op           1  jsymt=          -1          -1           1
 enforcing symm op           6  jsymt=           1          -1           1
 enforcing symm op           7  jsymt=          -1           1           1
 cartesian coord symmetries:
 A1 :   38 A2 :   14 B1 :   24 B2 :   38
 Symmetry rotation matrix:
   1.00000   0.00000   0.00000
   0.00000   1.00000   0.00000
   0.00000   0.00000   1.00000

 Projecting out zero-frequency components
 generating redundant internal coords
         300        3600          38
 search for int coords
   1 str   2   1   1.393
   2 str   3   2   1.390
   3 str   4   3   1.406
   4 str   5   4   1.484
   5 str   6   5   1.404
   6 str   7   6   1.327
   7 str   8   7   1.343
   8 str   9   8   1.480
   9 str  10   9   1.403
  10 str  11  10   1.386
  11 str  12  11   1.402
  12 str  13  12   1.482
  13 str  14  13   1.344
  14 str  15  14   1.330
  15 str  16  15   1.391
  16 str  17  16   1.391
  17 str  18  13   1.344
  18 str  18  17   1.330
  19 str  19  12   1.402
  20 str  20   9   1.403
  21 str  20  19   1.386
  22 str  21   8   1.343
  23 str  22   5   1.404
  24 str  22  21   1.327
  25 str  23   4   1.406
  26 str  24   1   1.393
  27 str  24  23   1.390
  28 str  25   1   1.084
  29 str  26   2   1.084
  30 str  27   3   1.082
  31 str  28   6   1.085
  32 str  29  10   1.082
  33 str  30  11   1.082
  34 str  31  15   1.087
  35 str  32  16   1.082
  36 str  33  17   1.087
  37 str  34  19   1.082
  38 str  35  20   1.082
  39 str  36  22   1.085
  40 str  37  23   1.082
  41 str  38  24   1.084
 nber stretches=          41
  42 ben   1   2   3
  43 prop tor   1   2   3   4
  44 prop tor   1   2   3  27
  45 ben   1   2  26
  46 ben   1  24  23
  47 ben   1  24  38
  48 ben   2   1  24
  49 prop tor   2   1  24  23
  50 prop tor   2   1  24  38
  51 ben   2   1  25
  52 ben   2   3   4
  53 prop tor   2   3   4   5
  54 prop tor   2   3   4  23
  55 ben   2   3  27
  56 ben   3   2  26
  57 ben   3   4   5
  58 prop tor   3   4   5   6
  59 prop tor   3   4   5  22
  60 ben   3   4  23
  61 prop tor   3   4  23  24
  62 prop tor   3   4  23  37
  63 ben   4   3  27
  64 ben   4   5   6
  65 prop tor   4   5   6   7
  66 prop tor   4   5   6  28
  67 ben   4   5  22
  68 prop tor   4   5  22  21
  69 prop tor   4   5  22  36
  70 ben   4  23  24
  71 prop tor   4  23  24   1
  72 prop tor   4  23  24  38
  73 ben   4  23  37
  74 ben   5   4  23
  75 prop tor   5   4  23  24
  76 prop tor   5   4  23  37
  77 ben   5   6   7
  78 prop tor   5   6   7   8
  79 ben   5   6  28
  80 ben   5  22  21
  81 ben   5  22  36
  82 ben   6   5  22
  83 prop tor   6   5  22  21
  84 prop tor   6   5  22  36
  85 ben   6   7   8
  86 prop tor   6   7   8   9
  87 prop tor   6   7   8  21
  88 ben   7   6  28
  89 ben   7   8   9
  90 prop tor   7   8   9  10
  91 prop tor   7   8   9  20
  92 ben   7   8  21
  93 prop tor   7   8  21  22
  94 ben   8   9  10
  95 prop tor   8   9  10  11
  96 prop tor   8   9  10  29
  97 ben   8   9  20
  98 prop tor   8   9  20  19
  99 prop tor   8   9  20  35
 100 ben   8  21  22
 101 prop tor   8  21  22   5
 102 prop tor   8  21  22  36
 103 ben   9   8  21
 104 prop tor   9   8  21  22
 105 ben   9  10  11
 106 prop tor   9  10  11  12
 107 prop tor   9  10  11  30
 108 ben   9  10  29
 109 ben   9  20  19
 110 ben   9  20  35
 111 ben  10   9  20
 112 prop tor  10   9  20  19
 113 prop tor  10   9  20  35
 114 ben  10  11  12
 115 prop tor  10  11  12  13
 116 prop tor  10  11  12  19
 117 ben  10  11  30
 118 ben  11  10  29
 119 ben  11  12  13
 120 prop tor  11  12  13  14
 121 prop tor  11  12  13  18
 122 ben  11  12  19
 123 prop tor  11  12  19  20
 124 prop tor  11  12  19  34
 125 ben  12  11  30
 126 ben  12  13  14
 127 prop tor  12  13  14  15
 128 ben  12  13  18
 129 prop tor  12  13  18  17
 130 ben  12  19  20
 131 prop tor  12  19  20   9
 132 prop tor  12  19  20  35
 133 ben  12  19  34
 134 ben  13  12  19
 135 prop tor  13  12  19  20
 136 prop tor  13  12  19  34
 137 ben  13  14  15
 138 prop tor  13  14  15  16
 139 prop tor  13  14  15  31
 140 ben  13  18  17
 141 ben  14  13  18
 142 prop tor  14  13  18  17
 143 ben  14  15  16
 144 prop tor  14  15  16  17
 145 prop tor  14  15  16  32
 146 ben  14  15  31
 147 ben  15  16  17
 148 prop tor  15  16  17  18
 149 prop tor  15  16  17  33
 150 ben  15  16  32
 151 ben  16  15  31
 152 ben  16  17  18
 153 prop tor  16  17  18  13
 154 ben  16  17  33
 155 ben  17  16  32
 156 prop tor  18  13  14  15
 157 ben  18  17  33
 158 prop tor  19  12  13  14
 159 prop tor  19  12  13  18
 160 ben  19  20  35
 161 prop tor  20   9  10  11
 162 prop tor  20   9  10  29
 163 ben  20  19  34
 164 prop tor  21   8   9  10
 165 prop tor  21   8   9  20
 166 ben  21  22  36
 167 prop tor  22   5   6   7
 168 prop tor  22   5   6  28
 169 prop tor  23   4   5   6
 170 prop tor  23   4   5  22
 171 ben  23  24  38
 172 prop tor  24   1   2   3
 173 prop tor  24   1   2  26
 174 ben  24   1  25
 175 ben  24  23  37
 176 prop tor  25   1   2   3
 177 prop tor  25   1   2  26
 178 prop tor  25   1  24  23
 179 prop tor  25   1  24  38
 180 prop tor  26   2   3   4
 181 prop tor  26   2   3  27
 182 prop tor  27   3   4   5
 183 prop tor  27   3   4  23
 184 prop tor  28   6   7   8
 185 prop tor  29  10  11  12
 186 prop tor  29  10  11  30
 187 prop tor  30  11  12  13
 188 prop tor  30  11  12  19
 189 prop tor  31  15  16  17
 190 prop tor  31  15  16  32
 191 prop tor  32  16  17  18
 192 prop tor  32  16  17  33
 193 prop tor  33  17  18  13
 194 prop tor  34  19  20   9
 195 prop tor  34  19  20  35
 196 prop tor  37  23  24   1
 197 prop tor  37  23  24  38
 nber bend=              64
 nber lin bend=           0
 nber prop tor=          92
 nber impr tor=           0
 nber tot redund int=         197
 Eigenvalues of G in red int coords
    Gval -0.00000000 -0.00000000 -0.00000000 -0.00000000 -0.00000000 -0.00000000 -0.00000000 -0.00000000
    Gval -0.00000000 -0.00000000 -0.00000000 -0.00000000 -0.00000000 -0.00000000 -0.00000000 -0.00000000
    Gval -0.00000000 -0.00000000 -0.00000000 -0.00000000 -0.00000000 -0.00000000 -0.00000000 -0.00000000
    Gval -0.00000000 -0.00000000 -0.00000000 -0.00000000 -0.00000000 -0.00000000 -0.00000000 -0.00000000
    Gval -0.00000000 -0.00000000 -0.00000000 -0.00000000 -0.00000000 -0.00000000 -0.00000000 -0.00000000
    Gval -0.00000000 -0.00000000 -0.00000000 -0.00000000 -0.00000000 -0.00000000 -0.00000000 -0.00000000
    Gval  0.00000000  0.00000000  0.00000000  0.00000000  0.00000000  0.00000000  0.00000000  0.00000000
    Gval  0.00000000  0.00000000  0.00000000  0.00000000  0.00000000  0.00000000  0.00000000  0.00000000
    Gval  0.00000000  0.00000000  0.00000000  0.00000000  0.00000000  0.00000000  0.00000000  0.00000000
    Gval  0.00000000  0.00000000  0.00000000  0.00000000  0.00000000  0.00000000  0.00000000  0.00000000
    Gval  0.00000000  0.00000000  0.00000000  0.00000000  0.00000000  0.00000000  0.00000000  0.00000000
    Gval  0.00000000  0.00000049  0.00000168  0.00000205  0.00000303  0.00000769  0.00000853  0.00001274
    Gval  0.00001375  0.00001542  0.00001981  0.00002818  0.00002998  0.00004216  0.00004502  0.00004608
    Gval  0.00004788  0.00004929  0.00005020  0.00005609  0.00005613  0.00005724  0.00005827  0.00006701
    Gval  0.00006856  0.00007774  0.00008441  0.00008823  0.00010032  0.00010200  0.00010589  0.00011532
    Gval  0.00011692  0.00011777  0.00012093  0.00012245  0.00012684  0.00013285  0.00017142  0.00020928
    Gval  0.00022819  0.00025215  0.00026523  0.00027354  0.00027712  0.00029297  0.00031467  0.00035176
    Gval  0.00036125  0.00037745  0.00037969  0.00038957  0.00039228  0.00041562  0.00042938  0.00050676
    Gval  0.00053043  0.00056563  0.00059307  0.00059350  0.00059365  0.00059798  0.00059806  0.00060053
    Gval  0.00060364  0.00060409  0.00060428  0.00061665  0.00062625  0.00062877  0.00063582  0.00064171
    Gval  0.00064989  0.00066095  0.00070507  0.00092137  0.00104130  0.00105088  0.00106093  0.00107764
    Gval  0.00110373  0.00111043  0.00111099  0.00112693  0.00112886  0.00113913  0.00115759  0.00117045
    Gval  0.00117282  0.00117543  0.00117570  0.00140349  0.00142939  0.00145392  0.00151765  0.00176127
    Gval  0.00181389  0.00226287  0.00227073  0.00233755  0.00235460  0.00243750  0.00247848  0.00315948
    Gval  0.00366937  0.00371455  0.00373977  0.00378181  0.00406604
  4.892829324492240E-007  4.892829324492240E-007
  1.680322602680852E-006  4.892829324492240E-007
  2.051143260701791E-006  4.892829324492240E-007
  3.032889472472572E-006  4.892829324492240E-007
  7.693669709618935E-006  4.892829324492240E-007
  8.533842998854969E-006  4.892829324492240E-007
  1.273996529736847E-005  4.892829324492240E-007
  1.374674612912493E-005  4.892829324492240E-007
  1.542485323690862E-005  4.892829324492240E-007
  1.981128985167111E-005  4.892829324492240E-007
  2.818265640032384E-005  4.892829324492240E-007
  2.998189077279798E-005  4.892829324492240E-007
  4.215749218691213E-005  4.892829324492240E-007
  4.502419883693601E-005  4.892829324492240E-007
  4.608020812016653E-005  4.892829324492240E-007
  4.788275777966260E-005  4.892829324492240E-007
  4.928766595911318E-005  4.892829324492240E-007
  5.020321359587218E-005  4.892829324492240E-007
  5.608527197143217E-005  4.892829324492240E-007
  5.613075147548388E-005  4.892829324492240E-007
  5.724162081759323E-005  4.892829324492240E-007
  5.826759927285874E-005  4.892829324492240E-007
  6.701102129671529E-005  4.892829324492240E-007
  6.855521640358312E-005  4.892829324492240E-007
  7.773718989587729E-005  4.892829324492240E-007
  8.440985100026941E-005  4.892829324492240E-007
  8.823393683077563E-005  4.892829324492240E-007
  1.003230872845769E-004  4.892829324492240E-007
  1.019973836059746E-004  4.892829324492240E-007
  1.058857996828081E-004  4.892829324492240E-007
  1.153232575678071E-004  4.892829324492240E-007
  1.169189658766082E-004  4.892829324492240E-007
  1.177663473434209E-004  4.892829324492240E-007
  1.209290937942000E-004  4.892829324492240E-007
  1.224474700137426E-004  4.892829324492240E-007
  1.268364575778207E-004  4.892829324492240E-007
  1.328495839445441E-004  4.892829324492240E-007
  1.714171497992360E-004  4.892829324492240E-007
  2.092765546196353E-004  4.892829324492240E-007
  2.281916608577874E-004  4.892829324492240E-007
  2.521497242232887E-004  4.892829324492240E-007
  2.652330096612006E-004  4.892829324492240E-007
  2.735369134837343E-004  4.892829324492240E-007
  2.771209207756383E-004  4.892829324492240E-007
  2.929683142758009E-004  4.892829324492240E-007
  3.146675598830943E-004  4.892829324492240E-007
  3.517577339638136E-004  4.892829324492240E-007
  3.612528529726039E-004  4.892829324492240E-007
  3.774464233060299E-004  4.892829324492240E-007
  3.796890035731858E-004  4.892829324492240E-007
  3.895722618497112E-004  4.892829324492240E-007
  3.922840250394714E-004  4.892829324492240E-007
  4.156174416724941E-004  4.892829324492240E-007
  4.293844548093411E-004  4.892829324492240E-007
  5.067600555512575E-004  4.892829324492240E-007
  5.304263295626997E-004  4.892829324492240E-007
  5.656325583197949E-004  4.892829324492240E-007
  5.930715515537828E-004  4.892829324492240E-007
  5.935027303588769E-004  4.892829324492240E-007
  5.936457611075805E-004  4.892829324492240E-007
  5.979812742028012E-004  4.892829324492240E-007
  5.980578222844303E-004  4.892829324492240E-007
  6.005324098128473E-004  4.892829324492240E-007
  6.036380840791479E-004  4.892829324492240E-007
  6.040895232318107E-004  4.892829324492240E-007
  6.042752266115118E-004  4.892829324492240E-007
  6.166528589519782E-004  4.892829324492240E-007
  6.262536199132272E-004  4.892829324492240E-007
  6.287707756753135E-004  4.892829324492240E-007
  6.358176370235703E-004  4.892829324492240E-007
  6.417131674472119E-004  4.892829324492240E-007
  6.498857255230773E-004  4.892829324492240E-007
  6.609543799160832E-004  4.892829324492240E-007
  7.050694124252065E-004  4.892829324492240E-007
  9.213656823146495E-004  4.892829324492240E-007
  1.041302275595802E-003  4.892829324492240E-007
  1.050880432450648E-003  4.892829324492240E-007
  1.060931499731767E-003  4.892829324492240E-007
  1.077636889220662E-003  4.892829324492240E-007
  1.103728459448566E-003  4.892829324492240E-007
  1.110426256264256E-003  4.892829324492240E-007
  1.110988442927220E-003  4.892829324492240E-007
  1.126932944290529E-003  4.892829324492240E-007
  1.128859780267604E-003  4.892829324492240E-007
  1.139132128074283E-003  4.892829324492240E-007
  1.157585531039886E-003  4.892829324492240E-007
  1.170449484613776E-003  4.892829324492240E-007
  1.172815929429720E-003  4.892829324492240E-007
  1.175433461924992E-003  4.892829324492240E-007
  1.175704423472661E-003  4.892829324492240E-007
  1.403490643949628E-003  4.892829324492240E-007
  1.429387334592331E-003  4.892829324492240E-007
  1.453922856236643E-003  4.892829324492240E-007
  1.517653453217775E-003  4.892829324492240E-007
  1.761265725053609E-003  4.892829324492240E-007
  1.813886208318215E-003  4.892829324492240E-007
  2.262874433076711E-003  4.892829324492240E-007
  2.270734073721523E-003  4.892829324492240E-007
  2.337548138203475E-003  4.892829324492240E-007
  2.354597422975164E-003  4.892829324492240E-007
  2.437501597481569E-003  4.892829324492240E-007
  2.478477054865495E-003  4.892829324492240E-007
  3.159475403292570E-003  4.892829324492240E-007
  3.669365653567556E-003  4.892829324492240E-007
  3.714545219634502E-003  4.892829324492240E-007
  3.739774430072458E-003  4.892829324492240E-007
  3.781811200840404E-003  4.892829324492240E-007
  4.066039274525201E-003  4.892829324492240E-007
 cut=1d-8, nber non-redundant internal coords=         108
 Check on Eigenvals of non-red overlap matrix:
  0.00000049  0.00000168  0.00000205  0.00000303  0.00000769  0.00000853  0.00001274  0.00001375
  0.00001542  0.00001981  0.00002818  0.00002998  0.00004216  0.00004502  0.00004608  0.00004788
  0.00004929  0.00005020  0.00005609  0.00005613  0.00005724  0.00005827  0.00006701  0.00006856
  0.00007774  0.00008441  0.00008823  0.00010032  0.00010200  0.00010589  0.00011532  0.00011692
  0.00011777  0.00012093  0.00012245  0.00012684  0.00013285  0.00017142  0.00020928  0.00022819
  0.00025215  0.00026523  0.00027354  0.00027712  0.00029297  0.00031467  0.00035176  0.00036125
  0.00037745  0.00037969  0.00038957  0.00039228  0.00041562  0.00042938  0.00050676  0.00053043
  0.00056563  0.00059307  0.00059350  0.00059365  0.00059798  0.00059806  0.00060053  0.00060364
  0.00060409  0.00060428  0.00061665  0.00062625  0.00062877  0.00063582  0.00064171  0.00064989
  0.00066095  0.00070507  0.00092137  0.00104130  0.00105088  0.00106093  0.00107764  0.00110373
  0.00111043  0.00111099  0.00112693  0.00112886  0.00113913  0.00115759  0.00117045  0.00117282
  0.00117543  0.00117570  0.00140349  0.00142939  0.00145392  0.00151765  0.00176127  0.00181389
  0.00226287  0.00227073  0.00233755  0.00235460  0.00243750  0.00247848  0.00315948  0.00366937
  0.00371455  0.00373977  0.00378181  0.00406604
 Checking for correct frequencies
 recalc frequencies=
   -74.4   -0.0   -0.0   -0.0    0.0    0.0    0.0   19.9   33.7   52.9
    58.3   66.1  119.8  134.1  162.3  173.4  211.3  256.9  336.8  349.4
   378.2  390.4  409.3  414.3  420.9  442.8  444.6  482.9  506.8  514.5
   562.1  590.0  632.0  640.8  656.5  657.7  671.2  700.2  713.3  750.7
   779.8  784.6  814.0  816.4  826.2  841.0  849.1  875.7  905.0  925.8
   961.5  970.0  986.8 1001.5 1003.4 1005.7 1009.2 1012.9 1018.7 1018.9
  1020.0 1033.5 1054.4 1064.2 1071.0 1100.1 1110.7 1112.2 1113.1 1128.5
  1186.4 1194.3 1219.7 1222.6 1237.5 1274.9 1288.5 1303.0 1313.8 1332.3
  1344.0 1351.1 1366.1 1371.6 1410.0 1435.1 1448.3 1468.2 1471.7 1483.7
  1538.0 1542.0 1564.2 1589.3 1614.8 1615.0 1619.0 1621.8 1646.5 1652.6
  3143.2 3145.0 3156.7 3157.8 3164.0 3172.7 3186.7 3201.2 3201.9 3202.8
  3203.3 3206.5 3214.9 3216.5
 recalc symmetries=
     A2     B2     B1     A2     B1     B2     A1     B1     A2     B2 
     B1     A2     B1     B2     B1     A1     B2     B1     A1     B1 
     B2     A2     A2     A2     A2     B1     B2     A1     B2     B1 
     B1     B1     B2     B2     B2     A1     B2     B1     A1     B1 
     B1     A1     B1     B1     A1     A2     B1     A2     B1     B1 
     B1     A2     A2     A2     B1     B1     A1     A1     A2     B1 
     A1     A1     A1     A1     A1     A1     B2     A1     B2     B2 
     B2     A1     A1     B2     B2     B2     B2     A1     B2     B2 
     A1     B2     A1     B2     B2     B2     A1     B2     A1     B2 
     A1     A1     B2     B2     B2     A1     A1     B2     A1     A1 
     A1     B2     B2     A1     A1     B2     A1     B2     A1     B2 
     A1     A1     B2     A1 
 recalc freqs check OK
 Zero-point lengths:
 28.7322 10.0000 10.0000 10.0000 10.0000 10.0000 10.0000 55.5997 42.7086 34.0804
 32.4735 30.5011 22.6479 21.4078 19.4627 18.8247 17.0562 15.4675 13.5092 13.2620
 12.7481 12.5471 12.2533 12.1797 12.0836 11.7806 11.7570 11.2814 11.0127 10.9296
 10.4567 10.2065  9.8617  9.7936  9.6759  9.6669  9.5694  9.3686  9.2822  9.0484
  8.8776  8.8507  8.6892  8.6766  8.6247  8.5488  8.5077  8.3775  8.2409  8.1479
  7.9950  7.9599  7.8917  7.8339  7.8262  7.8173  7.8038  7.7894  7.7672  7.7667
  7.7624  7.7116  7.6346  7.5995  7.5752  7.4745  7.4388  7.4337  7.4307  7.3799
  7.1974  7.1735  7.0985  7.0900  7.0472  6.9431  6.9065  6.8678  6.8396  6.7918
  6.7623  6.7446  6.7075  6.6940  6.6022  6.5442  6.5142  6.4699  6.4623  6.4362
  6.3215  6.3134  6.2683  6.2187  6.1693  6.1690  6.1612  6.1560  6.1097  6.0984
  4.4219  4.4206  4.4125  4.4117  4.4073  4.4013  4.3917  4.3817  4.3812  4.3805
  4.3802  4.3780  4.3723  4.3712
 highest evec of mol 1
  0.0000  0.0000  0.0001
  0.0000 -0.0002  0.0001
  0.0000  0.0000 -0.0000
  0.0000  0.0000  0.0001
  0.0000  0.0000 -0.0000
  0.0000 -0.0007 -0.0002
  0.0000 -0.0008  0.0003
  0.0000  0.0000  0.0014
  0.0000  0.0000  0.0068
  0.0000  0.1252  0.0778
  0.0000  0.1244 -0.0774
  0.0000  0.0000 -0.0068
  0.0000  0.0000 -0.0014
  0.0000 -0.0008 -0.0003
  0.0000 -0.0009  0.0002
  0.0000  0.0000  0.0026
  0.0000  0.0009  0.0002
  0.0000  0.0008 -0.0003
  0.0000 -0.1244 -0.0774
  0.0000 -0.1252  0.0778
  0.0000  0.0008  0.0003
  0.0000  0.0007 -0.0002
  0.0000 -0.0000 -0.0000
  0.0000  0.0002  0.0001
  0.0000  0.0000 -0.0004
  0.0000  0.0005 -0.0003
  0.0000 -0.0002 -0.0001
  0.0000  0.0016  0.0007
  0.0000 -0.4136 -0.2422
  0.0000 -0.4111  0.2409
  0.0000  0.0021 -0.0010
  0.0000  0.0000 -0.0083
  0.0000 -0.0021 -0.0010
  0.0000  0.4111  0.2409
  0.0000  0.4136 -0.2422
  0.0000 -0.0016  0.0007
  0.0000  0.0002 -0.0001
  0.0000 -0.0005 -0.0003
 generating redundant internal coords
         300        3600          38
 Adding extra bonds for z output only
           6           6           6           6           6           6
           7           6           6           6           6           6
           6           7           6           6           6           7
           6           6           7           6           6           6
           1           1           1           1           1           1
           1           1           1           1           1           1
           1           1
 search for int coords
   1 str   2   1   1.393
   2 str   3   2   1.390
   3 str   4   3   1.406
   4 str   5   4   1.484
   5 str   6   5   1.404
   6 str   7   6   1.327
   7 str   8   7   1.343
   8 str   9   8   1.480
   9 str  10   9   1.403
  10 str  11  10   1.386
  11 str  12  11   1.402
  12 str  13  12   1.482
  13 str  14  13   1.344
  14 str  15  14   1.330
  15 str  16  15   1.391
  16 str  17  16   1.391
  17 str  18  13   1.344
  18 str  18  17   1.330
  19 str  19  12   1.402
  20 str  20   9   1.403
  21 str  20  19   1.386
  22 str  21   8   1.343
  23 str  22   5   1.404
  24 str  22  21   1.327
  25 str  23   4   1.406
  26 str  24   1   1.393
  27 str  24  23   1.390
  28 str  25   1   1.084
  29 str  26   2   1.084
  30 str  27   3   1.082
  31 str  28   6   1.085
  32 str  29  10   1.082
  33 str  30  11   1.082
  34 str  31  15   1.087
  35 str  32  16   1.082
  36 str  33  17   1.087
  37 str  34  19   1.082
  38 str  35  20   1.082
  39 str  36  22   1.085
  40 str  37  23   1.082
  41 str  38  24   1.084
 nber stretches=          41
  42 ben   1   2   3
  43 prop tor   1   2   3   4
  44 prop tor   1   2   3  27
  45 ben   1   2  26
  46 ben   1  24  23
  47 ben   1  24  38
  48 ben   2   1  24
  49 prop tor   2   1  24  23
  50 prop tor   2   1  24  38
  51 ben   2   1  25
  52 ben   2   3   4
  53 prop tor   2   3   4   5
  54 prop tor   2   3   4  23
  55 ben   2   3  27
  56 ben   3   2  26
  57 ben   3   4   5
  58 prop tor   3   4   5   6
  59 prop tor   3   4   5  22
  60 ben   3   4  23
  61 prop tor   3   4  23  24
  62 prop tor   3   4  23  37
  63 ben   4   3  27
  64 ben   4   5   6
  65 prop tor   4   5   6   7
  66 prop tor   4   5   6  28
  67 ben   4   5  22
  68 prop tor   4   5  22  21
  69 prop tor   4   5  22  36
  70 ben   4  23  24
  71 prop tor   4  23  24   1
  72 prop tor   4  23  24  38
  73 ben   4  23  37
  74 ben   5   4  23
  75 prop tor   5   4  23  24
  76 prop tor   5   4  23  37
  77 ben   5   6   7
  78 prop tor   5   6   7   8
  79 ben   5   6  28
  80 ben   5  22  21
  81 ben   5  22  36
  82 ben   6   5  22
  83 prop tor   6   5  22  21
  84 prop tor   6   5  22  36
  85 ben   6   7   8
  86 prop tor   6   7   8   9
  87 prop tor   6   7   8  21
  88 ben   7   6  28
  89 ben   7   8   9
  90 prop tor   7   8   9  10
  91 prop tor   7   8   9  20
  92 ben   7   8  21
  93 prop tor   7   8  21  22
  94 ben   8   9  10
  95 prop tor   8   9  10  11
  96 prop tor   8   9  10  29
  97 ben   8   9  20
  98 prop tor   8   9  20  19
  99 prop tor   8   9  20  35
 100 ben   8  21  22
 101 prop tor   8  21  22   5
 102 prop tor   8  21  22  36
 103 ben   9   8  21
 104 prop tor   9   8  21  22
 105 ben   9  10  11
 106 prop tor   9  10  11  12
 107 prop tor   9  10  11  30
 108 ben   9  10  29
 109 ben   9  20  19
 110 ben   9  20  35
 111 ben  10   9  20
 112 prop tor  10   9  20  19
 113 prop tor  10   9  20  35
 114 ben  10  11  12
 115 prop tor  10  11  12  13
 116 prop tor  10  11  12  19
 117 ben  10  11  30
 118 ben  11  10  29
 119 ben  11  12  13
 120 prop tor  11  12  13  14
 121 prop tor  11  12  13  18
 122 ben  11  12  19
 123 prop tor  11  12  19  20
 124 prop tor  11  12  19  34
 125 ben  12  11  30
 126 ben  12  13  14
 127 prop tor  12  13  14  15
 128 ben  12  13  18
 129 prop tor  12  13  18  17
 130 ben  12  19  20
 131 prop tor  12  19  20   9
 132 prop tor  12  19  20  35
 133 ben  12  19  34
 134 ben  13  12  19
 135 prop tor  13  12  19  20
 136 prop tor  13  12  19  34
 137 ben  13  14  15
 138 prop tor  13  14  15  16
 139 prop tor  13  14  15  31
 140 ben  13  18  17
 141 ben  14  13  18
 142 prop tor  14  13  18  17
 143 ben  14  15  16
 144 prop tor  14  15  16  17
 145 prop tor  14  15  16  32
 146 ben  14  15  31
 147 ben  15  16  17
 148 prop tor  15  16  17  18
 149 prop tor  15  16  17  33
 150 ben  15  16  32
 151 ben  16  15  31
 152 ben  16  17  18
 153 prop tor  16  17  18  13
 154 ben  16  17  33
 155 ben  17  16  32
 156 prop tor  18  13  14  15
 157 ben  18  17  33
 158 prop tor  19  12  13  14
 159 prop tor  19  12  13  18
 160 ben  19  20  35
 161 prop tor  20   9  10  11
 162 prop tor  20   9  10  29
 163 ben  20  19  34
 164 prop tor  21   8   9  10
 165 prop tor  21   8   9  20
 166 ben  21  22  36
 167 prop tor  22   5   6   7
 168 prop tor  22   5   6  28
 169 prop tor  23   4   5   6
 170 prop tor  23   4   5  22
 171 ben  23  24  38
 172 prop tor  24   1   2   3
 173 prop tor  24   1   2  26
 174 ben  24   1  25
 175 ben  24  23  37
 176 prop tor  25   1   2   3
 177 prop tor  25   1   2  26
 178 prop tor  25   1  24  23
 179 prop tor  25   1  24  38
 180 prop tor  26   2   3   4
 181 prop tor  26   2   3  27
 182 prop tor  27   3   4   5
 183 prop tor  27   3   4  23
 184 prop tor  28   6   7   8
 185 prop tor  29  10  11  12
 186 prop tor  29  10  11  30
 187 prop tor  30  11  12  13
 188 prop tor  30  11  12  19
 189 prop tor  31  15  16  17
 190 prop tor  31  15  16  32
 191 prop tor  32  16  17  18
 192 prop tor  32  16  17  33
 193 prop tor  33  17  18  13
 194 prop tor  34  19  20   9
 195 prop tor  34  19  20  35
 196 prop tor  37  23  24   1
 197 prop tor  37  23  24  38
 nber bend=              64
 nber lin bend=           0
 nber prop tor=          92
 nber impr tor=           0
 nber tot redund int=         197
 Reading file: 
 ./Non-cov-phenyl-N_3_C-1S0.log                                                 
                                          
  Entering Gaussian System, Link 0=g16                                          
  
 Gaussian format, type: g94, g98, g03= F F F
  #P Geom=AllCheck Guess=TCheck SCRF=Check GenChk UB3LYP/6-311G(d,p) Fre    
 energy type= B3LYP   
 Original G94 input coords:
  6  7.591327  0.000000  0.000000
  6  6.873669 -1.198433  0.000000
  6  5.486044 -1.201105  0.000000
  6  4.732098  0.000000  0.000000
  6  3.272605  0.000000  0.000000
  6  2.481446  1.179116  0.000000
  7  1.167680  1.199643  0.000000
  6  0.508953  0.000000  0.000000
  6 -0.931425  0.000000  0.000000
  6 -1.675054  1.211792  0.000000
  6 -3.050867  1.210874  0.000000
  6 -3.791857  0.000000  0.000000
  6 -5.237698  0.000000  0.000000
  7 -5.888034  1.202892  0.000000
  6 -7.208992  1.179577  0.000000
  6 -7.959414  0.000000  0.000000
  6 -7.208992 -1.179577  0.000000
  7 -5.888034 -1.202892  0.000000
  6 -3.050867 -1.210874  0.000000
  6 -1.675054 -1.211792  0.000000
  7  1.167680 -1.199643  0.000000
  6  2.481446 -1.179116  0.000000
  6  5.486044  1.201105  0.000000
  6  6.873669  1.198433  0.000000
  1  8.675763  0.000000  0.000000
  1  7.403683 -2.146610  0.000000
  1  4.974599 -2.155226  0.000000
  1  2.957001  2.158169  0.000000
  1 -1.125664  2.144704  0.000000
  1 -3.599408  2.144543  0.000000
  1 -7.705432  2.150514  0.000000
  1 -9.041693  0.000000  0.000000
  1 -7.705432 -2.150514  0.000000
  1 -3.599408 -2.144543  0.000000
  1 -1.125664 -2.144704  0.000000
  1  2.957001 -2.158169  0.000000
  1  4.974599  2.155226  0.000000
  1  7.403683  2.146610  0.000000
 nber atoms=          38
 Original standard coords:
  6  0.000000  0.000000 -7.817616
  6  0.000000  1.198433 -7.099959
  6  0.000000  1.201105 -5.712333
  6  0.000000  0.000000 -4.958387
  6  0.000000  0.000000 -3.498894
  6  0.000000 -1.179116 -2.707735
  7  0.000000 -1.199643 -1.393969
  6  0.000000  0.000000 -0.735242
  6  0.000000  0.000000  0.705136
  6  0.000000 -1.211792  1.448765
  6  0.000000 -1.210874  2.824578
  6  0.000000  0.000000  3.565568
  6  0.000000  0.000000  5.011409
  7  0.000000 -1.202892  5.661744
  6  0.000000 -1.179577  6.982703
  6  0.000000  0.000000  7.733125
  6  0.000000  1.179577  6.982703
  7  0.000000  1.202892  5.661744
  6  0.000000  1.210874  2.824578
  6  0.000000  1.211792  1.448765
  7  0.000000  1.199643 -1.393969
  6  0.000000  1.179116 -2.707735
  6  0.000000 -1.201105 -5.712333
  6  0.000000 -1.198433 -7.099959
  1  0.000000  0.000000 -8.902052
  1  0.000000  2.146610 -7.629972
  1  0.000000  2.155226 -5.200888
  1  0.000000 -2.158169 -3.183290
  1  0.000000 -2.144704  0.899375
  1  0.000000 -2.144543  3.373119
  1  0.000000 -2.150514  7.479143
  1  0.000000  0.000000  8.815404
  1  0.000000  2.150514  7.479143
  1  0.000000  2.144543  3.373119
  1  0.000000  2.144704  0.899375
  1  0.000000  2.158169 -3.183290
  1  0.000000 -2.155226 -5.200888
  1  0.000000 -2.146610 -7.629972
  SCF Done:  E(UB3LYP) =  -989.852289281     A.U. after    1 cycles             
  
          23          40 "  -989.852289281"
After scan for Atom:   Atom  AN      X      Y      Z        X      Y      Z        X      Y      Z   
After scan for Atom:   Atom  AN      X      Y      Z        X      Y      Z        X      Y      Z   
After scan for Atom:   Atom  AN      X      Y      Z        X      Y      Z        X      Y      Z   
After scan for Atom:   Atom  AN      X      Y      Z        X      Y      Z        X      Y      Z   
After scan for Atom:   Atom  AN      X      Y      Z        X      Y      Z        X      Y      Z   
After scan for Atom:   Atom  AN      X      Y      Z        X      Y      Z        X      Y      Z   
After scan for Atom:   Atom  AN      X      Y      Z        X      Y      Z        X      Y      Z   
After scan for Atom:   Atom  AN      X      Y      Z        X      Y      Z        X      Y      Z   
After scan for Atom:   Atom  AN      X      Y      Z        X      Y      Z        X      Y      Z   
After scan for Atom:   Atom  AN      X      Y      Z        X      Y      Z        X      Y      Z   
After scan for Atom:   Atom  AN      X      Y      Z        X      Y      Z        X      Y      Z   
After scan for Atom:   Atom  AN      X      Y      Z        X      Y      Z        X      Y      Z   
After scan for Atom:   Atom  AN      X      Y      Z        X      Y      Z        X      Y      Z   
After scan for Atom:   Atom  AN      X      Y      Z        X      Y      Z        X      Y      Z   
After scan for Atom:   Atom  AN      X      Y      Z        X      Y      Z        X      Y      Z   
After scan for Atom:   Atom  AN      X      Y      Z        X      Y      Z        X      Y      Z   
After scan for Atom:   Atom  AN      X      Y      Z        X      Y      Z        X      Y      Z   
After scan for Atom:   Atom  AN      X      Y      Z        X      Y      Z        X      Y      Z   
After scan for Atom:   Atom  AN      X      Y      Z        X      Y      Z        X      Y      Z   
After scan for Atom:   Atom  AN      X      Y      Z        X      Y      Z        X      Y      Z   
After scan for Atom:   Atom  AN      X      Y      Z        X      Y      Z        X      Y      Z   
After scan for Atom:   Atom  AN      X      Y      Z        X      Y      Z        X      Y      Z   
After scan for Atom:   Atom  AN      X      Y      Z        X      Y      Z        X      Y      Z   
After scan for Atom:   Atom  AN      X      Y      Z        X      Y      Z        X      Y      Z   
After scan for Atom:   Atom  AN      X      Y      Z        X      Y      Z        X      Y      Z   
After scan for Atom:   Atom  AN      X      Y      Z        X      Y      Z        X      Y      Z   
After scan for Atom:   Atom  AN      X      Y      Z        X      Y      Z        X      Y      Z   
After scan for Atom:   Atom  AN      X      Y      Z        X      Y      Z        X      Y      Z   
After scan for Atom:   Atom  AN      X      Y      Z        X      Y      Z        X      Y      Z   
After scan for Atom:   Atom  AN      X      Y      Z        X      Y      Z        X      Y      Z   
After scan for Atom:   Atom  AN      X      Y      Z        X      Y      Z        X      Y      Z   
After scan for Atom:   Atom  AN      X      Y      Z        X      Y      Z        X      Y      Z   
After scan for Atom:   Atom  AN      X      Y      Z        X      Y      Z        X      Y      Z   
After scan for Atom:   Atom  AN      X      Y      Z        X      Y      Z        X      Y      Z   
After scan for Atom:   Atom  AN      X      Y      Z        X      Y      Z        X      Y      Z   
After scan for Atom:   Atom  AN      X      Y      Z        X      Y      Z        X      Y      Z   
 g94    frequencies=
     0.0    0.0    0.0    0.0    0.0    0.0  -49.5   18.5   52.5   53.6
    54.7  100.6  113.4  132.6  146.1  173.6  208.1  236.5  315.5  337.0
   380.3  401.9  410.7  421.5  431.7  442.0  442.6  485.3  488.5  501.1
   530.9  555.3  630.8  638.2  642.3  654.1  668.7  691.7  701.2  728.9
   749.7  755.5  760.9  787.5  796.9  814.7  818.4  845.0  866.6  870.7
   928.3  941.3  956.9  957.8  961.9  980.3  982.6  988.4 1000.4 1003.5
  1008.4 1014.7 1028.5 1048.4 1054.4 1072.7 1086.9 1088.5 1101.1 1121.4
  1172.6 1185.6 1193.6 1208.9 1212.6 1285.4 1286.0 1311.7 1320.8 1328.7
  1352.2 1354.5 1372.8 1397.9 1414.0 1435.4 1444.6 1450.7 1460.6 1479.5
  1490.8 1511.3 1523.8 1529.8 1544.7 1581.0 1601.9 1623.1 1631.2 1646.1
  3093.1 3093.1 3108.9 3112.6 3136.8 3143.5 3170.2 3181.6 3181.9 3187.6
  3190.2 3190.4 3197.8 3199.9
 g94    symmetries=
                                                A2     B1     B2     A2
      B1     A2     B1     B2     B1     A1     B2     B1     B1     A1
      B2     B1     A2     A2     A2     B2     A2     A1     B1     B2
      B1     B1     B2     B2     A1     B2     B2     B1     A1     B1
      B1     B1     A1     B1     A1     B1     A2     A2     B1     B1
      B1     A2     B1     A2     B1     A2     A1     A1     A2     B1
      A1     A1     A1     A1     A1     A1     B2     A1     B2     B2
      B2     A1     B2     A1     B2     B2     B2     B2     A1     B2
      B2     B2     A1     A1     B2     A1     A1     B2     B2     B2
      B2     B2     A1     A1     B2     B2     A1     A1     A1     A1
      B2     A1     B2     A1     A1     B2     A1     A1     B2     B2
      A1     A1     B2     A1
 atomic masses:
 12.0000 12.0000 12.0000 12.0000 12.0000 12.0000 14.0031 12.0000 12.0000 12.0000
 12.0000 12.0000 12.0000 14.0031 12.0000 12.0000 12.0000 14.0031 12.0000 12.0000
 14.0031 12.0000 12.0000 12.0000  1.0078  1.0078  1.0078  1.0078  1.0078  1.0078
  1.0078  1.0078  1.0078  1.0078  1.0078  1.0078  1.0078  1.0078
 looking for force constants in 
 ./Non-cov-phenyl-N_3_C-1S0.fchk                                                
  
 Cartesian Force Constants                  R   N=        6555                  
  
 n3=         114        6555
 g94-fc frequencies=
   -49.5   -2.1   -1.7   -1.6    0.0    0.0    0.0   18.6   52.5   53.6
    54.8  100.6  113.4  132.6  146.1  173.6  208.1  236.6  315.6  337.0
   380.3  401.9  410.8  421.5  431.8  442.0  442.6  485.4  488.5  501.1
   530.9  555.3  630.8  638.2  642.3  654.1  668.7  691.7  701.2  728.9
   749.7  755.5  760.9  787.5  796.9  814.7  818.5  845.0  866.6  870.7
   928.3  941.3  956.9  957.8  961.9  980.4  982.7  988.5 1000.4 1003.5
  1008.5 1014.7 1028.5 1048.4 1054.4 1072.7 1087.0 1088.5 1101.1 1121.4
  1172.6 1185.6 1193.6 1208.9 1212.7 1285.5 1286.0 1311.7 1320.8 1328.7
  1352.2 1354.6 1372.9 1398.0 1414.0 1435.4 1444.6 1450.7 1460.6 1479.5
  1490.8 1511.4 1523.8 1529.8 1544.8 1581.0 1601.9 1623.2 1631.2 1646.1
  3093.1 3093.2 3109.0 3112.7 3136.8 3143.5 3170.3 3181.7 3181.9 3187.6
  3190.3 3190.5 3197.9 3200.0
 at 99999: n3=         114
 symm operator            1 :  T  nop=           1
 symm operator            2 :  F  nop=           1
 symm operator            3 :  F  nop=           1
 symm operator            4 :  F  nop=           1
 symm operator            5 :  F  nop=           1
 symm operator            6 :  T  nop=           2
 symm operator            7 :  T  nop=           3
 The point group of the molecule is C2V
 enforcing symm op           1  jsymt=          -1          -1           1
 enforcing symm op           6  jsymt=           1          -1           1
 enforcing symm op           7  jsymt=          -1           1           1
 cartesian coord symmetries:
 A1 :   38 A2 :   14 B1 :   24 B2 :   38
 Symmetry rotation matrix:
   1.00000   0.00000   0.00000
   0.00000   1.00000   0.00000
   0.00000   0.00000   1.00000

 Projecting out zero-frequency components
 generating redundant internal coords
         300        3600          38
 search for int coords
   1 str   2   1   1.397
   2 str   3   2   1.388
   3 str   4   3   1.418
   4 str   5   4   1.459
   5 str   6   5   1.420
   6 str   7   6   1.314
   7 str   8   7   1.369
   8 str   9   8   1.440
   9 str  10   9   1.422
  10 str  11  10   1.376
  11 str  12  11   1.420
  12 str  13  12   1.446
  13 str  14  13   1.367
  14 str  15  14   1.321
  15 str  16  15   1.398
  16 str  17  16   1.398
  17 str  18  13   1.367
  18 str  18  17   1.321
  19 str  19  12   1.420
  20 str  20   9   1.422
  21 str  20  19   1.376
  22 str  21   8   1.369
  23 str  22   5   1.420
  24 str  22  21   1.314
  25 str  23   4   1.418
  26 str  24   1   1.397
  27 str  24  23   1.388
  28 str  25   1   1.084
  29 str  26   2   1.086
  30 str  27   3   1.083
  31 str  28   6   1.088
  32 str  29  10   1.083
  33 str  30  11   1.083
  34 str  31  15   1.090
  35 str  32  16   1.082
  36 str  33  17   1.090
  37 str  34  19   1.083
  38 str  35  20   1.083
  39 str  36  22   1.088
  40 str  37  23   1.083
  41 str  38  24   1.086
 nber stretches=          41
  42 ben   1   2   3
  43 prop tor   1   2   3   4
  44 prop tor   1   2   3  27
  45 ben   1   2  26
  46 ben   1  24  23
  47 ben   1  24  38
  48 ben   2   1  24
  49 prop tor   2   1  24  23
  50 prop tor   2   1  24  38
  51 ben   2   1  25
  52 ben   2   3   4
  53 prop tor   2   3   4   5
  54 prop tor   2   3   4  23
  55 ben   2   3  27
  56 ben   3   2  26
  57 ben   3   4   5
  58 prop tor   3   4   5   6
  59 prop tor   3   4   5  22
  60 ben   3   4  23
  61 prop tor   3   4  23  24
  62 prop tor   3   4  23  37
  63 ben   4   3  27
  64 ben   4   5   6
  65 prop tor   4   5   6   7
  66 prop tor   4   5   6  28
  67 ben   4   5  22
  68 prop tor   4   5  22  21
  69 prop tor   4   5  22  36
  70 ben   4  23  24
  71 prop tor   4  23  24   1
  72 prop tor   4  23  24  38
  73 ben   4  23  37
  74 ben   5   4  23
  75 prop tor   5   4  23  24
  76 prop tor   5   4  23  37
  77 ben   5   6   7
  78 prop tor   5   6   7   8
  79 ben   5   6  28
  80 ben   5  22  21
  81 ben   5  22  36
  82 ben   6   5  22
  83 prop tor   6   5  22  21
  84 prop tor   6   5  22  36
  85 ben   6   7   8
  86 prop tor   6   7   8   9
  87 prop tor   6   7   8  21
  88 ben   7   6  28
  89 ben   7   8   9
  90 prop tor   7   8   9  10
  91 prop tor   7   8   9  20
  92 ben   7   8  21
  93 prop tor   7   8  21  22
  94 ben   8   9  10
  95 prop tor   8   9  10  11
  96 prop tor   8   9  10  29
  97 ben   8   9  20
  98 prop tor   8   9  20  19
  99 prop tor   8   9  20  35
 100 ben   8  21  22
 101 prop tor   8  21  22   5
 102 prop tor   8  21  22  36
 103 ben   9   8  21
 104 prop tor   9   8  21  22
 105 ben   9  10  11
 106 prop tor   9  10  11  12
 107 prop tor   9  10  11  30
 108 ben   9  10  29
 109 ben   9  20  19
 110 ben   9  20  35
 111 ben  10   9  20
 112 prop tor  10   9  20  19
 113 prop tor  10   9  20  35
 114 ben  10  11  12
 115 prop tor  10  11  12  13
 116 prop tor  10  11  12  19
 117 ben  10  11  30
 118 ben  11  10  29
 119 ben  11  12  13
 120 prop tor  11  12  13  14
 121 prop tor  11  12  13  18
 122 ben  11  12  19
 123 prop tor  11  12  19  20
 124 prop tor  11  12  19  34
 125 ben  12  11  30
 126 ben  12  13  14
 127 prop tor  12  13  14  15
 128 ben  12  13  18
 129 prop tor  12  13  18  17
 130 ben  12  19  20
 131 prop tor  12  19  20   9
 132 prop tor  12  19  20  35
 133 ben  12  19  34
 134 ben  13  12  19
 135 prop tor  13  12  19  20
 136 prop tor  13  12  19  34
 137 ben  13  14  15
 138 prop tor  13  14  15  16
 139 prop tor  13  14  15  31
 140 ben  13  18  17
 141 ben  14  13  18
 142 prop tor  14  13  18  17
 143 ben  14  15  16
 144 prop tor  14  15  16  17
 145 prop tor  14  15  16  32
 146 ben  14  15  31
 147 ben  15  16  17
 148 prop tor  15  16  17  18
 149 prop tor  15  16  17  33
 150 ben  15  16  32
 151 ben  16  15  31
 152 ben  16  17  18
 153 prop tor  16  17  18  13
 154 ben  16  17  33
 155 ben  17  16  32
 156 prop tor  18  13  14  15
 157 ben  18  17  33
 158 prop tor  19  12  13  14
 159 prop tor  19  12  13  18
 160 ben  19  20  35
 161 prop tor  20   9  10  11
 162 prop tor  20   9  10  29
 163 ben  20  19  34
 164 prop tor  21   8   9  10
 165 prop tor  21   8   9  20
 166 ben  21  22  36
 167 prop tor  22   5   6   7
 168 prop tor  22   5   6  28
 169 prop tor  23   4   5   6
 170 prop tor  23   4   5  22
 171 ben  23  24  38
 172 prop tor  24   1   2   3
 173 prop tor  24   1   2  26
 174 ben  24   1  25
 175 ben  24  23  37
 176 prop tor  25   1   2   3
 177 prop tor  25   1   2  26
 178 prop tor  25   1  24  23
 179 prop tor  25   1  24  38
 180 prop tor  26   2   3   4
 181 prop tor  26   2   3  27
 182 prop tor  27   3   4   5
 183 prop tor  27   3   4  23
 184 prop tor  28   6   7   8
 185 prop tor  29  10  11  12
 186 prop tor  29  10  11  30
 187 prop tor  30  11  12  13
 188 prop tor  30  11  12  19
 189 prop tor  31  15  16  17
 190 prop tor  31  15  16  32
 191 prop tor  32  16  17  18
 192 prop tor  32  16  17  33
 193 prop tor  33  17  18  13
 194 prop tor  34  19  20   9
 195 prop tor  34  19  20  35
 196 prop tor  37  23  24   1
 197 prop tor  37  23  24  38
 nber bend=              64
 nber lin bend=           0
 nber prop tor=          92
 nber impr tor=           0
 nber tot redund int=         197
 Eigenvalues of G in red int coords
    Gval -0.00000000 -0.00000000 -0.00000000 -0.00000000 -0.00000000 -0.00000000 -0.00000000 -0.00000000
    Gval -0.00000000 -0.00000000 -0.00000000 -0.00000000 -0.00000000 -0.00000000 -0.00000000 -0.00000000
    Gval -0.00000000 -0.00000000 -0.00000000 -0.00000000 -0.00000000 -0.00000000 -0.00000000 -0.00000000
    Gval -0.00000000 -0.00000000 -0.00000000 -0.00000000 -0.00000000 -0.00000000 -0.00000000 -0.00000000
    Gval -0.00000000 -0.00000000 -0.00000000 -0.00000000 -0.00000000 -0.00000000 -0.00000000 -0.00000000
    Gval -0.00000000 -0.00000000 -0.00000000  0.00000000  0.00000000  0.00000000  0.00000000  0.00000000
    Gval  0.00000000  0.00000000  0.00000000  0.00000000  0.00000000  0.00000000  0.00000000  0.00000000
    Gval  0.00000000  0.00000000  0.00000000  0.00000000  0.00000000  0.00000000  0.00000000  0.00000000
    Gval  0.00000000  0.00000000  0.00000000  0.00000000  0.00000000  0.00000000  0.00000000  0.00000000
    Gval  0.00000000  0.00000000  0.00000000  0.00000000  0.00000000  0.00000000  0.00000000  0.00000000
    Gval  0.00000000  0.00000000  0.00000000  0.00000000  0.00000000  0.00000000  0.00000000  0.00000000
    Gval  0.00000000  0.00000049  0.00000171  0.00000204  0.00000302  0.00000764  0.00000849  0.00001276
    Gval  0.00001398  0.00001532  0.00001999  0.00002818  0.00002986  0.00004219  0.00004509  0.00004592
    Gval  0.00004800  0.00004950  0.00005102  0.00005575  0.00005614  0.00005697  0.00005826  0.00006693
    Gval  0.00006850  0.00007766  0.00008368  0.00008854  0.00010072  0.00010353  0.00010639  0.00011515
    Gval  0.00011679  0.00011869  0.00012085  0.00012181  0.00012813  0.00013218  0.00017335  0.00021097
    Gval  0.00023017  0.00025360  0.00026166  0.00026776  0.00027816  0.00028777  0.00030898  0.00034718
    Gval  0.00035623  0.00037555  0.00038218  0.00038685  0.00039891  0.00042274  0.00043674  0.00052233
    Gval  0.00054304  0.00057918  0.00058089  0.00059308  0.00059347  0.00059361  0.00059798  0.00060022
    Gval  0.00060381  0.00060445  0.00061681  0.00061881  0.00062598  0.00062942  0.00063693  0.00064159
    Gval  0.00064868  0.00066019  0.00071303  0.00091634  0.00103885  0.00104869  0.00105693  0.00107428
    Gval  0.00109715  0.00110442  0.00110643  0.00111883  0.00112055  0.00113765  0.00115522  0.00116644
    Gval  0.00117052  0.00117188  0.00117193  0.00139946  0.00142250  0.00143380  0.00149909  0.00175286
    Gval  0.00180919  0.00222449  0.00223013  0.00230876  0.00233308  0.00242555  0.00247691  0.00316027
    Gval  0.00364346  0.00368435  0.00373705  0.00374365  0.00405914
  4.870473897619166E-007  4.870473897619166E-007
  1.712147579877367E-006  4.870473897619166E-007
  2.035615070651478E-006  4.870473897619166E-007
  3.022360463053946E-006  4.870473897619166E-007
  7.644355447203029E-006  4.870473897619166E-007
  8.488370027073163E-006  4.870473897619166E-007
  1.276448755293179E-005  4.870473897619166E-007
  1.397998216724221E-005  4.870473897619166E-007
  1.532251276420079E-005  4.870473897619166E-007
  1.999004875664950E-005  4.870473897619166E-007
  2.818339899418384E-005  4.870473897619166E-007
  2.985666310073686E-005  4.870473897619166E-007
  4.219060385380615E-005  4.870473897619166E-007
  4.509405849680087E-005  4.870473897619166E-007
  4.591892153818643E-005  4.870473897619166E-007
  4.800345806961647E-005  4.870473897619166E-007
  4.950111345357660E-005  4.870473897619166E-007
  5.102128839268867E-005  4.870473897619166E-007
  5.574920443929013E-005  4.870473897619166E-007
  5.613668203896838E-005  4.870473897619166E-007
  5.697144112195141E-005  4.870473897619166E-007
  5.825631247622703E-005  4.870473897619166E-007
  6.692876411422950E-005  4.870473897619166E-007
  6.849689210693081E-005  4.870473897619166E-007
  7.766421012569524E-005  4.870473897619166E-007
  8.368244121789126E-005  4.870473897619166E-007
  8.853981039005976E-005  4.870473897619166E-007
  1.007168752456665E-004  4.870473897619166E-007
  1.035300866616108E-004  4.870473897619166E-007
  1.063937932274740E-004  4.870473897619166E-007
  1.151525560414128E-004  4.870473897619166E-007
  1.167891680236384E-004  4.870473897619166E-007
  1.186918873678325E-004  4.870473897619166E-007
  1.208541125613362E-004  4.870473897619166E-007
  1.218065382369804E-004  4.870473897619166E-007
  1.281282319462111E-004  4.870473897619166E-007
  1.321780776532389E-004  4.870473897619166E-007
  1.733523482811642E-004  4.870473897619166E-007
  2.109690331379981E-004  4.870473897619166E-007
  2.301673442994460E-004  4.870473897619166E-007
  2.535967045626835E-004  4.870473897619166E-007
  2.616577092986085E-004  4.870473897619166E-007
  2.677562861894370E-004  4.870473897619166E-007
  2.781607343610132E-004  4.870473897619166E-007
  2.877724156559041E-004  4.870473897619166E-007
  3.089767676594558E-004  4.870473897619166E-007
  3.471811812477330E-004  4.870473897619166E-007
  3.562311985409069E-004  4.870473897619166E-007
  3.755472359369109E-004  4.870473897619166E-007
  3.821827379988617E-004  4.870473897619166E-007
  3.868452600552363E-004  4.870473897619166E-007
  3.989148834757841E-004  4.870473897619166E-007
  4.227411398826948E-004  4.870473897619166E-007
  4.367437501675940E-004  4.870473897619166E-007
  5.223254274375106E-004  4.870473897619166E-007
  5.430354372347942E-004  4.870473897619166E-007
  5.791830648423046E-004  4.870473897619166E-007
  5.808879221004861E-004  4.870473897619166E-007
  5.930763570613173E-004  4.870473897619166E-007
  5.934663366812855E-004  4.870473897619166E-007
  5.936094471035889E-004  4.870473897619166E-007
  5.979837268833275E-004  4.870473897619166E-007
  6.002220064875391E-004  4.870473897619166E-007
  6.038145951587790E-004  4.870473897619166E-007
  6.044461924723220E-004  4.870473897619166E-007
  6.168091082372805E-004  4.870473897619166E-007
  6.188082455493044E-004  4.870473897619166E-007
  6.259845321468540E-004  4.870473897619166E-007
  6.294234772155552E-004  4.870473897619166E-007
  6.369298139086818E-004  4.870473897619166E-007
  6.415862339490152E-004  4.870473897619166E-007
  6.486791495103437E-004  4.870473897619166E-007
  6.601939879181491E-004  4.870473897619166E-007
  7.130331049128094E-004  4.870473897619166E-007
  9.163419530882010E-004  4.870473897619166E-007
  1.038851931238859E-003  4.870473897619166E-007
  1.048687926208393E-003  4.870473897619166E-007
  1.056933916924775E-003  4.870473897619166E-007
  1.074276823605159E-003  4.870473897619166E-007
  1.097149807833281E-003  4.870473897619166E-007
  1.104422798979631E-003  4.870473897619166E-007
  1.106434108310792E-003  4.870473897619166E-007
  1.118825905899856E-003  4.870473897619166E-007
  1.120553065999658E-003  4.870473897619166E-007
  1.137652184113835E-003  4.870473897619166E-007
  1.155223822130329E-003  4.870473897619166E-007
  1.166440916758811E-003  4.870473897619166E-007
  1.170522730893775E-003  4.870473897619166E-007
  1.171875329831098E-003  4.870473897619166E-007
  1.171928761625353E-003  4.870473897619166E-007
  1.399461808900714E-003  4.870473897619166E-007
  1.422499163437671E-003  4.870473897619166E-007
  1.433798154521441E-003  4.870473897619166E-007
  1.499091684921602E-003  4.870473897619166E-007
  1.752857231990850E-003  4.870473897619166E-007
  1.809187936675637E-003  4.870473897619166E-007
  2.224493687995694E-003  4.870473897619166E-007
  2.230128903836860E-003  4.870473897619166E-007
  2.308764037848137E-003  4.870473897619166E-007
  2.333084642071172E-003  4.870473897619166E-007
  2.425549270963063E-003  4.870473897619166E-007
  2.476908214253559E-003  4.870473897619166E-007
  3.160274339504384E-003  4.870473897619166E-007
  3.643464206117204E-003  4.870473897619166E-007
  3.684352010868502E-003  4.870473897619166E-007
  3.737046974212937E-003  4.870473897619166E-007
  3.743645165114275E-003  4.870473897619166E-007
  4.059143509779418E-003  4.870473897619166E-007
 cut=1d-8, nber non-redundant internal coords=         108
 Check on Eigenvals of non-red overlap matrix:
  0.00000049  0.00000171  0.00000204  0.00000302  0.00000764  0.00000849  0.00001276  0.00001398
  0.00001532  0.00001999  0.00002818  0.00002986  0.00004219  0.00004509  0.00004592  0.00004800
  0.00004950  0.00005102  0.00005575  0.00005614  0.00005697  0.00005826  0.00006693  0.00006850
  0.00007766  0.00008368  0.00008854  0.00010072  0.00010353  0.00010639  0.00011515  0.00011679
  0.00011869  0.00012085  0.00012181  0.00012813  0.00013218  0.00017335  0.00021097  0.00023017
  0.00025360  0.00026166  0.00026776  0.00027816  0.00028777  0.00030898  0.00034718  0.00035623
  0.00037555  0.00038218  0.00038685  0.00039891  0.00042274  0.00043674  0.00052233  0.00054304
  0.00057918  0.00058089  0.00059308  0.00059347  0.00059361  0.00059798  0.00060022  0.00060381
  0.00060445  0.00061681  0.00061881  0.00062598  0.00062942  0.00063693  0.00064159  0.00064868
  0.00066019  0.00071303  0.00091634  0.00103885  0.00104869  0.00105693  0.00107428  0.00109715
  0.00110442  0.00110643  0.00111883  0.00112055  0.00113765  0.00115522  0.00116644  0.00117052
  0.00117188  0.00117193  0.00139946  0.00142250  0.00143380  0.00149909  0.00175286  0.00180919
  0.00222449  0.00223013  0.00230876  0.00233308  0.00242555  0.00247691  0.00316027  0.00364346
  0.00368435  0.00373705  0.00374365  0.00405914
 Checking for correct frequencies
 recalc frequencies=
   -49.5   -0.0   -0.0   -0.0   -0.0   -0.0    0.0   18.5   52.5   53.6
    54.8  100.6  113.4  132.6  146.1  173.6  208.1  236.6  315.6  337.0
   380.3  401.9  410.8  421.5  431.8  442.0  442.6  485.4  488.5  501.1
   530.9  555.3  630.8  638.2  642.3  654.1  668.7  691.7  701.2  728.9
   749.7  755.5  760.9  787.5  796.9  814.7  818.5  845.0  866.6  870.7
   928.3  941.3  956.9  957.8  961.9  980.4  982.7  988.5 1000.4 1003.5
  1008.5 1014.7 1028.5 1048.4 1054.4 1072.7 1087.0 1088.5 1101.1 1121.4
  1172.6 1185.6 1193.6 1208.9 1212.7 1285.5 1286.0 1311.7 1320.8 1328.7
  1352.2 1354.6 1372.9 1398.0 1414.0 1435.4 1444.6 1450.7 1460.6 1479.5
  1490.8 1511.4 1523.8 1529.8 1544.8 1581.0 1601.9 1623.2 1631.2 1646.1
  3093.1 3093.2 3109.0 3112.7 3136.8 3143.5 3170.3 3181.7 3181.9 3187.6
  3190.3 3190.5 3197.9 3200.0
 recalc symmetries=
     A2     A1     B2     B1     A2     B1     B2     B1     B2     A2 
     B1     A2     B1     B2     B1     A1     B2     B1     B1     A1 
     B2     B1     A2     A2     A2     B2     A2     A1     B1     B2 
     B1     B1     B2     B2     A1     B2     B2     B1     A1     B1 
     B1     B1     A1     B1     A1     B1     A2     A2     B1     B1 
     B1     A2     B1     A2     B1     A2     A1     A1     A2     B1 
     A1     A1     A1     A1     A1     A1     B2     A1     B2     B2 
     B2     A1     B2     A1     B2     B2     B2     B2     A1     B2 
     B2     B2     A1     A1     B2     A1     A1     B2     B2     B2 
     B2     B2     A1     A1     B2     B2     A1     A1     A1     A1 
     B2     A1     B2     A1     A1     B2     A1     A1     B2     B2 
     A1     A1     B2     A1 
 recalc freqs check OK
 Zero-point lengths:
 35.2209 10.0000 10.0000 10.0000 10.0000 10.0000 10.0000 57.5625 34.2121 33.8607
 33.5045 24.7176 23.2834 21.5253 20.5105 18.8143 17.1842 16.1187 13.9559 13.5053
 12.7130 12.3657 12.2322 12.0752 11.9310 11.7920 11.7841 11.2529 11.2163 11.0748
 10.7596 10.5203  9.8705  9.8134  9.7819  9.6931  9.5867  9.4262  9.3622  9.1823
  9.0542  9.0192  8.9871  8.8341  8.7821  8.6856  8.6656  8.5284  8.4214  8.4016
  8.1367  8.0802  8.0141  8.0105  7.9933  7.9178  7.9085  7.8852  7.8381  7.8260
  7.8067  7.7827  7.7301  7.6564  7.6347  7.5693  7.5195  7.5143  7.4710  7.4030
  7.2397  7.1999  7.1756  7.1301  7.1191  6.9146  6.9130  6.8451  6.8215  6.8012
  6.7417  6.7359  6.6909  6.6305  6.5928  6.5434  6.5226  6.5088  6.4867  6.4451
  6.4207  6.3769  6.3509  6.3383  6.3076  6.2348  6.1940  6.1534  6.1381  6.1104
  4.4576  4.4575  4.4462  4.4435  4.4264  4.4217  4.4030  4.3951  4.3949  4.3910
  4.3892  4.3890  4.3839  4.3825
 highest evec of mol 2
  0.0000  0.0000 -0.0003
  0.0000  0.0006 -0.0004
  0.0000  0.0006  0.0005
  0.0000  0.0000 -0.0004
  0.0000  0.0000  0.0003
  0.0000  0.0006  0.0001
  0.0000  0.0008 -0.0003
  0.0000  0.0000 -0.0014
  0.0000  0.0000 -0.0072
  0.0000 -0.1324 -0.0822
  0.0000 -0.1152  0.0728
  0.0000  0.0000  0.0069
  0.0000  0.0000  0.0014
  0.0000  0.0008  0.0002
  0.0000  0.0007 -0.0001
  0.0000  0.0000 -0.0028
  0.0000 -0.0007 -0.0001
  0.0000 -0.0008  0.0002
  0.0000  0.1152  0.0728
  0.0000  0.1324 -0.0822
  0.0000 -0.0008 -0.0003
  0.0000 -0.0006  0.0001
  0.0000 -0.0006  0.0005
  0.0000 -0.0006 -0.0004
  0.0000  0.0000  0.0013
  0.0000 -0.0019  0.0011
  0.0000 -0.0022 -0.0012
  0.0000 -0.0009 -0.0004
  0.0000  0.4413  0.2561
  0.0000  0.3835 -0.2228
  0.0000 -0.0012  0.0005
  0.0000  0.0000  0.0089
  0.0000  0.0012  0.0005
  0.0000 -0.3835 -0.2228
  0.0000 -0.4413  0.2561
  0.0000  0.0009 -0.0004
  0.0000  0.0022 -0.0012
  0.0000  0.0019  0.0011
 Enter nber and list of atoms to keep of mol #2
 keep list:          38           1           2           3           4
           5           6           7           8           9          10
          11          12          13          14          15          16
          17          18          19          20          21          22
          23          24          25          26          27          28
          29          30          31          32          33          34
          35          36          37          38
 reordering atoms
           1  -7.87588908292244     
           2  -7.15823208292244     
           3  -5.77060608292244     
           4  -5.01666008292244     
           5  -3.55716708292244     
           6  -2.76600808292244     
           7  -1.45224208292244     
           8 -0.793515082922438     
           9  0.646862917077562     
          10   1.39049191707756     
          11   2.76630491707756     
          12   3.50729491707756     
          13   4.95313591707756     
          14   5.60347091707756     
          15   6.92442991707756     
          16   7.67485191707756     
          17   6.92442991707756     
          18   5.60347091707756     
          19   2.76630491707756     
          20   1.39049191707756     
          21  -1.45224208292244     
          22  -2.76600808292244     
          23  -5.77060608292244     
          24  -7.15823208292244     
          25  -8.96032508292244     
          26  -7.68824508292244     
          27  -5.25916108292244     
          28  -3.24156308292244     
          29  0.841101917077562     
          30   3.31484591707756     
          31   7.42086991707756     
          32   8.75713091707756     
          33   7.42086991707756     
          34   3.31484591707756     
          35  0.841101917077562     
          36  -3.24156308292244     
          37  -5.25916108292244     
          38  -7.68824508292244     
           1           1
           2           2
           3           3
           4           4
           5           5
           6           6
           7           7
           8           8
           9           9
          10          10
          11          11
          12          12
          13          13
          14          14
          15          15
          16          16
          17          17
          18          18
          19          19
          20          20
          21          21
          22          22
          23          23
          24          24
          25          25
          26          26
          27          27
          28          28
          29          29
          30          30
          31          31
          32          32
          33          33
          34          34
          35          35
          36          36
          37          37
          38          38
 initial cartes coords mol 1
   6   0.00000   0.00000  -7.85167
   6   0.00000  -1.20057  -7.14598
   6   0.00000  -1.20014  -5.75557
   6   0.00000   0.00000  -5.02404
   6   0.00000   0.00000  -3.53996
   6   0.00000   1.17291  -2.76859
   7   0.00000   1.18563  -1.44169
   6   0.00000   0.00000  -0.81169
   6   0.00000   0.00000   0.66811
   6   0.00000   1.20765   1.38146
   6   0.00000   1.20750   2.76792
   6   0.00000   0.00000   3.48092
   6   0.00000   0.00000   4.96339
   7   0.00000   1.19150   5.58558
   6   0.00000   1.17955   6.91602
   6   0.00000   0.00000   7.65326
   6   0.00000  -1.17955   6.91602
   7   0.00000  -1.19150   5.58558
   6   0.00000  -1.20750   2.76792
   6   0.00000  -1.20765   1.38146
   7   0.00000  -1.18563  -1.44169
   6   0.00000  -1.17291  -2.76859
   6   0.00000   1.20014  -5.75557
   6   0.00000   1.20057  -7.14598
   1   0.00000   0.00000  -8.93566
   1   0.00000  -2.14505  -7.67865
   1   0.00000  -2.15302  -5.24325
   1   0.00000   2.15177  -3.23750
   1   0.00000   2.13797   0.82965
   1   0.00000   2.13767   3.32003
   1   0.00000   2.14952   7.40682
   1   0.00000   0.00000   8.73505
   1   0.00000  -2.14952   7.40682
   1   0.00000  -2.13767   3.32003
   1   0.00000  -2.13797   0.82965
   1   0.00000  -2.15177  -3.23750
   1   0.00000   2.15302  -5.24325
   1   0.00000   2.14505  -7.67865
 initial cartes coords mol 2
   6   0.00000   0.00000  -7.87589
   6   0.00000  -1.19843  -7.15823
   6   0.00000  -1.20111  -5.77061
   6   0.00000   0.00000  -5.01666
   6   0.00000   0.00000  -3.55717
   6   0.00000   1.17912  -2.76601
   7   0.00000   1.19964  -1.45224
   6   0.00000   0.00000  -0.79352
   6   0.00000   0.00000   0.64686
   6   0.00000   1.21179   1.39049
   6   0.00000   1.21087   2.76630
   6   0.00000   0.00000   3.50729
   6   0.00000   0.00000   4.95314
   7   0.00000   1.20289   5.60347
   6   0.00000   1.17958   6.92443
   6   0.00000   0.00000   7.67485
   6   0.00000  -1.17958   6.92443
   7   0.00000  -1.20289   5.60347
   6   0.00000  -1.21087   2.76630
   6   0.00000  -1.21179   1.39049
   7   0.00000  -1.19964  -1.45224
   6   0.00000  -1.17912  -2.76601
   6   0.00000   1.20111  -5.77061
   6   0.00000   1.19843  -7.15823
   1   0.00000   0.00000  -8.96033
   1   0.00000  -2.14661  -7.68825
   1   0.00000  -2.15523  -5.25916
   1   0.00000   2.15817  -3.24156
   1   0.00000   2.14470   0.84110
   1   0.00000   2.14454   3.31485
   1   0.00000   2.15051   7.42087
   1   0.00000   0.00000   8.75713
   1   0.00000  -2.15051   7.42087
   1   0.00000  -2.14454   3.31485
   1   0.00000  -2.14470   0.84110
   1   0.00000  -2.15817  -3.24156
   1   0.00000   2.15523  -5.25916
   1   0.00000   2.14661  -7.68825
 loop 1 0
 mod cartes coords mol 2
   6   0.00000   0.00000  -7.87589
   6   0.00000  -1.19843  -7.15823
   6   0.00000  -1.20111  -5.77061
   6   0.00000   0.00000  -5.01666
   6   0.00000   0.00000  -3.55717
   6   0.00000   1.17912  -2.76601
   7   0.00000   1.19964  -1.45224
   6   0.00000   0.00000  -0.79352
   6   0.00000   0.00000   0.64686
   6   0.00000   1.21179   1.39049
   6   0.00000   1.21087   2.76630
   6   0.00000   0.00000   3.50729
   6   0.00000   0.00000   4.95314
   7   0.00000   1.20289   5.60347
   6   0.00000   1.17958   6.92443
   6   0.00000   0.00000   7.67485
   6   0.00000  -1.17958   6.92443
   7   0.00000  -1.20289   5.60347
   6   0.00000  -1.21087   2.76630
   6   0.00000  -1.21179   1.39049
   7   0.00000  -1.19964  -1.45224
   6   0.00000  -1.17912  -2.76601
   6   0.00000   1.20111  -5.77061
   6   0.00000   1.19843  -7.15823
   1   0.00000   0.00000  -8.96033
   1   0.00000  -2.14661  -7.68825
   1   0.00000  -2.15523  -5.25916
   1   0.00000   2.15817  -3.24156
   1   0.00000   2.14470   0.84110
   1   0.00000   2.14454   3.31485
   1   0.00000   2.15051   7.42087
   1   0.00000   0.00000   8.75713
   1   0.00000  -2.15051   7.42087
   1   0.00000  -2.14454   3.31485
   1   0.00000  -2.14470   0.84110
   1   0.00000  -2.15817  -3.24156
   1   0.00000   2.15523  -5.25916
   1   0.00000   2.14661  -7.68825
 read in order, maxerr=  0.03 for atom  12
 final axis swaps:           1           1           1
 final xyz swap pattern=           1
 reorder list:
   1   2   3   4   5   6   7   8   9  10  11  12  13  14  15  16  17  18  19  20
  21  22  23  24  25  26  27  28  29  30  31  32  33  34  35  36  37  38
 axis signs=           1           1           1
  6     0.000000  0.000000 -7.875889     0.000000  0.000000 -7.851672
  6     0.000000 -1.198433 -7.158232     0.000000 -1.200570 -7.145985
  6     0.000000 -1.201105 -5.770606     0.000000 -1.200142 -5.755574
  6     0.000000  0.000000 -5.016660     0.000000  0.000000 -5.024045
  6     0.000000  0.000000 -3.557167     0.000000  0.000000 -3.539959
  6     0.000000  1.179116 -2.766008     0.000000  1.172910 -2.768587
  7     0.000000  1.199643 -1.452242     0.000000  1.185635 -1.441692
  6     0.000000  0.000000 -0.793515     0.000000  0.000000 -0.811693
  6     0.000000  0.000000  0.646863     0.000000  0.000000  0.668113
  6     0.000000  1.211792  1.390492     0.000000  1.207653  1.381457
  6     0.000000  1.210874  2.766305     0.000000  1.207501  2.767919
  6     0.000000  0.000000  3.507295     0.000000  0.000000  3.480920
  6     0.000000  0.000000  4.953136     0.000000  0.000000  4.963387
  7     0.000000  1.202892  5.603471     0.000000  1.191504  5.585579
  6     0.000000  1.179577  6.924430     0.000000  1.179548  6.916022
  6     0.000000  0.000000  7.674852     0.000000  0.000000  7.653255
  6     0.000000 -1.179577  6.924430     0.000000 -1.179548  6.916022
  7     0.000000 -1.202892  5.603471     0.000000 -1.191504  5.585579
  6     0.000000 -1.210874  2.766305     0.000000 -1.207501  2.767919
  6     0.000000 -1.211792  1.390492     0.000000 -1.207653  1.381457
  7     0.000000 -1.199643 -1.452242     0.000000 -1.185635 -1.441692
  6     0.000000 -1.179116 -2.766008     0.000000 -1.172910 -2.768587
  6     0.000000  1.201105 -5.770606     0.000000  1.200142 -5.755574
  6     0.000000  1.198433 -7.158232     0.000000  1.200570 -7.145985
  1     0.000000  0.000000 -8.960325     0.000000  0.000000 -8.935665
  1     0.000000 -2.146610 -7.688245     0.000000 -2.145051 -7.678654
  1     0.000000 -2.155226 -5.259161     0.000000 -2.153025 -5.243251
  1     0.000000  2.158169 -3.241563     0.000000  2.151769 -3.237500
  1     0.000000  2.144704  0.841102     0.000000  2.137975  0.829650
  1     0.000000  2.144543  3.314846     0.000000  2.137668  3.320028
  1     0.000000  2.150514  7.420870     0.000000  2.149523  7.406819
  1     0.000000  0.000000  8.757131     0.000000  0.000000  8.735050
  1     0.000000 -2.150514  7.420870     0.000000 -2.149523  7.406819
  1     0.000000 -2.144543  3.314846     0.000000 -2.137668  3.320028
  1     0.000000 -2.144704  0.841102     0.000000 -2.137975  0.829650
  1     0.000000 -2.158169 -3.241563     0.000000 -2.151769 -3.237500
  1     0.000000  2.155226 -5.259161     0.000000  2.153025 -5.243251
  1     0.000000  2.146610 -7.688245     0.000000  2.145051 -7.678654
 generating redundant internal coords
         300        3600          38
 Adding extra bonds for z output only
           6           6           6           6           6           6
           7           6           6           6           6           6
           6           7           6           6           6           7
           6           6           7           6           6           6
           1           1           1           1           1           1
           1           1           1           1           1           1
           1           1
 search for int coords
   1 str   2   1   1.397
   2 str   3   2   1.388
   3 str   4   3   1.418
   4 str   5   4   1.459
   5 str   6   5   1.420
   6 str   7   6   1.314
   7 str   8   7   1.369
   8 str   9   8   1.440
   9 str  10   9   1.422
  10 str  11  10   1.376
  11 str  12  11   1.420
  12 str  13  12   1.446
  13 str  14  13   1.367
  14 str  15  14   1.321
  15 str  16  15   1.398
  16 str  17  16   1.398
  17 str  18  13   1.367
  18 str  18  17   1.321
  19 str  19  12   1.420
  20 str  20   9   1.422
  21 str  20  19   1.376
  22 str  21   8   1.369
  23 str  22   5   1.420
  24 str  22  21   1.314
  25 str  23   4   1.418
  26 str  24   1   1.397
  27 str  24  23   1.388
  28 str  25   1   1.084
  29 str  26   2   1.086
  30 str  27   3   1.083
  31 str  28   6   1.088
  32 str  29  10   1.083
  33 str  30  11   1.083
  34 str  31  15   1.090
  35 str  32  16   1.082
  36 str  33  17   1.090
  37 str  34  19   1.083
  38 str  35  20   1.083
  39 str  36  22   1.088
  40 str  37  23   1.083
  41 str  38  24   1.086
 nber stretches=          41
  42 ben   1   2   3
  43 prop tor   1   2   3   4
  44 prop tor   1   2   3  27
  45 ben   1   2  26
  46 ben   1  24  23
  47 ben   1  24  38
  48 ben   2   1  24
  49 prop tor   2   1  24  23
  50 prop tor   2   1  24  38
  51 ben   2   1  25
  52 ben   2   3   4
  53 prop tor   2   3   4   5
  54 prop tor   2   3   4  23
  55 ben   2   3  27
  56 ben   3   2  26
  57 ben   3   4   5
  58 prop tor   3   4   5   6
  59 prop tor   3   4   5  22
  60 ben   3   4  23
  61 prop tor   3   4  23  24
  62 prop tor   3   4  23  37
  63 ben   4   3  27
  64 ben   4   5   6
  65 prop tor   4   5   6   7
  66 prop tor   4   5   6  28
  67 ben   4   5  22
  68 prop tor   4   5  22  21
  69 prop tor   4   5  22  36
  70 ben   4  23  24
  71 prop tor   4  23  24   1
  72 prop tor   4  23  24  38
  73 ben   4  23  37
  74 ben   5   4  23
  75 prop tor   5   4  23  24
  76 prop tor   5   4  23  37
  77 ben   5   6   7
  78 prop tor   5   6   7   8
  79 ben   5   6  28
  80 ben   5  22  21
  81 ben   5  22  36
  82 ben   6   5  22
  83 prop tor   6   5  22  21
  84 prop tor   6   5  22  36
  85 ben   6   7   8
  86 prop tor   6   7   8   9
  87 prop tor   6   7   8  21
  88 ben   7   6  28
  89 ben   7   8   9
  90 prop tor   7   8   9  10
  91 prop tor   7   8   9  20
  92 ben   7   8  21
  93 prop tor   7   8  21  22
  94 ben   8   9  10
  95 prop tor   8   9  10  11
  96 prop tor   8   9  10  29
  97 ben   8   9  20
  98 prop tor   8   9  20  19
  99 prop tor   8   9  20  35
 100 ben   8  21  22
 101 prop tor   8  21  22   5
 102 prop tor   8  21  22  36
 103 ben   9   8  21
 104 prop tor   9   8  21  22
 105 ben   9  10  11
 106 prop tor   9  10  11  12
 107 prop tor   9  10  11  30
 108 ben   9  10  29
 109 ben   9  20  19
 110 ben   9  20  35
 111 ben  10   9  20
 112 prop tor  10   9  20  19
 113 prop tor  10   9  20  35
 114 ben  10  11  12
 115 prop tor  10  11  12  13
 116 prop tor  10  11  12  19
 117 ben  10  11  30
 118 ben  11  10  29
 119 ben  11  12  13
 120 prop tor  11  12  13  14
 121 prop tor  11  12  13  18
 122 ben  11  12  19
 123 prop tor  11  12  19  20
 124 prop tor  11  12  19  34
 125 ben  12  11  30
 126 ben  12  13  14
 127 prop tor  12  13  14  15
 128 ben  12  13  18
 129 prop tor  12  13  18  17
 130 ben  12  19  20
 131 prop tor  12  19  20   9
 132 prop tor  12  19  20  35
 133 ben  12  19  34
 134 ben  13  12  19
 135 prop tor  13  12  19  20
 136 prop tor  13  12  19  34
 137 ben  13  14  15
 138 prop tor  13  14  15  16
 139 prop tor  13  14  15  31
 140 ben  13  18  17
 141 ben  14  13  18
 142 prop tor  14  13  18  17
 143 ben  14  15  16
 144 prop tor  14  15  16  17
 145 prop tor  14  15  16  32
 146 ben  14  15  31
 147 ben  15  16  17
 148 prop tor  15  16  17  18
 149 prop tor  15  16  17  33
 150 ben  15  16  32
 151 ben  16  15  31
 152 ben  16  17  18
 153 prop tor  16  17  18  13
 154 ben  16  17  33
 155 ben  17  16  32
 156 prop tor  18  13  14  15
 157 ben  18  17  33
 158 prop tor  19  12  13  14
 159 prop tor  19  12  13  18
 160 ben  19  20  35
 161 prop tor  20   9  10  11
 162 prop tor  20   9  10  29
 163 ben  20  19  34
 164 prop tor  21   8   9  10
 165 prop tor  21   8   9  20
 166 ben  21  22  36
 167 prop tor  22   5   6   7
 168 prop tor  22   5   6  28
 169 prop tor  23   4   5   6
 170 prop tor  23   4   5  22
 171 ben  23  24  38
 172 prop tor  24   1   2   3
 173 prop tor  24   1   2  26
 174 ben  24   1  25
 175 ben  24  23  37
 176 prop tor  25   1   2   3
 177 prop tor  25   1   2  26
 178 prop tor  25   1  24  23
 179 prop tor  25   1  24  38
 180 prop tor  26   2   3   4
 181 prop tor  26   2   3  27
 182 prop tor  27   3   4   5
 183 prop tor  27   3   4  23
 184 prop tor  28   6   7   8
 185 prop tor  29  10  11  12
 186 prop tor  29  10  11  30
 187 prop tor  30  11  12  13
 188 prop tor  30  11  12  19
[...]
  78 A1   1303. -0.9604    92.2   100.0  79 A1   1321.
  79 B2   1314.  0.8255    68.1    99.7  77 B2   1286.
                -0.3522    12.4          82 B2   1355.
  80 B2   1332. -0.5111    26.1    99.8  78 B2   1312.
                 0.7922    62.8          80 B2   1329.
  81 A1   1344.  0.9680    93.7    99.5  83 A1   1373.
  82 B2   1351.  0.8512    72.5   100.1  81 B2   1352.
                -0.3252    10.6          82 B2   1355.
  83 A1   1366. -0.9448    89.3    99.5  84 A1   1398.
  84 B2   1372.  0.7962    63.4    99.8  82 B2   1355.
  85 B2   1410. -0.6366    40.5    99.2  85 B2   1414.
                -0.5511    30.4          89 B2   1461.
  86 B2   1435.  0.3676    13.5    99.4  85 B2   1414.
                 0.3512    12.3          88 B2   1451.
                -0.6295    39.6          89 B2   1461.
                -0.3475    12.1          90 B2   1480.
  87 A1   1448. -0.9251    85.6    99.7  86 A1   1435.
  88 B2   1468.  0.7715    59.5    99.5  88 B2   1451.
                 0.4096    16.8          90 B2   1480.
                 0.4051    16.4          91 B2   1491.
  89 A1   1472. -0.9460    89.5    99.7  87 A1   1445.
  90 B2   1484. -0.7857    61.7    99.8  90 B2   1480.
                 0.4694    22.0          91 B2   1491.
  91 A1   1538. -0.9342    87.3    99.6  93 A1   1524.
  92 A1   1542. -0.9514    90.5    99.7  94 A1   1530.
  93 B2   1564. -0.3182    10.1    99.7  85 B2   1414.
                 0.3665    13.4          88 B2   1451.
                -0.7150    51.1          91 B2   1491.
  94 B2   1589. -0.9317    86.8    99.7  92 B2   1511.
  95 B2   1615.  0.9697    94.0    99.8  95 B2   1545.
  96 A1   1615. -0.6015    36.2   100.1  97 A1   1602.
                -0.5430    29.5          98 A1   1623.
                 0.5580    31.1          99 A1   1631.
  97 A1   1619. -0.6461    41.7    99.9  97 A1   1602.
                 0.7391    54.6          98 A1   1623.
  98 B2   1622.  0.9799    96.0    99.7  96 B2   1581.
  99 A1   1646.  0.3713    13.8   100.1  97 A1   1602.
                 0.7978    63.7          99 A1   1631.
                -0.3415    11.7         100 A1   1646.
 100 A1   1653. -0.9228    85.2   100.1 100 A1   1646.
 101 A1   3143.  0.9991    99.8   100.0 102 A1   3093.
 102 B2   3145.  0.9999   100.0   100.0 101 B2   3093.
 103 B2   3157. -0.9903    98.1   100.0 103 B2   3109.
 104 A1   3158.  0.9649    93.1   100.0 104 A1   3113.
 105 A1   3164. -0.9528    90.8   100.0 105 A1   3137.
 106 B2   3173. -0.9930    98.6   100.0 106 B2   3143.
 107 A1   3187.  0.9834    96.7   100.0 107 A1   3170.
 108 B2   3201.  0.9939    98.8   100.0 110 B2   3188.
 109 A1   3202.  0.9968    99.4   100.0 108 A1   3182.
 110 B2   3203.  0.9963    99.3   100.0 109 B2   3182.
 111 A1   3203. -0.9896    97.9   100.0 112 A1   3190.
 112 A1   3206. -0.9959    99.2   100.0 111 A1   3190.
 113 B2   3215.  0.9970    99.4   100.0 113 B2   3198.
 114 A1   3216. -0.9977    99.5   100.0 114 A1   3200.
 nber times 1st assigned=           1           0
 nber times 1st assigned=           2           0
 nber times 1st assigned=           3           0
 nber times 1st assigned=           4           0
 nber times 1st assigned=           5           0
 nber times 1st assigned=           6           0
 nber times 1st assigned=           7           0
 nber times 1st assigned=           8           0
 nber times 1st assigned=           9           0
 nber times 1st assigned=          10           0
 nber times 1st assigned=          11           0
 nber times 1st assigned=          12           0
 nber times 1st assigned=          13           0
 nber times 1st assigned=          14           0
 nber times 1st assigned=          15           0
 nber times 1st assigned=          16           0
 nber times 1st assigned=          17           0
 nber times 1st assigned=          18           0
 nber times 1st assigned=          19           0
 nber times 1st assigned=          20           0
 nber times 1st assigned=          21           0
 nber times 1st assigned=          22           0
 nber times 1st assigned=          23           0
 nber times 1st assigned=          24           0
 nber times 1st assigned=          25           0
 nber times 1st assigned=          26           0
 nber times 1st assigned=          27           0
 nber times 1st assigned=          28           0
 nber times 1st assigned=          29           0
 nber times 1st assigned=          30           0
 nber times 1st assigned=          31           0
 nber times 1st assigned=          32           0
 nber times 1st assigned=          33           0
 nber times 1st assigned=          34           0
 nber times 1st assigned=          35           0
 nber times 1st assigned=          36           0
 nber times 1st assigned=          37           0
 nber times 1st assigned=          38           0
 nber times 1st assigned=          39           0
 nber times 1st assigned=          40           0
 nber times 1st assigned=          41           0
 nber times 1st assigned=          42           0
 nber times 1st assigned=          43           0
 nber times 1st assigned=          44           0
 nber times 1st assigned=          45           0
 nber times 1st assigned=          46           0
 nber times 1st assigned=          47           0
 nber times 1st assigned=          48           0
 nber times 1st assigned=          49           0
 nber times 1st assigned=          50           0
 nber times 1st assigned=          51           0
 nber times 1st assigned=          52           0
 nber times 1st assigned=          53           0
 nber times 1st assigned=          54           0
 nber times 1st assigned=          55           0
 nber times 1st assigned=          56           0
 nber times 1st assigned=          57           0
 nber times 1st assigned=          58           0
 nber times 1st assigned=          59           0
 nber times 1st assigned=          60           0
 nber times 1st assigned=          61           0
 nber times 1st assigned=          62           0
 nber times 1st assigned=          63           0
 nber times 1st assigned=          64           0
 nber times 1st assigned=          65           0
 nber times 1st assigned=          66           0
 nber times 1st assigned=          67           0
 nber times 1st assigned=          68           0
 nber times 1st assigned=          69           0
 nber times 1st assigned=          70           0
 nber times 1st assigned=          71           0
 nber times 1st assigned=          72           0
 nber times 1st assigned=          73           0
 nber times 1st assigned=          74           0
 nber times 1st assigned=          75           0
 nber times 1st assigned=          76           0
 nber times 1st assigned=          77           0
 nber times 1st assigned=          78           0
 nber times 1st assigned=          79           0
 nber times 1st assigned=          80           0
 nber times 1st assigned=          81           0
 nber times 1st assigned=          82           0
 nber times 1st assigned=          83           0
 nber times 1st assigned=          84           0
 nber times 1st assigned=          85           0
 nber times 1st assigned=          86           0
 nber times 1st assigned=          87           0
 nber times 1st assigned=          88           0
 nber times 1st assigned=          89           0
 nber times 1st assigned=          90           0
 nber times 1st assigned=          91           0
 nber times 1st assigned=          92           0
 nber times 1st assigned=          93           0
 nber times 1st assigned=          94           0
 nber times 1st assigned=          95           0
 nber times 1st assigned=          96           0
 nber times 1st assigned=          97           0
 nber times 1st assigned=          98           0
 nber times 1st assigned=          99           0
 nber times 1st assigned=         100           0
 nber times 1st assigned=         101           0
 nber times 1st assigned=         102           0
 nber times 1st assigned=         103           0
 nber times 1st assigned=         104           0
 nber times 1st assigned=         105           0
 nber times 1st assigned=         106           0
 nber times 1st assigned=         107           0
 nber times 1st assigned=         108           0
 nber times 1st assigned=         109           0
 nber times 1st assigned=         110           0
 nber times 1st assigned=         111           0
 nber times 1st assigned=         112           0
 nber times 1st assigned=         113           0
 nber times 1st assigned=         114           0
 modes represented=   108.003607900253     
 p1=
    0.   -0.    0.   -0.    0.    0.    0.   -0.   -0.   -0.   -0.    0.   -0.   -0.   -0.    7.   -0.   -0.    0.   -0.
    0.   -0.   -0.    0.   -0.   -0.   -0.    1.    0.    0.   -0.    0.   -0.   -0.   -0.   -2.   -0.    0.    0.    0.
    0.    0.   -0.   -0.    2.   -0.   -0.    0.   -0.   -0.    0.    0.   -0.   -0.   -0.   -0.    2.   -0.    0.    0.
   -1.   -0.    1.   -0.    1.   -0.   -0.    1.   -0.    0.    0.   -2.   -0.   -0.   -0.    0.   -0.   -3.    0.    0.
    1.    0.   -2.    0.    0.   -0.    3.    0.    3.   -0.   -0.    0.   -0.    0.   -0.   -4.    3.   -0.   -0.   -2.
    0.    0.    0.   -0.   -0.   -0.   -0.    0.   -0.    0.   -0.   -0.   -0.    0.
 p2=
   -0.   -0.    0.    0.    0.    0.   -0.    0.   -0.   -0.   -0.   -0.    0.   -0.   -0.   -7.   -0.    0.    0.    0.
    0.   -0.   -0.   -0.    0.    0.    0.   -1.    0.   -0.   -0.   -0.   -0.    0.   -2.   -0.   -0.    0.    0.    0.
    0.    0.   -0.   -0.   -2.    0.    0.    0.    0.    0.   -0.   -0.   -0.    0.   -0.    0.    2.    1.    0.   -0.
   -2.   -0.   -1.    0.    1.    0.   -0.   -1.    0.    0.   -0.    2.    0.    0.    0.    0.    0.    0.   -2.    0.
    0.   -0.   -1.   -3.    0.    4.    2.    0.   -0.    0.    0.   -0.   -1.   -0.    0.    0.   -1.   -4.    2.   -1.
    0.   -0.    0.    0.   -0.   -0.    0.    0.   -0.    0.   -0.   -0.   -0.    0.

 Displacement: in terms of nc of 1 THEN of nc of 2

   1 A2  freq=   -74. Q=  0.000 lam=    -0.0 A2  freq=   -50. Q=  0.000 lam=    -0.0
   2 B2  freq=    -0. Q= -0.000 lam=    -0.0 A1  freq=    -0. Q= -0.000 lam=    -0.0
   3 B1  freq=    -0. Q=  0.000 lam=    -0.0 B2  freq=    -0. Q=  0.000 lam=    -0.0
   4 A2  freq=    -0. Q= -0.000 lam=    -0.0 B1  freq=    -0. Q= -0.000 lam=    -0.0
   5 B1  freq=     0. Q=  0.000 lam=     0.0 A2  freq=    -0. Q=  0.000 lam=    -0.0
   6 B2  freq=     0. Q=  0.000 lam=     0.0 B1  freq=    -0. Q=  0.000 lam=    -0.0
   7 A1  freq=     0. Q=  0.000 lam=     0.0 B2  freq=     0. Q=  0.000 lam=     0.0
   8 B1  freq=    20. Q= -0.000 lam=     0.0 B1  freq=    19. Q= -0.000 lam=     0.0
   9 A2  freq=    34. Q= -0.000 lam=     0.0 B2  freq=    53. Q= -0.000 lam=     0.0
  10 B2  freq=    53. Q= -0.000 lam=     0.0 A2  freq=    54. Q= -0.000 lam=     0.0
  11 B1  freq=    58. Q= -0.000 lam=     0.0 B1  freq=    55. Q= -0.000 lam=     0.0
  12 A2  freq=    66. Q=  0.000 lam=     0.0 A2  freq=   101. Q=  0.000 lam=     0.0
  13 B1  freq=   120. Q= -0.000 lam=     0.0 B1  freq=   113. Q= -0.000 lam=     0.0
  14 B2  freq=   134. Q= -0.000 lam=     0.0 B2  freq=   133. Q= -0.000 lam=     0.0
  15 B1  freq=   162. Q= -0.000 lam=     0.0 B1  freq=   146. Q= -0.000 lam=     0.0
  16 A1  freq=   173. Q=  0.365 lam=    11.6 A1  freq=   174. Q=  0.396 lam=    13.6
  17 B2  freq=   211. Q= -0.000 lam=     0.0 B2  freq=   208. Q= -0.000 lam=     0.0
  18 B1  freq=   257. Q= -0.000 lam=     0.0 B1  freq=   237. Q= -0.000 lam=     0.0
  19 A1  freq=   337. Q=  0.025 lam=     0.1 B1  freq=   316. Q=  0.000 lam=     0.0
  20 B1  freq=   349. Q= -0.000 lam=     0.0 A1  freq=   337. Q= -0.019 lam=     0.1
  21 B2  freq=   378. Q=  0.000 lam=     0.0 B2  freq=   380. Q=  0.000 lam=     0.0
  22 A2  freq=   390. Q= -0.000 lam=     0.0 B1  freq=   402. Q= -0.000 lam=     0.0
  23 A2  freq=   409. Q= -0.000 lam=     0.0 A2  freq=   411. Q= -0.000 lam=     0.0
  24 A2  freq=   414. Q=  0.000 lam=     0.0 A2  freq=   421. Q=  0.000 lam=     0.0
  25 A2  freq=   421. Q= -0.000 lam=     0.0 A2  freq=   432. Q= -0.000 lam=     0.0
  26 B1  freq=   443. Q= -0.000 lam=     0.0 B2  freq=   442. Q= -0.000 lam=     0.0
  27 B2  freq=   445. Q= -0.000 lam=     0.0 A2  freq=   443. Q= -0.000 lam=     0.0
  28 A1  freq=   483. Q=  0.129 lam=     4.0 A1  freq=   485. Q=  0.133 lam=     4.3
  29 B2  freq=   507. Q=  0.000 lam=     0.0 B1  freq=   489. Q=  0.000 lam=     0.0
  30 B1  freq=   514. Q=  0.000 lam=     0.0 B2  freq=   501. Q=  0.000 lam=     0.0
  31 B1  freq=   562. Q= -0.000 lam=     0.0 B1  freq=   531. Q= -0.000 lam=     0.0
  32 B1  freq=   590. Q=  0.000 lam=     0.0 B1  freq=   555. Q=  0.000 lam=     0.0
  33 B2  freq=   632. Q= -0.000 lam=     0.0 B2  freq=   631. Q= -0.000 lam=     0.0
  34 B2  freq=   641. Q= -0.000 lam=     0.0 B2  freq=   638. Q= -0.000 lam=     0.0
  35 B2  freq=   656. Q= -0.000 lam=     0.0 A1  freq=   642. Q= -0.217 lam=    15.1
  36 A1  freq=   658. Q= -0.215 lam=    15.2 B2  freq=   654. Q= -0.000 lam=     0.0
  37 B2  freq=   671. Q= -0.000 lam=     0.0 B2  freq=   669. Q= -0.000 lam=     0.0
  38 B1  freq=   700. Q=  0.000 lam=     0.0 B1  freq=   692. Q=  0.000 lam=     0.0
  39 A1  freq=   713. Q=  0.017 lam=     0.1 A1  freq=   701. Q=  0.041 lam=     0.6
  40 B1  freq=   751. Q=  0.000 lam=     0.0 B1  freq=   729. Q=  0.000 lam=     0.0
  41 B1  freq=   780. Q=  0.000 lam=     0.0 B1  freq=   750. Q=  0.000 lam=     0.0
  42 A1  freq=   785. Q=  0.055 lam=     1.2 B1  freq=   756. Q=  0.000 lam=     0.0
  43 B1  freq=   814. Q= -0.000 lam=     0.0 A1  freq=   761. Q= -0.035 lam=     0.5
  44 B1  freq=   816. Q= -0.000 lam=     0.0 B1  freq=   788. Q= -0.000 lam=     0.0
  45 A1  freq=   826. Q=  0.196 lam=    15.9 A1  freq=   797. Q=  0.239 lam=    22.8
  46 A2  freq=   841. Q= -0.000 lam=     0.0 B1  freq=   815. Q= -0.000 lam=     0.0
  47 B1  freq=   849. Q= -0.000 lam=     0.0 A2  freq=   818. Q= -0.000 lam=     0.0
  48 A2  freq=   876. Q=  0.000 lam=     0.0 A2  freq=   845. Q=  0.000 lam=     0.0
  49 B1  freq=   905. Q= -0.000 lam=     0.0 B1  freq=   867. Q= -0.000 lam=     0.0
  50 B1  freq=   926. Q= -0.000 lam=     0.0 B1  freq=   871. Q= -0.000 lam=     0.0
  51 B1  freq=   962. Q=  0.000 lam=     0.0 B1  freq=   928. Q=  0.000 lam=     0.0
  52 A2  freq=   970. Q=  0.000 lam=     0.0 A2  freq=   941. Q=  0.000 lam=     0.0
  53 A2  freq=   987. Q= -0.000 lam=     0.0 B1  freq=   957. Q= -0.000 lam=     0.0
  54 A2  freq=  1001. Q= -0.000 lam=     0.0 A2  freq=   958. Q= -0.000 lam=     0.0
  55 B1  freq=  1003. Q= -0.000 lam=     0.0 B1  freq=   962. Q= -0.000 lam=     0.0
  56 B1  freq=  1006. Q= -0.000 lam=     0.0 A2  freq=   980. Q= -0.000 lam=     0.0
  57 A1  freq=  1009. Q=  0.293 lam=    43.5 A1  freq=   983. Q=  0.258 lam=    32.7
  58 A1  freq=  1013. Q= -0.051 lam=     1.3 A1  freq=   988. Q= -0.100 lam=     5.0
  59 A2  freq=  1019. Q=  0.000 lam=     0.0 A2  freq=  1000. Q=  0.000 lam=     0.0
  60 B1  freq=  1019. Q=  0.000 lam=     0.0 B1  freq=  1003. Q=  0.000 lam=     0.0
  61 A1  freq=  1020. Q= -0.172 lam=    15.2 A1  freq=  1008. Q= -0.212 lam=    22.7
  62 A1  freq=  1033. Q= -0.057 lam=     1.7 A1  freq=  1015. Q= -0.005 lam=     0.0
  63 A1  freq=  1054. Q=  0.122 lam=     7.8 A1  freq=  1029. Q=  0.076 lam=     2.9
  64 A1  freq=  1064. Q= -0.004 lam=     0.0 A1  freq=  1048. Q= -0.000 lam=     0.0
  65 A1  freq=  1071. Q=  0.104 lam=     5.8 A1  freq=  1054. Q=  0.155 lam=    12.6
  66 A1  freq=  1100. Q= -0.046 lam=     1.2 A1  freq=  1073. Q= -0.030 lam=     0.5
  67 B2  freq=  1111. Q= -0.000 lam=     0.0 B2  freq=  1087. Q= -0.000 lam=     0.0
  68 A1  freq=  1112. Q=  0.070 lam=     2.7 A1  freq=  1088. Q=  0.079 lam=     3.4
  69 B2  freq=  1113. Q= -0.000 lam=     0.0 B2  freq=  1101. Q= -0.000 lam=     0.0
  70 B2  freq=  1128. Q=  0.000 lam=     0.0 B2  freq=  1121. Q=  0.000 lam=     0.0
  71 B2  freq=  1186. Q=  0.000 lam=     0.0 B2  freq=  1173. Q=  0.000 lam=     0.0
  72 A1  freq=  1194. Q= -0.274 lam=    44.9 A1  freq=  1186. Q= -0.273 lam=    44.1
  73 A1  freq=  1220. Q= -0.054 lam=     1.8 B2  freq=  1194. Q= -0.000 lam=     0.0
  74 B2  freq=  1223. Q= -0.000 lam=     0.0 A1  freq=  1209. Q= -0.060 lam=     2.2
  75 B2  freq=  1238. Q= -0.000 lam=     0.0 B2  freq=  1213. Q= -0.000 lam=     0.0
  76 B2  freq=  1275. Q=  0.000 lam=     0.0 B2  freq=  1285. Q=  0.000 lam=     0.0
  77 B2  freq=  1288. Q= -0.000 lam=     0.0 B2  freq=  1286. Q= -0.000 lam=     0.0
  78 A1  freq=  1303. Q= -0.447 lam=   129.9 B2  freq=  1312. Q= -0.000 lam=     0.0
  79 B2  freq=  1314. Q=  0.000 lam=     0.0 A1  freq=  1321. Q=  0.313 lam=    64.9
  80 B2  freq=  1332. Q=  0.000 lam=     0.0 B2  freq=  1329. Q=  0.000 lam=     0.0
  81 A1  freq=  1344. Q=  0.218 lam=    32.0 B2  freq=  1352. Q=  0.000 lam=     0.0
  82 B2  freq=  1351. Q=  0.000 lam=     0.0 B2  freq=  1355. Q=  0.000 lam=     0.0
  83 A1  freq=  1366. Q= -0.327 lam=    73.2 A1  freq=  1373. Q= -0.081 lam=     4.5
  84 B2  freq=  1372. Q=  0.000 lam=     0.0 A1  freq=  1398. Q=  0.405 lam=   114.5
  85 B2  freq=  1410. Q=  0.000 lam=     0.0 B2  freq=  1414. Q=  0.000 lam=     0.0
  86 B2  freq=  1435. Q= -0.000 lam=     0.0 A1  freq=  1435. Q= -0.624 lam=   279.7
  87 A1  freq=  1448. Q=  0.415 lam=   124.8 A1  freq=  1445. Q=  0.335 lam=    81.3
  88 B2  freq=  1468. Q=  0.000 lam=     0.0 B2  freq=  1451. Q=  0.000 lam=     0.0
  89 A1  freq=  1472. Q=  0.540 lam=   214.7 B2  freq=  1461. Q=  0.000 lam=     0.0
  90 B2  freq=  1484. Q= -0.000 lam=     0.0 B2  freq=  1480. Q= -0.000 lam=     0.0
  91 A1  freq=  1538. Q= -0.046 lam=     1.6 B2  freq=  1491. Q= -0.000 lam=     0.0
  92 A1  freq=  1542. Q=  0.058 lam=     2.6 B2  freq=  1511. Q=  0.000 lam=     0.0
  93 B2  freq=  1564. Q= -0.000 lam=     0.0 A1  freq=  1524. Q= -0.103 lam=     8.1
  94 B2  freq=  1589. Q=  0.000 lam=     0.0 A1  freq=  1530. Q=  0.022 lam=     0.4
  95 B2  freq=  1615. Q= -0.000 lam=     0.0 B2  freq=  1545. Q= -0.000 lam=     0.0
  96 A1  freq=  1615. Q= -0.651 lam=   342.0 B2  freq=  1581. Q= -0.000 lam=     0.0
  97 A1  freq=  1619. Q=  0.421 lam=   143.7 A1  freq=  1602. Q=  0.092 lam=     6.7
  98 B2  freq=  1622. Q= -0.000 lam=     0.0 A1  freq=  1623. Q= -0.684 lam=   380.0
  99 A1  freq=  1646. Q= -0.026 lam=     0.6 A1  freq=  1631. Q= -0.386 lam=   121.4
 100 A1  freq=  1653. Q= -0.308 lam=    78.3 A1  freq=  1646. Q= -0.143 lam=    16.7
 101 A1  freq=  3143. Q=  0.034 lam=     1.9 B2  freq=  3093. Q=  0.000 lam=     0.0
 102 B2  freq=  3145. Q=  0.000 lam=     0.0 A1  freq=  3093. Q=  0.029 lam=     1.3
 103 B2  freq=  3157. Q=  0.000 lam=     0.0 B2  freq=  3109. Q=  0.000 lam=     0.0
 104 A1  freq=  3158. Q= -0.027 lam=     1.1 A1  freq=  3113. Q= -0.019 lam=     0.6
 105 A1  freq=  3164. Q= -0.009 lam=     0.1 A1  freq=  3137. Q= -0.018 lam=     0.5
 106 B2  freq=  3173. Q= -0.000 lam=     0.0 B2  freq=  3143. Q= -0.000 lam=     0.0
 107 A1  freq=  3187. Q= -0.009 lam=     0.1 A1  freq=  3170. Q= -0.009 lam=     0.1
 108 B2  freq=  3201. Q=  0.000 lam=     0.0 A1  freq=  3182. Q=  0.003 lam=     0.0
 109 A1  freq=  3202. Q= -0.002 lam=     0.0 B2  freq=  3182. Q= -0.000 lam=     0.0
 110 B2  freq=  3203. Q=  0.000 lam=     0.0 B2  freq=  3188. Q=  0.000 lam=     0.0
 111 A1  freq=  3203. Q= -0.015 lam=     0.4 A1  freq=  3190. Q= -0.003 lam=     0.0
 112 A1  freq=  3206. Q= -0.007 lam=     0.1 A1  freq=  3190. Q= -0.012 lam=     0.2
 113 B2  freq=  3215. Q= -0.000 lam=     0.0 B2  freq=  3198. Q= -0.000 lam=     0.0
 114 A1  freq=  3216. Q=  0.015 lam=     0.4 A1  freq=  3200. Q=  0.016 lam=     0.4

 total reorg energy (cm**-1, kcal/mol)=     1321.     1264.      3.78      3.61
 Nber of molecules processed=           2
