 Enter ifcurve (0=recti, 1=orth curvi, 2=apprx curvi, -1 = skip
 And atom ordering flag, 0= never changes, 1= use the first order thenceforth,
  2= deduce it (does read on fail), 3= always read it
 Reading file: 
 ./IDT_0_C0S0.log                                                               
                                          
  Entering Gaussian System, Link 0=g16                                          
  
 Gaussian format, type: g94, g98, g03= F F F
  #P Geom=AllCheck Guess=TCheck SCRF=Check GenChk RB3LYP/6-311G(d,p) Fre    
 energy type= B3LYP   
 Original G94 input coords:
  6  0.887870 -0.921310 -0.417860
  6  2.418753 -0.988754 -0.606769
  6  3.136695 -0.529396  0.680584
  6  2.868299 -0.163770 -1.821506
  6  2.734073  1.199863 -2.033542
  6  3.225741  1.732687 -3.230090
  6  3.844283  0.910392 -4.202602
  6  3.978499 -0.453243 -3.990570
  6  3.486865 -0.986062 -2.794006
  6  3.464380 -2.338706 -2.265297
 16  3.990976 -3.905407 -2.783607
  6  3.391148 -4.613640 -1.303384
  6  2.823058 -3.685501 -0.472115
  6  2.867019 -2.379721 -1.028144
  6  4.293806  1.735372 -5.417350
  6  5.824612  1.667854 -5.606530
  6  3.575591  1.276027 -6.704603
  6  3.845565  3.126343 -4.995962
  6  3.889693  4.432153 -5.551910
  6  3.321800  5.360326 -4.720543
 16  2.721853  4.652071 -3.240379
  6  3.248203  3.085328 -3.758810
  1  0.570846  0.098558 -0.182790
  1  0.574627 -1.569369  0.405717
  1  0.368136 -1.241904 -1.323066
  1  2.858002  0.497088  0.934671
  1  4.221046 -0.570139  0.558780
  1  2.861392 -1.171068  1.522516
  1  2.261998  1.840354 -1.295667
  1  4.450595 -1.093731 -4.728435
  1  3.500025 -5.675809 -1.147147
  1  2.398075 -3.943007  0.489487
  1  6.141564  0.647972 -5.841640
  1  6.344551  1.988435 -4.701433
  1  6.137755  2.315876 -6.430175
  1  3.854209  0.249532 -6.958724
  1  3.850772  1.917699 -7.546574
  1  2.491271  1.316822 -6.582573
  1  4.314683  4.689661 -6.513508
  1  3.213032  6.422514 -4.876727
 nber atoms=          40
  SCF Done:  E(RB3LYP) =  -1569.57751758     A.U. after    1 cycles             
  
          23          40 "  -1569.57751758"
After scan for Atom:   Atom  AN      X      Y      Z        X      Y      Z        X      Y      Z   
After scan for Atom:   Atom  AN      X      Y      Z        X      Y      Z        X      Y      Z   
After scan for Atom:   Atom  AN      X      Y      Z        X      Y      Z        X      Y      Z   
After scan for Atom:   Atom  AN      X      Y      Z        X      Y      Z        X      Y      Z   
After scan for Atom:   Atom  AN      X      Y      Z        X      Y      Z        X      Y      Z   
After scan for Atom:   Atom  AN      X      Y      Z        X      Y      Z        X      Y      Z   
After scan for Atom:   Atom  AN      X      Y      Z        X      Y      Z        X      Y      Z   
After scan for Atom:   Atom  AN      X      Y      Z        X      Y      Z        X      Y      Z   
After scan for Atom:   Atom  AN      X      Y      Z        X      Y      Z        X      Y      Z   
After scan for Atom:   Atom  AN      X      Y      Z        X      Y      Z        X      Y      Z   
After scan for Atom:   Atom  AN      X      Y      Z        X      Y      Z        X      Y      Z   
After scan for Atom:   Atom  AN      X      Y      Z        X      Y      Z        X      Y      Z   
After scan for Atom:   Atom  AN      X      Y      Z        X      Y      Z        X      Y      Z   
After scan for Atom:   Atom  AN      X      Y      Z        X      Y      Z        X      Y      Z   
After scan for Atom:   Atom  AN      X      Y      Z        X      Y      Z        X      Y      Z   
After scan for Atom:   Atom  AN      X      Y      Z        X      Y      Z        X      Y      Z   
After scan for Atom:   Atom  AN      X      Y      Z        X      Y      Z        X      Y      Z   
After scan for Atom:   Atom  AN      X      Y      Z        X      Y      Z        X      Y      Z   
After scan for Atom:   Atom  AN      X      Y      Z        X      Y      Z        X      Y      Z   
After scan for Atom:   Atom  AN      X      Y      Z        X      Y      Z        X      Y      Z   
After scan for Atom:   Atom  AN      X      Y      Z        X      Y      Z        X      Y      Z   
After scan for Atom:   Atom  AN      X      Y      Z        X      Y      Z        X      Y      Z   
After scan for Atom:   Atom  AN      X      Y      Z        X      Y      Z        X      Y      Z   
After scan for Atom:   Atom  AN      X      Y      Z        X      Y      Z        X      Y      Z   
After scan for Atom:   Atom  AN      X      Y      Z        X      Y      Z        X      Y      Z   
After scan for Atom:   Atom  AN      X      Y      Z        X      Y      Z        X      Y      Z   
After scan for Atom:   Atom  AN      X      Y      Z        X      Y      Z        X      Y      Z   
After scan for Atom:   Atom  AN      X      Y      Z        X      Y      Z        X      Y      Z   
After scan for Atom:   Atom  AN      X      Y      Z        X      Y      Z        X      Y      Z   
After scan for Atom:   Atom  AN      X      Y      Z        X      Y      Z        X      Y      Z   
After scan for Atom:   Atom  AN      X      Y      Z        X      Y      Z        X      Y      Z   
After scan for Atom:   Atom  AN      X      Y      Z        X      Y      Z        X      Y      Z   
After scan for Atom:   Atom  AN      X      Y      Z        X      Y      Z        X      Y      Z   
After scan for Atom:   Atom  AN      X      Y      Z        X      Y      Z        X      Y      Z   
After scan for Atom:   Atom  AN      X      Y      Z        X      Y      Z        X      Y      Z   
After scan for Atom:   Atom  AN      X      Y      Z        X      Y      Z        X      Y      Z   
After scan for Atom:   Atom  AN      X      Y      Z        X      Y      Z        X      Y      Z   
After scan for Atom:   Atom  AN      X      Y      Z        X      Y      Z        X      Y      Z   
 g94    frequencies=
     0.0    0.0    0.0    0.0    0.0    0.0   37.6   56.9   93.5  104.7
   108.2  122.5  148.2  167.4  169.8  208.3  239.5  242.4  248.2  248.3
   274.3  285.7  298.5  298.8  316.9  368.0  377.4  411.0  420.2  450.3
   459.7  491.5  493.7  506.7  538.1  575.5  576.7  631.3  657.5  657.6
   657.9  658.7  703.8  729.5  732.4  733.4  748.4  786.0  797.8  808.2
   837.8  881.1  881.2  890.3  895.0  898.0  904.8  947.9  948.0  979.5
   987.8 1005.2 1030.6 1030.9 1075.3 1103.7 1107.6 1107.7 1155.8 1156.6
  1157.3 1167.9 1235.3 1236.7 1251.0 1251.9 1273.7 1278.5 1354.2 1354.7
  1387.8 1396.9 1397.0 1397.4 1420.8 1421.1 1448.0 1458.4 1484.3 1484.4
  1485.4 1489.2 1489.2 1503.9 1504.4 1506.6 1507.6 1510.0 1538.4 1553.0
  1588.8 1645.9 3022.8 3022.8 3027.0 3027.2 3084.4 3084.4 3089.8 3089.9
  3103.6 3103.7 3105.4 3105.4 3162.0 3163.4 3196.6 3196.7 3242.7 3242.8
 g94    symmetries=
                                                 A      A      A      A
       A      A      A      A      A      A      A      A      A      A
       A      A      A      A      A      A      A      A      A      A
       A      A      A      A      A      A      A      A      A      A
       A      A      A      A      A      A      A      A      A      A
       A      A      A      A      A      A      A      A      A      A
       A      A      A      A      A      A      A      A      A      A
       A      A      A      A      A      A      A      A      A      A
       A      A      A      A      A      A      A      A      A      A
       A      A      A      A      A      A      A      A      A      A
       A      A      A      A      A      A      A      A      A      A
       A      A      A      A      A      A      A      A      A      A
 atomic masses:
 12.0000 12.0000 12.0000 12.0000 12.0000 12.0000 12.0000 12.0000 12.0000 12.0000
 31.9721 12.0000 12.0000 12.0000 12.0000 12.0000 12.0000 12.0000 12.0000 12.0000
 31.9721 12.0000  1.0078  1.0078  1.0078  1.0078  1.0078  1.0078  1.0078  1.0078
  1.0078  1.0078  1.0078  1.0078  1.0078  1.0078  1.0078  1.0078  1.0078  1.0078
 looking for force constants in 
 ./IDT_0_C0S0.fchk                                                              
  
 Cartesian Force Constants                  R   N=        7260                  
  
 n3=         120        7260
 g94-fc frequencies=
    -3.6   -2.5   -0.0    0.0    0.0    3.5   37.6   56.9   93.5  104.7
   108.2  122.5  148.2  167.4  169.8  208.3  239.5  242.4  248.2  248.3
   274.3  285.7  298.5  298.8  316.9  368.0  377.4  411.0  420.2  450.3
   459.7  491.5  493.7  506.7  538.1  575.5  576.7  631.3  657.5  657.6
   657.9  658.7  703.8  729.5  732.5  733.4  748.4  786.0  797.8  808.3
   837.8  881.2  881.2  890.4  895.1  898.1  904.9  947.9  948.0  979.5
   987.9 1005.2 1030.7 1030.9 1075.4 1103.7 1107.6 1107.8 1155.9 1156.6
  1157.3 1167.9 1235.3 1236.8 1251.0 1251.9 1273.7 1278.6 1354.2 1354.8
  1387.8 1396.9 1397.0 1397.4 1420.9 1421.2 1448.1 1458.5 1484.3 1484.4
  1485.4 1489.2 1489.3 1503.9 1504.5 1506.7 1507.6 1510.0 1538.4 1553.1
  1588.8 1645.9 3022.8 3022.8 3027.0 3027.3 3084.5 3084.5 3089.9 3089.9
  3103.7 3103.8 3105.4 3105.5 3162.0 3163.5 3196.7 3196.8 3242.8 3242.8
 at 99999: n3=         120
 symm operator            1 :  F  nop=           0
 symm operator            2 :  F  nop=           0
 symm operator            3 :  F  nop=           0
 symm operator            4 :  F  nop=           0
 symm operator            5 :  F  nop=           0
 symm operator            6 :  F  nop=           0
 symm operator            7 :  F  nop=           0
 The point group of the molecule is  C1
 Symmetry rotation matrix:
   1.00000   0.00000   0.00000
   0.00000   1.00000   0.00000
   0.00000   0.00000   1.00000

 Projecting out zero-frequency components
 generating redundant internal coords
         300        3600          40
 search for int coords
   1 str   2   1   1.544
   2 str   3   2   1.544
   3 str   4   2   1.536
   4 str   5   4   1.387
   5 str   6   5   1.399
   6 str   7   6   1.416
   7 str   8   7   1.387
   8 str   9   4   1.416
   9 str   9   8   1.399
  10 str  10   9   1.452
  11 str  11  10   1.732
  12 str  12  11   1.747
  13 str  13  12   1.369
  14 str  14   2   1.521
  15 str  14  10   1.374
  16 str  14  13   1.420
  17 str  15   7   1.536
  18 str  16  15   1.544
  19 str  17  15   1.544
  20 str  18  15   1.521
  21 str  19  18   1.420
  22 str  20  19   1.369
  23 str  21  20   1.747
  24 str  22   6   1.452
  25 str  22  18   1.374
  26 str  22  21   1.732
  27 str  23   1   1.094
  28 str  24   1   1.094
  29 str  25   1   1.092
  30 str  26   3   1.094
  31 str  27   3   1.092
  32 str  28   3   1.094
  33 str  29   5   1.085
  34 str  30   8   1.085
  35 str  31  12   1.079
  36 str  32  13   1.082
  37 str  33  16   1.094
  38 str  34  16   1.092
  39 str  35  16   1.094
  40 str  36  17   1.094
  41 str  37  17   1.094
  42 str  38  17   1.092
  43 str  39  19   1.082
  44 str  40  20   1.079
 nber stretches=          44
  45 ben   1   2   3
  46 prop tor   1   2   3  26
  47 prop tor   1   2   3  27
  48 prop tor   1   2   3  28
  49 ben   1   2   4
  50 prop tor   1   2   4   5
  51 prop tor   1   2   4   9
  52 ben   1   2  14
  53 prop tor   1   2  14  10
  54 prop tor   1   2  14  13
  55 ben   2   1  23
  56 ben   2   1  24
  57 ben   2   1  25
  58 ben   2   3  26
  59 ben   2   3  27
  60 ben   2   3  28
  61 ben   2   4   5
  62 prop tor   2   4   5   6
  63 prop tor   2   4   5  29
  64 ben   2   4   9
  65 prop tor   2   4   9   8
  66 prop tor   2   4   9  10
  67 ben   2  14  10
  68 ben   2  14  13
  69 ben   3   2   4
  70 prop tor   3   2   4   5
  71 prop tor   3   2   4   9
  72 ben   3   2  14
  73 prop tor   3   2  14  10
  74 prop tor   3   2  14  13
  75 prop tor   4   2   3  26
  76 prop tor   4   2   3  27
  77 prop tor   4   2   3  28
  78 ben   4   2  14
  79 prop tor   4   2  14  10
  80 prop tor   4   2  14  13
  81 ben   4   5   6
  82 prop tor   4   5   6   7
  83 prop tor   4   5   6  22
  84 ben   4   5  29
  85 ben   4   9   8
  86 ben   4   9  10
  87 prop tor   4   9  10  11
  88 prop tor   4   9  10  14
  89 ben   5   4   9
  90 prop tor   5   4   9   8
  91 prop tor   5   4   9  10
  92 ben   5   6   7
  93 prop tor   5   6   7   8
  94 prop tor   5   6   7  15
  95 ben   5   6  22
  96 prop tor   5   6  22  18
  97 prop tor   5   6  22  21
  98 ben   6   5  29
  99 ben   6   7   8
 100 prop tor   6   7   8   9
 101 prop tor   6   7   8  30
 102 ben   6   7  15
 103 prop tor   6   7  15  16
 104 prop tor   6   7  15  17
 105 prop tor   6   7  15  18
 106 ben   6  22  18
 107 ben   6  22  21
 108 ben   7   6  22
 109 prop tor   7   6  22  18
 110 prop tor   7   6  22  21
 111 ben   7   8   9
 112 prop tor   7   8   9   4
 113 prop tor   7   8   9  10
 114 ben   7   8  30
 115 ben   7  15  16
 116 prop tor   7  15  16  33
 117 prop tor   7  15  16  34
 118 prop tor   7  15  16  35
 119 ben   7  15  17
 120 prop tor   7  15  17  36
 121 prop tor   7  15  17  37
 122 prop tor   7  15  17  38
 123 ben   7  15  18
 124 prop tor   7  15  18  19
 125 prop tor   7  15  18  22
 126 ben   8   7  15
 127 prop tor   8   7  15  16
 128 prop tor   8   7  15  17
 129 prop tor   8   7  15  18
 130 ben   8   9  10
 131 prop tor   8   9  10  11
 132 prop tor   8   9  10  14
 133 prop tor   9   4   5   6
 134 prop tor   9   4   5  29
 135 ben   9   8  30
 136 ben   9  10  11
 137 prop tor   9  10  11  12
 138 ben   9  10  14
 139 prop tor   9  10  14   2
 140 prop tor   9  10  14  13
 141 ben  10  11  12
 142 prop tor  10  11  12  13
 143 prop tor  10  11  12  31
 144 ben  10  14  13
 145 ben  11  10  14
 146 prop tor  11  10  14   2
 147 prop tor  11  10  14  13
 148 ben  11  12  13
 149 prop tor  11  12  13  14
 150 prop tor  11  12  13  32
 151 ben  11  12  31
 152 ben  12  13  14
 153 prop tor  12  13  14   2
 154 prop tor  12  13  14  10
 155 ben  12  13  32
 156 ben  13  12  31
 157 prop tor  14   2   3  26
 158 prop tor  14   2   3  27
 159 prop tor  14   2   3  28
 160 prop tor  14   2   4   5
 161 prop tor  14   2   4   9
 162 prop tor  14  10  11  12
 163 ben  14  13  32
 164 prop tor  15   7   8   9
 165 prop tor  15   7   8  30
 166 ben  15  16  33
 167 ben  15  16  34
 168 ben  15  16  35
 169 ben  15  17  36
 170 ben  15  17  37
 171 ben  15  17  38
 172 ben  15  18  19
 173 prop tor  15  18  19  20
 174 prop tor  15  18  19  39
 175 ben  15  18  22
 176 prop tor  15  18  22   6
 177 prop tor  15  18  22  21
 178 ben  16  15  17
 179 prop tor  16  15  17  36
 180 prop tor  16  15  17  37
 181 prop tor  16  15  17  38
 182 ben  16  15  18
 183 prop tor  16  15  18  19
 184 prop tor  16  15  18  22
 185 prop tor  17  15  16  33
 186 prop tor  17  15  16  34
 187 prop tor  17  15  16  35
 188 ben  17  15  18
 189 prop tor  17  15  18  19
 190 prop tor  17  15  18  22
 191 prop tor  18  15  16  33
 192 prop tor  18  15  16  34
 193 prop tor  18  15  16  35
 194 prop tor  18  15  17  36
 195 prop tor  18  15  17  37
 196 prop tor  18  15  17  38
 197 ben  18  19  20
 198 prop tor  18  19  20  21
 199 prop tor  18  19  20  40
 200 ben  18  19  39
 201 ben  18  22  21
 202 ben  19  18  22
 203 prop tor  19  18  22   6
 204 prop tor  19  18  22  21
 205 ben  19  20  21
 206 prop tor  19  20  21  22
 207 ben  19  20  40
 208 ben  20  19  39
 209 ben  20  21  22
 210 prop tor  20  21  22   6
 211 prop tor  20  21  22  18
 212 ben  21  20  40
 213 prop tor  22   6   7   8
 214 prop tor  22   6   7  15
 215 prop tor  22  18  19  20
 216 prop tor  22  18  19  39
 217 prop tor  23   1   2   3
 218 prop tor  23   1   2   4
 219 prop tor  23   1   2  14
 220 ben  23   1  24
 221 ben  23   1  25
 222 prop tor  24   1   2   3
 223 prop tor  24   1   2   4
 224 prop tor  24   1   2  14
 225 ben  24   1  25
 226 prop tor  25   1   2   3
 227 prop tor  25   1   2   4
 228 prop tor  25   1   2  14
 229 ben  26   3  27
 230 ben  26   3  28
 231 ben  27   3  28
 232 prop tor  29   5   6   7
 233 prop tor  29   5   6  22
 234 prop tor  30   8   9   4
 235 prop tor  30   8   9  10
 236 prop tor  31  12  13  14
 237 prop tor  31  12  13  32
 238 prop tor  32  13  14   2
 239 prop tor  32  13  14  10
 240 ben  33  16  34
 241 ben  33  16  35
 242 ben  34  16  35
 243 ben  36  17  37
 244 ben  36  17  38
 245 ben  37  17  38
 246 prop tor  39  19  20  21
 247 prop tor  39  19  20  40
 248 prop tor  40  20  21  22
 nber bend=              80
 nber lin bend=           0
 nber prop tor=         124
 nber impr tor=           0
 nber tot redund int=         248
 Eigenvalues of G in red int coords
    Gval -0.00000000 -0.00000000 -0.00000000 -0.00000000 -0.00000000 -0.00000000 -0.00000000 -0.00000000
    Gval -0.00000000 -0.00000000 -0.00000000 -0.00000000 -0.00000000 -0.00000000 -0.00000000 -0.00000000
    Gval -0.00000000 -0.00000000 -0.00000000 -0.00000000 -0.00000000 -0.00000000 -0.00000000 -0.00000000
    Gval -0.00000000 -0.00000000 -0.00000000 -0.00000000 -0.00000000 -0.00000000 -0.00000000 -0.00000000
    Gval -0.00000000 -0.00000000 -0.00000000 -0.00000000 -0.00000000 -0.00000000 -0.00000000 -0.00000000
    Gval -0.00000000 -0.00000000 -0.00000000 -0.00000000 -0.00000000 -0.00000000 -0.00000000 -0.00000000
    Gval -0.00000000 -0.00000000 -0.00000000 -0.00000000 -0.00000000 -0.00000000 -0.00000000 -0.00000000
    Gval -0.00000000 -0.00000000 -0.00000000 -0.00000000 -0.00000000 -0.00000000 -0.00000000 -0.00000000
    Gval -0.00000000 -0.00000000  0.00000000  0.00000000  0.00000000  0.00000000  0.00000000  0.00000000
    Gval  0.00000000  0.00000000  0.00000000  0.00000000  0.00000000  0.00000000  0.00000000  0.00000000
    Gval  0.00000000  0.00000000  0.00000000  0.00000000  0.00000000  0.00000000  0.00000000  0.00000000
    Gval  0.00000000  0.00000000  0.00000000  0.00000000  0.00000000  0.00000000  0.00000000  0.00000000
    Gval  0.00000000  0.00000000  0.00000000  0.00000000  0.00000000  0.00000000  0.00000000  0.00000000
    Gval  0.00000000  0.00000000  0.00000000  0.00000000  0.00000000  0.00000000  0.00000000  0.00000000
    Gval  0.00000000  0.00000000  0.00000000  0.00000000  0.00000000  0.00000000  0.00000000  0.00000000
    Gval  0.00000000  0.00000000  0.00000000  0.00000000  0.00000000  0.00000000  0.00000000  0.00000000
    Gval  0.00000000  0.00000000  0.00000000  0.00000000  0.00000000  0.00000000  0.00000210  0.00000383
    Gval  0.00000869  0.00000929  0.00001399  0.00001407  0.00001410  0.00002232  0.00002720  0.00003027
    Gval  0.00003282  0.00003408  0.00003813  0.00004093  0.00004256  0.00004373  0.00004664  0.00004776
    Gval  0.00005121  0.00005238  0.00005790  0.00006890  0.00007063  0.00007199  0.00007652  0.00008202
    Gval  0.00009404  0.00010115  0.00011663  0.00013114  0.00013233  0.00014281  0.00014626  0.00014866
    Gval  0.00017758  0.00017856  0.00022733  0.00023570  0.00025049  0.00025104  0.00030564  0.00032338
    Gval  0.00036664  0.00038611  0.00040344  0.00043065  0.00043992  0.00044350  0.00045861  0.00046018
    Gval  0.00050643  0.00051050  0.00052270  0.00053448  0.00053449  0.00053686  0.00055616  0.00055618
    Gval  0.00055620  0.00055620  0.00057840  0.00057843  0.00058543  0.00059423  0.00059496  0.00059831
    Gval  0.00059928  0.00061746  0.00062527  0.00062556  0.00063603  0.00063650  0.00067551  0.00067594
    Gval  0.00076628  0.00085417  0.00098543  0.00098946  0.00107869  0.00107987  0.00108451  0.00110523
    Gval  0.00110669  0.00111187  0.00113274  0.00113388  0.00117916  0.00117941  0.00117973  0.00117974
    Gval  0.00118551  0.00118552  0.00158447  0.00160740  0.00166864  0.00166872  0.00167218  0.00178867
    Gval  0.00203464  0.00216135  0.00233953  0.00234367  0.00302692  0.00302794  0.00303387  0.00303396
    Gval  0.00304670  0.00304670  0.00309163  0.00309163  0.00341397  0.00341874  0.00403843  0.00403854
  2.099435233688549E-006  2.099435233688549E-006
  3.829922558042120E-006  2.099435233688549E-006
  8.688333787464188E-006  2.099435233688549E-006
  9.294081602324710E-006  2.099435233688549E-006
  1.399046224337302E-005  2.099435233688549E-006
  1.407470249166753E-005  2.099435233688549E-006
  1.409658422088745E-005  2.099435233688549E-006
  2.232229722647686E-005  2.099435233688549E-006
  2.719709830998769E-005  2.099435233688549E-006
  3.027152544307270E-005  2.099435233688549E-006
  3.282008337943174E-005  2.099435233688549E-006
  3.408260201874438E-005  2.099435233688549E-006
  3.813105043167092E-005  2.099435233688549E-006
  4.093106547818925E-005  2.099435233688549E-006
  4.255918021823790E-005  2.099435233688549E-006
  4.372893013859138E-005  2.099435233688549E-006
  4.663736815535610E-005  2.099435233688549E-006
  4.775565956797748E-005  2.099435233688549E-006
  5.120665047247890E-005  2.099435233688549E-006
  5.238473591029449E-005  2.099435233688549E-006
  5.789711534468263E-005  2.099435233688549E-006
  6.889522852852577E-005  2.099435233688549E-006
  7.063215682851404E-005  2.099435233688549E-006
  7.198964080132049E-005  2.099435233688549E-006
  7.651836533877079E-005  2.099435233688549E-006
  8.202346632385620E-005  2.099435233688549E-006
  9.404185551803840E-005  2.099435233688549E-006
  1.011477189850870E-004  2.099435233688549E-006
  1.166292478033783E-004  2.099435233688549E-006
  1.311379954681669E-004  2.099435233688549E-006
  1.323254798799703E-004  2.099435233688549E-006
  1.428059896878632E-004  2.099435233688549E-006
  1.462552721883773E-004  2.099435233688549E-006
  1.486642289758425E-004  2.099435233688549E-006
  1.775793657709613E-004  2.099435233688549E-006
  1.785635936530240E-004  2.099435233688549E-006
  2.273312304505731E-004  2.099435233688549E-006
  2.356958881379948E-004  2.099435233688549E-006
  2.504885440122298E-004  2.099435233688549E-006
  2.510355065143757E-004  2.099435233688549E-006
  3.056354218042594E-004  2.099435233688549E-006
  3.233821249833438E-004  2.099435233688549E-006
  3.666445539428079E-004  2.099435233688549E-006
  3.861064852274271E-004  2.099435233688549E-006
  4.034416655916550E-004  2.099435233688549E-006
  4.306472896464905E-004  2.099435233688549E-006
  4.399226036328342E-004  2.099435233688549E-006
  4.435023452757103E-004  2.099435233688549E-006
  4.586092802715956E-004  2.099435233688549E-006
  4.601801174809035E-004  2.099435233688549E-006
  5.064319700058517E-004  2.099435233688549E-006
  5.104966229748188E-004  2.099435233688549E-006
  5.226953724715263E-004  2.099435233688549E-006
  5.344796018377735E-004  2.099435233688549E-006
  5.344884129933476E-004  2.099435233688549E-006
  5.368569778219978E-004  2.099435233688549E-006
  5.561608153089154E-004  2.099435233688549E-006
  5.561848346011777E-004  2.099435233688549E-006
  5.562005426850747E-004  2.099435233688549E-006
  5.562012299698062E-004  2.099435233688549E-006
  5.783976887083594E-004  2.099435233688549E-006
  5.784301469075315E-004  2.099435233688549E-006
  5.854254493880242E-004  2.099435233688549E-006
  5.942266872100720E-004  2.099435233688549E-006
  5.949587001701499E-004  2.099435233688549E-006
  5.983148133807282E-004  2.099435233688549E-006
  5.992769182527727E-004  2.099435233688549E-006
  6.174631462933090E-004  2.099435233688549E-006
  6.252685693659677E-004  2.099435233688549E-006
  6.255625613198313E-004  2.099435233688549E-006
  6.360283213234100E-004  2.099435233688549E-006
  6.364987023847748E-004  2.099435233688549E-006
  6.755136573746733E-004  2.099435233688549E-006
  6.759430845847325E-004  2.099435233688549E-006
  7.662751729814324E-004  2.099435233688549E-006
  8.541707535706576E-004  2.099435233688549E-006
  9.854327176911646E-004  2.099435233688549E-006
  9.894579606621794E-004  2.099435233688549E-006
  1.078685069219956E-003  2.099435233688549E-006
  1.079871773190556E-003  2.099435233688549E-006
  1.084510781883629E-003  2.099435233688549E-006
  1.105233227487183E-003  2.099435233688549E-006
  1.106691827357779E-003  2.099435233688549E-006
  1.111872409522535E-003  2.099435233688549E-006
  1.132744412426956E-003  2.099435233688549E-006
  1.133875314526335E-003  2.099435233688549E-006
  1.179161320994115E-003  2.099435233688549E-006
  1.179411433696294E-003  2.099435233688549E-006
  1.179728178096439E-003  2.099435233688549E-006
  1.179744205809400E-003  2.099435233688549E-006
  1.185509374942370E-003  2.099435233688549E-006
  1.185516761688941E-003  2.099435233688549E-006
  1.584473494325395E-003  2.099435233688549E-006
  1.607402881391903E-003  2.099435233688549E-006
  1.668644761879266E-003  2.099435233688549E-006
  1.668721528436557E-003  2.099435233688549E-006
  1.672176649517213E-003  2.099435233688549E-006
  1.788665708332805E-003  2.099435233688549E-006
  2.034641751268767E-003  2.099435233688549E-006
  2.161352376505894E-003  2.099435233688549E-006
  2.339530565844782E-003  2.099435233688549E-006
  2.343668251384076E-003  2.099435233688549E-006
  3.026920970426230E-003  2.099435233688549E-006
  3.027939823602175E-003  2.099435233688549E-006
  3.033867806039434E-003  2.099435233688549E-006
  3.033958370726909E-003  2.099435233688549E-006
  3.046698641658574E-003  2.099435233688549E-006
  3.046699680300557E-003  2.099435233688549E-006
  3.091634343041316E-003  2.099435233688549E-006
  3.091634922061705E-003  2.099435233688549E-006
  3.413973783354227E-003  2.099435233688549E-006
  3.418739150264959E-003  2.099435233688549E-006
  4.038429595508403E-003  2.099435233688549E-006
  4.038536567536470E-003  2.099435233688549E-006
 cut=1d-8, nber non-redundant internal coords=         114
 Check on Eigenvals of non-red overlap matrix:
  0.00000210  0.00000383  0.00000869  0.00000929  0.00001399  0.00001407  0.00001410  0.00002232
  0.00002720  0.00003027  0.00003282  0.00003408  0.00003813  0.00004093  0.00004256  0.00004373
  0.00004664  0.00004776  0.00005121  0.00005238  0.00005790  0.00006890  0.00007063  0.00007199
  0.00007652  0.00008202  0.00009404  0.00010115  0.00011663  0.00013114  0.00013233  0.00014281
  0.00014626  0.00014866  0.00017758  0.00017856  0.00022733  0.00023570  0.00025049  0.00025104
  0.00030564  0.00032338  0.00036664  0.00038611  0.00040344  0.00043065  0.00043992  0.00044350
  0.00045861  0.00046018  0.00050643  0.00051050  0.00052270  0.00053448  0.00053449  0.00053686
  0.00055616  0.00055618  0.00055620  0.00055620  0.00057840  0.00057843  0.00058543  0.00059423
  0.00059496  0.00059831  0.00059928  0.00061746  0.00062527  0.00062556  0.00063603  0.00063650
  0.00067551  0.00067594  0.00076628  0.00085417  0.00098543  0.00098946  0.00107869  0.00107987
  0.00108451  0.00110523  0.00110669  0.00111187  0.00113274  0.00113388  0.00117916  0.00117941
  0.00117973  0.00117974  0.00118551  0.00118552  0.00158447  0.00160740  0.00166864  0.00166872
  0.00167218  0.00178867  0.00203464  0.00216135  0.00233953  0.00234367  0.00302692  0.00302794
  0.00303387  0.00303396  0.00304670  0.00304670  0.00309163  0.00309163  0.00341397  0.00341874
  0.00403843  0.00403854
 Checking for correct frequencies
 recalc frequencies=
    -0.0   -0.0   -0.0    0.0    0.0    0.0   37.6   56.9   93.5  104.7
   108.2  122.5  148.2  167.4  169.8  208.3  239.5  242.4  248.2  248.3
   274.3  285.7  298.5  298.8  316.9  368.0  377.4  411.0  420.2  450.3
   459.7  491.5  493.7  506.7  538.1  575.5  576.7  631.3  657.5  657.6
   657.9  658.7  703.8  729.5  732.5  733.4  748.4  786.0  797.8  808.3
   837.8  881.2  881.2  890.4  895.1  898.1  904.9  947.9  948.0  979.5
   987.9 1005.2 1030.7 1030.9 1075.4 1103.7 1107.6 1107.8 1155.9 1156.6
  1157.3 1167.9 1235.3 1236.8 1251.0 1251.9 1273.7 1278.6 1354.2 1354.8
  1387.8 1396.9 1397.0 1397.4 1420.9 1421.2 1448.1 1458.5 1484.3 1484.4
  1485.4 1489.2 1489.3 1503.9 1504.5 1506.7 1507.6 1510.0 1538.4 1553.1
  1588.8 1645.9 3022.8 3022.8 3027.0 3027.3 3084.5 3084.5 3089.9 3089.9
  3103.7 3103.8 3105.4 3105.5 3162.0 3163.5 3196.7 3196.8 3242.8 3242.8
 recalc symmetries=
                                                                       
                                                                       
                                                                       
                                                                       
                                                                       
                                                                       
                                                                       
                                                                       
                                                                       
                                                                       
                                                                       
                                                                       
 recalc freqs check OK
 Zero-point lengths:
 10.0000 10.0000 10.0000 10.0000 10.0000 10.0000 40.4050 32.8726 25.6364 24.2233
 23.8340 22.4028 20.3657 19.1615 19.0241 17.1752 16.0197 15.9227 15.7359 15.7329
 14.9697 14.6674 14.3499 14.3421 13.9254 12.9231 12.7612 12.2279 12.0933 11.6832
 11.5625 11.1819 11.1577 11.0137 10.6868 10.3344 10.3230  9.8667  9.6680  9.6677
  9.6655  9.6593  9.3447  9.1789  9.1602  9.1545  9.0618  8.8424  8.7770  8.7201
  8.5649  8.3516  8.3512  8.3083  8.2865  8.2726  8.2415  8.0523  8.0517  7.9212
  7.8876  7.8193  7.7221  7.7212  7.5600  7.4623  7.4492  7.4486  7.2920  7.2897
  7.2873  7.2543  7.0535  7.0494  7.0090  7.0067  6.9465  6.9332  6.7368  6.7354
  6.6547  6.6329  6.6327  6.6319  6.5769  6.5762  6.5148  6.4915  6.4347  6.4345
  6.4324  6.4242  6.4241  6.3927  6.3915  6.3868  6.3849  6.3798  6.3206  6.2908
  6.2195  6.1107  4.5091  4.5091  4.5060  4.5058  4.4638  4.4638  4.4599  4.4599
  4.4500  4.4499  4.4487  4.4487  4.4087  4.4077  4.3848  4.3847  4.3535  4.3534
 highest evec of mol 1
 -0.0001 -0.0001  0.0001
 -0.0001  0.0000  0.0002
  0.0000 -0.0001  0.0001
  0.0001 -0.0003 -0.0001
  0.0002 -0.0001 -0.0003
  0.0001 -0.0002 -0.0001
 -0.0001  0.0003  0.0001
 -0.0002  0.0001  0.0003
 -0.0001  0.0002  0.0001
 -0.0004  0.0025 -0.0000
  0.0007  0.0003 -0.0014
  0.0249 -0.2023  0.0213
 -0.0216 -0.0022  0.0449
  0.0006  0.0038 -0.0027
  0.0001 -0.0000 -0.0002
  0.0001  0.0001 -0.0001
 -0.0000  0.0001 -0.0001
 -0.0006 -0.0037  0.0026
  0.0215  0.0022 -0.0447
 -0.0247  0.2014 -0.0212
 -0.0006 -0.0003  0.0014
  0.0004 -0.0025  0.0000
  0.0001 -0.0001 -0.0000
  0.0001  0.0002 -0.0003
  0.0001  0.0000  0.0001
 -0.0000 -0.0002 -0.0001
 -0.0001  0.0000 -0.0000
  0.0001  0.0002 -0.0003
 -0.0006  0.0008  0.0010
  0.0006 -0.0008 -0.0010
 -0.0681  0.6532 -0.0938
  0.0525  0.0296 -0.1180
 -0.0001  0.0001  0.0000
 -0.0001 -0.0000 -0.0001
 -0.0001 -0.0002  0.0003
  0.0000  0.0002  0.0001
 -0.0001 -0.0002  0.0003
  0.0001 -0.0000  0.0000
 -0.0523 -0.0294  0.1175
  0.0677 -0.6504  0.0934
 generating redundant internal coords
         300        3600          40
 Adding extra bonds for z output only
           6           6           6           6           6           6
           6           6           6           6          16           6
           6           6           6           6           6           6
           6           6          16           6           1           1
           1           1           1           1           1           1
           1           1           1           1           1           1
           1           1           1           1
 search for int coords
   1 str   2   1   1.544
   2 str   3   2   1.544
   3 str   4   2   1.536
   4 str   5   4   1.387
   5 str   6   5   1.399
   6 str   7   6   1.416
   7 str   8   7   1.387
   8 str   9   4   1.416
   9 str   9   8   1.399
  10 str  10   9   1.452
  11 str  11  10   1.732
  12 str  12  11   1.747
  13 str  13  12   1.369
  14 str  14   2   1.521
  15 str  14  10   1.374
  16 str  14  13   1.420
  17 str  15   7   1.536
  18 str  16  15   1.544
  19 str  17  15   1.544
  20 str  18  15   1.521
  21 str  19  18   1.420
  22 str  20  19   1.369
  23 str  21  20   1.747
  24 str  22   6   1.452
  25 str  22  18   1.374
  26 str  22  21   1.732
  27 str  23   1   1.094
  28 str  24   1   1.094
  29 str  25   1   1.092
  30 str  26   3   1.094
  31 str  27   3   1.092
  32 str  28   3   1.094
  33 str  29   5   1.085
  34 str  30   8   1.085
  35 str  31  12   1.079
  36 str  32  13   1.082
  37 str  33  16   1.094
  38 str  34  16   1.092
  39 str  35  16   1.094
  40 str  36  17   1.094
  41 str  37  17   1.094
  42 str  38  17   1.092
  43 str  39  19   1.082
  44 str  40  20   1.079
 nber stretches=          44
  45 ben   1   2   3
  46 prop tor   1   2   3  26
  47 prop tor   1   2   3  27
  48 prop tor   1   2   3  28
  49 ben   1   2   4
  50 prop tor   1   2   4   5
  51 prop tor   1   2   4   9
  52 ben   1   2  14
  53 prop tor   1   2  14  10
  54 prop tor   1   2  14  13
  55 ben   2   1  23
  56 ben   2   1  24
  57 ben   2   1  25
  58 ben   2   3  26
  59 ben   2   3  27
  60 ben   2   3  28
  61 ben   2   4   5
  62 prop tor   2   4   5   6
  63 prop tor   2   4   5  29
  64 ben   2   4   9
  65 prop tor   2   4   9   8
  66 prop tor   2   4   9  10
  67 ben   2  14  10
  68 ben   2  14  13
  69 ben   3   2   4
  70 prop tor   3   2   4   5
  71 prop tor   3   2   4   9
  72 ben   3   2  14
  73 prop tor   3   2  14  10
  74 prop tor   3   2  14  13
  75 prop tor   4   2   3  26
  76 prop tor   4   2   3  27
  77 prop tor   4   2   3  28
  78 ben   4   2  14
  79 prop tor   4   2  14  10
  80 prop tor   4   2  14  13
  81 ben   4   5   6
  82 prop tor   4   5   6   7
  83 prop tor   4   5   6  22
  84 ben   4   5  29
  85 ben   4   9   8
  86 ben   4   9  10
  87 prop tor   4   9  10  11
  88 prop tor   4   9  10  14
  89 ben   5   4   9
  90 prop tor   5   4   9   8
  91 prop tor   5   4   9  10
  92 ben   5   6   7
  93 prop tor   5   6   7   8
  94 prop tor   5   6   7  15
  95 ben   5   6  22
  96 prop tor   5   6  22  18
  97 prop tor   5   6  22  21
  98 ben   6   5  29
  99 ben   6   7   8
 100 prop tor   6   7   8   9
 101 prop tor   6   7   8  30
 102 ben   6   7  15
 103 prop tor   6   7  15  16
 104 prop tor   6   7  15  17
 105 prop tor   6   7  15  18
 106 ben   6  22  18
 107 ben   6  22  21
 108 ben   7   6  22
 109 prop tor   7   6  22  18
 110 prop tor   7   6  22  21
 111 ben   7   8   9
 112 prop tor   7   8   9   4
 113 prop tor   7   8   9  10
 114 ben   7   8  30
 115 ben   7  15  16
 116 prop tor   7  15  16  33
 117 prop tor   7  15  16  34
 118 prop tor   7  15  16  35
 119 ben   7  15  17
 120 prop tor   7  15  17  36
 121 prop tor   7  15  17  37
 122 prop tor   7  15  17  38
 123 ben   7  15  18
 124 prop tor   7  15  18  19
 125 prop tor   7  15  18  22
 126 ben   8   7  15
 127 prop tor   8   7  15  16
 128 prop tor   8   7  15  17
 129 prop tor   8   7  15  18
 130 ben   8   9  10
 131 prop tor   8   9  10  11
 132 prop tor   8   9  10  14
 133 prop tor   9   4   5   6
 134 prop tor   9   4   5  29
 135 ben   9   8  30
 136 ben   9  10  11
 137 prop tor   9  10  11  12
 138 ben   9  10  14
 139 prop tor   9  10  14   2
 140 prop tor   9  10  14  13
 141 ben  10  11  12
 142 prop tor  10  11  12  13
 143 prop tor  10  11  12  31
 144 ben  10  14  13
 145 ben  11  10  14
 146 prop tor  11  10  14   2
 147 prop tor  11  10  14  13
 148 ben  11  12  13
 149 prop tor  11  12  13  14
 150 prop tor  11  12  13  32
 151 ben  11  12  31
 152 ben  12  13  14
 153 prop tor  12  13  14   2
 154 prop tor  12  13  14  10
 155 ben  12  13  32
 156 ben  13  12  31
 157 prop tor  14   2   3  26
 158 prop tor  14   2   3  27
 159 prop tor  14   2   3  28
 160 prop tor  14   2   4   5
 161 prop tor  14   2   4   9
 162 prop tor  14  10  11  12
 163 ben  14  13  32
 164 prop tor  15   7   8   9
 165 prop tor  15   7   8  30
 166 ben  15  16  33
 167 ben  15  16  34
 168 ben  15  16  35
 169 ben  15  17  36
 170 ben  15  17  37
 171 ben  15  17  38
 172 ben  15  18  19
 173 prop tor  15  18  19  20
 174 prop tor  15  18  19  39
 175 ben  15  18  22
 176 prop tor  15  18  22   6
 177 prop tor  15  18  22  21
 178 ben  16  15  17
 179 prop tor  16  15  17  36
 180 prop tor  16  15  17  37
 181 prop tor  16  15  17  38
 182 ben  16  15  18
 183 prop tor  16  15  18  19
 184 prop tor  16  15  18  22
 185 prop tor  17  15  16  33
 186 prop tor  17  15  16  34
 187 prop tor  17  15  16  35
 188 ben  17  15  18
 189 prop tor  17  15  18  19
 190 prop tor  17  15  18  22
 191 prop tor  18  15  16  33
 192 prop tor  18  15  16  34
 193 prop tor  18  15  16  35
 194 prop tor  18  15  17  36
 195 prop tor  18  15  17  37
 196 prop tor  18  15  17  38
 197 ben  18  19  20
 198 prop tor  18  19  20  21
 199 prop tor  18  19  20  40
 200 ben  18  19  39
 201 ben  18  22  21
 202 ben  19  18  22
 203 prop tor  19  18  22   6
 204 prop tor  19  18  22  21
 205 ben  19  20  21
 206 prop tor  19  20  21  22
 207 ben  19  20  40
 208 ben  20  19  39
 209 ben  20  21  22
 210 prop tor  20  21  22   6
 211 prop tor  20  21  22  18
 212 ben  21  20  40
 213 prop tor  22   6   7   8
 214 prop tor  22   6   7  15
 215 prop tor  22  18  19  20
 216 prop tor  22  18  19  39
 217 prop tor  23   1   2   3
 218 prop tor  23   1   2   4
 219 prop tor  23   1   2  14
 220 ben  23   1  24
 221 ben  23   1  25
 222 prop tor  24   1   2   3
 223 prop tor  24   1   2   4
 224 prop tor  24   1   2  14
 225 ben  24   1  25
 226 prop tor  25   1   2   3
 227 prop tor  25   1   2   4
 228 prop tor  25   1   2  14
 229 ben  26   3  27
 230 ben  26   3  28
 231 ben  27   3  28
 232 prop tor  29   5   6   7
 233 prop tor  29   5   6  22
 234 prop tor  30   8   9   4
 235 prop tor  30   8   9  10
 236 prop tor  31  12  13  14
 237 prop tor  31  12  13  32
 238 prop tor  32  13  14   2
 239 prop tor  32  13  14  10
 240 ben  33  16  34
 241 ben  33  16  35
 242 ben  34  16  35
 243 ben  36  17  37
 244 ben  36  17  38
 245 ben  37  17  38
 246 prop tor  39  19  20  21
 247 prop tor  39  19  20  40
 248 prop tor  40  20  21  22
 nber bend=              80
 nber lin bend=           0
 nber prop tor=         124
 nber impr tor=           0
 nber tot redund int=         248
 Reading file: 
 ./IDT_0_C1S0.log                                                               
                                          
  Entering Gaussian System, Link 0=g16                                          
  
 Gaussian format, type: g94, g98, g03= F F F
  #P Geom=AllCheck Guess=TCheck SCRF=Check GenChk UB3LYP/6-311G(d,p) Fre    
 energy type= B3LYP   
 Original G94 input coords:
  6  0.972936  0.319654  0.056647
  6  2.324068 -0.430917  0.031548
  6  3.351681  0.332288 -0.834998
  6  2.856467 -0.676012  1.448596
  6  3.209181  0.243573  2.401845
  6  3.677696 -0.239946  3.645257
  6  3.787433 -1.650426  3.919225
  6  3.434769 -2.570011  2.965958
  6  2.966329 -2.086492  1.722517
  6  2.533246 -2.765889  0.557566
 16  2.352899 -4.416652  0.053343
  6  1.771586 -3.872217 -1.490787
  6  1.718008 -2.496896 -1.614329
  6  2.153539 -1.861194 -0.443252
  6  4.319820 -1.895520  5.336277
  6  3.291790 -2.658249  6.202840
  6  5.670631 -2.646571  5.311439
  6  4.490619 -0.465242  5.810975
  6  4.926504  0.170463  6.981920
  6  4.873314  1.545785  6.858231
 16  4.291552  2.090217  5.314269
  6  4.110876  0.439452  4.810171
  1  1.102402  1.326454  0.460210
  1  0.235579 -0.204798  0.667447
  1  0.575256  0.415229 -0.956188
  1  3.509955  1.339243 -0.442230
  1  2.984778  0.428022 -1.859370
  1  4.313733 -0.183073 -0.861161
  1  3.135549  1.309546  2.219495
  1  3.508457 -3.635984  3.148286
  1  1.497622 -4.608810 -2.232375
  1  1.378010 -2.004262 -2.514829
  1  3.133239 -3.665207  5.810196
  1  2.329926 -2.142529  6.228773
  1  3.658546 -2.753917  7.227268
  1  5.540875 -3.653372  4.907966
  1  6.068165 -2.742213  6.324327
  1  6.408284 -2.122476  4.700686
  1  5.266632 -0.322170  7.882370
  1  5.147670  2.282380  7.599672
 nber atoms=          40
  SCF Done:  E(UB3LYP) =  -1569.34007403     A.U. after    1 cycles             
  
          23          40 "  -1569.34007403"
After scan for Atom:   Atom  AN      X      Y      Z        X      Y      Z        X      Y      Z   
After scan for Atom:   Atom  AN      X      Y      Z        X      Y      Z        X      Y      Z   
After scan for Atom:   Atom  AN      X      Y      Z        X      Y      Z        X      Y      Z   
After scan for Atom:   Atom  AN      X      Y      Z        X      Y      Z        X      Y      Z   
After scan for Atom:   Atom  AN      X      Y      Z        X      Y      Z        X      Y      Z   
After scan for Atom:   Atom  AN      X      Y      Z        X      Y      Z        X      Y      Z   
After scan for Atom:   Atom  AN      X      Y      Z        X      Y      Z        X      Y      Z   
After scan for Atom:   Atom  AN      X      Y      Z        X      Y      Z        X      Y      Z   
After scan for Atom:   Atom  AN      X      Y      Z        X      Y      Z        X      Y      Z   
After scan for Atom:   Atom  AN      X      Y      Z        X      Y      Z        X      Y      Z   
After scan for Atom:   Atom  AN      X      Y      Z        X      Y      Z        X      Y      Z   
After scan for Atom:   Atom  AN      X      Y      Z        X      Y      Z        X      Y      Z   
After scan for Atom:   Atom  AN      X      Y      Z        X      Y      Z        X      Y      Z   
After scan for Atom:   Atom  AN      X      Y      Z        X      Y      Z        X      Y      Z   
After scan for Atom:   Atom  AN      X      Y      Z        X      Y      Z        X      Y      Z   
After scan for Atom:   Atom  AN      X      Y      Z        X      Y      Z        X      Y      Z   
After scan for Atom:   Atom  AN      X      Y      Z        X      Y      Z        X      Y      Z   
After scan for Atom:   Atom  AN      X      Y      Z        X      Y      Z        X      Y      Z   
After scan for Atom:   Atom  AN      X      Y      Z        X      Y      Z        X      Y      Z   
After scan for Atom:   Atom  AN      X      Y      Z        X      Y      Z        X      Y      Z   
After scan for Atom:   Atom  AN      X      Y      Z        X      Y      Z        X      Y      Z   
After scan for Atom:   Atom  AN      X      Y      Z        X      Y      Z        X      Y      Z   
After scan for Atom:   Atom  AN      X      Y      Z        X      Y      Z        X      Y      Z   
After scan for Atom:   Atom  AN      X      Y      Z        X      Y      Z        X      Y      Z   
After scan for Atom:   Atom  AN      X      Y      Z        X      Y      Z        X      Y      Z   
After scan for Atom:   Atom  AN      X      Y      Z        X      Y      Z        X      Y      Z   
After scan for Atom:   Atom  AN      X      Y      Z        X      Y      Z        X      Y      Z   
After scan for Atom:   Atom  AN      X      Y      Z        X      Y      Z        X      Y      Z   
After scan for Atom:   Atom  AN      X      Y      Z        X      Y      Z        X      Y      Z   
After scan for Atom:   Atom  AN      X      Y      Z        X      Y      Z        X      Y      Z   
After scan for Atom:   Atom  AN      X      Y      Z        X      Y      Z        X      Y      Z   
After scan for Atom:   Atom  AN      X      Y      Z        X      Y      Z        X      Y      Z   
After scan for Atom:   Atom  AN      X      Y      Z        X      Y      Z        X      Y      Z   
After scan for Atom:   Atom  AN      X      Y      Z        X      Y      Z        X      Y      Z   
After scan for Atom:   Atom  AN      X      Y      Z        X      Y      Z        X      Y      Z   
After scan for Atom:   Atom  AN      X      Y      Z        X      Y      Z        X      Y      Z   
After scan for Atom:   Atom  AN      X      Y      Z        X      Y      Z        X      Y      Z   
After scan for Atom:   Atom  AN      X      Y      Z        X      Y      Z        X      Y      Z   
 g94    frequencies=
     0.0    0.0    0.0    0.0    0.0    0.0   33.0   57.8   83.2  104.0
   111.1  130.7  150.0  167.3  172.8  207.4  226.6  240.4  241.9  242.6
   269.2  279.8  286.0  297.5  316.3  370.5  376.5  404.4  422.8  440.4
   451.7  491.9  492.4  522.9  536.1  571.6  579.3  630.4  653.1  665.6
   691.9  700.5  722.0  725.6  729.5  758.9  770.9  786.1  787.7  799.2
   839.3  894.7  904.7  906.9  907.5  911.8  912.6  953.7  953.8  978.1
   983.0  994.1 1031.4 1031.8 1065.3 1095.0 1104.9 1106.5 1149.4 1150.1
  1164.5 1167.7 1230.6 1233.3 1254.9 1262.9 1284.9 1292.6 1333.1 1361.5
  1370.4 1390.9 1404.9 1405.0 1426.3 1429.1 1450.8 1466.2 1474.6 1475.3
  1484.4 1484.4 1489.0 1489.0 1505.0 1505.6 1508.0 1511.8 1521.2 1537.8
  1540.5 1639.5 3036.5 3036.5 3039.4 3039.5 3105.3 3105.3 3109.7 3109.8
  3113.4 3113.5 3115.1 3115.1 3182.3 3183.1 3216.4 3216.5 3239.7 3239.8
 g94    symmetries=
                                                 A      A      A      A
       A      A      A      A      A      A      A      A      A      A
       A      A      A      A      A      A      A      A      A      A
       A      A      A      A      A      A      A      A      A      A
       A      A      A      A      A      A      A      A      A      A
       A      A      A      A      A      A      A      A      A      A
       A      A      A      A      A      A      A      A      A      A
       A      A      A      A      A      A      A      A      A      A
       A      A      A      A      A      A      A      A      A      A
       A      A      A      A      A      A      A      A      A      A
       A      A      A      A      A      A      A      A      A      A
       A      A      A      A      A      A      A      A      A      A
 atomic masses:
 12.0000 12.0000 12.0000 12.0000 12.0000 12.0000 12.0000 12.0000 12.0000 12.0000
 31.9721 12.0000 12.0000 12.0000 12.0000 12.0000 12.0000 12.0000 12.0000 12.0000
 31.9721 12.0000  1.0078  1.0078  1.0078  1.0078  1.0078  1.0078  1.0078  1.0078
  1.0078  1.0078  1.0078  1.0078  1.0078  1.0078  1.0078  1.0078  1.0078  1.0078
 looking for force constants in 
 ./IDT_0_C1S0.fchk                                                              
  
 Cartesian Force Constants                  R   N=        7260                  
  
 n3=         120        7260
 g94-fc frequencies=
    -2.1   -1.5   -0.0   -0.0   -0.0    5.9   33.0   57.8   83.3  104.0
   111.1  130.7  150.0  167.3  172.8  207.4  226.6  240.4  241.9  242.6
   269.3  279.8  286.0  297.5  316.3  370.5  376.5  404.4  422.9  440.5
   451.7  491.9  492.4  523.0  536.1  571.6  579.3  630.4  653.1  665.6
   691.9  700.5  722.0  725.7  729.6  758.9  770.9  786.1  787.7  799.3
   839.3  894.7  904.7  906.9  907.5  911.9  912.6  953.7  953.8  978.2
   983.0  994.1 1031.4 1031.8 1065.3 1095.0 1104.9 1106.5 1149.4 1150.1
  1164.6 1167.7 1230.6 1233.4 1255.0 1262.9 1284.9 1292.7 1333.1 1361.5
  1370.5 1391.0 1405.0 1405.0 1426.4 1429.1 1450.8 1466.2 1474.7 1475.3
  1484.4 1484.5 1489.0 1489.0 1505.0 1505.6 1508.1 1511.8 1521.2 1537.9
  1540.5 1639.5 3036.6 3036.6 3039.4 3039.5 3105.3 3105.3 3109.8 3109.8
  3113.5 3113.6 3115.1 3115.2 3182.4 3183.2 3216.5 3216.5 3239.8 3239.9
 at 99999: n3=         120
 symm operator            1 :  F  nop=           0
 symm operator            2 :  F  nop=           0
 symm operator            3 :  F  nop=           0
 symm operator            4 :  F  nop=           0
 symm operator            5 :  F  nop=           0
 symm operator            6 :  F  nop=           0
 symm operator            7 :  F  nop=           0
 The point group of the molecule is  C1
 Symmetry rotation matrix:
   1.00000   0.00000   0.00000
   0.00000   1.00000   0.00000
   0.00000   0.00000   1.00000

 Projecting out zero-frequency components
 generating redundant internal coords
         300        3600          40
 search for int coords
   1 str   2   1   1.546
   2 str   3   2   1.546
   3 str   4   2   1.533
   4 str   5   4   1.371
   5 str   6   5   1.414
   6 str   7   6   1.441
   7 str   8   7   1.371
   8 str   9   4   1.441
   9 str   9   8   1.414
  10 str  10   9   1.416
  11 str  11  10   1.735
  12 str  12  11   1.737
  13 str  13  12   1.382
  14 str  14   2   1.517
  15 str  14  10   1.402
  16 str  14  13   1.402
  17 str  15   7   1.533
  18 str  16  15   1.546
  19 str  17  15   1.546
  20 str  18  15   1.517
  21 str  19  18   1.402
  22 str  20  19   1.382
  23 str  21  20   1.737
  24 str  22   6   1.416
  25 str  22  18   1.402
  26 str  22  21   1.735
  27 str  23   1   1.092
  28 str  24   1   1.092
  29 str  25   1   1.092
  30 str  26   3   1.092
  31 str  27   3   1.092
  32 str  28   3   1.092
  33 str  29   5   1.084
  34 str  30   8   1.084
  35 str  31  12   1.081
  36 str  32  13   1.081
  37 str  33  16   1.092
  38 str  34  16   1.092
  39 str  35  16   1.092
  40 str  36  17   1.092
  41 str  37  17   1.092
  42 str  38  17   1.092
  43 str  39  19   1.081
  44 str  40  20   1.081
 nber stretches=          44
  45 ben   1   2   3
  46 prop tor   1   2   3  26
  47 prop tor   1   2   3  27
  48 prop tor   1   2   3  28
  49 ben   1   2   4
  50 prop tor   1   2   4   5
  51 prop tor   1   2   4   9
  52 ben   1   2  14
  53 prop tor   1   2  14  10
  54 prop tor   1   2  14  13
  55 ben   2   1  23
  56 ben   2   1  24
  57 ben   2   1  25
  58 ben   2   3  26
  59 ben   2   3  27
  60 ben   2   3  28
  61 ben   2   4   5
  62 prop tor   2   4   5   6
  63 prop tor   2   4   5  29
  64 ben   2   4   9
  65 prop tor   2   4   9   8
  66 prop tor   2   4   9  10
  67 ben   2  14  10
  68 ben   2  14  13
  69 ben   3   2   4
  70 prop tor   3   2   4   5
  71 prop tor   3   2   4   9
  72 ben   3   2  14
  73 prop tor   3   2  14  10
  74 prop tor   3   2  14  13
  75 prop tor   4   2   3  26
  76 prop tor   4   2   3  27
  77 prop tor   4   2   3  28
  78 ben   4   2  14
  79 prop tor   4   2  14  10
  80 prop tor   4   2  14  13
  81 ben   4   5   6
  82 prop tor   4   5   6   7
  83 prop tor   4   5   6  22
  84 ben   4   5  29
  85 ben   4   9   8
  86 ben   4   9  10
  87 prop tor   4   9  10  11
  88 prop tor   4   9  10  14
  89 ben   5   4   9
  90 prop tor   5   4   9   8
  91 prop tor   5   4   9  10
  92 ben   5   6   7
  93 prop tor   5   6   7   8
  94 prop tor   5   6   7  15
  95 ben   5   6  22
  96 prop tor   5   6  22  18
  97 prop tor   5   6  22  21
  98 ben   6   5  29
  99 ben   6   7   8
 100 prop tor   6   7   8   9
 101 prop tor   6   7   8  30
 102 ben   6   7  15
 103 prop tor   6   7  15  16
 104 prop tor   6   7  15  17
 105 prop tor   6   7  15  18
 106 ben   6  22  18
 107 ben   6  22  21
 108 ben   7   6  22
 109 prop tor   7   6  22  18
 110 prop tor   7   6  22  21
 111 ben   7   8   9
 112 prop tor   7   8   9   4
 113 prop tor   7   8   9  10
 114 ben   7   8  30
 115 ben   7  15  16
 116 prop tor   7  15  16  33
 117 prop tor   7  15  16  34
 118 prop tor   7  15  16  35
 119 ben   7  15  17
 120 prop tor   7  15  17  36
 121 prop tor   7  15  17  37
 122 prop tor   7  15  17  38
 123 ben   7  15  18
 124 prop tor   7  15  18  19
 125 prop tor   7  15  18  22
 126 ben   8   7  15
 127 prop tor   8   7  15  16
 128 prop tor   8   7  15  17
 129 prop tor   8   7  15  18
 130 ben   8   9  10
 131 prop tor   8   9  10  11
 132 prop tor   8   9  10  14
 133 prop tor   9   4   5   6
 134 prop tor   9   4   5  29
 135 ben   9   8  30
 136 ben   9  10  11
 137 prop tor   9  10  11  12
 138 ben   9  10  14
 139 prop tor   9  10  14   2
 140 prop tor   9  10  14  13
 141 ben  10  11  12
 142 prop tor  10  11  12  13
 143 prop tor  10  11  12  31
 144 ben  10  14  13
 145 ben  11  10  14
 146 prop tor  11  10  14   2
 147 prop tor  11  10  14  13
 148 ben  11  12  13
 149 prop tor  11  12  13  14
 150 prop tor  11  12  13  32
 151 ben  11  12  31
 152 ben  12  13  14
 153 prop tor  12  13  14   2
 154 prop tor  12  13  14  10
 155 ben  12  13  32
 156 ben  13  12  31
 157 prop tor  14   2   3  26
 158 prop tor  14   2   3  27
 159 prop tor  14   2   3  28
 160 prop tor  14   2   4   5
 161 prop tor  14   2   4   9
 162 prop tor  14  10  11  12
 163 ben  14  13  32
 164 prop tor  15   7   8   9
 165 prop tor  15   7   8  30
 166 ben  15  16  33
 167 ben  15  16  34
 168 ben  15  16  35
 169 ben  15  17  36
 170 ben  15  17  37
 171 ben  15  17  38
 172 ben  15  18  19
 173 prop tor  15  18  19  20
 174 prop tor  15  18  19  39
 175 ben  15  18  22
 176 prop tor  15  18  22   6
 177 prop tor  15  18  22  21
 178 ben  16  15  17
 179 prop tor  16  15  17  36
 180 prop tor  16  15  17  37
 181 prop tor  16  15  17  38
 182 ben  16  15  18
 183 prop tor  16  15  18  19
 184 prop tor  16  15  18  22
 185 prop tor  17  15  16  33
 186 prop tor  17  15  16  34
 187 prop tor  17  15  16  35
 188 ben  17  15  18
 189 prop tor  17  15  18  19
 190 prop tor  17  15  18  22
 191 prop tor  18  15  16  33
 192 prop tor  18  15  16  34
 193 prop tor  18  15  16  35
 194 prop tor  18  15  17  36
 195 prop tor  18  15  17  37
 196 prop tor  18  15  17  38
 197 ben  18  19  20
 198 prop tor  18  19  20  21
 199 prop tor  18  19  20  40
 200 ben  18  19  39
 201 ben  18  22  21
 202 ben  19  18  22
 203 prop tor  19  18  22   6
 204 prop tor  19  18  22  21
 205 ben  19  20  21
 206 prop tor  19  20  21  22
 207 ben  19  20  40
 208 ben  20  19  39
 209 ben  20  21  22
 210 prop tor  20  21  22   6
 211 prop tor  20  21  22  18
 212 ben  21  20  40
 213 prop tor  22   6   7   8
 214 prop tor  22   6   7  15
 215 prop tor  22  18  19  20
 216 prop tor  22  18  19  39
 217 prop tor  23   1   2   3
 218 prop tor  23   1   2   4
 219 prop tor  23   1   2  14
 220 ben  23   1  24
 221 ben  23   1  25
 222 prop tor  24   1   2   3
 223 prop tor  24   1   2   4
 224 prop tor  24   1   2  14
 225 ben  24   1  25
 226 prop tor  25   1   2   3
 227 prop tor  25   1   2   4
 228 prop tor  25   1   2  14
 229 ben  26   3  27
 230 ben  26   3  28
 231 ben  27   3  28
 232 prop tor  29   5   6   7
 233 prop tor  29   5   6  22
 234 prop tor  30   8   9   4
 235 prop tor  30   8   9  10
 236 prop tor  31  12  13  14
 237 prop tor  31  12  13  32
 238 prop tor  32  13  14   2
 239 prop tor  32  13  14  10
 240 ben  33  16  34
 241 ben  33  16  35
 242 ben  34  16  35
 243 ben  36  17  37
 244 ben  36  17  38
 245 ben  37  17  38
 246 prop tor  39  19  20  21
 247 prop tor  39  19  20  40
 248 prop tor  40  20  21  22
 nber bend=              80
 nber lin bend=           0
 nber prop tor=         124
 nber impr tor=           0
 nber tot redund int=         248
 Eigenvalues of G in red int coords
    Gval -0.00000000 -0.00000000 -0.00000000 -0.00000000 -0.00000000 -0.00000000 -0.00000000 -0.00000000
    Gval -0.00000000 -0.00000000 -0.00000000 -0.00000000 -0.00000000 -0.00000000 -0.00000000 -0.00000000
    Gval -0.00000000 -0.00000000 -0.00000000 -0.00000000 -0.00000000 -0.00000000 -0.00000000 -0.00000000
    Gval -0.00000000 -0.00000000 -0.00000000 -0.00000000 -0.00000000 -0.00000000 -0.00000000 -0.00000000
    Gval -0.00000000 -0.00000000 -0.00000000 -0.00000000 -0.00000000 -0.00000000 -0.00000000 -0.00000000
    Gval -0.00000000 -0.00000000 -0.00000000 -0.00000000 -0.00000000 -0.00000000 -0.00000000 -0.00000000
    Gval -0.00000000 -0.00000000 -0.00000000 -0.00000000 -0.00000000 -0.00000000 -0.00000000 -0.00000000
    Gval -0.00000000 -0.00000000 -0.00000000 -0.00000000 -0.00000000 -0.00000000 -0.00000000 -0.00000000
    Gval -0.00000000 -0.00000000 -0.00000000 -0.00000000  0.00000000  0.00000000  0.00000000  0.00000000
    Gval  0.00000000  0.00000000  0.00000000  0.00000000  0.00000000  0.00000000  0.00000000  0.00000000
    Gval  0.00000000  0.00000000  0.00000000  0.00000000  0.00000000  0.00000000  0.00000000  0.00000000
    Gval  0.00000000  0.00000000  0.00000000  0.00000000  0.00000000  0.00000000  0.00000000  0.00000000
    Gval  0.00000000  0.00000000  0.00000000  0.00000000  0.00000000  0.00000000  0.00000000  0.00000000
    Gval  0.00000000  0.00000000  0.00000000  0.00000000  0.00000000  0.00000000  0.00000000  0.00000000
    Gval  0.00000000  0.00000000  0.00000000  0.00000000  0.00000000  0.00000000  0.00000000  0.00000000
    Gval  0.00000000  0.00000000  0.00000000  0.00000000  0.00000000  0.00000000  0.00000000  0.00000000
    Gval  0.00000000  0.00000000  0.00000000  0.00000000  0.00000000  0.00000000  0.00000212  0.00000382
    Gval  0.00000868  0.00000943  0.00001402  0.00001403  0.00001413  0.00002231  0.00002724  0.00003038
    Gval  0.00003293  0.00003409  0.00003819  0.00004093  0.00004248  0.00004364  0.00004644  0.00004779
    Gval  0.00005120  0.00005219  0.00005809  0.00006887  0.00007071  0.00007213  0.00007630  0.00008250
    Gval  0.00009409  0.00010163  0.00011692  0.00013117  0.00013202  0.00014291  0.00014667  0.00014872
    Gval  0.00017644  0.00017856  0.00023096  0.00023737  0.00024959  0.00025016  0.00030247  0.00032312
    Gval  0.00036095  0.00038847  0.00040531  0.00042769  0.00044051  0.00044713  0.00046117  0.00046284
    Gval  0.00050593  0.00050990  0.00052134  0.00053597  0.00053601  0.00053704  0.00055616  0.00055619
    Gval  0.00055620  0.00055620  0.00057837  0.00057840  0.00058306  0.00059425  0.00059494  0.00059840
    Gval  0.00059936  0.00061617  0.00062552  0.00062601  0.00063611  0.00063694  0.00067693  0.00067733
    Gval  0.00076045  0.00084733  0.00098565  0.00098955  0.00107989  0.00108096  0.00109198  0.00110787
    Gval  0.00110974  0.00112648  0.00113629  0.00113696  0.00118095  0.00118117  0.00118120  0.00118123
    Gval  0.00118427  0.00118427  0.00158658  0.00160868  0.00166169  0.00167388  0.00167396  0.00178417
    Gval  0.00203417  0.00214989  0.00232607  0.00233099  0.00303020  0.00303119  0.00304145  0.00304153
    Gval  0.00304644  0.00304644  0.00310205  0.00310205  0.00342702  0.00342815  0.00403331  0.00403345
  2.124782363451663E-006  2.124782363451663E-006
  3.819826937858703E-006  2.124782363451663E-006
  8.682100691782943E-006  2.124782363451663E-006
  9.427230752563361E-006  2.124782363451663E-006
  1.401839675222095E-005  2.124782363451663E-006
  1.403353349805602E-005  2.124782363451663E-006
  1.412526738721263E-005  2.124782363451663E-006
  2.230965476552346E-005  2.124782363451663E-006
  2.724176774658758E-005  2.124782363451663E-006
  3.037622129637337E-005  2.124782363451663E-006
  3.293360684990154E-005  2.124782363451663E-006
  3.409446017428087E-005  2.124782363451663E-006
  3.818741465004206E-005  2.124782363451663E-006
  4.093458078144910E-005  2.124782363451663E-006
  4.248211287231864E-005  2.124782363451663E-006
  4.364174133591116E-005  2.124782363451663E-006
  4.643576672473590E-005  2.124782363451663E-006
  4.778540508291961E-005  2.124782363451663E-006
  5.119573703697576E-005  2.124782363451663E-006
  5.219242652748813E-005  2.124782363451663E-006
  5.809491359195055E-005  2.124782363451663E-006
  6.887186853136309E-005  2.124782363451663E-006
  7.071141699385021E-005  2.124782363451663E-006
  7.213192895140860E-005  2.124782363451663E-006
  7.630102365060701E-005  2.124782363451663E-006
  8.250465840172487E-005  2.124782363451663E-006
  9.409049765208710E-005  2.124782363451663E-006
  1.016321928977045E-004  2.124782363451663E-006
  1.169172004862859E-004  2.124782363451663E-006
  1.311689658537052E-004  2.124782363451663E-006
  1.320230034776186E-004  2.124782363451663E-006
  1.429123142662998E-004  2.124782363451663E-006
  1.466680959950464E-004  2.124782363451663E-006
  1.487202872469366E-004  2.124782363451663E-006
  1.764366509014201E-004  2.124782363451663E-006
  1.785593870526621E-004  2.124782363451663E-006
  2.309556770414647E-004  2.124782363451663E-006
  2.373672595148096E-004  2.124782363451663E-006
  2.495897642994382E-004  2.124782363451663E-006
  2.501624982650985E-004  2.124782363451663E-006
  3.024741758572189E-004  2.124782363451663E-006
  3.231159500963667E-004  2.124782363451663E-006
  3.609544762742683E-004  2.124782363451663E-006
  3.884744592742376E-004  2.124782363451663E-006
  4.053132202631312E-004  2.124782363451663E-006
  4.276944678715642E-004  2.124782363451663E-006
  4.405066357570034E-004  2.124782363451663E-006
  4.471308995872602E-004  2.124782363451663E-006
  4.611668265837565E-004  2.124782363451663E-006
  4.628437718158575E-004  2.124782363451663E-006
  5.059270214512848E-004  2.124782363451663E-006
  5.099044671216181E-004  2.124782363451663E-006
  5.213392863923054E-004  2.124782363451663E-006
  5.359713685091896E-004  2.124782363451663E-006
  5.360061288761547E-004  2.124782363451663E-006
  5.370372570534418E-004  2.124782363451663E-006
  5.561612342879270E-004  2.124782363451663E-006
  5.561903453026889E-004  2.124782363451663E-006
  5.561964108453438E-004  2.124782363451663E-006
  5.561972590099793E-004  2.124782363451663E-006
  5.783689675680193E-004  2.124782363451663E-006
  5.783965355415401E-004  2.124782363451663E-006
  5.830571437236450E-004  2.124782363451663E-006
  5.942507676277801E-004  2.124782363451663E-006
  5.949352549134691E-004  2.124782363451663E-006
  5.983967880369270E-004  2.124782363451663E-006
  5.993639718770981E-004  2.124782363451663E-006
  6.161700828802851E-004  2.124782363451663E-006
  6.255204327234444E-004  2.124782363451663E-006
  6.260063847894749E-004  2.124782363451663E-006
  6.361106541338143E-004  2.124782363451663E-006
  6.369394833532493E-004  2.124782363451663E-006
  6.769293189198718E-004  2.124782363451663E-006
  6.773296252514567E-004  2.124782363451663E-006
  7.604516945422977E-004  2.124782363451663E-006
  8.473322997498327E-004  2.124782363451663E-006
  9.856463836882910E-004  2.124782363451663E-006
  9.895487092747013E-004  2.124782363451663E-006
  1.079888199522816E-003  2.124782363451663E-006
  1.080963853037681E-003  2.124782363451663E-006
  1.091978956493581E-003  2.124782363451663E-006
  1.107865255635855E-003  2.124782363451663E-006
  1.109743315281723E-003  2.124782363451663E-006
  1.126480027012512E-003  2.124782363451663E-006
  1.136290222391924E-003  2.124782363451663E-006
  1.136964664254275E-003  2.124782363451663E-006
  1.180951687038170E-003  2.124782363451663E-006
  1.181168065472481E-003  2.124782363451663E-006
  1.181203346785337E-003  2.124782363451663E-006
  1.181231903002201E-003  2.124782363451663E-006
  1.184270671609748E-003  2.124782363451663E-006
  1.184273966140178E-003  2.124782363451663E-006
  1.586583502012999E-003  2.124782363451663E-006
  1.608679220561883E-003  2.124782363451663E-006
  1.661694373532574E-003  2.124782363451663E-006
  1.673881275492686E-003  2.124782363451663E-006
  1.673956802386564E-003  2.124782363451663E-006
  1.784172591959562E-003  2.124782363451663E-006
  2.034174715196626E-003  2.124782363451663E-006
  2.149889575452983E-003  2.124782363451663E-006
  2.326069441850019E-003  2.124782363451663E-006
  2.330986485918925E-003  2.124782363451663E-006
  3.030203105953764E-003  2.124782363451663E-006
  3.031190743619433E-003  2.124782363451663E-006
  3.041453502835922E-003  2.124782363451663E-006
  3.041530778755199E-003  2.124782363451663E-006
  3.046438431795446E-003  2.124782363451663E-006
  3.046439727311647E-003  2.124782363451663E-006
  3.102047213663292E-003  2.124782363451663E-006
  3.102048797764436E-003  2.124782363451663E-006
  3.427020447424174E-003  2.124782363451663E-006
  3.428146154547807E-003  2.124782363451663E-006
  4.033313679680055E-003  2.124782363451663E-006
  4.033454705342342E-003  2.124782363451663E-006
 cut=1d-8, nber non-redundant internal coords=         114
 Check on Eigenvals of non-red overlap matrix:
  0.00000212  0.00000382  0.00000868  0.00000943  0.00001402  0.00001403  0.00001413  0.00002231
  0.00002724  0.00003038  0.00003293  0.00003409  0.00003819  0.00004093  0.00004248  0.00004364
  0.00004644  0.00004779  0.00005120  0.00005219  0.00005809  0.00006887  0.00007071  0.00007213
  0.00007630  0.00008250  0.00009409  0.00010163  0.00011692  0.00013117  0.00013202  0.00014291
  0.00014667  0.00014872  0.00017644  0.00017856  0.00023096  0.00023737  0.00024959  0.00025016
  0.00030247  0.00032312  0.00036095  0.00038847  0.00040531  0.00042769  0.00044051  0.00044713
  0.00046117  0.00046284  0.00050593  0.00050990  0.00052134  0.00053597  0.00053601  0.00053704
  0.00055616  0.00055619  0.00055620  0.00055620  0.00057837  0.00057840  0.00058306  0.00059425
  0.00059494  0.00059840  0.00059936  0.00061617  0.00062552  0.00062601  0.00063611  0.00063694
  0.00067693  0.00067733  0.00076045  0.00084733  0.00098565  0.00098955  0.00107989  0.00108096
  0.00109198  0.00110787  0.00110974  0.00112648  0.00113629  0.00113696  0.00118095  0.00118117
  0.00118120  0.00118123  0.00118427  0.00118427  0.00158658  0.00160868  0.00166169  0.00167388
  0.00167396  0.00178417  0.00203417  0.00214989  0.00232607  0.00233099  0.00303020  0.00303119
  0.00304145  0.00304153  0.00304644  0.00304644  0.00310205  0.00310205  0.00342702  0.00342815
  0.00403331  0.00403345
 Checking for correct frequencies
 recalc frequencies=
    -0.0   -0.0   -0.0    0.0    0.0    0.0   33.0   57.8   83.3  104.0
   111.1  130.7  150.0  167.3  172.8  207.4  226.6  240.4  241.9  242.6
   269.3  279.8  286.0  297.5  316.3  370.5  376.5  404.4  422.9  440.5
   451.7  491.9  492.4  523.0  536.1  571.6  579.3  630.4  653.1  665.6
   691.9  700.5  722.0  725.7  729.6  758.9  770.9  786.1  787.7  799.3
   839.3  894.7  904.7  906.9  907.5  911.9  912.6  953.7  953.8  978.2
   983.0  994.1 1031.4 1031.8 1065.3 1095.0 1104.9 1106.5 1149.4 1150.1
  1164.6 1167.7 1230.6 1233.4 1255.0 1262.9 1284.9 1292.7 1333.1 1361.5
  1370.5 1391.0 1405.0 1405.0 1426.4 1429.1 1450.8 1466.2 1474.7 1475.3
  1484.4 1484.5 1489.0 1489.0 1505.0 1505.6 1508.1 1511.8 1521.2 1537.9
  1540.5 1639.5 3036.6 3036.6 3039.4 3039.5 3105.3 3105.3 3109.8 3109.8
  3113.5 3113.6 3115.1 3115.2 3182.4 3183.2 3216.5 3216.5 3239.8 3239.9
 recalc symmetries=
                                                                       
                                                                       
                                                                       
                                                                       
                                                                       
                                                                       
                                                                       
                                                                       
                                                                       
                                                                       
                                                                       
                                                                       
 recalc freqs check OK
 Zero-point lengths:
 10.0000 10.0000 10.0000 10.0000 10.0000 10.0000 43.1601 32.5973 27.1708 24.3079
 23.5199 21.6849 20.2389 19.1670 18.8606 17.2130 16.4694 15.9880 15.9391 15.9172
 15.1084 14.8218 14.6589 14.3740 13.9401 12.8790 12.7768 12.3274 12.0559 11.8126
 11.6646 11.1774 11.1718 10.8409 10.7068 10.3689 10.3004  9.8739  9.7008  9.6092
  9.4247  9.3668  9.2262  9.2030  9.1783  8.9989  8.9289  8.8419  8.8330  8.7691
  8.5574  8.2879  8.2420  8.2321  8.2295  8.2098  8.2065  8.0276  8.0271  7.9266
  7.9070  7.8628  7.7192  7.7177  7.5956  7.4917  7.4581  7.4527  7.3123  7.3102
  7.2647  7.2549  7.0669  7.0591  6.9981  6.9760  6.9160  6.8953  6.7899  6.7187
  6.6967  6.6472  6.6140  6.6138  6.5642  6.5578  6.5086  6.4743  6.4558  6.4544
  6.4346  6.4344  6.4247  6.4245  6.3903  6.3890  6.3839  6.3760  6.3562  6.3217
  6.3162  6.1226  4.4989  4.4989  4.4968  4.4967  4.4488  4.4488  4.4456  4.4456
  4.4429  4.4429  4.4418  4.4417  4.3946  4.3940  4.3712  4.3712  4.3555  4.3554
 highest evec of mol 2
  0.0001  0.0001  0.0003
  0.0001 -0.0001  0.0002
  0.0001  0.0001  0.0003
 -0.0000  0.0002 -0.0001
  0.0000  0.0003  0.0000
 -0.0002  0.0001 -0.0004
  0.0000 -0.0002  0.0001
 -0.0000 -0.0003 -0.0000
  0.0002 -0.0001  0.0004
 -0.0009 -0.0014 -0.0025
 -0.0006  0.0007 -0.0015
  0.0477  0.1402  0.1293
  0.0221 -0.0418  0.0583
 -0.0017 -0.0021 -0.0047
 -0.0001  0.0001 -0.0002
 -0.0001 -0.0001 -0.0003
 -0.0001 -0.0001 -0.0003
  0.0018  0.0021  0.0047
 -0.0223  0.0423 -0.0590
 -0.0483 -0.1418 -0.1308
  0.0006 -0.0007  0.0015
  0.0009  0.0014  0.0025
 -0.0001 -0.0001 -0.0001
 -0.0000 -0.0000  0.0000
 -0.0003  0.0001 -0.0008
  0.0001 -0.0001 -0.0001
 -0.0003  0.0001 -0.0007
  0.0000 -0.0000 -0.0000
  0.0001 -0.0009  0.0002
 -0.0001  0.0009 -0.0001
 -0.1601 -0.4333 -0.4333
 -0.0690  0.1022 -0.1826
 -0.0001  0.0001  0.0001
 -0.0000  0.0000  0.0000
  0.0003 -0.0001  0.0008
  0.0001  0.0001  0.0001
  0.0003 -0.0001  0.0008
  0.0000  0.0000 -0.0000
  0.0698 -0.1034  0.1848
  0.1622  0.4385  0.4384
 Enter nber and list of atoms to keep of mol #2
 keep list:          40           1           2           3           4
           5           6           7           8           9          10
          11          12          13          14          15          16
          17          18          19          20          21          22
          23          24          25          26          27          28
          29          30          31          32          33          34
          35          36          37          38          39          40
 reordering atoms
           1  -2.45656691310132     
           2  -2.33242693901147     
           3  -2.45641399214082     
           4  -1.03019669387656     
           5  0.262173613860490     
           6   1.30177053324192     
           7   1.03019726483700     
           8 -0.262172500579540     
           9  -1.30177033575328     
          10  -2.71047066701959     
          11  -3.84097687365585     
          12  -5.15343367465199     
          13  -4.74726229122477     
          14  -3.34932306175422     
          15   2.33242748867664     
          16   2.45647843802419     
          17   2.45650467203835     
          18   3.34932277524011     
          19   4.74726305823329     
          20   5.15343270647356     
          21   3.84097537789157     
          22   2.71047050371136     
          23  -1.67776152377522     
          24  -2.36816111178758     
          25  -3.42355148303159     
          26  -1.67760308954974     
          27  -3.42339882139070     
          28  -2.36783859295508     
          29  0.491770062738813     
          30 -0.491769932990125     
          31  -6.16687583217768     
          32  -5.44545339378041     
          33   1.67768436771661     
          34   2.36790314094172     
          35   3.42348978192551     
          36   1.67768330094177     
          37   3.42346220729425     
          38   2.36809721515848     
          39   5.44545318953069     
          40   6.16687480281989     
           1           1
           2           2
           3           3
           4           4
           5           5
           6           6
           7           7
           8           8
           9           9
          10          10
          11          11
          12          12
          13          13
          14          14
          15          15
          16          16
          17          17
          18          18
          19          19
          20          20
          21          21
          22          22
          23          23
          24          24
          25          25
          26          26
          27          27
          28          28
          29          29
          30          30
          31          31
          32          32
          33          33
          34          34
          35          35
          36          36
          37          37
          38          38
          39          39
          40          40
 initial cartes coords mol 1
   6  -1.26660  -2.62663   2.44859
   6  -0.00002  -1.75097   2.33531
   6   1.26666  -2.62642   2.44869
   6  -0.00005  -0.93475   1.03452
   6  -0.00009  -1.39771  -0.27244
   6  -0.00007  -0.45479  -1.30601
   6  -0.00002   0.93475  -1.03452
   6   0.00001   1.39771   0.27244
   6   0.00003   0.45479   1.30601
   6  -0.00001   0.59271   2.75192
  16   0.00018   1.89352   3.89577
   6   0.00002   0.75135   5.21785
   6  -0.00012  -0.54825   4.78633
   6  -0.00012  -0.63536   3.36909
   6  -0.00008   1.75097  -2.33531
   6   1.26630   2.62684  -2.44864
   6  -1.26695   2.62621  -2.44864
   6   0.00005   0.63536  -3.36909
   6   0.00024   0.54825  -4.78634
   6   0.00033  -0.75135  -5.21785
  16   0.00003  -1.89352  -3.89577
   6  -0.00006  -0.59271  -2.75192
   1  -1.28822  -3.38122   1.65737
   1  -1.28781  -3.14690   3.41049
   1  -2.17013  -2.01887   2.36760
   1   1.28833  -3.38120   1.65766
   1   2.17009  -2.01853   2.36745
   1   1.28807  -3.14645   3.41072
   1  -0.00003  -2.46019  -0.49312
   1  -0.00003   2.46019   0.49312
   1   0.00002   1.12095   6.23168
   1  -0.00022  -1.39081   5.46582
   1   1.28784   3.38143  -1.65742
   1   2.16997   2.01927  -2.36769
   1   1.28739   3.14713  -3.41053
   1  -1.28871   3.38099  -1.65761
   1  -1.28849   3.14622  -3.41068
   1  -2.17025   2.01814  -2.36735
   1   0.00035   1.39080  -5.46582
   1   0.00045  -1.12095  -6.23168
 initial cartes coords mol 2
   6  -1.27052  -2.64020  -2.45657
   6  -0.00013  -1.76829  -2.33243
   6   1.26987  -2.64070  -2.45641
   6  -0.00011  -0.95851  -1.03020
   6  -0.00001  -1.41513   0.26217
   6  -0.00001  -0.45669   1.30177
   6  -0.00014   0.95851   1.03020
   6  -0.00018   1.41514  -0.26217
   6  -0.00011   0.45670  -1.30177
   6  -0.00001   0.60440  -2.71047
  16   0.00021   1.92111  -3.84098
   6   0.00042   0.78263  -5.15343
   6   0.00017  -0.53822  -4.74726
   6   0.00001  -0.64306  -3.34932
   6  -0.00013   1.76829   2.33243
   6  -1.27053   2.64020   2.45648
   6   1.26987   2.64069   2.45650
   6   0.00002   0.64306   3.34932
   6   0.00024   0.53822   4.74726
   6   0.00040  -0.78264   5.15343
  16   0.00013  -1.92111   3.84098
   6   0.00000  -0.60439   2.71047
   1  -1.28613  -3.40603  -1.67776
   1  -2.17784  -2.03955  -2.36816
   1  -1.28697  -3.14793  -3.42355
   1   1.28503  -3.40653  -1.67760
   1   1.28629  -3.14843  -3.42340
   1   2.17744  -2.04044  -2.36784
   1   0.00012  -2.47450   0.49177
   1  -0.00026   2.47450  -0.49177
   1   0.00064   1.15749  -6.16688
   1   0.00020  -1.36388  -5.44545
   1  -1.28599   3.40604   1.67768
   1  -2.17784   2.03956   2.36790
   1  -1.28711   3.14787   3.42349
   1   1.28517   3.40651   1.67768
   1   1.28616   3.14848   3.42346
   1   2.17744   2.04043   2.36810
   1   0.00034   1.36388   5.44545
   1   0.00059  -1.15749   6.16687
 loop 1 0
 mod cartes coords mol 2
   6  -1.27052  -2.64020  -2.45657
   6  -0.00013  -1.76829  -2.33243
   6   1.26987  -2.64070  -2.45641
   6  -0.00011  -0.95851  -1.03020
   6  -0.00001  -1.41513   0.26217
   6  -0.00001  -0.45669   1.30177
   6  -0.00014   0.95851   1.03020
   6  -0.00018   1.41514  -0.26217
   6  -0.00011   0.45670  -1.30177
   6  -0.00001   0.60440  -2.71047
  16   0.00021   1.92111  -3.84098
   6   0.00042   0.78263  -5.15343
   6   0.00017  -0.53822  -4.74726
   6   0.00001  -0.64306  -3.34932
   6  -0.00013   1.76829   2.33243
   6  -1.27053   2.64020   2.45648
   6   1.26987   2.64069   2.45650
   6   0.00002   0.64306   3.34932
   6   0.00024   0.53822   4.74726
   6   0.00040  -0.78264   5.15343
  16   0.00013  -1.92111   3.84098
   6   0.00000  -0.60439   2.71047
   1  -1.28613  -3.40603  -1.67776
   1  -2.17784  -2.03955  -2.36816
   1  -1.28697  -3.14793  -3.42355
   1   1.28503  -3.40653  -1.67760
   1   1.28629  -3.14843  -3.42340
   1   2.17744  -2.04044  -2.36784
   1   0.00012  -2.47450   0.49177
   1  -0.00026   2.47450  -0.49177
   1   0.00064   1.15749  -6.16688
   1   0.00020  -1.36388  -5.44545
   1  -1.28599   3.40604   1.67768
   1  -2.17784   2.03956   2.36790
   1  -1.28711   3.14787   3.42349
   1   1.28517   3.40651   1.67768
   1   1.28616   3.14848   3.42346
   1   2.17744   2.04043   2.36810
   1   0.00034   1.36388   5.44545
   1   0.00059  -1.15749   6.16687
 read in order, maxerr= 12.40 for atom  31
 loop 1 1
 mod cartes coords mol 2
   6   1.27052  -2.64020  -2.45657
   6   0.00013  -1.76829  -2.33243
   6  -1.26987  -2.64070  -2.45641
   6   0.00011  -0.95851  -1.03020
   6   0.00001  -1.41513   0.26217
   6   0.00001  -0.45669   1.30177
   6   0.00014   0.95851   1.03020
   6   0.00018   1.41514  -0.26217
   6   0.00011   0.45670  -1.30177
   6   0.00001   0.60440  -2.71047
  16  -0.00021   1.92111  -3.84098
   6  -0.00042   0.78263  -5.15343
   6  -0.00017  -0.53822  -4.74726
   6  -0.00001  -0.64306  -3.34932
   6   0.00013   1.76829   2.33243
   6   1.27053   2.64020   2.45648
   6  -1.26987   2.64069   2.45650
   6  -0.00002   0.64306   3.34932
   6  -0.00024   0.53822   4.74726
   6  -0.00040  -0.78264   5.15343
  16  -0.00013  -1.92111   3.84098
   6  -0.00000  -0.60439   2.71047
   1   1.28613  -3.40603  -1.67776
   1   2.17784  -2.03955  -2.36816
   1   1.28697  -3.14793  -3.42355
   1  -1.28503  -3.40653  -1.67760
   1  -1.28629  -3.14843  -3.42340
   1  -2.17744  -2.04044  -2.36784
   1  -0.00012  -2.47450   0.49177
   1   0.00026   2.47450  -0.49177
   1  -0.00064   1.15749  -6.16688
   1  -0.00020  -1.36388  -5.44545
   1   1.28599   3.40604   1.67768
   1   2.17784   2.03956   2.36790
   1   1.28711   3.14787   3.42349
   1  -1.28517   3.40651   1.67768
   1  -1.28616   3.14848   3.42346
   1  -2.17744   2.04043   2.36810
   1  -0.00034   1.36388   5.44545
   1  -0.00059  -1.15749   6.16687
 read in order, maxerr= 12.40 for atom  31
 loop 1 2
 mod cartes coords mol 2
   6  -1.27052   2.64020  -2.45657
   6  -0.00013   1.76829  -2.33243
   6   1.26987   2.64070  -2.45641
   6  -0.00011   0.95851  -1.03020
   6  -0.00001   1.41513   0.26217
   6  -0.00001   0.45669   1.30177
   6  -0.00014  -0.95851   1.03020
   6  -0.00018  -1.41514  -0.26217
   6  -0.00011  -0.45670  -1.30177
   6  -0.00001  -0.60440  -2.71047
  16   0.00021  -1.92111  -3.84098
   6   0.00042  -0.78263  -5.15343
   6   0.00017   0.53822  -4.74726
   6   0.00001   0.64306  -3.34932
   6  -0.00013  -1.76829   2.33243
   6  -1.27053  -2.64020   2.45648
   6   1.26987  -2.64069   2.45650
   6   0.00002  -0.64306   3.34932
   6   0.00024  -0.53822   4.74726
   6   0.00040   0.78264   5.15343
  16   0.00013   1.92111   3.84098
   6   0.00000   0.60439   2.71047
   1  -1.28613   3.40603  -1.67776
   1  -2.17784   2.03955  -2.36816
   1  -1.28697   3.14793  -3.42355
   1   1.28503   3.40653  -1.67760
   1   1.28629   3.14843  -3.42340
   1   2.17744   2.04044  -2.36784
   1   0.00012   2.47450   0.49177
   1  -0.00026  -2.47450  -0.49177
   1   0.00064  -1.15749  -6.16688
   1   0.00020   1.36388  -5.44545
   1  -1.28599  -3.40604   1.67768
   1  -2.17784  -2.03956   2.36790
   1  -1.28711  -3.14787   3.42349
   1   1.28517  -3.40651   1.67768
   1   1.28616  -3.14848   3.42346
   1   2.17744  -2.04043   2.36810
   1   0.00034  -1.36388   5.44545
   1   0.00059   1.15749   6.16687
 read in order, maxerr= 12.61 for atom  31
 loop 1 3
 mod cartes coords mol 2
   6   1.27052   2.64020  -2.45657
   6   0.00013   1.76829  -2.33243
   6  -1.26987   2.64070  -2.45641
   6   0.00011   0.95851  -1.03020
   6   0.00001   1.41513   0.26217
   6   0.00001   0.45669   1.30177
   6   0.00014  -0.95851   1.03020
   6   0.00018  -1.41514  -0.26217
   6   0.00011  -0.45670  -1.30177
   6   0.00001  -0.60440  -2.71047
  16  -0.00021  -1.92111  -3.84098
   6  -0.00042  -0.78263  -5.15343
   6  -0.00017   0.53822  -4.74726
   6  -0.00001   0.64306  -3.34932
   6   0.00013  -1.76829   2.33243
   6   1.27053  -2.64020   2.45648
   6  -1.26987  -2.64069   2.45650
   6  -0.00002  -0.64306   3.34932
   6  -0.00024  -0.53822   4.74726
   6  -0.00040   0.78264   5.15343
  16  -0.00013   1.92111   3.84098
   6  -0.00000   0.60439   2.71047
   1   1.28613   3.40603  -1.67776
   1   2.17784   2.03955  -2.36816
   1   1.28697   3.14793  -3.42355
   1  -1.28503   3.40653  -1.67760
   1  -1.28629   3.14843  -3.42340
[...]
                -0.4985    24.9          89      1475.
                -0.4207    17.7         100      1538.
 101      1589.  0.7322    53.6    97.4 101      1541.
 102      1646.  0.3202    10.3    99.8 101      1541.
                -0.7582    57.5         102      1639.
 103      3023.  0.9910    98.2   100.0 104      3037.
 104      3023.  0.9907    98.2   100.0 103      3036.
 105      3027.  0.9935    98.7   100.0 105      3039.
 106      3027.  0.9938    98.8   100.0 106      3039.
 107      3084.  0.7557    57.1   100.0 108      3105.
                -0.4591    21.1         111      3113.
                -0.3678    13.5         112      3113.
 108      3084.  0.4385    19.2   100.0 107      3105.
                 0.6306    39.8         108      3105.
                 0.3904    15.2         111      3113.
                 0.4497    20.2         112      3113.
 109      3090.  0.7220    52.1   100.1 109      3110.
                 0.3530    12.5         113      3115.
                -0.4634    21.5         114      3115.
 110      3090. -0.7120    50.7   100.1 110      3110.
                -0.4577    20.9         113      3115.
                 0.3544    12.6         114      3115.
 111      3104. -0.5490    30.1   100.0 107      3105.
                 0.7177    51.5         111      3113.
 112      3104.  0.5629    31.7   100.0 107      3105.
                -0.7301    53.3         112      3113.
 113      3105. -0.4511    20.3   100.0 109      3110.
                -0.3563    12.7         110      3110.
                -0.7174    51.5         114      3115.
 114      3105. -0.3388    11.5   100.0 109      3110.
                -0.4594    21.1         110      3110.
                 0.7213    52.0         113      3115.
 115      3162. -0.9999   100.0   100.0 115      3182.
 116      3163. -0.9999   100.0   100.0 116      3183.
 117      3197.  0.9900    98.0   100.0 117      3216.
 118      3197.  0.9903    98.1   100.0 118      3216.
 119      3243.  0.9903    98.1   100.0 119      3240.
 120      3243. -0.9906    98.1   100.0 120      3240.
 nber times 1st assigned=           1           0
 nber times 1st assigned=           2           0
 nber times 1st assigned=           3           0
 nber times 1st assigned=           4           0
 nber times 1st assigned=           5           0
 nber times 1st assigned=           6           0
 nber times 1st assigned=           7           0
 nber times 1st assigned=           8           0
 nber times 1st assigned=           9           0
 nber times 1st assigned=          10           0
 nber times 1st assigned=          11           0
 nber times 1st assigned=          12           0
 nber times 1st assigned=          13           0
 nber times 1st assigned=          14           0
 nber times 1st assigned=          15           0
 nber times 1st assigned=          16           0
 nber times 1st assigned=          17           0
 nber times 1st assigned=          18           0
 nber times 1st assigned=          19           0
 nber times 1st assigned=          20           0
 nber times 1st assigned=          21           0
 nber times 1st assigned=          22           0
 nber times 1st assigned=          23           0
 nber times 1st assigned=          24           0
 nber times 1st assigned=          25           0
 nber times 1st assigned=          26           0
 nber times 1st assigned=          27           0
 nber times 1st assigned=          28           0
 nber times 1st assigned=          29           0
 nber times 1st assigned=          30           0
 nber times 1st assigned=          31           0
 nber times 1st assigned=          32           0
 nber times 1st assigned=          33           0
 nber times 1st assigned=          34           0
 nber times 1st assigned=          35           0
 nber times 1st assigned=          36           0
 nber times 1st assigned=          37           0
 nber times 1st assigned=          38           0
 nber times 1st assigned=          39           0
 nber times 1st assigned=          40           0
 nber times 1st assigned=          41           0
 nber times 1st assigned=          42           0
 nber times 1st assigned=          43           0
 nber times 1st assigned=          44           0
 nber times 1st assigned=          45           0
 nber times 1st assigned=          46           0
 nber times 1st assigned=          47           0
 nber times 1st assigned=          48           0
 nber times 1st assigned=          49           0
 nber times 1st assigned=          50           0
 nber times 1st assigned=          51           0
 nber times 1st assigned=          52           0
 nber times 1st assigned=          53           0
 nber times 1st assigned=          54           0
 nber times 1st assigned=          55           0
 nber times 1st assigned=          56           0
 nber times 1st assigned=          57           0
 nber times 1st assigned=          58           0
 nber times 1st assigned=          59           0
 nber times 1st assigned=          60           0
 nber times 1st assigned=          61           0
 nber times 1st assigned=          62           0
 nber times 1st assigned=          63           0
 nber times 1st assigned=          64           0
 nber times 1st assigned=          65           0
 nber times 1st assigned=          66           0
 nber times 1st assigned=          67           0
 nber times 1st assigned=          68           0
 nber times 1st assigned=          69           0
 nber times 1st assigned=          70           0
 nber times 1st assigned=          71           0
 nber times 1st assigned=          72           0
 nber times 1st assigned=          73           0
 nber times 1st assigned=          74           0
 nber times 1st assigned=          75           0
 nber times 1st assigned=          76           0
 nber times 1st assigned=          77           0
 nber times 1st assigned=          78           0
 nber times 1st assigned=          79           0
 nber times 1st assigned=          80           0
 nber times 1st assigned=          81           0
 nber times 1st assigned=          82           0
 nber times 1st assigned=          83           0
 nber times 1st assigned=          84           0
 nber times 1st assigned=          85           0
 nber times 1st assigned=          86           0
 nber times 1st assigned=          87           0
 nber times 1st assigned=          88           0
 nber times 1st assigned=          89           0
 nber times 1st assigned=          90           0
 nber times 1st assigned=          91           0
 nber times 1st assigned=          92           0
 nber times 1st assigned=          93           0
 nber times 1st assigned=          94           0
 nber times 1st assigned=          95           0
 nber times 1st assigned=          96           0
 nber times 1st assigned=          97           0
 nber times 1st assigned=          98           0
 nber times 1st assigned=          99           0
 nber times 1st assigned=         100           0
 nber times 1st assigned=         101           0
 nber times 1st assigned=         102           0
 nber times 1st assigned=         103           0
 nber times 1st assigned=         104           0
 nber times 1st assigned=         105           0
 nber times 1st assigned=         106           0
 nber times 1st assigned=         107           0
 nber times 1st assigned=         108           0
 nber times 1st assigned=         109           0
 nber times 1st assigned=         110           0
 nber times 1st assigned=         111           0
 nber times 1st assigned=         112           0
 nber times 1st assigned=         113           0
 nber times 1st assigned=         114           0
 nber times 1st assigned=         115           0
 nber times 1st assigned=         116           0
 nber times 1st assigned=         117           0
 nber times 1st assigned=         118           0
 nber times 1st assigned=         119           0
 nber times 1st assigned=         120           0
 modes represented=   139.554883599003     
 p1=
    0.   -0.   -0.   -0.   -0.   -0.   -0.   -0.   -0.   -4. -314.    0.    0.    0.   -5. -213.  256.   -0.   -5.    0.
   98.  142.    0.  296.  167.   75.   -0.    0.  -53.    0.    0.   -0.  -94.   -0. -129.   71. -113.  -54.   65.   -6.
   -3.   25.    0.   45.  -29.   -0.   -0.   -0.   15.  -11.    3.    0.   -0.    0.  -12.    0.   11.   -0.    0.    5.
    3.   -2.    0.   -0.   28.   -5.    1.   -4.    0.   -1.  -36.   29.  -23.  -37.   21.   23.   27.  -34.  -45.   -8.
   -3.   -1.    0.  -16.    2.   -4.    1.   -4.   -0.    0.   -1.   -0.    0.  -11.    7.   -4.    3.    7.  -12.    3.
   19.   -1.   -0.   -0.   -0.    0.    0.   -0.   -0.    0.    0.   -0.    0.    0.   -0.   -0.   -0.    0.    0.    0.
 p2=
    0.    0.   -0.    0.   -0.   -0.   -0.   -0.   -0.   -2.  309.   -0.    1.    1.  -41. -219.    0. -205. -139.    1.
   74. -153.   -1.  314. -165.  -45.   -0.    0.  -45.   -0.   -0.  109.    0.   -0.  142.   77.   98.  -50.   67.  -21.
   -0.    0.  -48.    0.  -32.    0.   -0.   -7.   -0.   15.   -1.  -13.   12.   -0.    0.    0.   -0.    0.    0.    7.
   -2.    2.   -0.   -0.   21.   -2.   -3.   -1.    0.   -0.  -37.  -34.  -26.   38.   26.   25.  -27.   21.  -15.  -15.
   36.    5.   -0.   -0.   -2.   -0.   -6.   -3.   -6.   -8.    0.    0.    0.    0.   -9.    8.   10.   -8.  -15.  -10.
   25.    3.   -0.    0.   -0.    1.    0.   -0.   -0.   -0.    0.    0.    0.    0.    0.    0.   -0.    0.    0.   -0.

 Displacement: in terms of nc of 1 THEN of nc of 2

   1     freq=    -0. Q=  0.000 lam=    -0.0     freq=    -0. Q=  0.000 lam=    -0.0
   2     freq=    -0. Q= -0.000 lam=    -0.0     freq=    -0. Q= -0.000 lam=    -0.0
   3     freq=    -0. Q= -0.000 lam=    -0.0     freq=    -0. Q= -0.000 lam=    -0.0
   4     freq=     0. Q= -0.000 lam=     0.0     freq=     0. Q= -0.000 lam=     0.0
   5     freq=     0. Q= -0.000 lam=     0.0     freq=     0. Q= -0.000 lam=     0.0
   6     freq=     0. Q= -0.000 lam=     0.0     freq=     0. Q= -0.000 lam=     0.0
   7     freq=    38. Q= -0.001 lam=     0.0     freq=    33. Q= -0.002 lam=     0.0
   8     freq=    57. Q= -0.009 lam=     0.0     freq=    58. Q= -0.014 lam=     0.0
   9     freq=    94. Q= -0.006 lam=     0.0     freq=    83. Q= -0.008 lam=     0.0
  10     freq=   105. Q= -0.172 lam=     1.5     freq=   104. Q= -0.097 lam=     0.5
  11     freq=   108. Q=-13.191 lam=  9412.9     freq=   111. Q=-13.143 lam=  9595.7
  12     freq=   122. Q=  0.001 lam=     0.0     freq=   131. Q=  0.022 lam=     0.0
  13     freq=   148. Q=  0.002 lam=     0.0     freq=   150. Q=  0.027 lam=     0.1
  14     freq=   167. Q=  0.017 lam=     0.0     freq=   167. Q=  0.032 lam=     0.1
  15     freq=   170. Q= -0.237 lam=     4.8     freq=   173. Q= -2.184 lam=   412.1
  16     freq=   208. Q=-12.419 lam= 16067.5     freq=   207. Q=-12.697 lam= 16719.3
  17     freq=   239. Q= 15.983 lam= 30588.4     freq=   227. Q=  0.026 lam=     0.1
  18     freq=   242. Q= -0.021 lam=     0.1     freq=   240. Q=-12.812 lam= 19733.5
  19     freq=   248. Q= -0.344 lam=    14.7     freq=   242. Q= -8.747 lam=  9255.1
  20     freq=   248. Q=  0.028 lam=     0.1     freq=   243. Q=  0.088 lam=     0.9
  21     freq=   274. Q=  6.544 lam=  5873.0     freq=   269. Q=  4.883 lam=  3210.5
  22     freq=   286. Q=  9.649 lam= 13298.6     freq=   280. Q= 10.302 lam= 14844.1
  23     freq=   298. Q=  0.028 lam=     0.1     freq=   286. Q=  0.070 lam=     0.7
  24     freq=   299. Q= 20.646 lam= 63678.0     freq=   297. Q= 21.875 lam= 71167.8
  25     freq=   317. Q= 12.020 lam= 22895.6     freq=   316. Q= 11.801 lam= 22022.5
  26     freq=   368. Q=  5.813 lam=  6218.5     freq=   371. Q=  3.501 lam=  2270.1
  27     freq=   377. Q= -0.006 lam=     0.0     freq=   376. Q= -0.016 lam=     0.1
  28     freq=   411. Q=  0.004 lam=     0.0     freq=   404. Q=  0.018 lam=     0.1
  29     freq=   420. Q= -4.356 lam=  3987.6     freq=   423. Q= -3.759 lam=  2988.0
  30     freq=   450. Q=  0.004 lam=     0.0     freq=   440. Q=  0.003 lam=     0.0
  31     freq=   460. Q=  0.002 lam=     0.0     freq=   452. Q=  0.002 lam=     0.0
  32     freq=   492. Q= -0.006 lam=     0.0     freq=   492. Q= -9.758 lam= 23421.7
  33     freq=   494. Q= -8.395 lam= 17396.9     freq=   492. Q= -0.001 lam=     0.0
  34     freq=   507. Q= -0.004 lam=     0.0     freq=   523. Q= -0.000 lam=     0.0
  35     freq=   538. Q=-12.077 lam= 39242.0     freq=   536. Q=-13.242 lam= 47007.3
  36     freq=   575. Q=  6.892 lam= 13666.1     freq=   572. Q=  7.409 lam= 15690.4
  37     freq=   577. Q=-10.976 lam= 34742.7     freq=   579. Q= -9.561 lam= 26477.5
  38     freq=   631. Q= -5.445 lam=  9359.4     freq=   630. Q= -5.086 lam=  8153.0
  39     freq=   658. Q=  6.771 lam= 15071.6     freq=   653. Q=  6.893 lam= 15512.9
  40     freq=   658. Q= -0.666 lam=   146.0     freq=   666. Q= -2.209 lam=  1624.2
  41     freq=   658. Q= -0.291 lam=    27.9     freq=   692. Q= -0.006 lam=     0.0
  42     freq=   659. Q=  2.609 lam=  2242.3     freq=   700. Q=  0.010 lam=     0.0
  43     freq=   704. Q=  0.006 lam=     0.0     freq=   722. Q=  5.195 lam=  9742.9
  44     freq=   729. Q=  4.895 lam=  8739.1     freq=   726. Q=  0.012 lam=     0.1
  45     freq=   732. Q= -3.198 lam=  3745.3     freq=   730. Q= -3.492 lam=  4447.7
  46     freq=   733. Q= -0.004 lam=     0.0     freq=   759. Q= -0.004 lam=     0.0
  47     freq=   748. Q= -0.004 lam=     0.0     freq=   771. Q= -0.004 lam=     0.0
  48     freq=   786. Q= -0.002 lam=     0.0     freq=   786. Q= -0.766 lam=   230.6
  49     freq=   798. Q=  1.712 lam=  1168.8     freq=   788. Q=  0.002 lam=     0.0
  50     freq=   808. Q= -1.296 lam=   678.6     freq=   799. Q= -1.681 lam=  1129.7
  51     freq=   838. Q=  0.363 lam=    55.3     freq=   839. Q=  0.060 lam=     1.5
  52     freq=   881. Q=  0.002 lam=     0.0     freq=   895. Q=  1.603 lam=  1149.7
  53     freq=   881. Q= -0.004 lam=     0.0     freq=   905. Q= -1.408 lam=   896.7
  54     freq=   890. Q=  0.007 lam=     0.0     freq=   907. Q=  0.005 lam=     0.0
  55     freq=   895. Q= -1.493 lam=   996.9     freq=   907. Q= -0.000 lam=     0.0
  56     freq=   898. Q=  0.003 lam=     0.0     freq=   912. Q=  0.000 lam=     0.0
  57     freq=   905. Q=  1.329 lam=   799.2     freq=   913. Q=  0.001 lam=     0.0
  58     freq=   948. Q= -0.002 lam=     0.0     freq=   954. Q= -0.002 lam=     0.0
  59     freq=   948. Q=  0.000 lam=     0.0     freq=   954. Q=  0.002 lam=     0.0
  60     freq=   979. Q=  0.634 lam=   196.9     freq=   978. Q=  0.890 lam=   387.2
  61     freq=   988. Q=  0.322 lam=    51.2     freq=   983. Q=  0.200 lam=    19.7
  62     freq=  1005. Q= -0.232 lam=    27.1     freq=   994. Q= -0.308 lam=    47.1
  63     freq=  1031. Q=  0.000 lam=     0.0     freq=  1031. Q=  0.002 lam=     0.0
  64     freq=  1031. Q= -0.001 lam=     0.0     freq=  1032. Q= -0.002 lam=     0.0
  65     freq=  1075. Q=  3.670 lam=  7240.2     freq=  1065. Q=  2.796 lam=  4163.3
  66     freq=  1104. Q= -0.723 lam=   288.2     freq=  1095. Q= -0.234 lam=    30.0
  67     freq=  1108. Q=  0.189 lam=    19.8     freq=  1105. Q=  0.420 lam=    97.6
  68     freq=  1108. Q= -0.590 lam=   192.6     freq=  1107. Q= -0.171 lam=    16.2
  69     freq=  1156. Q=  0.002 lam=     0.0     freq=  1149. Q=  0.001 lam=     0.0
  70     freq=  1157. Q= -0.196 lam=    22.2     freq=  1150. Q= -0.000 lam=     0.0
  71     freq=  1157. Q= -4.906 lam= 13929.9     freq=  1165. Q= -5.136 lam= 15361.7
  72     freq=  1168. Q=  4.008 lam=  9382.4     freq=  1168. Q=  4.665 lam= 12707.1
  73     freq=  1235. Q= -3.309 lam=  6763.8     freq=  1231. Q= -3.739 lam=  8601.7
  74     freq=  1237. Q= -5.217 lam= 16832.9     freq=  1233. Q= -5.400 lam= 17983.3
  75     freq=  1251. Q=  2.945 lam=  5423.8     freq=  1255. Q=  3.726 lam=  8712.1
  76     freq=  1252. Q=  3.301 lam=  6821.9     freq=  1263. Q=  3.527 lam=  7856.9
  77     freq=  1274. Q=  3.892 lam=  9644.6     freq=  1285. Q=  3.909 lam=  9817.3
  78     freq=  1279. Q= -4.924 lam= 15501.3     freq=  1293. Q= -3.107 lam=  6237.2
  79     freq=  1354. Q= -6.726 lam= 30633.3     freq=  1333. Q= -2.166 lam=  3126.8
  80     freq=  1355. Q= -1.133 lam=   869.0     freq=  1361. Q= -2.272 lam=  3515.2
  81     freq=  1388. Q= -0.388 lam=   104.3     freq=  1370. Q= -5.350 lam= 19611.5
  82     freq=  1397. Q= -0.090 lam=     5.6     freq=  1391. Q= -0.815 lam=   462.4
  83     freq=  1397. Q=  0.030 lam=     0.6     freq=  1405. Q=  0.000 lam=     0.0
  84     freq=  1397. Q= -2.419 lam=  4088.8     freq=  1405. Q= -0.012 lam=     0.1
  85     freq=  1421. Q=  0.314 lam=    70.0     freq=  1426. Q=  0.290 lam=    60.0
  86     freq=  1421. Q= -0.649 lam=   299.5     freq=  1429. Q= -0.051 lam=     1.9
  87     freq=  1448. Q=  0.191 lam=    26.4     freq=  1451. Q=  0.851 lam=   525.8
  88     freq=  1458. Q= -0.682 lam=   339.0     freq=  1466. Q= -0.494 lam=   178.9
  89     freq=  1484. Q= -0.004 lam=     0.0     freq=  1475. Q= -0.895 lam=   590.2
  90     freq=  1484. Q=  0.006 lam=     0.0     freq=  1475. Q=  1.189 lam=  1043.6
  91     freq=  1485. Q= -0.170 lam=    21.4     freq=  1484. Q= -0.001 lam=     0.0
  92     freq=  1489. Q= -0.000 lam=     0.0     freq=  1484. Q= -0.002 lam=     0.0
  93     freq=  1489. Q=  0.001 lam=     0.0     freq=  1489. Q=  0.022 lam=     0.3
  94     freq=  1504. Q= -1.716 lam=  2214.4     freq=  1489. Q= -0.014 lam=     0.1
  95     freq=  1504. Q=  1.168 lam=  1026.3     freq=  1505. Q=  1.337 lam=  1345.8
  96     freq=  1507. Q= -0.636 lam=   304.7     freq=  1506. Q= -1.188 lam=  1062.1
  97     freq=  1508. Q=  0.426 lam=   137.0     freq=  1508. Q=  1.536 lam=  1778.8
  98     freq=  1510. Q=  1.077 lam=   875.2     freq=  1512. Q=  1.197 lam=  1082.4
  99     freq=  1538. Q= -1.883 lam=  2726.4     freq=  1521. Q= -2.313 lam=  4068.1
 100     freq=  1553. Q=  0.506 lam=   198.6     freq=  1538. Q=  1.656 lam=  2109.8
 101     freq=  1589. Q=  3.007 lam=  7184.5     freq=  1541. Q=  3.884 lam= 11621.2
 102     freq=  1646. Q= -0.241 lam=    47.9     freq=  1639. Q= -0.489 lam=   196.2
 103     freq=  3023. Q= -0.000 lam=     0.0     freq=  3036. Q= -0.003 lam=     0.0
 104     freq=  3023. Q= -0.000 lam=     0.0     freq=  3037. Q= -0.001 lam=     0.0
 105     freq=  3027. Q= -0.098 lam=    14.6     freq=  3039. Q= -0.106 lam=    17.0
 106     freq=  3027. Q=  0.072 lam=     7.8     freq=  3039. Q=  0.142 lam=    30.8
 107     freq=  3084. Q=  0.000 lam=     0.0     freq=  3105. Q=  0.002 lam=     0.0
 108     freq=  3084. Q= -0.000 lam=     0.0     freq=  3105. Q= -0.001 lam=     0.0
 109     freq=  3090. Q= -0.089 lam=    12.3     freq=  3110. Q= -0.041 lam=     2.6
 110     freq=  3090. Q=  0.098 lam=    14.8     freq=  3110. Q=  0.046 lam=     3.3
 111     freq=  3104. Q=  0.000 lam=     0.0     freq=  3113. Q=  0.002 lam=     0.0
 112     freq=  3104. Q= -0.000 lam=     0.0     freq=  3113. Q= -0.002 lam=     0.0
 113     freq=  3105. Q=  0.056 lam=     4.8     freq=  3115. Q=  0.010 lam=     0.2
 114     freq=  3105. Q=  0.036 lam=     2.1     freq=  3115. Q=  0.006 lam=     0.1
 115     freq=  3162. Q= -0.052 lam=     4.3     freq=  3182. Q= -0.051 lam=     4.2
 116     freq=  3163. Q= -0.016 lam=     0.4     freq=  3183. Q= -0.067 lam=     7.2
 117     freq=  3197. Q= -0.024 lam=     1.0     freq=  3216. Q= -0.019 lam=     0.6
 118     freq=  3197. Q=  0.006 lam=     0.0     freq=  3216. Q=  0.041 lam=     2.8
 119     freq=  3243. Q=  0.018 lam=     0.5     freq=  3240. Q=  0.008 lam=     0.1
 120     freq=  3243. Q=  0.005 lam=     0.0     freq=  3240. Q=  0.025 lam=     1.0

 total reorg energy (cm**-1, kcal/mol)=   463694.   472197.   1325.75   1350.06
 Nber of molecules processed=           2
