 Enter ifcurve (0=recti, 1=orth curvi, 2=apprx curvi, -1 = skip
 And atom ordering flag, 0= never changes, 1= use the first order thenceforth,
  2= deduce it (does read on fail), 3= always read it
 Reading file: 
 ./PDI_6_C0S0.log                                                               
                                          
  Entering Gaussian System, Link 0=g16                                          
  
 Gaussian format, type: g94, g98, g03= F F F
  #P Geom=AllCheck Guess=TCheck SCRF=Check GenChk RB3LYP/6-311G(d,p) Fre    
 energy type= B3LYP   
 Original G94 input coords:
  6  1.393714  0.016339 -0.091575
  6  2.846170  0.026099 -0.067012
  6  4.056062  0.034031 -0.045840
  6  5.416688  0.042835 -0.021981
  6  6.623828  0.050646 -0.000784
  7  7.977545  0.059424  0.022957
  6  8.644004 -1.195630  0.199104
  8  8.004984 -2.213362  0.320066
  6 10.120764 -1.142378  0.219529
  6 10.822406 -2.321710  0.386847
  6 12.217400 -2.319921  0.412541
  6 12.954279 -1.145511  0.272423
  6 14.423381 -1.135753  0.298661
  6 15.174847 -2.297746  0.465491
  6 16.571552 -2.278152  0.489168
  6 17.257782 -1.087898  0.345431
  6 18.743609 -1.098322  0.374962
  8 19.365051 -2.135552  0.523651
  7 19.399093  0.130390  0.225503
  6 20.896952  0.168416  0.249482
  6 21.453282 -0.263771  1.610006
  6 21.502706 -0.598525 -0.930402
  6 18.732216  1.357675  0.050610
  8 19.344432  2.402367 -0.075980
  6 17.247660  1.327490  0.026894
  6 16.551251  2.508808 -0.141779
  6 15.154545  2.509987 -0.167617
  6 14.412976  1.338199 -0.026714
  6 12.943832  1.328829 -0.052075
  6 12.197197  2.493685 -0.217833
  6 10.802249  2.477352 -0.241113
  6 10.110605  1.288915 -0.098517
  6  8.633425  1.323007 -0.129909
  8  7.985965  2.332440 -0.273444
  6 10.822319  0.077832  0.072820
  6 12.251115  0.087107  0.097850
  6 15.112666  0.105810  0.148300
  6 16.539605  0.115128  0.173553
  1  1.002233 -0.891621  0.377269
  1  1.015264  0.055262 -1.117613
  1  0.987076  0.875427  0.450722
  1 10.267051 -3.244547  0.497303
  1 12.721258 -3.266905  0.545921
  1 14.682151 -3.253020  0.581811
  1 17.137749 -3.191588  0.620013
  1 21.117530  1.224869  0.114582
  1 21.281756 -1.322687  1.798578
  1 21.000154  0.318961  2.416149
  1 22.530239 -0.076145  1.628590
  1 21.333808 -1.671081 -0.844398
  1 22.580414 -0.416128 -0.956120
  1 21.083224 -0.247213 -1.876648
  1 17.109104  3.429884 -0.252963
  1 14.653847  3.458694 -0.301955
  1 12.693063  3.447229 -0.333208
  1 10.239139  3.392940 -0.370927
 nber atoms=          56
  SCF Done:  E(RB3LYP) =  -1641.05281323     A.U. after    1 cycles             
  
          23          40 "  -1641.05281323"
After scan for Atom:   Atom  AN      X      Y      Z        X      Y      Z        X      Y      Z   
After scan for Atom:   Atom  AN      X      Y      Z        X      Y      Z        X      Y      Z   
After scan for Atom:   Atom  AN      X      Y      Z        X      Y      Z        X      Y      Z   
After scan for Atom:   Atom  AN      X      Y      Z        X      Y      Z        X      Y      Z   
After scan for Atom:   Atom  AN      X      Y      Z        X      Y      Z        X      Y      Z   
After scan for Atom:   Atom  AN      X      Y      Z        X      Y      Z        X      Y      Z   
After scan for Atom:   Atom  AN      X      Y      Z        X      Y      Z        X      Y      Z   
After scan for Atom:   Atom  AN      X      Y      Z        X      Y      Z        X      Y      Z   
After scan for Atom:   Atom  AN      X      Y      Z        X      Y      Z        X      Y      Z   
After scan for Atom:   Atom  AN      X      Y      Z        X      Y      Z        X      Y      Z   
After scan for Atom:   Atom  AN      X      Y      Z        X      Y      Z        X      Y      Z   
After scan for Atom:   Atom  AN      X      Y      Z        X      Y      Z        X      Y      Z   
After scan for Atom:   Atom  AN      X      Y      Z        X      Y      Z        X      Y      Z   
After scan for Atom:   Atom  AN      X      Y      Z        X      Y      Z        X      Y      Z   
After scan for Atom:   Atom  AN      X      Y      Z        X      Y      Z        X      Y      Z   
After scan for Atom:   Atom  AN      X      Y      Z        X      Y      Z        X      Y      Z   
After scan for Atom:   Atom  AN      X      Y      Z        X      Y      Z        X      Y      Z   
After scan for Atom:   Atom  AN      X      Y      Z        X      Y      Z        X      Y      Z   
After scan for Atom:   Atom  AN      X      Y      Z        X      Y      Z        X      Y      Z   
After scan for Atom:   Atom  AN      X      Y      Z        X      Y      Z        X      Y      Z   
After scan for Atom:   Atom  AN      X      Y      Z        X      Y      Z        X      Y      Z   
After scan for Atom:   Atom  AN      X      Y      Z        X      Y      Z        X      Y      Z   
After scan for Atom:   Atom  AN      X      Y      Z        X      Y      Z        X      Y      Z   
After scan for Atom:   Atom  AN      X      Y      Z        X      Y      Z        X      Y      Z   
After scan for Atom:   Atom  AN      X      Y      Z        X      Y      Z        X      Y      Z   
After scan for Atom:   Atom  AN      X      Y      Z        X      Y      Z        X      Y      Z   
After scan for Atom:   Atom  AN      X      Y      Z        X      Y      Z        X      Y      Z   
After scan for Atom:   Atom  AN      X      Y      Z        X      Y      Z        X      Y      Z   
After scan for Atom:   Atom  AN      X      Y      Z        X      Y      Z        X      Y      Z   
After scan for Atom:   Atom  AN      X      Y      Z        X      Y      Z        X      Y      Z   
After scan for Atom:   Atom  AN      X      Y      Z        X      Y      Z        X      Y      Z   
After scan for Atom:   Atom  AN      X      Y      Z        X      Y      Z        X      Y      Z   
After scan for Atom:   Atom  AN      X      Y      Z        X      Y      Z        X      Y      Z   
After scan for Atom:   Atom  AN      X      Y      Z        X      Y      Z        X      Y      Z   
After scan for Atom:   Atom  AN      X      Y      Z        X      Y      Z        X      Y      Z   
After scan for Atom:   Atom  AN      X      Y      Z        X      Y      Z        X      Y      Z   
After scan for Atom:   Atom  AN      X      Y      Z        X      Y      Z        X      Y      Z   
After scan for Atom:   Atom  AN      X      Y      Z        X      Y      Z        X      Y      Z   
After scan for Atom:   Atom  AN      X      Y      Z        X      Y      Z        X      Y      Z   
After scan for Atom:   Atom  AN      X      Y      Z        X      Y      Z        X      Y      Z   
After scan for Atom:   Atom  AN      X      Y      Z        X      Y      Z        X      Y      Z   
After scan for Atom:   Atom  AN      X      Y      Z        X      Y      Z        X      Y      Z   
After scan for Atom:   Atom  AN      X      Y      Z        X      Y      Z        X      Y      Z   
After scan for Atom:   Atom  AN      X      Y      Z        X      Y      Z        X      Y      Z   
After scan for Atom:   Atom  AN      X      Y      Z        X      Y      Z        X      Y      Z   
After scan for Atom:   Atom  AN      X      Y      Z        X      Y      Z        X      Y      Z   
After scan for Atom:   Atom  AN      X      Y      Z        X      Y      Z        X      Y      Z   
After scan for Atom:   Atom  AN      X      Y      Z        X      Y      Z        X      Y      Z   
After scan for Atom:   Atom  AN      X      Y      Z        X      Y      Z        X      Y      Z   
After scan for Atom:   Atom  AN      X      Y      Z        X      Y      Z        X      Y      Z   
After scan for Atom:   Atom  AN      X      Y      Z        X      Y      Z        X      Y      Z   
After scan for Atom:   Atom  AN      X      Y      Z        X      Y      Z        X      Y      Z   
After scan for Atom:   Atom  AN      X      Y      Z        X      Y      Z        X      Y      Z   
After scan for Atom:   Atom  AN      X      Y      Z        X      Y      Z        X      Y      Z   
 g94    frequencies=
     0.0    0.0    0.0    0.0    0.0    0.0   -6.7   14.0   22.0   25.1
    31.6   52.5   59.0   73.9   84.7   88.3  103.8  104.2  137.7  156.4
   165.8  171.0  187.0  195.7  202.2  220.3  234.5  235.1  259.7  270.9
   280.0  299.3  310.7  313.6  318.5  346.2  358.3  389.2  394.0  423.9
   432.7  436.7  438.8  447.1  447.5  449.2  467.4  475.0  478.9  481.2
   505.3  510.3  513.5  533.8  547.7  551.0  577.7  584.7  596.3  623.6
   630.6  656.1  665.8  673.9  716.6  719.9  727.2  740.9  748.0  754.8
   769.3  780.9  787.5  804.6  814.7  825.6  844.9  864.5  865.3  869.7
   871.1  908.3  920.9  945.6  952.4  957.0  983.2  993.0  997.2 1001.9
  1006.3 1008.7 1046.6 1047.8 1064.2 1088.8 1101.5 1122.9 1154.2 1155.8
  1169.2 1180.1 1187.1 1195.5 1209.5 1214.3 1222.9 1240.7 1250.4 1268.3
  1286.6 1316.4 1321.0 1333.4 1335.9 1368.4 1370.1 1376.2 1382.0 1396.4
  1400.8 1407.3 1417.2 1417.7 1429.1 1436.7 1453.6 1472.8 1474.6 1476.5
  1485.3 1491.2 1498.2 1505.3 1506.2 1522.6 1542.7 1560.9 1603.7 1614.6
  1619.0 1630.7 1631.3 1648.6 1714.0 1752.2 1755.9 1784.5 2281.9 2371.8
  3018.2 3035.0 3039.0 3075.9 3077.3 3092.9 3096.1 3113.3 3133.1 3143.5
  3194.8 3195.0 3201.7 3202.0 3209.0 3209.3 3219.4 3219.6
 g94    symmetries=
                                                 A      A      A      A
       A      A      A      A      A      A      A      A      A      A
       A      A      A      A      A      A      A      A      A      A
       A      A      A      A      A      A      A      A      A      A
       A      A      A      A      A      A      A      A      A      A
       A      A      A      A      A      A      A      A      A      A
       A      A      A      A      A      A      A      A      A      A
       A      A      A      A      A      A      A      A      A      A
       A      A      A      A      A      A      A      A      A      A
       A      A      A      A      A      A      A      A      A      A
       A      A      A      A      A      A      A      A      A      A
       A      A      A      A      A      A      A      A      A      A
       A      A      A      A      A      A      A      A      A      A
       A      A      A      A      A      A      A      A      A      A
       A      A      A      A      A      A      A      A      A      A
       A      A      A      A      A      A      A      A      A      A
       A      A      A      A      A      A      A      A
 atomic masses:
 12.0000 12.0000 12.0000 12.0000 12.0000 14.0031 12.0000 15.9949 12.0000 12.0000
 12.0000 12.0000 12.0000 12.0000 12.0000 12.0000 12.0000 15.9949 14.0031 12.0000
 12.0000 12.0000 12.0000 15.9949 12.0000 12.0000 12.0000 12.0000 12.0000 12.0000
 12.0000 12.0000 12.0000 15.9949 12.0000 12.0000 12.0000 12.0000  1.0078  1.0078
  1.0078  1.0078  1.0078  1.0078  1.0078  1.0078  1.0078  1.0078  1.0078  1.0078
  1.0078  1.0078  1.0078  1.0078  1.0078  1.0078
 looking for force constants in 
 ./PDI_6_C0S0.fchk                                                              
  
 Cartesian Force Constants                  R   N=       14196                  
  
 n3=         168       14196
 g94-fc frequencies=
    -6.7   -1.5   -0.7   -0.0   -0.0    0.0    3.4   14.0   22.0   25.1
    31.6   52.5   59.0   73.9   84.7   88.3  103.8  104.2  137.7  156.4
   165.8  171.0  187.0  195.7  202.2  220.3  234.5  235.1  259.7  270.9
   280.0  299.3  310.7  313.6  318.5  346.2  358.3  389.2  394.0  423.9
   432.7  436.7  438.8  447.1  447.5  449.2  467.4  475.0  478.9  481.2
   505.4  510.3  513.6  533.8  547.8  551.0  577.8  584.7  596.3  623.6
   630.6  656.1  665.8  674.0  716.6  720.0  727.2  740.9  748.0  754.8
   769.3  781.0  787.5  804.6  814.7  825.6  845.0  864.5  865.3  869.7
   871.2  908.4  920.9  945.6  952.4  957.1  983.3  993.1  997.2 1001.9
  1006.3 1008.7 1046.6 1047.8 1064.3 1088.8 1101.6 1122.9 1154.2 1155.8
  1169.3 1180.1 1187.1 1195.5 1209.6 1214.4 1222.9 1240.8 1250.4 1268.3
  1286.6 1316.4 1321.0 1333.4 1335.9 1368.5 1370.2 1376.2 1382.0 1396.4
  1400.8 1407.3 1417.2 1417.7 1429.2 1436.8 1453.6 1472.9 1474.7 1476.6
  1485.4 1491.2 1498.2 1505.3 1506.2 1522.6 1542.7 1560.9 1603.7 1614.6
  1619.0 1630.8 1631.4 1648.6 1714.0 1752.2 1755.9 1784.5 2281.9 2371.9
  3018.3 3035.1 3039.1 3076.0 3077.3 3093.0 3096.2 3113.4 3133.2 3143.6
  3194.8 3195.1 3201.8 3202.1 3209.1 3209.4 3219.5 3219.7
 at 99999: n3=         168
 symm operator            1 :  F  nop=           0
 symm operator            2 :  F  nop=           0
 symm operator            3 :  F  nop=           0
 symm operator            4 :  F  nop=           0
 symm operator            5 :  F  nop=           0
 symm operator            6 :  F  nop=           0
 symm operator            7 :  F  nop=           0
 The point group of the molecule is  C1
 Symmetry rotation matrix:
   1.00000   0.00000   0.00000
   0.00000   1.00000   0.00000
   0.00000   0.00000   1.00000

 Projecting out zero-frequency components
 generating redundant internal coords
         300        3600          56
 search for int coords
   1 str   2   1   1.453
   2 str   3   2   1.210
   3 str   4   3   1.361
   4 str   5   4   1.207
   5 str   6   5   1.354
   6 str   7   6   1.432
   7 str   8   7   1.208
   8 str   9   7   1.478
   9 str  10   9   1.382
  10 str  11  10   1.395
  11 str  12  11   1.394
  12 str  13  12   1.469
  13 str  14  13   1.394
  14 str  15  14   1.397
  15 str  16  15   1.381
  16 str  17  16   1.486
  17 str  18  17   1.218
  18 str  19  17   1.401
  19 str  20  19   1.499
  20 str  21  20   1.532
  21 str  22  20   1.532
  22 str  23  19   1.408
  23 str  24  23   1.217
  24 str  25  23   1.485
  25 str  26  25   1.382
  26 str  27  26   1.397
  27 str  28  27   1.394
  28 str  29  28   1.469
  29 str  30  29   1.393
  30 str  31  30   1.395
  31 str  32  31   1.382
  32 str  33   6   1.432
  33 str  33  32   1.478
  34 str  34  33   1.208
  35 str  35   9   1.415
  36 str  35  32   1.415
  37 str  36  12   1.430
  38 str  36  29   1.430
  39 str  36  35   1.429
  40 str  37  13   1.428
  41 str  37  28   1.428
  42 str  38  16   1.412
  43 str  38  25   1.412
  44 str  38  37   1.427
  45 str  39   1   1.094
  46 str  40   1   1.094
  47 str  41   1   1.094
  48 str  42  10   1.083
  49 str  43  11   1.081
  50 str  44  14   1.081
  51 str  45  15   1.083
  52 str  46  20   1.088
  53 str  47  21   1.089
  54 str  48  21   1.093
  55 str  49  21   1.093
  56 str  50  22   1.089
  57 str  51  22   1.093
  58 str  52  22   1.093
  59 str  53  26   1.083
  60 str  54  27   1.081
  61 str  55  30   1.081
  62 str  56  31   1.083
 nber stretches=          62
  63 lin ben   1   2   3
  65 ben   2   1  39
  66 ben   2   1  40
  67 ben   2   1  41
 Extend lin bond           1           1           2           4
  68 lin ben   2   3   4
  70 lin ben   3   4   5
 Extend lin bond           2           3           4           6
  72 lin ben   4   5   6
  74 ben   5   6   7
  75 prop tor   5   6   7   8
  76 prop tor   5   6   7   9
  77 ben   5   6  33
  78 prop tor   5   6  33  32
  79 prop tor   5   6  33  34
  80 ben   6   7   8
  81 ben   6   7   9
  82 prop tor   6   7   9  10
  83 prop tor   6   7   9  35
  84 ben   6  33  32
  85 ben   6  33  34
  86 ben   7   6  33
  87 prop tor   7   6  33  32
  88 prop tor   7   6  33  34
  89 ben   7   9  10
  90 prop tor   7   9  10  11
  91 prop tor   7   9  10  42
  92 ben   7   9  35
  93 prop tor   7   9  35  32
  94 prop tor   7   9  35  36
  95 ben   8   7   9
  96 prop tor   8   7   9  10
  97 prop tor   8   7   9  35
  98 ben   9  10  11
  99 prop tor   9  10  11  12
 100 prop tor   9  10  11  43
 101 ben   9  10  42
 102 ben   9  35  32
 103 ben   9  35  36
 104 prop tor   9  35  36  12
 105 prop tor   9  35  36  29
 106 ben  10   9  35
 107 prop tor  10   9  35  32
 108 prop tor  10   9  35  36
 109 ben  10  11  12
 110 prop tor  10  11  12  13
 111 prop tor  10  11  12  36
 112 ben  10  11  43
 113 ben  11  10  42
 114 ben  11  12  13
 115 prop tor  11  12  13  14
 116 prop tor  11  12  13  37
 117 ben  11  12  36
 118 prop tor  11  12  36  29
 119 prop tor  11  12  36  35
 120 ben  12  11  43
 121 ben  12  13  14
 122 prop tor  12  13  14  15
 123 prop tor  12  13  14  44
 124 ben  12  13  37
 125 prop tor  12  13  37  28
 126 prop tor  12  13  37  38
 127 ben  12  36  29
 128 ben  12  36  35
 129 ben  13  12  36
 130 prop tor  13  12  36  29
 131 prop tor  13  12  36  35
 132 ben  13  14  15
 133 prop tor  13  14  15  16
 134 prop tor  13  14  15  45
 135 ben  13  14  44
 136 ben  13  37  28
 137 ben  13  37  38
 138 prop tor  13  37  38  16
 139 prop tor  13  37  38  25
 140 ben  14  13  37
 141 prop tor  14  13  37  28
 142 prop tor  14  13  37  38
 143 ben  14  15  16
 144 prop tor  14  15  16  17
 145 prop tor  14  15  16  38
 146 ben  14  15  45
 147 ben  15  14  44
 148 ben  15  16  17
 149 prop tor  15  16  17  18
 150 prop tor  15  16  17  19
 151 ben  15  16  38
 152 prop tor  15  16  38  25
 153 prop tor  15  16  38  37
 154 ben  16  15  45
 155 ben  16  17  18
 156 ben  16  17  19
 157 prop tor  16  17  19  20
 158 prop tor  16  17  19  23
 159 ben  16  38  25
 160 ben  16  38  37
 161 ben  17  16  38
 162 prop tor  17  16  38  25
 163 prop tor  17  16  38  37
 164 ben  17  19  20
 165 prop tor  17  19  20  21
 166 prop tor  17  19  20  22
 167 prop tor  17  19  20  46
 168 ben  17  19  23
 169 prop tor  17  19  23  24
 170 prop tor  17  19  23  25
 171 ben  18  17  19
 172 prop tor  18  17  19  20
 173 prop tor  18  17  19  23
 174 ben  19  20  21
 175 prop tor  19  20  21  47
 176 prop tor  19  20  21  48
 177 prop tor  19  20  21  49
 178 ben  19  20  22
 179 prop tor  19  20  22  50
 180 prop tor  19  20  22  51
 181 prop tor  19  20  22  52
 182 ben  19  20  46
 183 ben  19  23  24
 184 ben  19  23  25
 185 prop tor  19  23  25  26
 186 prop tor  19  23  25  38
 187 ben  20  19  23
 188 prop tor  20  19  23  24
 189 prop tor  20  19  23  25
 190 ben  20  21  47
 191 ben  20  21  48
 192 ben  20  21  49
 193 ben  20  22  50
 194 ben  20  22  51
 195 ben  20  22  52
 196 ben  21  20  22
 197 prop tor  21  20  22  50
 198 prop tor  21  20  22  51
 199 prop tor  21  20  22  52
 200 ben  21  20  46
 201 prop tor  22  20  21  47
 202 prop tor  22  20  21  48
 203 prop tor  22  20  21  49
 204 ben  22  20  46
 205 prop tor  23  19  20  21
 206 prop tor  23  19  20  22
 207 prop tor  23  19  20  46
 208 ben  23  25  26
 209 prop tor  23  25  26  27
 210 prop tor  23  25  26  53
 211 ben  23  25  38
 212 prop tor  23  25  38  16
 213 prop tor  23  25  38  37
 214 ben  24  23  25
 215 prop tor  24  23  25  26
 216 prop tor  24  23  25  38
 217 ben  25  26  27
 218 prop tor  25  26  27  28
 219 prop tor  25  26  27  54
 220 ben  25  26  53
 221 ben  25  38  37
 222 ben  26  25  38
 223 prop tor  26  25  38  16
 224 prop tor  26  25  38  37
 225 ben  26  27  28
 226 prop tor  26  27  28  29
 227 prop tor  26  27  28  37
 228 ben  26  27  54
 229 ben  27  26  53
 230 ben  27  28  29
 231 prop tor  27  28  29  30
 232 prop tor  27  28  29  36
 233 ben  27  28  37
 234 prop tor  27  28  37  13
 235 prop tor  27  28  37  38
 236 ben  28  27  54
 237 ben  28  29  30
 238 prop tor  28  29  30  31
 239 prop tor  28  29  30  55
 240 ben  28  29  36
 241 prop tor  28  29  36  12
 242 prop tor  28  29  36  35
 243 ben  28  37  38
 244 prop tor  28  37  38  16
 245 prop tor  28  37  38  25
 246 ben  29  28  37
 247 prop tor  29  28  37  13
 248 prop tor  29  28  37  38
 249 ben  29  30  31
 250 prop tor  29  30  31  32
 251 prop tor  29  30  31  56
 252 ben  29  30  55
 253 ben  29  36  35
 254 ben  30  29  36
 255 prop tor  30  29  36  12
 256 prop tor  30  29  36  35
 257 ben  30  31  32
 258 prop tor  30  31  32  33
 259 prop tor  30  31  32  35
 260 ben  30  31  56
 261 ben  31  30  55
 262 ben  31  32  33
 263 prop tor  31  32  33   6
 264 prop tor  31  32  33  34
 265 ben  31  32  35
 266 prop tor  31  32  35   9
 267 prop tor  31  32  35  36
 268 ben  32  31  56
 269 ben  32  33  34
 270 ben  32  35  36
 271 prop tor  32  35  36  12
 272 prop tor  32  35  36  29
 273 prop tor  33   6   7   8
 274 prop tor  33   6   7   9
 275 ben  33  32  35
 276 prop tor  33  32  35   9
 277 prop tor  33  32  35  36
 278 prop tor  35   9  10  11
 279 prop tor  35   9  10  42
 280 prop tor  35  32  33   6
 281 prop tor  35  32  33  34
 282 prop tor  36  12  13  14
 283 prop tor  36  12  13  37
 284 prop tor  36  29  30  31
 285 prop tor  36  29  30  55
 286 prop tor  37  13  14  15
 287 prop tor  37  13  14  44
 288 prop tor  37  28  29  30
 289 prop tor  37  28  29  36
 290 prop tor  38  16  17  18
 291 prop tor  38  16  17  19
 292 prop tor  38  25  26  27
 293 prop tor  38  25  26  53
 294 prop tor  39   1   2   3
 295 ben  39   1  40
 296 ben  39   1  41
 297 prop tor  40   1   2   3
 298 ben  40   1  41
 299 prop tor  41   1   2   3
 300 prop tor  42  10  11  12
 301 prop tor  42  10  11  43
 302 prop tor  43  11  12  13
 303 prop tor  43  11  12  36
 304 prop tor  44  14  15  16
 305 prop tor  44  14  15  45
 306 prop tor  45  15  16  17
 307 prop tor  45  15  16  38
 308 prop tor  46  20  21  47
 309 prop tor  46  20  21  48
 310 prop tor  46  20  21  49
 311 prop tor  46  20  22  50
 312 prop tor  46  20  22  51
 313 prop tor  46  20  22  52
 314 ben  47  21  48
 315 ben  47  21  49
 316 ben  48  21  49
 317 ben  50  22  51
 318 ben  50  22  52
 319 ben  51  22  52
 320 prop tor  53  26  27  28
 321 prop tor  53  26  27  54
 322 prop tor  54  27  28  29
 323 prop tor  54  27  28  37
 324 prop tor  55  30  31  32
 325 prop tor  55  30  31  56
 326 prop tor  56  31  32  33
 327 prop tor  56  31  32  35
 328 lin bend prop tor   2   1   4   3
 329 lin bend prop tor   2   1   4   5
 330 lin bend prop tor  39   1   4   3
 331 lin bend prop tor  39   1   4   5
 332 lin bend prop tor  40   1   4   3
 333 lin bend prop tor  40   1   4   5
 334 lin bend prop tor  41   1   4   3
 335 lin bend prop tor  41   1   4   5
 nber bend=             110
 nber lin bend=           2
 nber prop tor=         163
 nber impr tor=           0
 nber tot redund int=         335
 Eigenvalues of G in red int coords
    Gval -0.00000000 -0.00000000 -0.00000000 -0.00000000 -0.00000000 -0.00000000 -0.00000000 -0.00000000
    Gval -0.00000000 -0.00000000 -0.00000000 -0.00000000 -0.00000000 -0.00000000 -0.00000000 -0.00000000
    Gval -0.00000000 -0.00000000 -0.00000000 -0.00000000 -0.00000000 -0.00000000 -0.00000000 -0.00000000
    Gval -0.00000000 -0.00000000 -0.00000000 -0.00000000 -0.00000000 -0.00000000 -0.00000000 -0.00000000
    Gval -0.00000000 -0.00000000 -0.00000000 -0.00000000 -0.00000000 -0.00000000 -0.00000000 -0.00000000
    Gval -0.00000000 -0.00000000 -0.00000000 -0.00000000 -0.00000000 -0.00000000 -0.00000000 -0.00000000
    Gval -0.00000000 -0.00000000 -0.00000000 -0.00000000 -0.00000000 -0.00000000 -0.00000000 -0.00000000
    Gval -0.00000000 -0.00000000 -0.00000000 -0.00000000 -0.00000000 -0.00000000 -0.00000000 -0.00000000
    Gval -0.00000000 -0.00000000 -0.00000000 -0.00000000 -0.00000000 -0.00000000 -0.00000000 -0.00000000
    Gval -0.00000000 -0.00000000 -0.00000000 -0.00000000 -0.00000000 -0.00000000 -0.00000000 -0.00000000
    Gval -0.00000000 -0.00000000 -0.00000000 -0.00000000 -0.00000000 -0.00000000  0.00000000  0.00000000
    Gval  0.00000000  0.00000000  0.00000000  0.00000000  0.00000000  0.00000000  0.00000000  0.00000000
    Gval  0.00000000  0.00000000  0.00000000  0.00000000  0.00000000  0.00000000  0.00000000  0.00000000
    Gval  0.00000000  0.00000000  0.00000000  0.00000000  0.00000000  0.00000000  0.00000000  0.00000000
    Gval  0.00000000  0.00000000  0.00000000  0.00000000  0.00000000  0.00000000  0.00000000  0.00000000
    Gval  0.00000000  0.00000000  0.00000000  0.00000000  0.00000000  0.00000000  0.00000000  0.00000000
    Gval  0.00000000  0.00000000  0.00000000  0.00000000  0.00000000  0.00000000  0.00000000  0.00000000
    Gval  0.00000000  0.00000000  0.00000000  0.00000000  0.00000000  0.00000000  0.00000000  0.00000000
    Gval  0.00000000  0.00000000  0.00000000  0.00000000  0.00000000  0.00000000  0.00000000  0.00000000
    Gval  0.00000000  0.00000000  0.00000000  0.00000000  0.00000000  0.00000000  0.00000000  0.00000000
    Gval  0.00000000  0.00000000  0.00000000  0.00000000  0.00000000  0.00000000  0.00000000  0.00000000
    Gval  0.00000000  0.00000000  0.00000000  0.00000000  0.00000000  0.00000000  0.00000038  0.00000058
    Gval  0.00000172  0.00000197  0.00000353  0.00000452  0.00000560  0.00000908  0.00001064  0.00001106
    Gval  0.00001254  0.00001473  0.00001553  0.00001683  0.00001753  0.00001832  0.00002074  0.00002135
    Gval  0.00002359  0.00002441  0.00002536  0.00002688  0.00002933  0.00003072  0.00003574  0.00003795
    Gval  0.00003993  0.00004920  0.00005110  0.00005171  0.00005339  0.00005400  0.00005796  0.00006150
    Gval  0.00006362  0.00006882  0.00007238  0.00007446  0.00008138  0.00008247  0.00008513  0.00008741
    Gval  0.00009223  0.00009392  0.00009432  0.00009522  0.00009605  0.00011583  0.00012269  0.00012649
    Gval  0.00013151  0.00013629  0.00013699  0.00013805  0.00014156  0.00015643  0.00016042  0.00016686
    Gval  0.00016865  0.00017457  0.00018073  0.00020192  0.00022276  0.00022611  0.00023031  0.00023095
    Gval  0.00026749  0.00028319  0.00028484  0.00029375  0.00031536  0.00034277  0.00036129  0.00037529
    Gval  0.00038340  0.00039157  0.00039257  0.00040211  0.00041776  0.00042334  0.00043006  0.00043313
    Gval  0.00044162  0.00044267  0.00046236  0.00046245  0.00046630  0.00046720  0.00049227  0.00052950
    Gval  0.00053348  0.00053716  0.00053851  0.00054536  0.00055416  0.00055575  0.00055604  0.00055664
    Gval  0.00056163  0.00059759  0.00059865  0.00059943  0.00059969  0.00060001  0.00060220  0.00061520
    Gval  0.00064194  0.00064560  0.00064616  0.00064810  0.00066939  0.00069108  0.00069282  0.00069794
    Gval  0.00078066  0.00082022  0.00092764  0.00098475  0.00109555  0.00109651  0.00109725  0.00109776
    Gval  0.00114374  0.00116257  0.00116284  0.00116309  0.00116342  0.00117180  0.00117185  0.00117318
    Gval  0.00118660  0.00120238  0.00129540  0.00130942  0.00149301  0.00150620  0.00172226  0.00174337
    Gval  0.00190655  0.00229302  0.00235342  0.00252569  0.00253571  0.00256165  0.00278588  0.00281207
    Gval  0.00292282  0.00295841  0.00302366  0.00304215  0.00308145  0.00309711  0.00365491  0.00365689
    Gval  0.00370359  0.00370536  0.00394367  2.69556095************************************
  3.819333886268434E-007  3.819333886268434E-007
  5.815435116963936E-007  3.819333886268434E-007
  1.718412550268781E-006  3.819333886268434E-007
  1.967270298553683E-006  3.819333886268434E-007
  3.528501843419957E-006  3.819333886268434E-007
  4.518146475837722E-006  3.819333886268434E-007
  5.598572189949907E-006  3.819333886268434E-007
  9.083529084346692E-006  3.819333886268434E-007
  1.064169714931207E-005  3.819333886268434E-007
  1.106054113164304E-005  3.819333886268434E-007
  1.253684022491366E-005  3.819333886268434E-007
  1.472627067278703E-005  3.819333886268434E-007
  1.553010962708604E-005  3.819333886268434E-007
  1.683354808221899E-005  3.819333886268434E-007
  1.753010768598650E-005  3.819333886268434E-007
  1.831711684541491E-005  3.819333886268434E-007
  2.074020156658147E-005  3.819333886268434E-007
  2.134651550191094E-005  3.819333886268434E-007
  2.359324792087696E-005  3.819333886268434E-007
  2.441168375895156E-005  3.819333886268434E-007
  2.535560247285773E-005  3.819333886268434E-007
  2.687998478546456E-005  3.819333886268434E-007
  2.932511172510459E-005  3.819333886268434E-007
  3.071893273691015E-005  3.819333886268434E-007
  3.573812648615629E-005  3.819333886268434E-007
  3.795006290869034E-005  3.819333886268434E-007
  3.993419180553416E-005  3.819333886268434E-007
  4.919717252264957E-005  3.819333886268434E-007
  5.109796020299217E-005  3.819333886268434E-007
  5.170853723047255E-005  3.819333886268434E-007
  5.339461893427311E-005  3.819333886268434E-007
  5.399963333124184E-005  3.819333886268434E-007
  5.795598775933353E-005  3.819333886268434E-007
  6.150265220114161E-005  3.819333886268434E-007
  6.362156683035383E-005  3.819333886268434E-007
  6.882401423967630E-005  3.819333886268434E-007
  7.238338465871055E-005  3.819333886268434E-007
  7.446379831911334E-005  3.819333886268434E-007
  8.137781551111914E-005  3.819333886268434E-007
  8.246642743393568E-005  3.819333886268434E-007
  8.512527422784664E-005  3.819333886268434E-007
  8.740999858621582E-005  3.819333886268434E-007
  9.222912302028350E-005  3.819333886268434E-007
  9.392140147456228E-005  3.819333886268434E-007
  9.431610014153096E-005  3.819333886268434E-007
  9.521570251412050E-005  3.819333886268434E-007
  9.604601304874184E-005  3.819333886268434E-007
  1.158321651463900E-004  3.819333886268434E-007
  1.226937623700526E-004  3.819333886268434E-007
  1.264868163458338E-004  3.819333886268434E-007
  1.315146216553344E-004  3.819333886268434E-007
  1.362878536817470E-004  3.819333886268434E-007
  1.369873120253565E-004  3.819333886268434E-007
  1.380460053695424E-004  3.819333886268434E-007
  1.415600468384924E-004  3.819333886268434E-007
  1.564278554995592E-004  3.819333886268434E-007
  1.604218496716222E-004  3.819333886268434E-007
  1.668556942477176E-004  3.819333886268434E-007
  1.686546830160018E-004  3.819333886268434E-007
  1.745657223326250E-004  3.819333886268434E-007
  1.807306470151235E-004  3.819333886268434E-007
  2.019217722617003E-004  3.819333886268434E-007
  2.227591201571120E-004  3.819333886268434E-007
  2.261142634046449E-004  3.819333886268434E-007
  2.303054544572984E-004  3.819333886268434E-007
  2.309492386850416E-004  3.819333886268434E-007
  2.674887751408989E-004  3.819333886268434E-007
  2.831939242519922E-004  3.819333886268434E-007
  2.848421444213003E-004  3.819333886268434E-007
  2.937527335427657E-004  3.819333886268434E-007
  3.153645289269420E-004  3.819333886268434E-007
  3.427726367325922E-004  3.819333886268434E-007
  3.612875391540808E-004  3.819333886268434E-007
  3.752885908292705E-004  3.819333886268434E-007
  3.834046393314729E-004  3.819333886268434E-007
  3.915718643917092E-004  3.819333886268434E-007
  3.925716125159465E-004  3.819333886268434E-007
  4.021104387091819E-004  3.819333886268434E-007
  4.177554936479782E-004  3.819333886268434E-007
  4.233370827449976E-004  3.819333886268434E-007
  4.300589369182667E-004  3.819333886268434E-007
  4.331300818807440E-004  3.819333886268434E-007
  4.416202022009176E-004  3.819333886268434E-007
  4.426739521511783E-004  3.819333886268434E-007
  4.623556874960549E-004  3.819333886268434E-007
  4.624548148082645E-004  3.819333886268434E-007
  4.663017355305407E-004  3.819333886268434E-007
  4.671959243932840E-004  3.819333886268434E-007
  4.922726364730025E-004  3.819333886268434E-007
  5.295020859052318E-004  3.819333886268434E-007
  5.334770194269075E-004  3.819333886268434E-007
  5.371624008597573E-004  3.819333886268434E-007
  5.385083950274655E-004  3.819333886268434E-007
  5.453559794247421E-004  3.819333886268434E-007
  5.541606892859525E-004  3.819333886268434E-007
  5.557468530018149E-004  3.819333886268434E-007
  5.560351429840050E-004  3.819333886268434E-007
  5.566354778251776E-004  3.819333886268434E-007
  5.616284145011846E-004  3.819333886268434E-007
  5.975863249629045E-004  3.819333886268434E-007
  5.986549369695726E-004  3.819333886268434E-007
  5.994283911538858E-004  3.819333886268434E-007
  5.996948573084420E-004  3.819333886268434E-007
  6.000069050525777E-004  3.819333886268434E-007
  6.021953607465052E-004  3.819333886268434E-007
  6.151977714882093E-004  3.819333886268434E-007
  6.419415500531172E-004  3.819333886268434E-007
  6.456025220654596E-004  3.819333886268434E-007
  6.461554172747569E-004  3.819333886268434E-007
  6.480967126282638E-004  3.819333886268434E-007
  6.693915480328592E-004  3.819333886268434E-007
  6.910761541906672E-004  3.819333886268434E-007
  6.928166822808258E-004  3.819333886268434E-007
  6.979376981952765E-004  3.819333886268434E-007
  7.806629741201510E-004  3.819333886268434E-007
  8.202180677478798E-004  3.819333886268434E-007
  9.276440214237156E-004  3.819333886268434E-007
  9.847549679457062E-004  3.819333886268434E-007
  1.095549653836698E-003  3.819333886268434E-007
  1.096511108930575E-003  3.819333886268434E-007
  1.097249308403911E-003  3.819333886268434E-007
  1.097760931262866E-003  3.819333886268434E-007
  1.143743499683607E-003  3.819333886268434E-007
  1.162567593407250E-003  3.819333886268434E-007
  1.162837240020422E-003  3.819333886268434E-007
  1.163087231963406E-003  3.819333886268434E-007
  1.163419474215743E-003  3.819333886268434E-007
  1.171802782911482E-003  3.819333886268434E-007
  1.171851250847195E-003  3.819333886268434E-007
  1.173184162539078E-003  3.819333886268434E-007
  1.186595478066878E-003  3.819333886268434E-007
  1.202378897782048E-003  3.819333886268434E-007
  1.295400502714981E-003  3.819333886268434E-007
  1.309419570083377E-003  3.819333886268434E-007
  1.493010807202742E-003  3.819333886268434E-007
  1.506200217634745E-003  3.819333886268434E-007
  1.722260980920618E-003  3.819333886268434E-007
  1.743365062949184E-003  3.819333886268434E-007
  1.906545713708951E-003  3.819333886268434E-007
  2.293017017795849E-003  3.819333886268434E-007
  2.353417646691800E-003  3.819333886268434E-007
  2.525686972005074E-003  3.819333886268434E-007
  2.535709246284514E-003  3.819333886268434E-007
  2.561654121452265E-003  3.819333886268434E-007
  2.785876197734997E-003  3.819333886268434E-007
  2.812065422164106E-003  3.819333886268434E-007
  2.922823603378754E-003  3.819333886268434E-007
  2.958413419022346E-003  3.819333886268434E-007
  3.023659381119760E-003  3.819333886268434E-007
  3.042154029868111E-003  3.819333886268434E-007
  3.081452123666248E-003  3.819333886268434E-007
  3.097111980635670E-003  3.819333886268434E-007
  3.654905261632802E-003  3.819333886268434E-007
  3.656890084410175E-003  3.819333886268434E-007
  3.703592977211963E-003  3.819333886268434E-007
  3.705358308586628E-003  3.819333886268434E-007
  3.943673975140300E-003  3.819333886268434E-007
   2.69556095013147       3.819333886268434E-007
   1031.59764061480       3.819333886268434E-007
   2147.40895666184       3.819333886268434E-007
   4930.96938108957       3.819333886268434E-007
 cut=1d-8, nber non-redundant internal coords=         161
 Check on Eigenvals of non-red overlap matrix:
  0.00000038  0.00000058  0.00000172  0.00000197  0.00000353  0.00000452  0.00000560  0.00000908
  0.00001064  0.00001106  0.00001254  0.00001473  0.00001553  0.00001683  0.00001753  0.00001832
  0.00002074  0.00002135  0.00002359  0.00002441  0.00002536  0.00002688  0.00002933  0.00003072
  0.00003574  0.00003795  0.00003993  0.00004920  0.00005110  0.00005171  0.00005339  0.00005400
  0.00005796  0.00006150  0.00006362  0.00006882  0.00007238  0.00007446  0.00008138  0.00008247
  0.00008513  0.00008741  0.00009223  0.00009392  0.00009432  0.00009522  0.00009605  0.00011583
  0.00012269  0.00012649  0.00013151  0.00013629  0.00013699  0.00013805  0.00014156  0.00015643
  0.00016042  0.00016686  0.00016865  0.00017457  0.00018073  0.00020192  0.00022276  0.00022611
  0.00023031  0.00023095  0.00026749  0.00028319  0.00028484  0.00029375  0.00031536  0.00034277
  0.00036129  0.00037529  0.00038340  0.00039157  0.00039257  0.00040211  0.00041776  0.00042334
  0.00043006  0.00043313  0.00044162  0.00044267  0.00046236  0.00046245  0.00046630  0.00046720
  0.00049227  0.00052950  0.00053348  0.00053716  0.00053851  0.00054536  0.00055416  0.00055575
  0.00055604  0.00055664  0.00056163  0.00059759  0.00059865  0.00059943  0.00059969  0.00060001
  0.00060220  0.00061520  0.00064194  0.00064560  0.00064616  0.00064810  0.00066939  0.00069108
  0.00069282  0.00069794  0.00078066  0.00082022  0.00092764  0.00098475  0.00109555  0.00109651
  0.00109725  0.00109776  0.00114374  0.00116257  0.00116284  0.00116309  0.00116342  0.00117180
  0.00117185  0.00117318  0.00118660  0.00120238  0.00129540  0.00130942  0.00149301  0.00150620
  0.00172226  0.00174337  0.00190655  0.00229302  0.00235342  0.00252569  0.00253571  0.00256165
  0.00278588  0.00281207  0.00292282  0.00295841  0.00302366  0.00304215  0.00308145  0.00309711
  0.00365491  0.00365689  0.00370359  0.00370536  0.00394367  2.69556095************************
************
 Checking for correct frequencies
 recalc frequencies=
    -0.0   -0.0    0.0    0.0    0.0    0.0    0.0   14.0   22.0   25.1
    31.6   52.5   59.0   73.9   84.7   88.3  103.8  104.2  137.7  156.4
   165.8  171.0  187.0  195.7  202.2  220.3  234.5  235.1  259.7  270.9
   280.0  299.3  310.7  313.6  318.5  346.2  358.3  389.2  394.0  423.9
   432.7  436.7  438.8  447.1  447.5  449.2  467.4  475.0  478.9  481.2
   505.4  510.3  513.6  533.8  547.8  551.0  577.8  584.7  596.3  623.6
   630.6  656.1  665.8  674.0  716.6  720.0  727.2  740.9  748.0  754.8
   769.3  781.0  787.5  804.6  814.7  825.6  845.0  864.5  865.3  869.7
   871.2  908.4  920.9  945.6  952.4  957.1  983.3  993.1  997.2 1001.9
  1006.3 1008.7 1046.6 1047.8 1064.3 1088.8 1101.6 1122.9 1154.2 1155.8
  1169.3 1180.1 1187.1 1195.5 1209.6 1214.4 1222.9 1240.8 1250.4 1268.3
  1286.6 1316.4 1321.0 1333.4 1335.9 1368.5 1370.2 1376.2 1382.0 1396.4
  1400.8 1407.3 1417.2 1417.7 1429.2 1436.8 1453.6 1472.9 1474.7 1476.6
  1485.4 1491.2 1498.2 1505.3 1506.2 1522.6 1542.7 1560.9 1603.7 1614.6
  1619.0 1630.8 1631.4 1648.6 1714.0 1752.2 1755.9 1784.5 2281.9 2371.9
  3018.3 3035.1 3039.1 3076.0 3077.3 3093.0 3096.2 3113.4 3133.2 3143.6
  3194.8 3195.1 3201.8 3202.1 3209.1 3209.4 3219.5 3219.7
 recalc symmetries=
                                                                       
                                                                       
                                                                       
                                                                       
                                                                       
                                                                       
                                                                       
                                                                       
                                                                       
                                                                       
                                                                       
                                                                       
                                                                       
                                                                       
                                                                       
                                                                       
                                                         
 recalc freqs check OK
 Zero-point lengths:
 10.0000 10.0000 10.0000 10.0000 10.0000 10.0000 10.0000 66.2425 52.8520 49.5052
 44.1230 34.2037 32.2883 28.8436 26.9311 26.3777 24.3357 24.2858 21.1230 19.8214
 19.2551 18.9564 18.1300 17.7207 17.4351 16.7010 16.1886 16.1691 15.3837 15.0629
 14.8143 14.3289 14.0638 13.9986 13.8922 13.3242 13.0976 12.5658 12.4888 12.0403
 11.9174 11.8637 11.8345 11.7246 11.7196 11.6964 11.4674 11.3752 11.3287 11.3016
 11.0280 10.9748 10.9396 10.7299 10.5926 10.5612 10.3139 10.2523 10.1523  9.9277
  9.8722  9.6786  9.6074  9.5495  9.2609  9.2394  9.1934  9.1077  9.0645  9.0235
  8.9382  8.8712  8.8342  8.7398  8.6854  8.6279  8.5286  8.4316  8.4277  8.4065
  8.3994  8.2256  8.1692  8.0620  8.0330  8.0136  7.9061  7.8670  7.8507  7.8321
  7.8151  7.8057  7.6631  7.6586  7.5993  7.5130  7.4695  7.3982  7.2971  7.2921
  7.2501  7.2166  7.1953  7.1699  7.1283  7.1141  7.0892  7.0380  7.0107  6.9612
  6.9115  6.8328  6.8209  6.7891  6.7828  6.7016  6.6975  6.6827  6.6686  6.6342
  6.6237  6.6084  6.5853  6.5842  6.5577  6.5404  6.5024  6.4597  6.4558  6.4516
  6.4325  6.4199  6.4048  6.3898  6.3878  6.3533  6.3118  6.2749  6.1905  6.1696
  6.1612  6.1390  6.1379  6.1057  5.9881  5.9225  5.9162  5.8686  5.1897  5.0904
  4.5125  4.5000  4.4970  4.4700  4.4690  4.4577  4.4554  4.4430  4.4290  4.4216
  4.3860  4.3859  4.3813  4.3810  4.3763  4.3761  4.3692  4.3691
 highest evec of mol 1
 -0.0000  0.0000 -0.0000
 -0.0000 -0.0000 -0.0000
  0.0000  0.0000  0.0000
  0.0000 -0.0000  0.0000
 -0.0001  0.0000 -0.0000
  0.0004  0.0001 -0.0000
 -0.0002 -0.0003  0.0000
  0.0001  0.0002 -0.0000
 -0.0004  0.0006 -0.0001
 -0.0093 -0.0141  0.0017
  0.0178 -0.0324  0.0046
  0.0008  0.0008 -0.0001
 -0.0007  0.0006 -0.0001
 -0.0156 -0.0294  0.0036
  0.0089 -0.0132  0.0019
  0.0003  0.0006 -0.0001
  0.0002 -0.0004  0.0001
 -0.0001  0.0002 -0.0000
 -0.0004  0.0001 -0.0000
  0.0002  0.0003 -0.0000
  0.0000  0.0000  0.0000
  0.0000  0.0000 -0.0000
  0.0008  0.0010 -0.0001
 -0.0001 -0.0006  0.0001
  0.0020 -0.0032  0.0005
  0.0444  0.0674 -0.0081
 -0.0820  0.1506 -0.0214
 -0.0034 -0.0028  0.0003
  0.0038 -0.0034  0.0005
  0.0897  0.1671 -0.0202
 -0.0459  0.0675 -0.0097
 -0.0020 -0.0034  0.0004
 -0.0009  0.0009 -0.0001
  0.0001 -0.0006  0.0001
 -0.0000 -0.0004  0.0001
 -0.0003 -0.0013  0.0002
  0.0002 -0.0012  0.0002
  0.0000 -0.0004  0.0001
  0.0000  0.0001 -0.0000
  0.0001 -0.0000  0.0001
  0.0001 -0.0001 -0.0000
  0.0274  0.0461 -0.0055
 -0.0602  0.1092 -0.0154
  0.0531  0.0991 -0.0120
 -0.0264  0.0432 -0.0062
 -0.0002 -0.0008  0.0001
  0.0000 -0.0000  0.0000
  0.0000 -0.0000 -0.0000
 -0.0003 -0.0000 -0.0000
  0.0000 -0.0000 -0.0000
 -0.0003 -0.0000  0.0000
  0.0000 -0.0000  0.0001
 -0.1317 -0.2202  0.0266
  0.2775 -0.5062  0.0719
 -0.3025 -0.5608  0.0677
  0.1343 -0.2205  0.0312
 generating redundant internal coords
         300        3600          56
 Adding extra bonds for z output only
           6           6           6           6           6           7
           6           8           6           6           6           6
           6           6           6           6           6           8
           7           6           6           6           6           8
           6           6           6           6           6           6
           6           6           6           8           6           6
           6           6           1           1           1           1
           1           1           1           1           1           1
           1           1           1           1           1           1
           1           1
 search for int coords
   1 str   2   1   1.453
   2 str   3   2   1.210
   3 str   4   3   1.361
   4 str   5   4   1.207
   5 str   6   5   1.354
   6 str   7   6   1.432
   7 str   8   7   1.208
   8 str   9   7   1.478
   9 str  10   9   1.382
  10 str  11  10   1.395
  11 str  12  11   1.394
  12 str  13  12   1.469
  13 str  14  13   1.394
  14 str  15  14   1.397
  15 str  16  15   1.381
  16 str  17  16   1.486
  17 str  18  17   1.218
  18 str  19  17   1.401
  19 str  20  19   1.499
  20 str  21  20   1.532
  21 str  22  20   1.532
  22 str  23  19   1.408
  23 str  24  23   1.217
  24 str  25  23   1.485
  25 str  26  25   1.382
  26 str  27  26   1.397
  27 str  28  27   1.394
  28 str  29  28   1.469
  29 str  30  29   1.393
  30 str  31  30   1.395
  31 str  32  31   1.382
  32 str  33   6   1.432
  33 str  33  32   1.478
  34 str  34  33   1.208
  35 str  35   9   1.415
  36 str  35  32   1.415
  37 str  36  12   1.430
  38 str  36  29   1.430
  39 str  36  35   1.429
  40 str  37  13   1.428
  41 str  37  28   1.428
  42 str  38  16   1.412
  43 str  38  25   1.412
  44 str  38  37   1.427
  45 str  39   1   1.094
  46 str  40   1   1.094
  47 str  41   1   1.094
  48 str  42  10   1.083
  49 str  43  11   1.081
  50 str  44  14   1.081
  51 str  45  15   1.083
  52 str  46  20   1.088
  53 str  47  21   1.089
  54 str  48  21   1.093
  55 str  49  21   1.093
  56 str  50  22   1.089
  57 str  51  22   1.093
  58 str  52  22   1.093
  59 str  53  26   1.083
  60 str  54  27   1.081
  61 str  55  30   1.081
  62 str  56  31   1.083
 nber stretches=          62
  63 lin ben   1   2   3
  65 ben   2   1  39
  66 ben   2   1  40
  67 ben   2   1  41
 Extend lin bond           1           1           2           4
  68 lin ben   2   3   4
  70 lin ben   3   4   5
 Extend lin bond           2           3           4           6
  72 lin ben   4   5   6
  74 ben   5   6   7
  75 prop tor   5   6   7   8
  76 prop tor   5   6   7   9
  77 ben   5   6  33
  78 prop tor   5   6  33  32
  79 prop tor   5   6  33  34
  80 ben   6   7   8
  81 ben   6   7   9
  82 prop tor   6   7   9  10
  83 prop tor   6   7   9  35
  84 ben   6  33  32
  85 ben   6  33  34
  86 ben   7   6  33
  87 prop tor   7   6  33  32
  88 prop tor   7   6  33  34
  89 ben   7   9  10
  90 prop tor   7   9  10  11
  91 prop tor   7   9  10  42
  92 ben   7   9  35
  93 prop tor   7   9  35  32
  94 prop tor   7   9  35  36
  95 ben   8   7   9
  96 prop tor   8   7   9  10
  97 prop tor   8   7   9  35
  98 ben   9  10  11
  99 prop tor   9  10  11  12
 100 prop tor   9  10  11  43
 101 ben   9  10  42
 102 ben   9  35  32
 103 ben   9  35  36
 104 prop tor   9  35  36  12
 105 prop tor   9  35  36  29
 106 ben  10   9  35
 107 prop tor  10   9  35  32
 108 prop tor  10   9  35  36
 109 ben  10  11  12
 110 prop tor  10  11  12  13
 111 prop tor  10  11  12  36
 112 ben  10  11  43
 113 ben  11  10  42
 114 ben  11  12  13
 115 prop tor  11  12  13  14
 116 prop tor  11  12  13  37
 117 ben  11  12  36
 118 prop tor  11  12  36  29
 119 prop tor  11  12  36  35
 120 ben  12  11  43
 121 ben  12  13  14
 122 prop tor  12  13  14  15
 123 prop tor  12  13  14  44
 124 ben  12  13  37
 125 prop tor  12  13  37  28
 126 prop tor  12  13  37  38
 127 ben  12  36  29
 128 ben  12  36  35
 129 ben  13  12  36
 130 prop tor  13  12  36  29
 131 prop tor  13  12  36  35
 132 ben  13  14  15
 133 prop tor  13  14  15  16
 134 prop tor  13  14  15  45
 135 ben  13  14  44
 136 ben  13  37  28
 137 ben  13  37  38
 138 prop tor  13  37  38  16
 139 prop tor  13  37  38  25
 140 ben  14  13  37
 141 prop tor  14  13  37  28
 142 prop tor  14  13  37  38
 143 ben  14  15  16
 144 prop tor  14  15  16  17
 145 prop tor  14  15  16  38
 146 ben  14  15  45
 147 ben  15  14  44
 148 ben  15  16  17
 149 prop tor  15  16  17  18
 150 prop tor  15  16  17  19
 151 ben  15  16  38
 152 prop tor  15  16  38  25
 153 prop tor  15  16  38  37
 154 ben  16  15  45
 155 ben  16  17  18
 156 ben  16  17  19
 157 prop tor  16  17  19  20
 158 prop tor  16  17  19  23
 159 ben  16  38  25
 160 ben  16  38  37
 161 ben  17  16  38
 162 prop tor  17  16  38  25
 163 prop tor  17  16  38  37
 164 ben  17  19  20
 165 prop tor  17  19  20  21
 166 prop tor  17  19  20  22
 167 prop tor  17  19  20  46
 168 ben  17  19  23
 169 prop tor  17  19  23  24
 170 prop tor  17  19  23  25
 171 ben  18  17  19
 172 prop tor  18  17  19  20
 173 prop tor  18  17  19  23
 174 ben  19  20  21
 175 prop tor  19  20  21  47
 176 prop tor  19  20  21  48
 177 prop tor  19  20  21  49
 178 ben  19  20  22
 179 prop tor  19  20  22  50
 180 prop tor  19  20  22  51
 181 prop tor  19  20  22  52
 182 ben  19  20  46
 183 ben  19  23  24
 184 ben  19  23  25
 185 prop tor  19  23  25  26
 186 prop tor  19  23  25  38
 187 ben  20  19  23
 188 prop tor  20  19  23  24
 189 prop tor  20  19  23  25
 190 ben  20  21  47
 191 ben  20  21  48
 192 ben  20  21  49
 193 ben  20  22  50
 194 ben  20  22  51
 195 ben  20  22  52
 196 ben  21  20  22
 197 prop tor  21  20  22  50
 198 prop tor  21  20  22  51
 199 prop tor  21  20  22  52
 200 ben  21  20  46
 201 prop tor  22  20  21  47
 202 prop tor  22  20  21  48
 203 prop tor  22  20  21  49
 204 ben  22  20  46
 205 prop tor  23  19  20  21
 206 prop tor  23  19  20  22
 207 prop tor  23  19  20  46
 208 ben  23  25  26
 209 prop tor  23  25  26  27
 210 prop tor  23  25  26  53
 211 ben  23  25  38
 212 prop tor  23  25  38  16
 213 prop tor  23  25  38  37
 214 ben  24  23  25
 215 prop tor  24  23  25  26
 216 prop tor  24  23  25  38
 217 ben  25  26  27
 218 prop tor  25  26  27  28
 219 prop tor  25  26  27  54
 220 ben  25  26  53
 221 ben  25  38  37
 222 ben  26  25  38
 223 prop tor  26  25  38  16
 224 prop tor  26  25  38  37
 225 ben  26  27  28
 226 prop tor  26  27  28  29
 227 prop tor  26  27  28  37
 228 ben  26  27  54
 229 ben  27  26  53
 230 ben  27  28  29
 231 prop tor  27  28  29  30
 232 prop tor  27  28  29  36
 233 ben  27  28  37
 234 prop tor  27  28  37  13
 235 prop tor  27  28  37  38
 236 ben  28  27  54
 237 ben  28  29  30
 238 prop tor  28  29  30  31
 239 prop tor  28  29  30  55
 240 ben  28  29  36
 241 prop tor  28  29  36  12
 242 prop tor  28  29  36  35
 243 ben  28  37  38
 244 prop tor  28  37  38  16
 245 prop tor  28  37  38  25
 246 ben  29  28  37
 247 prop tor  29  28  37  13
 248 prop tor  29  28  37  38
 249 ben  29  30  31
 250 prop tor  29  30  31  32
 251 prop tor  29  30  31  56
 252 ben  29  30  55
 253 ben  29  36  35
 254 ben  30  29  36
 255 prop tor  30  29  36  12
 256 prop tor  30  29  36  35
 257 ben  30  31  32
 258 prop tor  30  31  32  33
 259 prop tor  30  31  32  35
 260 ben  30  31  56
 261 ben  31  30  55
 262 ben  31  32  33
 263 prop tor  31  32  33   6
 264 prop tor  31  32  33  34
 265 ben  31  32  35
 266 prop tor  31  32  35   9
 267 prop tor  31  32  35  36
 268 ben  32  31  56
 269 ben  32  33  34
 270 ben  32  35  36
 271 prop tor  32  35  36  12
 272 prop tor  32  35  36  29
 273 prop tor  33   6   7   8
 274 prop tor  33   6   7   9
 275 ben  33  32  35
 276 prop tor  33  32  35   9
 277 prop tor  33  32  35  36
 278 prop tor  35   9  10  11
 279 prop tor  35   9  10  42
 280 prop tor  35  32  33   6
 281 prop tor  35  32  33  34
 282 prop tor  36  12  13  14
 283 prop tor  36  12  13  37
 284 prop tor  36  29  30  31
 285 prop tor  36  29  30  55
 286 prop tor  37  13  14  15
 287 prop tor  37  13  14  44
 288 prop tor  37  28  29  30
 289 prop tor  37  28  29  36
 290 prop tor  38  16  17  18
 291 prop tor  38  16  17  19
 292 prop tor  38  25  26  27
 293 prop tor  38  25  26  53
 294 prop tor  39   1   2   3
 295 ben  39   1  40
 296 ben  39   1  41
 297 prop tor  40   1   2   3
 298 ben  40   1  41
 299 prop tor  41   1   2   3
 300 prop tor  42  10  11  12
 301 prop tor  42  10  11  43
 302 prop tor  43  11  12  13
 303 prop tor  43  11  12  36
 304 prop tor  44  14  15  16
 305 prop tor  44  14  15  45
 306 prop tor  45  15  16  17
 307 prop tor  45  15  16  38
 308 prop tor  46  20  21  47
 309 prop tor  46  20  21  48
 310 prop tor  46  20  21  49
 311 prop tor  46  20  22  50
 312 prop tor  46  20  22  51
 313 prop tor  46  20  22  52
 314 ben  47  21  48
 315 ben  47  21  49
 316 ben  48  21  49
 317 ben  50  22  51
 318 ben  50  22  52
 319 ben  51  22  52
 320 prop tor  53  26  27  28
 321 prop tor  53  26  27  54
 322 prop tor  54  27  28  29
 323 prop tor  54  27  28  37
 324 prop tor  55  30  31  32
 325 prop tor  55  30  31  56
 326 prop tor  56  31  32  33
 327 prop tor  56  31  32  35
 328 lin bend prop tor   2   1   4   3
 329 lin bend prop tor   2   1   4   5
 330 lin bend prop tor  39   1   4   3
 331 lin bend prop tor  39   1   4   5
 332 lin bend prop tor  40   1   4   3
 333 lin bend prop tor  40   1   4   5
 334 lin bend prop tor  41   1   4   3
 335 lin bend prop tor  41   1   4   5
 nber bend=             110
 nber lin bend=           2
 nber prop tor=         163
 nber impr tor=           0
 nber tot redund int=         335
 Reading file: 
 ./PDI_6_C0S1.log                                                               
                                          
  Entering Gaussian System, Link 0=g16                                          
  
 Gaussian format, type: g94, g98, g03= F F F
  #P Geom=AllCheck Guess=TCheck SCRF=Check GenChk RB3LYP TD(FC,Read)/6-3    
 energy type= TD      
 Original G94 input coords:
  6  1.414568  0.015338 -0.090258
  6  2.866948  0.025396 -0.066042
  6  4.077020  0.033460 -0.045109
  6  5.437336  0.042530 -0.021496
  6  6.644748  0.050577 -0.000496
  7  7.997849  0.059527  0.023106
  6  8.664556 -1.194682  0.198463
  8  8.026174 -2.217059  0.319649
  6 10.134881 -1.141305  0.218635
  6 10.841347 -2.339265  0.387625
  6 12.219736 -2.341190  0.413411
  6 12.969293 -1.141422  0.271085
  6 14.409999 -1.131990  0.296944
  6 15.174931 -2.319279  0.466779
  6 16.554568 -2.295511  0.489740
  6 17.245895 -1.086825  0.344455
  6 18.724751 -1.097727  0.374178
  8 19.345718 -2.139751  0.522916
  7 19.380105  0.130360  0.225558
  6 20.877783  0.168105  0.249698
  6 21.433075 -0.266043  1.610044
  6 21.482597 -0.598998 -0.930606
  6 18.713636  1.357626  0.051509
  8 19.326318  2.406414 -0.074760
  6 17.236211  1.327428  0.027659
  6 16.534412  2.527048 -0.142748
  6 15.154632  2.532809 -0.169058
  6 14.399462  1.335891 -0.026135
  6 12.958822  1.326499 -0.051235
  6 12.198787  2.516166 -0.220158
  6 10.820487  2.496075 -0.242617
  6 10.124083  1.288985 -0.098068
  6  8.653741  1.322943 -0.129176
  8  8.005902  2.336432 -0.272682
  6 10.834778  0.078543  0.072609
  6 12.264137  0.087974  0.097645
  6 15.101734  0.106562  0.147794
  6 16.529261  0.115808  0.173313
  1  1.023164 -0.892280  0.379425
  1  1.035721  0.053310 -1.116261
  1  1.007726  0.874872  0.451287
  1 10.276560 -3.256141  0.496509
  1 12.730547 -3.284198  0.545528
  1 14.675407 -3.270646  0.582000
  1 17.130371 -3.202728  0.619504
  1 21.098651  1.224675  0.115557
  1 21.257608 -1.324473  1.798043
  1 20.981939  0.318083  2.416313
  1 22.510727 -0.082096  1.628527
  1 21.309578 -1.671061 -0.845968
  1 22.561012 -0.420258 -0.954778
  1 21.065343 -0.244838 -1.876790
  1 17.101867  3.442117 -0.252214
  1 14.647366  3.477706 -0.302353
  1 12.701399  3.465879 -0.334647
  1 10.247955  3.405537 -0.371470
 nber atoms=          56
  Total Energy, E(TD-HF/TD-DFT) =  -1640.96901280                               
  
          32          49 "  -1640.96901280"
After scan for Atom:   Atom  AN      X      Y      Z        X      Y      Z        X      Y      Z   
After scan for Atom:   Atom  AN      X      Y      Z        X      Y      Z        X      Y      Z   
After scan for Atom:   Atom  AN      X      Y      Z        X      Y      Z        X      Y      Z   
After scan for Atom:   Atom  AN      X      Y      Z        X      Y      Z        X      Y      Z   
After scan for Atom:   Atom  AN      X      Y      Z        X      Y      Z        X      Y      Z   
After scan for Atom:   Atom  AN      X      Y      Z        X      Y      Z        X      Y      Z   
After scan for Atom:   Atom  AN      X      Y      Z        X      Y      Z        X      Y      Z   
After scan for Atom:   Atom  AN      X      Y      Z        X      Y      Z        X      Y      Z   
After scan for Atom:   Atom  AN      X      Y      Z        X      Y      Z        X      Y      Z   
After scan for Atom:   Atom  AN      X      Y      Z        X      Y      Z        X      Y      Z   
After scan for Atom:   Atom  AN      X      Y      Z        X      Y      Z        X      Y      Z   
After scan for Atom:   Atom  AN      X      Y      Z        X      Y      Z        X      Y      Z   
After scan for Atom:   Atom  AN      X      Y      Z        X      Y      Z        X      Y      Z   
After scan for Atom:   Atom  AN      X      Y      Z        X      Y      Z        X      Y      Z   
After scan for Atom:   Atom  AN      X      Y      Z        X      Y      Z        X      Y      Z   
After scan for Atom:   Atom  AN      X      Y      Z        X      Y      Z        X      Y      Z   
After scan for Atom:   Atom  AN      X      Y      Z        X      Y      Z        X      Y      Z   
After scan for Atom:   Atom  AN      X      Y      Z        X      Y      Z        X      Y      Z   
After scan for Atom:   Atom  AN      X      Y      Z        X      Y      Z        X      Y      Z   
After scan for Atom:   Atom  AN      X      Y      Z        X      Y      Z        X      Y      Z   
After scan for Atom:   Atom  AN      X      Y      Z        X      Y      Z        X      Y      Z   
After scan for Atom:   Atom  AN      X      Y      Z        X      Y      Z        X      Y      Z   
After scan for Atom:   Atom  AN      X      Y      Z        X      Y      Z        X      Y      Z   
After scan for Atom:   Atom  AN      X      Y      Z        X      Y      Z        X      Y      Z   
After scan for Atom:   Atom  AN      X      Y      Z        X      Y      Z        X      Y      Z   
After scan for Atom:   Atom  AN      X      Y      Z        X      Y      Z        X      Y      Z   
After scan for Atom:   Atom  AN      X      Y      Z        X      Y      Z        X      Y      Z   
After scan for Atom:   Atom  AN      X      Y      Z        X      Y      Z        X      Y      Z   
After scan for Atom:   Atom  AN      X      Y      Z        X      Y      Z        X      Y      Z   
After scan for Atom:   Atom  AN      X      Y      Z        X      Y      Z        X      Y      Z   
After scan for Atom:   Atom  AN      X      Y      Z        X      Y      Z        X      Y      Z   
After scan for Atom:   Atom  AN      X      Y      Z        X      Y      Z        X      Y      Z   
After scan for Atom:   Atom  AN      X      Y      Z        X      Y      Z        X      Y      Z   
After scan for Atom:   Atom  AN      X      Y      Z        X      Y      Z        X      Y      Z   
After scan for Atom:   Atom  AN      X      Y      Z        X      Y      Z        X      Y      Z   
After scan for Atom:   Atom  AN      X      Y      Z        X      Y      Z        X      Y      Z   
After scan for Atom:   Atom  AN      X      Y      Z        X      Y      Z        X      Y      Z   
After scan for Atom:   Atom  AN      X      Y      Z        X      Y      Z        X      Y      Z   
After scan for Atom:   Atom  AN      X      Y      Z        X      Y      Z        X      Y      Z   
After scan for Atom:   Atom  AN      X      Y      Z        X      Y      Z        X      Y      Z   
After scan for Atom:   Atom  AN      X      Y      Z        X      Y      Z        X      Y      Z   
After scan for Atom:   Atom  AN      X      Y      Z        X      Y      Z        X      Y      Z   
After scan for Atom:   Atom  AN      X      Y      Z        X      Y      Z        X      Y      Z   
After scan for Atom:   Atom  AN      X      Y      Z        X      Y      Z        X      Y      Z   
After scan for Atom:   Atom  AN      X      Y      Z        X      Y      Z        X      Y      Z   
After scan for Atom:   Atom  AN      X      Y      Z        X      Y      Z        X      Y      Z   
After scan for Atom:   Atom  AN      X      Y      Z        X      Y      Z        X      Y      Z   
After scan for Atom:   Atom  AN      X      Y      Z        X      Y      Z        X      Y      Z   
After scan for Atom:   Atom  AN      X      Y      Z        X      Y      Z        X      Y      Z   
After scan for Atom:   Atom  AN      X      Y      Z        X      Y      Z        X      Y      Z   
After scan for Atom:   Atom  AN      X      Y      Z        X      Y      Z        X      Y      Z   
After scan for Atom:   Atom  AN      X      Y      Z        X      Y      Z        X      Y      Z   
After scan for Atom:   Atom  AN      X      Y      Z        X      Y      Z        X      Y      Z   
After scan for Atom:   Atom  AN      X      Y      Z        X      Y      Z        X      Y      Z   
 g94    frequencies=
     0.0    0.0    0.0    0.0    0.0    0.0   -6.0   13.5   25.1   28.5
    30.7   54.0   58.2   75.7   86.1   89.9  101.8  102.0  137.3  162.0
   167.7  171.3  183.7  200.8  203.9  214.8  234.2  235.3  255.8  259.8
   280.0  297.8  301.3  310.8  318.1  325.8  351.2  389.3  391.6  416.9
   425.1  432.2  436.3  438.2  447.3  450.2  464.7  473.8  484.1  498.9
   501.4  505.6  508.0  510.3  544.7  550.3  573.1  574.1  578.2  604.1
   615.8  635.1  651.8  671.5  678.2  704.5  710.4  714.4  727.4  746.3
   757.4  757.8  764.1  800.8  809.1  810.4  814.6  823.0  826.3  832.0
   844.5  901.5  915.6  931.9  945.4  951.5  956.7  975.1  976.8  988.2
   988.9 1006.6 1046.4 1047.5 1061.7 1088.1 1096.7 1110.1 1136.9 1155.5
  1161.5 1169.6 1185.0 1187.2 1196.4 1200.7 1224.6 1232.7 1242.8 1256.6
  1289.7 1304.6 1319.0 1331.4 1350.4 1366.0 1371.1 1381.9 1391.1 1397.6
  1400.4 1404.5 1416.5 1417.3 1430.2 1438.4 1443.9 1459.4 1467.8 1472.6
  1474.4 1485.0 1491.5 1497.6 1505.1 1511.5 1522.4 1546.3 1554.5 1572.9
  1584.3 1599.0 1599.2 1621.9 1686.2 1725.9 1727.6 1758.8 2280.8 2369.7
  3017.6 3034.4 3038.5 3075.0 3076.5 3092.5 3095.7 3112.5 3132.4 3142.8
  3198.7 3199.0 3205.2 3205.4 3213.3 3213.4 3225.0 3225.3
 g94    symmetries=
                                                 A      A      A      A
       A      A      A      A      A      A      A      A      A      A
       A      A      A      A      A      A      A      A      A      A
       A      A      A      A      A      A      A      A      A      A
       A      A      A      A      A      A      A      A      A      A
       A      A      A      A      A      A      A      A      A      A
       A      A      A      A      A      A      A      A      A      A
       A      A      A      A      A      A      A      A      A      A
       A      A      A      A      A      A      A      A      A      A
       A      A      A      A      A      A      A      A      A      A
       A      A      A      A      A      A      A      A      A      A
       A      A      A      A      A      A      A      A      A      A
       A      A      A      A      A      A      A      A      A      A
       A      A      A      A      A      A      A      A      A      A
       A      A      A      A      A      A      A      A      A      A
       A      A      A      A      A      A      A      A      A      A
       A      A      A      A      A      A      A      A
 atomic masses:
 12.0000 12.0000 12.0000 12.0000 12.0000 14.0031 12.0000 15.9949 12.0000 12.0000
 12.0000 12.0000 12.0000 12.0000 12.0000 12.0000 12.0000 15.9949 14.0031 12.0000
 12.0000 12.0000 12.0000 15.9949 12.0000 12.0000 12.0000 12.0000 12.0000 12.0000
 12.0000 12.0000 12.0000 15.9949 12.0000 12.0000 12.0000 12.0000  1.0078  1.0078
  1.0078  1.0078  1.0078  1.0078  1.0078  1.0078  1.0078  1.0078  1.0078  1.0078
  1.0078  1.0078  1.0078  1.0078  1.0078  1.0078
 looking for force constants in 
 ./PDI_6_C0S1.fchk                                                              
  
 Cartesian Force Constants                  R   N=       14196                  
  
 n3=         168       14196
 g94-fc frequencies=
    -6.0   -1.4   -0.0   -0.0    0.0    0.5    3.5   13.5   25.1   28.5
    30.7   54.0   58.2   75.7   86.1   90.0  101.8  102.0  137.3  162.0
   167.7  171.3  183.7  200.9  203.9  214.8  234.2  235.3  255.8  259.8
   280.0  297.8  301.3  310.8  318.1  325.8  351.2  389.3  391.7  416.9
   425.1  432.2  436.3  438.2  447.3  450.2  464.7  473.8  484.1  498.9
   501.4  505.6  508.0  510.3  544.7  550.4  573.2  574.1  578.2  604.2
   615.8  635.1  651.8  671.5  678.2  704.5  710.4  714.5  727.4  746.4
   757.4  757.8  764.1  800.8  809.2  810.5  814.6  823.0  826.3  832.0
   844.6  901.5  915.6  931.9  945.4  951.6  956.8  975.1  976.9  988.2
   989.0 1006.7 1046.5 1047.6 1061.7 1088.2 1096.7 1110.1 1137.0 1155.5
  1161.5 1169.7 1185.0 1187.3 1196.5 1200.7 1224.7 1232.8 1242.8 1256.6
  1289.7 1304.7 1319.0 1331.4 1350.4 1366.0 1371.1 1382.0 1391.2 1397.7
  1400.4 1404.6 1416.5 1417.3 1430.2 1438.4 1444.0 1459.4 1467.8 1472.6
  1474.5 1485.0 1491.5 1497.7 1505.1 1511.5 1522.4 1546.3 1554.5 1573.0
  1584.4 1599.0 1599.2 1621.9 1686.2 1725.9 1727.7 1758.9 2280.9 2369.8
  3017.6 3034.5 3038.6 3075.0 3076.6 3092.5 3095.7 3112.6 3132.5 3142.8
  3198.8 3199.1 3205.3 3205.5 3213.4 3213.5 3225.1 3225.3
 at 99999: n3=         168
 symm operator            1 :  F  nop=           0
 symm operator            2 :  F  nop=           0
 symm operator            3 :  F  nop=           0
 symm operator            4 :  F  nop=           0
 symm operator            5 :  F  nop=           0
 symm operator            6 :  F  nop=           0
 symm operator            7 :  F  nop=           0
 The point group of the molecule is  C1
 Symmetry rotation matrix:
   1.00000   0.00000   0.00000
   0.00000   1.00000   0.00000
   0.00000   0.00000   1.00000

 Projecting out zero-frequency components
 generating redundant internal coords
         300        3600          56
 search for int coords
   1 str   2   1   1.453
   2 str   3   2   1.210
   3 str   4   3   1.361
   4 str   5   4   1.208
   5 str   6   5   1.353
   6 str   7   6   1.431
   7 str   8   7   1.211
   8 str   9   7   1.471
   9 str  10   9   1.401
  10 str  11  10   1.379
  11 str  12  11   1.422
  12 str  13  12   1.441
  13 str  14  13   1.423
  14 str  15  14   1.380
  15 str  16  15   1.400
  16 str  17  16   1.479
  17 str  18  17   1.222
  18 str  19  17   1.400
  19 str  20  19   1.498
  20 str  21  20   1.532
  21 str  22  20   1.532
  22 str  23  19   1.407
  23 str  24  23   1.221
  24 str  25  23   1.478
  25 str  26  25   1.400
  26 str  27  26   1.380
  27 str  28  27   1.422
  28 str  29  28   1.441
  29 str  30  29   1.422
  30 str  31  30   1.379
  31 str  32  31   1.401
  32 str  33   6   1.432
  33 str  33  32   1.471
  34 str  34  33   1.211
  35 str  35   9   1.414
  36 str  35  32   1.414
  37 str  36  12   1.428
  38 str  36  29   1.428
  39 str  36  35   1.430
  40 str  37  13   1.426
  41 str  37  28   1.426
  42 str  38  16   1.410
  43 str  38  25   1.410
  44 str  38  37   1.428
  45 str  39   1   1.094
  46 str  40   1   1.094
  47 str  41   1   1.094
  48 str  42  10   1.082
  49 str  43  11   1.081
  50 str  44  14   1.081
  51 str  45  15   1.082
  52 str  46  20   1.088
  53 str  47  21   1.089
  54 str  48  21   1.093
  55 str  49  21   1.093
  56 str  50  22   1.089
  57 str  51  22   1.093
  58 str  52  22   1.093
  59 str  53  26   1.082
  60 str  54  27   1.081
  61 str  55  30   1.081
  62 str  56  31   1.082
 nber stretches=          62
  63 lin ben   1   2   3
  65 ben   2   1  39
  66 ben   2   1  40
  67 ben   2   1  41
 Extend lin bond           1           1           2           4
  68 lin ben   2   3   4
  70 lin ben   3   4   5
 Extend lin bond           2           3           4           6
  72 lin ben   4   5   6
  74 ben   5   6   7
  75 prop tor   5   6   7   8
  76 prop tor   5   6   7   9
  77 ben   5   6  33
  78 prop tor   5   6  33  32
  79 prop tor   5   6  33  34
  80 ben   6   7   8
  81 ben   6   7   9
  82 prop tor   6   7   9  10
  83 prop tor   6   7   9  35
  84 ben   6  33  32
  85 ben   6  33  34
  86 ben   7   6  33
  87 prop tor   7   6  33  32
  88 prop tor   7   6  33  34
  89 ben   7   9  10
  90 prop tor   7   9  10  11
  91 prop tor   7   9  10  42
  92 ben   7   9  35
  93 prop tor   7   9  35  32
  94 prop tor   7   9  35  36
  95 ben   8   7   9
  96 prop tor   8   7   9  10
  97 prop tor   8   7   9  35
  98 ben   9  10  11
  99 prop tor   9  10  11  12
 100 prop tor   9  10  11  43
 101 ben   9  10  42
 102 ben   9  35  32
 103 ben   9  35  36
 104 prop tor   9  35  36  12
 105 prop tor   9  35  36  29
 106 ben  10   9  35
 107 prop tor  10   9  35  32
 108 prop tor  10   9  35  36
 109 ben  10  11  12
 110 prop tor  10  11  12  13
 111 prop tor  10  11  12  36
 112 ben  10  11  43
 113 ben  11  10  42
 114 ben  11  12  13
 115 prop tor  11  12  13  14
 116 prop tor  11  12  13  37
 117 ben  11  12  36
 118 prop tor  11  12  36  29
 119 prop tor  11  12  36  35
 120 ben  12  11  43
 121 ben  12  13  14
 122 prop tor  12  13  14  15
 123 prop tor  12  13  14  44
 124 ben  12  13  37
 125 prop tor  12  13  37  28
 126 prop tor  12  13  37  38
 127 ben  12  36  29
 128 ben  12  36  35
 129 ben  13  12  36
 130 prop tor  13  12  36  29
 131 prop tor  13  12  36  35
 132 ben  13  14  15
 133 prop tor  13  14  15  16
 134 prop tor  13  14  15  45
 135 ben  13  14  44
 136 ben  13  37  28
 137 ben  13  37  38
 138 prop tor  13  37  38  16
 139 prop tor  13  37  38  25
 140 ben  14  13  37
 141 prop tor  14  13  37  28
 142 prop tor  14  13  37  38
 143 ben  14  15  16
 144 prop tor  14  15  16  17
 145 prop tor  14  15  16  38
 146 ben  14  15  45
 147 ben  15  14  44
 148 ben  15  16  17
 149 prop tor  15  16  17  18
 150 prop tor  15  16  17  19
 151 ben  15  16  38
 152 prop tor  15  16  38  25
 153 prop tor  15  16  38  37
 154 ben  16  15  45
 155 ben  16  17  18
 156 ben  16  17  19
 157 prop tor  16  17  19  20
 158 prop tor  16  17  19  23
 159 ben  16  38  25
 160 ben  16  38  37
 161 ben  17  16  38
 162 prop tor  17  16  38  25
 163 prop tor  17  16  38  37
 164 ben  17  19  20
 165 prop tor  17  19  20  21
 166 prop tor  17  19  20  22
 167 prop tor  17  19  20  46
 168 ben  17  19  23
 169 prop tor  17  19  23  24
 170 prop tor  17  19  23  25
 171 ben  18  17  19
 172 prop tor  18  17  19  20
 173 prop tor  18  17  19  23
 174 ben  19  20  21
 175 prop tor  19  20  21  47
 176 prop tor  19  20  21  48
 177 prop tor  19  20  21  49
 178 ben  19  20  22
 179 prop tor  19  20  22  50
 180 prop tor  19  20  22  51
 181 prop tor  19  20  22  52
 182 ben  19  20  46
 183 ben  19  23  24
 184 ben  19  23  25
 185 prop tor  19  23  25  26
 186 prop tor  19  23  25  38
 187 ben  20  19  23
 188 prop tor  20  19  23  24
 189 prop tor  20  19  23  25
 190 ben  20  21  47
 191 ben  20  21  48
 192 ben  20  21  49
 193 ben  20  22  50
 194 ben  20  22  51
 195 ben  20  22  52
 196 ben  21  20  22
 197 prop tor  21  20  22  50
 198 prop tor  21  20  22  51
 199 prop tor  21  20  22  52
 200 ben  21  20  46
 201 prop tor  22  20  21  47
 202 prop tor  22  20  21  48
 203 prop tor  22  20  21  49
 204 ben  22  20  46
 205 prop tor  23  19  20  21
 206 prop tor  23  19  20  22
 207 prop tor  23  19  20  46
 208 ben  23  25  26
 209 prop tor  23  25  26  27
 210 prop tor  23  25  26  53
 211 ben  23  25  38
 212 prop tor  23  25  38  16
 213 prop tor  23  25  38  37
 214 ben  24  23  25
 215 prop tor  24  23  25  26
 216 prop tor  24  23  25  38
 217 ben  25  26  27
 218 prop tor  25  26  27  28
 219 prop tor  25  26  27  54
 220 ben  25  26  53
 221 ben  25  38  37
 222 ben  26  25  38
 223 prop tor  26  25  38  16
 224 prop tor  26  25  38  37
 225 ben  26  27  28
 226 prop tor  26  27  28  29
 227 prop tor  26  27  28  37
 228 ben  26  27  54
 229 ben  27  26  53
 230 ben  27  28  29
 231 prop tor  27  28  29  30
 232 prop tor  27  28  29  36
 233 ben  27  28  37
 234 prop tor  27  28  37  13
 235 prop tor  27  28  37  38
 236 ben  28  27  54
 237 ben  28  29  30
 238 prop tor  28  29  30  31
 239 prop tor  28  29  30  55
 240 ben  28  29  36
 241 prop tor  28  29  36  12
 242 prop tor  28  29  36  35
 243 ben  28  37  38
 244 prop tor  28  37  38  16
 245 prop tor  28  37  38  25
 246 ben  29  28  37
 247 prop tor  29  28  37  13
 248 prop tor  29  28  37  38
 249 ben  29  30  31
 250 prop tor  29  30  31  32
 251 prop tor  29  30  31  56
 252 ben  29  30  55
 253 ben  29  36  35
 254 ben  30  29  36
 255 prop tor  30  29  36  12
 256 prop tor  30  29  36  35
 257 ben  30  31  32
 258 prop tor  30  31  32  33
 259 prop tor  30  31  32  35
 260 ben  30  31  56
 261 ben  31  30  55
 262 ben  31  32  33
 263 prop tor  31  32  33   6
 264 prop tor  31  32  33  34
 265 ben  31  32  35
 266 prop tor  31  32  35   9
 267 prop tor  31  32  35  36
 268 ben  32  31  56
 269 ben  32  33  34
 270 ben  32  35  36
 271 prop tor  32  35  36  12
 272 prop tor  32  35  36  29
 273 prop tor  33   6   7   8
 274 prop tor  33   6   7   9
 275 ben  33  32  35
 276 prop tor  33  32  35   9
 277 prop tor  33  32  35  36
 278 prop tor  35   9  10  11
 279 prop tor  35   9  10  42
 280 prop tor  35  32  33   6
 281 prop tor  35  32  33  34
 282 prop tor  36  12  13  14
 283 prop tor  36  12  13  37
 284 prop tor  36  29  30  31
 285 prop tor  36  29  30  55
 286 prop tor  37  13  14  15
 287 prop tor  37  13  14  44
 288 prop tor  37  28  29  30
 289 prop tor  37  28  29  36
 290 prop tor  38  16  17  18
 291 prop tor  38  16  17  19
 292 prop tor  38  25  26  27
 293 prop tor  38  25  26  53
 294 prop tor  39   1   2   3
 295 ben  39   1  40
 296 ben  39   1  41
 297 prop tor  40   1   2   3
 298 ben  40   1  41
 299 prop tor  41   1   2   3
 300 prop tor  42  10  11  12
 301 prop tor  42  10  11  43
 302 prop tor  43  11  12  13
 303 prop tor  43  11  12  36
 304 prop tor  44  14  15  16
 305 prop tor  44  14  15  45
 306 prop tor  45  15  16  17
 307 prop tor  45  15  16  38
 308 prop tor  46  20  21  47
 309 prop tor  46  20  21  48
 310 prop tor  46  20  21  49
 311 prop tor  46  20  22  50
 312 prop tor  46  20  22  51
 313 prop tor  46  20  22  52
 314 ben  47  21  48
 315 ben  47  21  49
 316 ben  48  21  49
 317 ben  50  22  51
 318 ben  50  22  52
 319 ben  51  22  52
 320 prop tor  53  26  27  28
 321 prop tor  53  26  27  54
 322 prop tor  54  27  28  29
 323 prop tor  54  27  28  37
 324 prop tor  55  30  31  32
 325 prop tor  55  30  31  56
 326 prop tor  56  31  32  33
 327 prop tor  56  31  32  35
 328 lin bend prop tor   2   1   4   3
 329 lin bend prop tor   2   1   4   5
 330 lin bend prop tor  39   1   4   3
 331 lin bend prop tor  39   1   4   5
 332 lin bend prop tor  40   1   4   3
 333 lin bend prop tor  40   1   4   5
 334 lin bend prop tor  41   1   4   3
 335 lin bend prop tor  41   1   4   5
 336 lin bend prop tor   2   3   6   7
 337 lin bend prop tor   2   3   6  33
 nber bend=             110
 nber lin bend=           2
 nber prop tor=         165
 nber impr tor=           0
 nber tot redund int=         337
 Eigenvalues of G in red int coords
    Gval -0.00000000 -0.00000000 -0.00000000 -0.00000000 -0.00000000 -0.00000000 -0.00000000 -0.00000000
    Gval -0.00000000 -0.00000000 -0.00000000 -0.00000000 -0.00000000 -0.00000000 -0.00000000 -0.00000000
    Gval -0.00000000 -0.00000000 -0.00000000 -0.00000000 -0.00000000 -0.00000000 -0.00000000 -0.00000000
    Gval -0.00000000 -0.00000000 -0.00000000 -0.00000000 -0.00000000 -0.00000000 -0.00000000 -0.00000000
    Gval -0.00000000 -0.00000000 -0.00000000 -0.00000000 -0.00000000 -0.00000000 -0.00000000 -0.00000000
    Gval -0.00000000 -0.00000000 -0.00000000 -0.00000000 -0.00000000 -0.00000000 -0.00000000 -0.00000000
    Gval -0.00000000 -0.00000000 -0.00000000 -0.00000000 -0.00000000 -0.00000000 -0.00000000 -0.00000000
    Gval -0.00000000 -0.00000000 -0.00000000 -0.00000000 -0.00000000 -0.00000000 -0.00000000 -0.00000000
    Gval -0.00000000 -0.00000000 -0.00000000 -0.00000000 -0.00000000 -0.00000000 -0.00000000 -0.00000000
    Gval -0.00000000 -0.00000000 -0.00000000 -0.00000000 -0.00000000 -0.00000000 -0.00000000 -0.00000000
    Gval -0.00000000 -0.00000000 -0.00000000 -0.00000000 -0.00000000 -0.00000000 -0.00000000 -0.00000000
    Gval  0.00000000  0.00000000  0.00000000  0.00000000  0.00000000  0.00000000  0.00000000  0.00000000
    Gval  0.00000000  0.00000000  0.00000000  0.00000000  0.00000000  0.00000000  0.00000000  0.00000000
    Gval  0.00000000  0.00000000  0.00000000  0.00000000  0.00000000  0.00000000  0.00000000  0.00000000
    Gval  0.00000000  0.00000000  0.00000000  0.00000000  0.00000000  0.00000000  0.00000000  0.00000000
    Gval  0.00000000  0.00000000  0.00000000  0.00000000  0.00000000  0.00000000  0.00000000  0.00000000
    Gval  0.00000000  0.00000000  0.00000000  0.00000000  0.00000000  0.00000000  0.00000000  0.00000000
    Gval  0.00000000  0.00000000  0.00000000  0.00000000  0.00000000  0.00000000  0.00000000  0.00000000
    Gval  0.00000000  0.00000000  0.00000000  0.00000000  0.00000000  0.00000000  0.00000000  0.00000000
    Gval  0.00000000  0.00000000  0.00000000  0.00000000  0.00000000  0.00000000  0.00000000  0.00000000
    Gval  0.00000000  0.00000000  0.00000000  0.00000000  0.00000000  0.00000000  0.00000000  0.00000000
    Gval  0.00000000  0.00000000  0.00000000  0.00000000  0.00000000  0.00000000  0.00000000  0.00000000
    Gval  0.00000051  0.00000069  0.00000194  0.00000226  0.00000372  0.00000454  0.00000622  0.00000917
    Gval  0.00001105  0.00001117  0.00001264  0.00001472  0.00001647  0.00001704  0.00001754  0.00001833
    Gval  0.00002125  0.00002323  0.00002353  0.00002429  0.00002542  0.00002687  0.00003069  0.00003358
    Gval  0.00003579  0.00003994  0.00004575  0.00004884  0.00005149  0.00005222  0.00005367  0.00005470
    Gval  0.00005864  0.00006245  0.00006449  0.00006892  0.00007272  0.00007521  0.00008139  0.00008249
    Gval  0.00008586  0.00008667  0.00009311  0.00009448  0.00009533  0.00009597  0.00010109  0.00011767
    Gval  0.00012247  0.00013142  0.00013425  0.00013639  0.00013730  0.00014084  0.00015530  0.00015863
    Gval  0.00015937  0.00016847  0.00016863  0.00018152  0.00020033  0.00021197  0.00022226  0.00022928
    Gval  0.00023030  0.00025962  0.00027260  0.00028526  0.00028930  0.00029665  0.00034175  0.00036037
    Gval  0.00037540  0.00038151  0.00038921  0.00038995  0.00039517  0.00041949  0.00042343  0.00043164
    Gval  0.00043512  0.00044059  0.00044189  0.00046220  0.00046320  0.00046895  0.00046898  0.00049498
    Gval  0.00052810  0.00053361  0.00053716  0.00054045  0.00054511  0.00055411  0.00055585  0.00055602
    Gval  0.00055665  0.00056606  0.00058821  0.00059849  0.00059923  0.00059956  0.00059984  0.00060219
    Gval  0.00061041  0.00064074  0.00064423  0.00064499  0.00064681  0.00066921  0.00069087  0.00069275
    Gval  0.00069777  0.00078267  0.00081061  0.00092096  0.00097843  0.00109335  0.00109427  0.00109497
    Gval  0.00109546  0.00114288  0.00116545  0.00116573  0.00116593  0.00116627  0.00117134  0.00117190
    Gval  0.00118680  0.00119231  0.00121193  0.00129546  0.00131879  0.00147952  0.00151471  0.00171402
    Gval  0.00175242  0.00191345  0.00228032  0.00233875  0.00251859  0.00252073  0.00255775  0.00278327
    Gval  0.00278898  0.00292182  0.00295876  0.00302354  0.00304204  0.00308122  0.00309640  0.00367454
    Gval  0.00367632  0.00372127  0.00372299  0.00394546  0.16816672177.69102408877.21036495************
    Gval************
  5.062020521227981E-007  5.062020521227981E-007
  6.923087007718446E-007  5.062020521227981E-007
  1.939611559942740E-006  5.062020521227981E-007
  2.255770963429643E-006  5.062020521227981E-007
  3.715492728504093E-006  5.062020521227981E-007
  4.538668700069718E-006  5.062020521227981E-007
  6.216910191367519E-006  5.062020521227981E-007
  9.172935854146832E-006  5.062020521227981E-007
  1.105133848756658E-005  5.062020521227981E-007
  1.116678857820397E-005  5.062020521227981E-007
  1.264440193709596E-005  5.062020521227981E-007
  1.471548257364300E-005  5.062020521227981E-007
  1.646523087302858E-005  5.062020521227981E-007
  1.703945506962841E-005  5.062020521227981E-007
  1.754446692401980E-005  5.062020521227981E-007
  1.833456636602852E-005  5.062020521227981E-007
  2.124610521794484E-005  5.062020521227981E-007
  2.322877331875642E-005  5.062020521227981E-007
  2.353183596025528E-005  5.062020521227981E-007
  2.429288006267999E-005  5.062020521227981E-007
  2.542088811467058E-005  5.062020521227981E-007
  2.687162367272370E-005  5.062020521227981E-007
  3.069134064733396E-005  5.062020521227981E-007
  3.357895101839781E-005  5.062020521227981E-007
  3.578666458270021E-005  5.062020521227981E-007
  3.993966593552906E-005  5.062020521227981E-007
  4.575451935780848E-005  5.062020521227981E-007
  4.883511819154551E-005  5.062020521227981E-007
  5.148966620559254E-005  5.062020521227981E-007
  5.222232649765911E-005  5.062020521227981E-007
[...]
 141 prop tor  14  13  37  28
 142 prop tor  14  13  37  38
 143 ben  14  15  16
 144 prop tor  14  15  16  17
 145 prop tor  14  15  16  38
 146 ben  14  15  45
 147 ben  15  14  44
 148 ben  15  16  17
 149 prop tor  15  16  17  18
 150 prop tor  15  16  17  19
 151 ben  15  16  38
 152 prop tor  15  16  38  25
 153 prop tor  15  16  38  37
 154 ben  16  15  45
 155 ben  16  17  18
 156 ben  16  17  19
 157 prop tor  16  17  19  20
 158 prop tor  16  17  19  23
 159 ben  16  38  25
 160 ben  16  38  37
 161 ben  17  16  38
 162 prop tor  17  16  38  25
 163 prop tor  17  16  38  37
 164 ben  17  19  20
 165 prop tor  17  19  20  21
 166 prop tor  17  19  20  22
 167 prop tor  17  19  20  46
 168 ben  17  19  23
 169 prop tor  17  19  23  24
 170 prop tor  17  19  23  25
 171 ben  18  17  19
 172 prop tor  18  17  19  20
 173 prop tor  18  17  19  23
 174 ben  19  20  21
 175 prop tor  19  20  21  47
 176 prop tor  19  20  21  48
 177 prop tor  19  20  21  49
 178 ben  19  20  22
 179 prop tor  19  20  22  50
 180 prop tor  19  20  22  51
 181 prop tor  19  20  22  52
 182 ben  19  20  46
 183 ben  19  23  24
 184 ben  19  23  25
 185 prop tor  19  23  25  26
 186 prop tor  19  23  25  38
 187 ben  20  19  23
 188 prop tor  20  19  23  24
 189 prop tor  20  19  23  25
 190 ben  20  21  47
 191 ben  20  21  48
 192 ben  20  21  49
 193 ben  20  22  50
 194 ben  20  22  51
 195 ben  20  22  52
 196 ben  21  20  22
 197 prop tor  21  20  22  50
 198 prop tor  21  20  22  51
 199 prop tor  21  20  22  52
 200 ben  21  20  46
 201 prop tor  22  20  21  47
 202 prop tor  22  20  21  48
 203 prop tor  22  20  21  49
 204 ben  22  20  46
 205 prop tor  23  19  20  21
 206 prop tor  23  19  20  22
 207 prop tor  23  19  20  46
 208 ben  23  25  26
 209 prop tor  23  25  26  27
 210 prop tor  23  25  26  53
 211 ben  23  25  38
 212 prop tor  23  25  38  16
 213 prop tor  23  25  38  37
 214 ben  24  23  25
 215 prop tor  24  23  25  26
 216 prop tor  24  23  25  38
 217 ben  25  26  27
 218 prop tor  25  26  27  28
 219 prop tor  25  26  27  54
 220 ben  25  26  53
 221 ben  25  38  37
 222 ben  26  25  38
 223 prop tor  26  25  38  16
 224 prop tor  26  25  38  37
 225 ben  26  27  28
 226 prop tor  26  27  28  29
 227 prop tor  26  27  28  37
 228 ben  26  27  54
 229 ben  27  26  53
 230 ben  27  28  29
 231 prop tor  27  28  29  30
 232 prop tor  27  28  29  36
 233 ben  27  28  37
 234 prop tor  27  28  37  13
 235 prop tor  27  28  37  38
 236 ben  28  27  54
 237 ben  28  29  30
 238 prop tor  28  29  30  31
 239 prop tor  28  29  30  55
 240 ben  28  29  36
 241 prop tor  28  29  36  12
 242 prop tor  28  29  36  35
 243 ben  28  37  38
 244 prop tor  28  37  38  16
 245 prop tor  28  37  38  25
 246 ben  29  28  37
 247 prop tor  29  28  37  13
 248 prop tor  29  28  37  38
 249 ben  29  30  31
 250 prop tor  29  30  31  32
 251 prop tor  29  30  31  56
 252 ben  29  30  55
 253 ben  29  36  35
 254 ben  30  29  36
 255 prop tor  30  29  36  12
 256 prop tor  30  29  36  35
 257 ben  30  31  32
 258 prop tor  30  31  32  33
 259 prop tor  30  31  32  35
 260 ben  30  31  56
 261 ben  31  30  55
 262 ben  31  32  33
 263 prop tor  31  32  33   6
 264 prop tor  31  32  33  34
 265 ben  31  32  35
 266 prop tor  31  32  35   9
 267 prop tor  31  32  35  36
 268 ben  32  31  56
 269 ben  32  33  34
 270 ben  32  35  36
 271 prop tor  32  35  36  12
 272 prop tor  32  35  36  29
 273 prop tor  33   6   7   8
 274 prop tor  33   6   7   9
 275 ben  33  32  35
 276 prop tor  33  32  35   9
 277 prop tor  33  32  35  36
 278 prop tor  35   9  10  11
 279 prop tor  35   9  10  42
 280 prop tor  35  32  33   6
 281 prop tor  35  32  33  34
 282 prop tor  36  12  13  14
 283 prop tor  36  12  13  37
 284 prop tor  36  29  30  31
 285 prop tor  36  29  30  55
 286 prop tor  37  13  14  15
 287 prop tor  37  13  14  44
 288 prop tor  37  28  29  30
 289 prop tor  37  28  29  36
 290 prop tor  38  16  17  18
 291 prop tor  38  16  17  19
 292 prop tor  38  25  26  27
 293 prop tor  38  25  26  53
 294 prop tor  39   1   2   3
 295 ben  39   1  40
 296 ben  39   1  41
 297 prop tor  40   1   2   3
 298 ben  40   1  41
 299 prop tor  41   1   2   3
 300 prop tor  42  10  11  12
 301 prop tor  42  10  11  43
 302 prop tor  43  11  12  13
 303 prop tor  43  11  12  36
 304 prop tor  44  14  15  16
 305 prop tor  44  14  15  45
 306 prop tor  45  15  16  17
 307 prop tor  45  15  16  38
 308 prop tor  46  20  21  47
 309 prop tor  46  20  21  48
 310 prop tor  46  20  21  49
 311 prop tor  46  20  22  50
 312 prop tor  46  20  22  51
 313 prop tor  46  20  22  52
 314 ben  47  21  48
 315 ben  47  21  49
 316 ben  48  21  49
 317 ben  50  22  51
 318 ben  50  22  52
 319 ben  51  22  52
 320 prop tor  53  26  27  28
 321 prop tor  53  26  27  54
 322 prop tor  54  27  28  29
 323 prop tor  54  27  28  37
 324 prop tor  55  30  31  32
 325 prop tor  55  30  31  56
 326 prop tor  56  31  32  33
 327 prop tor  56  31  32  35
 328 lin bend prop tor   2   1   4   3
 329 lin bend prop tor   2   1   4   5
 330 lin bend prop tor  39   1   4   3
 331 lin bend prop tor  39   1   4   5
 332 lin bend prop tor  40   1   4   3
 333 lin bend prop tor  40   1   4   5
 334 lin bend prop tor  41   1   4   3
 335 lin bend prop tor  41   1   4   5
 336 lin bend prop tor   2   3   6   7
 337 lin bend prop tor   2   3   6  33
 nber bend=             110
 nber lin bend=           2
 nber prop tor=         165
 nber impr tor=           0
 nber tot redund int=         337
 Eigenvalues of G in red int coords
    Gval -0.00000000 -0.00000000 -0.00000000 -0.00000000 -0.00000000 -0.00000000 -0.00000000 -0.00000000
    Gval -0.00000000 -0.00000000 -0.00000000 -0.00000000 -0.00000000 -0.00000000 -0.00000000 -0.00000000
    Gval -0.00000000 -0.00000000 -0.00000000 -0.00000000 -0.00000000 -0.00000000 -0.00000000 -0.00000000
    Gval -0.00000000 -0.00000000 -0.00000000 -0.00000000 -0.00000000 -0.00000000 -0.00000000 -0.00000000
    Gval -0.00000000 -0.00000000 -0.00000000 -0.00000000 -0.00000000 -0.00000000 -0.00000000 -0.00000000
    Gval -0.00000000 -0.00000000 -0.00000000 -0.00000000 -0.00000000 -0.00000000 -0.00000000 -0.00000000
    Gval -0.00000000 -0.00000000 -0.00000000 -0.00000000 -0.00000000 -0.00000000 -0.00000000 -0.00000000
    Gval -0.00000000 -0.00000000 -0.00000000 -0.00000000 -0.00000000 -0.00000000 -0.00000000 -0.00000000
    Gval -0.00000000 -0.00000000 -0.00000000 -0.00000000 -0.00000000 -0.00000000 -0.00000000 -0.00000000
    Gval -0.00000000 -0.00000000 -0.00000000 -0.00000000 -0.00000000 -0.00000000 -0.00000000 -0.00000000
    Gval -0.00000000 -0.00000000 -0.00000000 -0.00000000 -0.00000000 -0.00000000 -0.00000000 -0.00000000
    Gval -0.00000000 -0.00000000  0.00000000  0.00000000  0.00000000  0.00000000  0.00000000  0.00000000
    Gval  0.00000000  0.00000000  0.00000000  0.00000000  0.00000000  0.00000000  0.00000000  0.00000000
    Gval  0.00000000  0.00000000  0.00000000  0.00000000  0.00000000  0.00000000  0.00000000  0.00000000
    Gval  0.00000000  0.00000000  0.00000000  0.00000000  0.00000000  0.00000000  0.00000000  0.00000000
    Gval  0.00000000  0.00000000  0.00000000  0.00000000  0.00000000  0.00000000  0.00000000  0.00000000
    Gval  0.00000000  0.00000000  0.00000000  0.00000000  0.00000000  0.00000000  0.00000000  0.00000000
    Gval  0.00000000  0.00000000  0.00000000  0.00000000  0.00000000  0.00000000  0.00000000  0.00000000
    Gval  0.00000000  0.00000000  0.00000000  0.00000000  0.00000000  0.00000000  0.00000000  0.00000000
    Gval  0.00000000  0.00000000  0.00000000  0.00000000  0.00000000  0.00000000  0.00000000  0.00000000
    Gval  0.00000000  0.00000000  0.00000000  0.00000000  0.00000000  0.00000000  0.00000000  0.00000000
    Gval  0.00000000  0.00000000  0.00000000  0.00000000  0.00000000  0.00000000  0.00000000  0.00000000
    Gval  0.00000051  0.00000069  0.00000194  0.00000226  0.00000372  0.00000454  0.00000622  0.00000917
    Gval  0.00001105  0.00001117  0.00001264  0.00001472  0.00001647  0.00001704  0.00001754  0.00001833
    Gval  0.00002125  0.00002323  0.00002353  0.00002429  0.00002542  0.00002687  0.00003069  0.00003358
    Gval  0.00003579  0.00003994  0.00004575  0.00004884  0.00005149  0.00005222  0.00005367  0.00005470
    Gval  0.00005864  0.00006245  0.00006449  0.00006892  0.00007272  0.00007521  0.00008139  0.00008249
    Gval  0.00008586  0.00008667  0.00009311  0.00009448  0.00009533  0.00009597  0.00010109  0.00011767
    Gval  0.00012247  0.00013142  0.00013425  0.00013639  0.00013730  0.00014084  0.00015530  0.00015863
    Gval  0.00015937  0.00016847  0.00016863  0.00018152  0.00020033  0.00021197  0.00022226  0.00022928
    Gval  0.00023030  0.00025962  0.00027260  0.00028526  0.00028930  0.00029665  0.00034175  0.00036037
    Gval  0.00037540  0.00038151  0.00038921  0.00038995  0.00039517  0.00041949  0.00042343  0.00043164
    Gval  0.00043512  0.00044059  0.00044189  0.00046220  0.00046320  0.00046895  0.00046898  0.00049498
    Gval  0.00052810  0.00053361  0.00053716  0.00054045  0.00054511  0.00055411  0.00055585  0.00055602
    Gval  0.00055665  0.00056606  0.00058821  0.00059849  0.00059923  0.00059956  0.00059984  0.00060219
    Gval  0.00061041  0.00064074  0.00064423  0.00064499  0.00064681  0.00066921  0.00069087  0.00069275
    Gval  0.00069777  0.00078267  0.00081061  0.00092096  0.00097843  0.00109335  0.00109427  0.00109497
    Gval  0.00109546  0.00114288  0.00116545  0.00116573  0.00116593  0.00116627  0.00117134  0.00117190
    Gval  0.00118680  0.00119231  0.00121193  0.00129546  0.00131879  0.00147952  0.00151471  0.00171402
    Gval  0.00175242  0.00191345  0.00228032  0.00233875  0.00251859  0.00252073  0.00255775  0.00278327
    Gval  0.00278898  0.00292182  0.00295876  0.00302354  0.00304204  0.00308122  0.00309640  0.00367454
    Gval  0.00367632  0.00372127  0.00372299  0.00394546  0.16816672177.69102512877.21036832************
    Gval************
  5.062021981554218E-007  5.062021981554218E-007
  6.923095232849734E-007  5.062021981554218E-007
  1.939611560037455E-006  5.062021981554218E-007
  2.255770968842298E-006  5.062021981554218E-007
  3.715493063047020E-006  5.062021981554218E-007
  4.538668700678792E-006  5.062021981554218E-007
  6.216910192910330E-006  5.062021981554218E-007
  9.172935854162226E-006  5.062021981554218E-007
  1.105133849137949E-005  5.062021981554218E-007
  1.116678857827465E-005  5.062021981554218E-007
  1.264440198334945E-005  5.062021981554218E-007
  1.471548257368743E-005  5.062021981554218E-007
  1.646523087320921E-005  5.062021981554218E-007
  1.703945507119750E-005  5.062021981554218E-007
  1.754446692418411E-005  5.062021981554218E-007
  1.833456636608720E-005  5.062021981554218E-007
  2.124610521796041E-005  5.062021981554218E-007
  2.322877332911539E-005  5.062021981554218E-007
  2.353183596051791E-005  5.062021981554218E-007
  2.429288006611023E-005  5.062021981554218E-007
  2.542088811471803E-005  5.062021981554218E-007
  2.687162367272370E-005  5.062021981554218E-007
  3.069134064733403E-005  5.062021981554218E-007
  3.357895107548487E-005  5.062021981554218E-007
  3.578666458546248E-005  5.062021981554218E-007
  3.993966593552903E-005  5.062021981554218E-007
  4.575451935891597E-005  5.062021981554218E-007
  4.883511819154554E-005  5.062021981554218E-007
  5.148966620571153E-005  5.062021981554218E-007
  5.222232650168677E-005  5.062021981554218E-007
  5.366553022090824E-005  5.062021981554218E-007
  5.469955555975864E-005  5.062021981554218E-007
  5.863598769770789E-005  5.062021981554218E-007
  6.244604418640392E-005  5.062021981554218E-007
  6.448768062439008E-005  5.062021981554218E-007
  6.891525886588516E-005  5.062021981554218E-007
  7.271602942817379E-005  5.062021981554218E-007
  7.520777612491024E-005  5.062021981554218E-007
  8.139490108341166E-005  5.062021981554218E-007
  8.249110957499562E-005  5.062021981554218E-007
  8.586365335030195E-005  5.062021981554218E-007
  8.666712792470258E-005  5.062021981554218E-007
  9.311370591174383E-005  5.062021981554218E-007
  9.447995755442853E-005  5.062021981554218E-007
  9.533360881262097E-005  5.062021981554218E-007
  9.597304785436275E-005  5.062021981554218E-007
  1.010899900265076E-004  5.062021981554218E-007
  1.176695568985913E-004  5.062021981554218E-007
  1.224711030194799E-004  5.062021981554218E-007
  1.314216615760673E-004  5.062021981554218E-007
  1.342516396842742E-004  5.062021981554218E-007
  1.363876123014253E-004  5.062021981554218E-007
  1.372977713944458E-004  5.062021981554218E-007
  1.408401778946200E-004  5.062021981554218E-007
  1.552990440173239E-004  5.062021981554218E-007
  1.586331461676949E-004  5.062021981554218E-007
  1.593688062062299E-004  5.062021981554218E-007
  1.684718493551870E-004  5.062021981554218E-007
  1.686265099583765E-004  5.062021981554218E-007
  1.815192339103261E-004  5.062021981554218E-007
  2.003312829129733E-004  5.062021981554218E-007
  2.119727270821778E-004  5.062021981554218E-007
  2.222608112418805E-004  5.062021981554218E-007
  2.292778421412083E-004  5.062021981554218E-007
  2.302976994415877E-004  5.062021981554218E-007
  2.596212199093913E-004  5.062021981554218E-007
  2.726034414248410E-004  5.062021981554218E-007
  2.852623160922906E-004  5.062021981554218E-007
  2.893042564434432E-004  5.062021981554218E-007
  2.966540170361147E-004  5.062021981554218E-007
  3.417481406469685E-004  5.062021981554218E-007
  3.603652783068145E-004  5.062021981554218E-007
  3.753984780060647E-004  5.062021981554218E-007
  3.815058561338999E-004  5.062021981554218E-007
  3.892084480601959E-004  5.062021981554218E-007
  3.899478238783913E-004  5.062021981554218E-007
  3.951677269831497E-004  5.062021981554218E-007
  4.194881931121488E-004  5.062021981554218E-007
  4.234323378586982E-004  5.062021981554218E-007
  4.316390521603355E-004  5.062021981554218E-007
  4.351166123690307E-004  5.062021981554218E-007
  4.405944401003147E-004  5.062021981554218E-007
  4.418895733694331E-004  5.062021981554218E-007
  4.621953928990231E-004  5.062021981554218E-007
  4.631981065783367E-004  5.062021981554218E-007
  4.689476202491213E-004  5.062021981554218E-007
  4.689756815513667E-004  5.062021981554218E-007
  4.949781333434215E-004  5.062021981554218E-007
  5.281035841969090E-004  5.062021981554218E-007
  5.336094551263350E-004  5.062021981554218E-007
  5.371567220597286E-004  5.062021981554218E-007
  5.404468760549660E-004  5.062021981554218E-007
  5.451111132301973E-004  5.062021981554218E-007
  5.541143936922268E-004  5.062021981554218E-007
  5.558524070446017E-004  5.062021981554218E-007
  5.560178023425930E-004  5.062021981554218E-007
  5.566467021886815E-004  5.062021981554218E-007
  5.660644397175005E-004  5.062021981554218E-007
  5.882057579434050E-004  5.062021981554218E-007
  5.984911566587410E-004  5.062021981554218E-007
  5.992287598115120E-004  5.062021981554218E-007
  5.995620737151798E-004  5.062021981554218E-007
  5.998392042993288E-004  5.062021981554218E-007
  6.021870974852446E-004  5.062021981554218E-007
  6.104067740545054E-004  5.062021981554218E-007
  6.407381111131758E-004  5.062021981554218E-007
  6.442275249689865E-004  5.062021981554218E-007
  6.449930633258961E-004  5.062021981554218E-007
  6.468106333210210E-004  5.062021981554218E-007
  6.692127366827573E-004  5.062021981554218E-007
  6.908685109595282E-004  5.062021981554218E-007
  6.927539030499863E-004  5.062021981554218E-007
  6.977701662010203E-004  5.062021981554218E-007
  7.826663213026019E-004  5.062021981554218E-007
  8.106075440135064E-004  5.062021981554218E-007
  9.209638585028992E-004  5.062021981554218E-007
  9.784333949836041E-004  5.062021981554218E-007
  1.093346986308444E-003  5.062021981554218E-007
  1.094273508957391E-003  5.062021981554218E-007
  1.094972453767604E-003  5.062021981554218E-007
  1.095463906256270E-003  5.062021981554218E-007
  1.142875099366507E-003  5.062021981554218E-007
  1.165452155108995E-003  5.062021981554218E-007
  1.165725942992610E-003  5.062021981554218E-007
  1.165933483913058E-003  5.062021981554218E-007
  1.166270257271838E-003  5.062021981554218E-007
  1.171344122324113E-003  5.062021981554218E-007
  1.171904086197331E-003  5.062021981554218E-007
  1.186798883672570E-003  5.062021981554218E-007
  1.192312618852924E-003  5.062021981554218E-007
  1.211926536990640E-003  5.062021981554218E-007
  1.295464640575347E-003  5.062021981554218E-007
  1.318792918533563E-003  5.062021981554218E-007
  1.479523800867734E-003  5.062021981554218E-007
  1.514708824734673E-003  5.062021981554218E-007
  1.714018037901448E-003  5.062021981554218E-007
  1.752420639770121E-003  5.062021981554218E-007
  1.913451002333732E-003  5.062021981554218E-007
  2.280321605396196E-003  5.062021981554218E-007
  2.338752697181272E-003  5.062021981554218E-007
  2.518591835271360E-003  5.062021981554218E-007
  2.520734640938944E-003  5.062021981554218E-007
  2.557748194073718E-003  5.062021981554218E-007
  2.783268504032480E-003  5.062021981554218E-007
  2.788983768420771E-003  5.062021981554218E-007
  2.921824798737975E-003  5.062021981554218E-007
  2.958764633809941E-003  5.062021981554218E-007
  3.023544775125933E-003  5.062021981554218E-007
  3.042038016016004E-003  5.062021981554218E-007
  3.081222027545773E-003  5.062021981554218E-007
  3.096395260862674E-003  5.062021981554218E-007
  3.674538339410685E-003  5.062021981554218E-007
  3.676318712495253E-003  5.062021981554218E-007
  3.721267112938073E-003  5.062021981554218E-007
  3.722994279109726E-003  5.062021981554218E-007
  3.945458471415872E-003  5.062021981554218E-007
  0.168166717645668       5.062021981554218E-007
   177.691025120700       5.062021981554218E-007
   877.210368323103       5.062021981554218E-007
   4033.64665606636       5.062021981554218E-007
   19010.0112827673       5.062021981554218E-007
 cut=1d-8, nber non-redundant internal coords=         161
 Check on Eigenvals of non-red overlap matrix:
  0.00000051  0.00000069  0.00000194  0.00000226  0.00000372  0.00000454  0.00000622  0.00000917
  0.00001105  0.00001117  0.00001264  0.00001472  0.00001647  0.00001704  0.00001754  0.00001833
  0.00002125  0.00002323  0.00002353  0.00002429  0.00002542  0.00002687  0.00003069  0.00003358
  0.00003579  0.00003994  0.00004575  0.00004884  0.00005149  0.00005222  0.00005367  0.00005470
  0.00005864  0.00006245  0.00006449  0.00006892  0.00007272  0.00007521  0.00008139  0.00008249
  0.00008586  0.00008667  0.00009311  0.00009448  0.00009533  0.00009597  0.00010109  0.00011767
  0.00012247  0.00013142  0.00013425  0.00013639  0.00013730  0.00014084  0.00015530  0.00015863
  0.00015937  0.00016847  0.00016863  0.00018152  0.00020033  0.00021197  0.00022226  0.00022928
  0.00023030  0.00025962  0.00027260  0.00028526  0.00028930  0.00029665  0.00034175  0.00036037
  0.00037540  0.00038151  0.00038921  0.00038995  0.00039517  0.00041949  0.00042343  0.00043164
  0.00043512  0.00044059  0.00044189  0.00046220  0.00046320  0.00046895  0.00046898  0.00049498
  0.00052810  0.00053361  0.00053716  0.00054045  0.00054511  0.00055411  0.00055585  0.00055602
  0.00055665  0.00056606  0.00058821  0.00059849  0.00059923  0.00059956  0.00059984  0.00060219
  0.00061041  0.00064074  0.00064423  0.00064499  0.00064681  0.00066921  0.00069087  0.00069275
  0.00069777  0.00078267  0.00081061  0.00092096  0.00097843  0.00109335  0.00109427  0.00109497
  0.00109546  0.00114288  0.00116545  0.00116573  0.00116593  0.00116627  0.00117134  0.00117190
  0.00118680  0.00119231  0.00121193  0.00129546  0.00131879  0.00147952  0.00151471  0.00171402
  0.00175242  0.00191345  0.00228032  0.00233875  0.00251859  0.00252073  0.00255775  0.00278327
  0.00278898  0.00292182  0.00295876  0.00302354  0.00304204  0.00308122  0.00309640  0.00367454
  0.00367632  0.00372127  0.00372299  0.00394546  0.16816672177.69102512877.21036832************
************
 nber red int coords=         335         337
