 Enter ifcurve (0=recti, 1=orth curvi, 2=apprx curvi, -1 = skip
 And atom ordering flag, 0= never changes, 1= use the first order thenceforth,
  2= deduce it (does read on fail), 3= always read it
 Reading file: 
 ./Benzene-bridges_2_C0S0.log                                                   
                                          
  Entering Gaussian System, Link 0=g16                                          
  
 Gaussian format, type: g94, g98, g03= F F F
  #P Geom=AllCheck Guess=TCheck SCRF=Check GenChk RB3LYP/6-311G(d,p) Fre    
 energy type= B3LYP   
 Original G94 input coords:
  6  0.945917 -0.024405 -0.003726
  6 -0.264593 -0.041362 -0.003728
  6 -1.687619 -0.061314 -0.003727
  6 -2.387395 -1.281939 -0.003496
  6 -3.776738 -1.296699 -0.003496
  6 -4.493706 -0.100747 -0.003731
  6 -3.810624  1.114873 -0.003971
  6 -2.421411  1.139167 -0.003971
  6  2.368945 -0.004459 -0.003726
  6  3.068747  1.216146 -0.003351
  6  4.458092  1.230870 -0.003353
  6  5.175033  0.034903 -0.003731
  6  4.491922 -1.180703 -0.004114
  6  3.102710 -1.204962 -0.004115
  1 -1.828664 -2.209999 -0.003313
  1 -4.302575 -2.244852 -0.003311
  1 -5.577589 -0.115974 -0.003730
  1 -4.362894  2.047878 -0.004157
  1 -1.888979  2.082562 -0.004160
  1  2.510042  2.144222 -0.003057
  1  4.983952  2.179010 -0.003056
  1  6.258916  0.050106 -0.003731
  1  5.044171 -2.113721 -0.004413
  1  2.570252 -2.148341 -0.004415
 nber atoms=          24
  SCF Done:  E(RB3LYP) =  -539.593385402     A.U. after    1 cycles             
  
          23          40 "  -539.593385402"
After scan for Atom:   Atom  AN      X      Y      Z        X      Y      Z        X      Y      Z   
After scan for Atom:   Atom  AN      X      Y      Z        X      Y      Z        X      Y      Z   
After scan for Atom:   Atom  AN      X      Y      Z        X      Y      Z        X      Y      Z   
After scan for Atom:   Atom  AN      X      Y      Z        X      Y      Z        X      Y      Z   
After scan for Atom:   Atom  AN      X      Y      Z        X      Y      Z        X      Y      Z   
After scan for Atom:   Atom  AN      X      Y      Z        X      Y      Z        X      Y      Z   
After scan for Atom:   Atom  AN      X      Y      Z        X      Y      Z        X      Y      Z   
After scan for Atom:   Atom  AN      X      Y      Z        X      Y      Z        X      Y      Z   
After scan for Atom:   Atom  AN      X      Y      Z        X      Y      Z        X      Y      Z   
After scan for Atom:   Atom  AN      X      Y      Z        X      Y      Z        X      Y      Z   
After scan for Atom:   Atom  AN      X      Y      Z        X      Y      Z        X      Y      Z   
After scan for Atom:   Atom  AN      X      Y      Z        X      Y      Z        X      Y      Z   
After scan for Atom:   Atom  AN      X      Y      Z        X      Y      Z        X      Y      Z   
After scan for Atom:   Atom  AN      X      Y      Z        X      Y      Z        X      Y      Z   
After scan for Atom:   Atom  AN      X      Y      Z        X      Y      Z        X      Y      Z   
After scan for Atom:   Atom  AN      X      Y      Z        X      Y      Z        X      Y      Z   
After scan for Atom:   Atom  AN      X      Y      Z        X      Y      Z        X      Y      Z   
After scan for Atom:   Atom  AN      X      Y      Z        X      Y      Z        X      Y      Z   
After scan for Atom:   Atom  AN      X      Y      Z        X      Y      Z        X      Y      Z   
After scan for Atom:   Atom  AN      X      Y      Z        X      Y      Z        X      Y      Z   
After scan for Atom:   Atom  AN      X      Y      Z        X      Y      Z        X      Y      Z   
After scan for Atom:   Atom  AN      X      Y      Z        X      Y      Z        X      Y      Z   
 g94    frequencies=
     0.0    0.0    0.0    0.0    0.0    0.0   20.8   46.6   50.8  140.4
   155.7  260.7  286.2  405.1  410.7  412.0  478.5  529.5  549.6  569.9
   576.6  635.9  641.8  705.0  705.5  716.0  774.7  775.4  852.7  853.1
   857.2  930.4  931.6  980.7  980.8 1002.0 1002.1 1013.9 1014.3 1047.3
  1049.3 1100.5 1101.5 1160.4 1182.7 1182.7 1200.2 1202.3 1308.8 1311.8
  1341.0 1351.5 1352.2 1472.1 1474.2 1515.6 1534.6 1607.3 1608.8 1636.8
  1645.8 2301.9 3163.1 3163.2 3171.6 3171.7 3183.0 3183.1 3190.5 3190.7
  3194.9 3195.1
 g94    symmetries=
                                                 A      A      A      A
       A      A      A      A      A      A      A      A      A      A
       A      A      A      A      A      A      A      A      A      A
       A      A      A      A      A      A      A      A      A      A
       A      A      A      A      A      A      A      A      A      A
       A      A      A      A      A      A      A      A      A      A
       A      A      A      A      A      A      A      A      A      A
       A      A
 atomic masses:
 12.0000 12.0000 12.0000 12.0000 12.0000 12.0000 12.0000 12.0000 12.0000 12.0000
 12.0000 12.0000 12.0000 12.0000  1.0078  1.0078  1.0078  1.0078  1.0078  1.0078
  1.0078  1.0078  1.0078  1.0078
 looking for force constants in 
 ./Benzene-bridges_2_C0S0.fchk                                                  
  
 Cartesian Force Constants                  R   N=        2628                  
  
 n3=          72        2628
 g94-fc frequencies=
    -5.4   -2.2   -1.5   -0.0    0.0    0.0   20.8   46.6   50.8  140.4
   155.7  260.7  286.2  405.1  410.7  412.0  478.6  529.5  549.6  569.9
   576.6  636.0  641.8  705.0  705.6  716.0  774.7  775.4  852.7  853.1
   857.2  930.5  931.6  980.7  980.9 1002.0 1002.1 1013.9 1014.3 1047.4
  1049.3 1100.5 1101.5 1160.4 1182.7 1182.7 1200.3 1202.3 1308.8 1311.8
  1341.0 1351.5 1352.2 1472.2 1474.2 1515.6 1534.6 1607.4 1608.8 1636.8
  1645.8 2302.0 3163.2 3163.3 3171.7 3171.7 3183.1 3183.2 3190.6 3190.8
  3194.9 3195.2
 at 99999: n3=          72
 symm operator            1 :  F  nop=           0
 symm operator            2 :  F  nop=           0
 symm operator            3 :  F  nop=           0
 symm operator            4 :  F  nop=           0
 symm operator            5 :  F  nop=           0
 symm operator            6 :  F  nop=           0
 symm operator            7 :  F  nop=           0
 The point group of the molecule is  C1
 Symmetry rotation matrix:
   1.00000   0.00000   0.00000
   0.00000   1.00000   0.00000
   0.00000   0.00000   1.00000

 Projecting out zero-frequency components
 generating redundant internal coords
         300        3600          24
 search for int coords
   1 str   2   1   1.211
   2 str   3   2   1.423
   3 str   4   3   1.407
   4 str   5   4   1.389
   5 str   6   5   1.394
   6 str   7   6   1.394
   7 str   8   3   1.407
   8 str   8   7   1.389
   9 str   9   1   1.423
  10 str  10   9   1.407
  11 str  11  10   1.389
  12 str  12  11   1.394
  13 str  13  12   1.394
  14 str  14   9   1.407
  15 str  14  13   1.389
  16 str  15   4   1.083
  17 str  16   5   1.084
  18 str  17   6   1.084
  19 str  18   7   1.084
  20 str  19   8   1.083
  21 str  20  10   1.083
  22 str  21  11   1.084
  23 str  22  12   1.084
  24 str  23  13   1.084
  25 str  24  14   1.083
 nber stretches=          25
  26 lin ben   1   2   3
  28 ben   1   9  10
  29 prop tor   1   9  10  11
  30 prop tor   1   9  10  20
  31 ben   1   9  14
  32 prop tor   1   9  14  13
  33 prop tor   1   9  14  24
 Extend lin bond           1           9           2           3
  34 lin ben   2   1   9
  36 ben   2   3   4
  37 prop tor   2   3   4   5
  38 prop tor   2   3   4  15
  39 ben   2   3   8
  40 prop tor   2   3   8   7
  41 prop tor   2   3   8  19
  42 ben   3   4   5
  43 prop tor   3   4   5   6
  44 prop tor   3   4   5  16
  45 ben   3   4  15
  46 ben   3   8   7
  47 ben   3   8  19
  48 ben   4   3   8
  49 prop tor   4   3   8   7
  50 prop tor   4   3   8  19
  51 ben   4   5   6
  52 prop tor   4   5   6   7
  53 prop tor   4   5   6  17
  54 ben   4   5  16
  55 ben   5   4  15
  56 ben   5   6   7
  57 prop tor   5   6   7   8
  58 prop tor   5   6   7  18
  59 ben   5   6  17
  60 ben   6   5  16
  61 ben   6   7   8
  62 prop tor   6   7   8   3
  63 prop tor   6   7   8  19
  64 ben   6   7  18
  65 ben   7   6  17
  66 ben   7   8  19
  67 prop tor   8   3   4   5
  68 prop tor   8   3   4  15
  69 ben   8   7  18
  70 ben   9  10  11
  71 prop tor   9  10  11  12
  72 prop tor   9  10  11  21
  73 ben   9  10  20
  74 ben   9  14  13
  75 ben   9  14  24
  76 ben  10   9  14
  77 prop tor  10   9  14  13
  78 prop tor  10   9  14  24
  79 ben  10  11  12
  80 prop tor  10  11  12  13
  81 prop tor  10  11  12  22
  82 ben  10  11  21
  83 ben  11  10  20
  84 ben  11  12  13
  85 prop tor  11  12  13  14
  86 prop tor  11  12  13  23
  87 ben  11  12  22
  88 ben  12  11  21
  89 ben  12  13  14
  90 prop tor  12  13  14   9
  91 prop tor  12  13  14  24
  92 ben  12  13  23
  93 ben  13  12  22
  94 ben  13  14  24
  95 prop tor  14   9  10  11
  96 prop tor  14   9  10  20
  97 ben  14  13  23
  98 prop tor  15   4   5   6
  99 prop tor  15   4   5  16
 100 prop tor  16   5   6   7
 101 prop tor  16   5   6  17
 102 prop tor  17   6   7   8
 103 prop tor  17   6   7  18
 104 prop tor  18   7   8   3
 105 prop tor  18   7   8  19
 106 prop tor  20  10  11  12
 107 prop tor  20  10  11  21
 108 prop tor  21  11  12  13
 109 prop tor  21  11  12  22
 110 prop tor  22  12  13  14
 111 prop tor  22  12  13  23
 112 prop tor  23  13  14   9
 113 prop tor  23  13  14  24
 114 lin bend prop tor  10   9   3   4
 115 lin bend prop tor  10   9   3   8
 116 lin bend prop tor  14   9   3   4
 117 lin bend prop tor  14   9   3   8
 nber bend=              40
 nber lin bend=           1
 nber prop tor=          52
 nber impr tor=           0
 nber tot redund int=         117
 Eigenvalues of G in red int coords
    Gval -0.00000000 -0.00000000 -0.00000000 -0.00000000 -0.00000000 -0.00000000 -0.00000000 -0.00000000
    Gval -0.00000000 -0.00000000 -0.00000000 -0.00000000 -0.00000000 -0.00000000 -0.00000000 -0.00000000
    Gval -0.00000000 -0.00000000 -0.00000000 -0.00000000 -0.00000000 -0.00000000 -0.00000000 -0.00000000
    Gval -0.00000000 -0.00000000  0.00000000  0.00000000  0.00000000  0.00000000  0.00000000  0.00000000
    Gval  0.00000000  0.00000000  0.00000000  0.00000000  0.00000000  0.00000000  0.00000000  0.00000000
    Gval  0.00000000  0.00000000  0.00000000  0.00000000  0.00000000  0.00000000  0.00000000  0.00000000
    Gval  0.00000000  0.00000000  0.00000000  0.00000151  0.00000372  0.00000699  0.00001245  0.00002899
    Gval  0.00004058  0.00004432  0.00004534  0.00005083  0.00005699  0.00005914  0.00006368  0.00006943
    Gval  0.00006961  0.00009658  0.00011300  0.00011467  0.00011912  0.00012601  0.00014685  0.00018721
    Gval  0.00021450  0.00024699  0.00027038  0.00027169  0.00033895  0.00035526  0.00036652  0.00036725
    Gval  0.00042843  0.00050351  0.00055717  0.00059305  0.00059305  0.00059358  0.00059377  0.00060439
    Gval  0.00060440  0.00062303  0.00062494  0.00066049  0.00066051  0.00069534  0.00076115  0.00103949
    Gval  0.00103968  0.00110916  0.00110916  0.00113876  0.00113884  0.00117162  0.00117162  0.00117231
    Gval  0.00117231  0.00139061  0.00141523  0.00171804  0.00175436  0.00233311  0.00234668  0.00309339
    Gval  0.00310344  0.00374425  0.00375746  0.00406811  0.00406853
  1.507482264143585E-006  1.507482264143585E-006
  3.720472642636236E-006  1.507482264143585E-006
  6.991781073251243E-006  1.507482264143585E-006
  1.244680405999003E-005  1.507482264143585E-006
  2.898574784271046E-005  1.507482264143585E-006
  4.057940566392666E-005  1.507482264143585E-006
  4.432178925949552E-005  1.507482264143585E-006
  4.533760898958439E-005  1.507482264143585E-006
  5.083095542436344E-005  1.507482264143585E-006
  5.699007149596894E-005  1.507482264143585E-006
  5.913571953683082E-005  1.507482264143585E-006
  6.368379092251366E-005  1.507482264143585E-006
  6.943254806680239E-005  1.507482264143585E-006
  6.961416549719337E-005  1.507482264143585E-006
  9.658303495241169E-005  1.507482264143585E-006
  1.129967280085647E-004  1.507482264143585E-006
  1.146739854057191E-004  1.507482264143585E-006
  1.191223070350342E-004  1.507482264143585E-006
  1.260076020101945E-004  1.507482264143585E-006
  1.468478454514724E-004  1.507482264143585E-006
  1.872119060519735E-004  1.507482264143585E-006
  2.145030670806604E-004  1.507482264143585E-006
  2.469856648361990E-004  1.507482264143585E-006
  2.703794357990783E-004  1.507482264143585E-006
  2.716894678611545E-004  1.507482264143585E-006
  3.389533644239155E-004  1.507482264143585E-006
  3.552565019491353E-004  1.507482264143585E-006
  3.665249903215403E-004  1.507482264143585E-006
  3.672458679340126E-004  1.507482264143585E-006
  4.284259080881449E-004  1.507482264143585E-006
  5.035092050511583E-004  1.507482264143585E-006
  5.571708251390325E-004  1.507482264143585E-006
  5.930538034682628E-004  1.507482264143585E-006
  5.930538855586280E-004  1.507482264143585E-006
  5.935838121261493E-004  1.507482264143585E-006
  5.937720153325397E-004  1.507482264143585E-006
  6.043915274849171E-004  1.507482264143585E-006
  6.043950909392431E-004  1.507482264143585E-006
  6.230329742770128E-004  1.507482264143585E-006
  6.249439223433065E-004  1.507482264143585E-006
  6.604922780001249E-004  1.507482264143585E-006
  6.605054574278230E-004  1.507482264143585E-006
  6.953352839433843E-004  1.507482264143585E-006
  7.611465702608909E-004  1.507482264143585E-006
  1.039492036042656E-003  1.507482264143585E-006
  1.039675747368381E-003  1.507482264143585E-006
  1.109157105671982E-003  1.507482264143585E-006
  1.109161057919172E-003  1.507482264143585E-006
  1.138763568429510E-003  1.507482264143585E-006
  1.138844115562412E-003  1.507482264143585E-006
  1.171621822477961E-003  1.507482264143585E-006
  1.171623619640414E-003  1.507482264143585E-006
  1.172308844473023E-003  1.507482264143585E-006
  1.172309046000184E-003  1.507482264143585E-006
  1.390606487488215E-003  1.507482264143585E-006
  1.415233867340450E-003  1.507482264143585E-006
  1.718044289385335E-003  1.507482264143585E-006
  1.754355739906971E-003  1.507482264143585E-006
  2.333111334788977E-003  1.507482264143585E-006
  2.346677370844260E-003  1.507482264143585E-006
  3.093388453992035E-003  1.507482264143585E-006
  3.103435055859321E-003  1.507482264143585E-006
  3.744251083767284E-003  1.507482264143585E-006
  3.757461652733602E-003  1.507482264143585E-006
  4.068108829474398E-003  1.507482264143585E-006
  4.068531679886973E-003  1.507482264143585E-006
 cut=1d-8, nber non-redundant internal coords=          66
 Check on Eigenvals of non-red overlap matrix:
  0.00000151  0.00000372  0.00000699  0.00001245  0.00002899  0.00004058  0.00004432  0.00004534
  0.00005083  0.00005699  0.00005914  0.00006368  0.00006943  0.00006961  0.00009658  0.00011300
  0.00011467  0.00011912  0.00012601  0.00014685  0.00018721  0.00021450  0.00024699  0.00027038
  0.00027169  0.00033895  0.00035526  0.00036652  0.00036725  0.00042843  0.00050351  0.00055717
  0.00059305  0.00059305  0.00059358  0.00059377  0.00060439  0.00060440  0.00062303  0.00062494
  0.00066049  0.00066051  0.00069534  0.00076115  0.00103949  0.00103968  0.00110916  0.00110916
  0.00113876  0.00113884  0.00117162  0.00117162  0.00117231  0.00117231  0.00139061  0.00141523
  0.00171804  0.00175436  0.00233311  0.00234668  0.00309339  0.00310344  0.00374425  0.00375746
  0.00406811  0.00406853
 Checking for correct frequencies
 recalc frequencies=
    -0.0   -0.0   -0.0    0.0    0.0    0.0   20.8   46.6   50.8  140.4
   155.7  260.7  286.2  405.1  410.7  412.0  478.6  529.5  549.6  569.9
   576.6  636.0  641.8  705.0  705.6  716.0  774.7  775.4  852.7  853.1
   857.2  930.5  931.6  980.7  980.9 1002.0 1002.1 1013.9 1014.3 1047.4
  1049.3 1100.5 1101.5 1160.4 1182.7 1182.7 1200.3 1202.3 1308.8 1311.8
  1341.0 1351.5 1352.2 1472.2 1474.2 1515.6 1534.6 1607.4 1608.8 1636.8
  1645.8 2302.0 3163.2 3163.3 3171.7 3171.7 3183.1 3183.2 3190.6 3190.8
  3194.9 3195.2
 recalc symmetries=
                                                                       
                                                                       
                                                                       
                                                                       
                                                                       
                                                                       
                                                                       
               
 recalc freqs check OK
 Zero-point lengths:
 10.0000 10.0000 10.0000 10.0000 10.0000 10.0000 54.3441 36.3326 34.7877 20.9255
 19.8706 15.3553 14.6545 12.3169 12.2335 12.2142 11.3327 10.7738 10.5750 10.3848
 10.3240  9.8306  9.7856  9.3366  9.3331  9.2646  8.9069  8.9028  8.4897  8.4879
  8.4674  8.1273  8.1222  7.9164  7.9158  7.8316  7.8315  7.7857  7.7840  7.6604
  7.6531  7.4731  7.4696  7.2775  7.2087  7.2087  7.1558  7.1497  6.8527  6.8447
  6.7699  6.7435  6.7417  6.4613  6.4568  6.3680  6.3285  6.1836  6.1807  6.1276
  6.1109  5.1671  4.4079  4.4079  4.4020  4.4020  4.3941  4.3941  4.3889  4.3888
  4.3860  4.3858
 highest evec of mol 1
 -0.0009 -0.0000 -0.0000
  0.0009  0.0000  0.0000
  0.0057  0.0001  0.0000
  0.0562 -0.0883  0.0000
 -0.0429 -0.0766  0.0000
 -0.0864 -0.0012  0.0000
 -0.0450  0.0753 -0.0000
  0.0536  0.0897 -0.0000
 -0.0057 -0.0001  0.0000
 -0.0561  0.0880  0.0000
  0.0428  0.0764  0.0000
  0.0862  0.0012  0.0000
  0.0449 -0.0752 -0.0000
 -0.0536 -0.0895 -0.0000
 -0.1753  0.2898 -0.0001
  0.1342  0.2419 -0.0000
  0.2726  0.0038 -0.0000
  0.1409 -0.2380  0.0000
 -0.1668 -0.2941  0.0001
  0.1747 -0.2889 -0.0001
 -0.1338 -0.2413 -0.0001
 -0.2720 -0.0038 -0.0000
 -0.1406  0.2375  0.0001
  0.1665  0.2936  0.0001
 generating redundant internal coords
         300        3600          24
 Adding extra bonds for z output only
           6           6           6           6           6           6
           6           6           6           6           6           6
           6           6           1           1           1           1
           1           1           1           1           1           1
 search for int coords
   1 str   2   1   1.211
   2 str   3   2   1.423
   3 str   4   3   1.407
   4 str   5   4   1.389
   5 str   6   5   1.394
   6 str   7   6   1.394
   7 str   8   3   1.407
   8 str   8   7   1.389
   9 str   9   1   1.423
  10 str  10   9   1.407
  11 str  11  10   1.389
  12 str  12  11   1.394
  13 str  13  12   1.394
  14 str  14   9   1.407
  15 str  14  13   1.389
  16 str  15   4   1.083
  17 str  16   5   1.084
  18 str  17   6   1.084
  19 str  18   7   1.084
  20 str  19   8   1.083
  21 str  20  10   1.083
  22 str  21  11   1.084
  23 str  22  12   1.084
  24 str  23  13   1.084
  25 str  24  14   1.083
 nber stretches=          25
  26 lin ben   1   2   3
  28 ben   1   9  10
  29 prop tor   1   9  10  11
  30 prop tor   1   9  10  20
  31 ben   1   9  14
  32 prop tor   1   9  14  13
  33 prop tor   1   9  14  24
 Extend lin bond           1           9           2           3
  34 lin ben   2   1   9
  36 ben   2   3   4
  37 prop tor   2   3   4   5
  38 prop tor   2   3   4  15
  39 ben   2   3   8
  40 prop tor   2   3   8   7
  41 prop tor   2   3   8  19
  42 ben   3   4   5
  43 prop tor   3   4   5   6
  44 prop tor   3   4   5  16
  45 ben   3   4  15
  46 ben   3   8   7
  47 ben   3   8  19
  48 ben   4   3   8
  49 prop tor   4   3   8   7
  50 prop tor   4   3   8  19
  51 ben   4   5   6
  52 prop tor   4   5   6   7
  53 prop tor   4   5   6  17
  54 ben   4   5  16
  55 ben   5   4  15
  56 ben   5   6   7
  57 prop tor   5   6   7   8
  58 prop tor   5   6   7  18
  59 ben   5   6  17
  60 ben   6   5  16
  61 ben   6   7   8
  62 prop tor   6   7   8   3
  63 prop tor   6   7   8  19
  64 ben   6   7  18
  65 ben   7   6  17
  66 ben   7   8  19
  67 prop tor   8   3   4   5
  68 prop tor   8   3   4  15
  69 ben   8   7  18
  70 ben   9  10  11
  71 prop tor   9  10  11  12
  72 prop tor   9  10  11  21
  73 ben   9  10  20
  74 ben   9  14  13
  75 ben   9  14  24
  76 ben  10   9  14
  77 prop tor  10   9  14  13
  78 prop tor  10   9  14  24
  79 ben  10  11  12
  80 prop tor  10  11  12  13
  81 prop tor  10  11  12  22
  82 ben  10  11  21
  83 ben  11  10  20
  84 ben  11  12  13
  85 prop tor  11  12  13  14
  86 prop tor  11  12  13  23
  87 ben  11  12  22
  88 ben  12  11  21
  89 ben  12  13  14
  90 prop tor  12  13  14   9
  91 prop tor  12  13  14  24
  92 ben  12  13  23
  93 ben  13  12  22
  94 ben  13  14  24
  95 prop tor  14   9  10  11
  96 prop tor  14   9  10  20
  97 ben  14  13  23
  98 prop tor  15   4   5   6
  99 prop tor  15   4   5  16
 100 prop tor  16   5   6   7
 101 prop tor  16   5   6  17
 102 prop tor  17   6   7   8
 103 prop tor  17   6   7  18
 104 prop tor  18   7   8   3
 105 prop tor  18   7   8  19
 106 prop tor  20  10  11  12
 107 prop tor  20  10  11  21
 108 prop tor  21  11  12  13
 109 prop tor  21  11  12  22
 110 prop tor  22  12  13  14
 111 prop tor  22  12  13  23
 112 prop tor  23  13  14   9
 113 prop tor  23  13  14  24
 114 lin bend prop tor  10   9   3   4
 115 lin bend prop tor  10   9   3   8
 116 lin bend prop tor  14   9   3   4
 117 lin bend prop tor  14   9   3   8
 nber bend=              40
 nber lin bend=           1
 nber prop tor=          52
 nber impr tor=           0
 nber tot redund int=         117
 Reading file: 
 ./Benzene-bridges_2_C0S1.log                                                   
                                          
  Entering Gaussian System, Link 0=g16                                          
  
 Gaussian format, type: g94, g98, g03= F F F
  #P Geom=AllCheck Guess=TCheck SCRF=Check GenChk RB3LYP TD(FC,Read)/6-3    
 energy type= TD      
 Original G94 input coords:
  6  0.965303 -0.024178 -0.003648
  6 -0.283978 -0.041634 -0.003648
  6 -1.662311 -0.060966 -0.003647
  6 -2.389203 -1.304942 -0.003577
  6 -3.766497 -1.307615 -0.003687
  6 -4.489729 -0.100676 -0.003851
  6 -3.800678  1.126096 -0.003868
  6 -2.423850  1.162110 -0.003763
  6  2.343637 -0.004844 -0.003647
  6  3.070530  1.239131 -0.003613
  6  4.447823  1.241803 -0.003722
  6  5.171055  0.034863 -0.003851
  6  4.482003 -1.191908 -0.003833
  6  3.105175 -1.227921 -0.003727
  1 -1.830027 -2.232869 -0.003437
  1 -4.299343 -2.252249 -0.003637
  1 -5.573228 -0.115891 -0.003956
  1 -4.359843  2.055393 -0.003957
  1 -1.890953  2.105376 -0.003760
  1  2.511355  2.167059 -0.003501
  1  4.980671  2.186437 -0.003701
  1  6.254554  0.050078 -0.003957
  1  5.041167 -2.121206 -0.003894
  1  2.572277 -2.171186 -0.003697
 nber atoms=          24
  Total Energy, E(TD-HF/TD-DFT) =  -539.449747697                               
  
          32          49 "  -539.449747697"
After scan for Atom:   Atom  AN      X      Y      Z        X      Y      Z        X      Y      Z   
After scan for Atom:   Atom  AN      X      Y      Z        X      Y      Z        X      Y      Z   
After scan for Atom:   Atom  AN      X      Y      Z        X      Y      Z        X      Y      Z   
After scan for Atom:   Atom  AN      X      Y      Z        X      Y      Z        X      Y      Z   
After scan for Atom:   Atom  AN      X      Y      Z        X      Y      Z        X      Y      Z   
After scan for Atom:   Atom  AN      X      Y      Z        X      Y      Z        X      Y      Z   
After scan for Atom:   Atom  AN      X      Y      Z        X      Y      Z        X      Y      Z   
After scan for Atom:   Atom  AN      X      Y      Z        X      Y      Z        X      Y      Z   
After scan for Atom:   Atom  AN      X      Y      Z        X      Y      Z        X      Y      Z   
After scan for Atom:   Atom  AN      X      Y      Z        X      Y      Z        X      Y      Z   
After scan for Atom:   Atom  AN      X      Y      Z        X      Y      Z        X      Y      Z   
After scan for Atom:   Atom  AN      X      Y      Z        X      Y      Z        X      Y      Z   
After scan for Atom:   Atom  AN      X      Y      Z        X      Y      Z        X      Y      Z   
After scan for Atom:   Atom  AN      X      Y      Z        X      Y      Z        X      Y      Z   
After scan for Atom:   Atom  AN      X      Y      Z        X      Y      Z        X      Y      Z   
After scan for Atom:   Atom  AN      X      Y      Z        X      Y      Z        X      Y      Z   
After scan for Atom:   Atom  AN      X      Y      Z        X      Y      Z        X      Y      Z   
After scan for Atom:   Atom  AN      X      Y      Z        X      Y      Z        X      Y      Z   
After scan for Atom:   Atom  AN      X      Y      Z        X      Y      Z        X      Y      Z   
After scan for Atom:   Atom  AN      X      Y      Z        X      Y      Z        X      Y      Z   
After scan for Atom:   Atom  AN      X      Y      Z        X      Y      Z        X      Y      Z   
After scan for Atom:   Atom  AN      X      Y      Z        X      Y      Z        X      Y      Z   
 g94    frequencies=
     0.0    0.0    0.0    0.0    0.0    0.0   43.1   45.2   51.0  117.3
   142.8  216.3  261.0  348.1  386.8  406.5  459.8  473.7  514.9  531.9
   548.7  617.2  621.6  652.9  654.5  698.3  742.0  743.4  791.5  794.9
   820.1  865.3  865.3  964.2  964.8  975.5  975.6  986.3  993.2 1014.7
  1014.8 1096.6 1098.4 1149.8 1166.1 1166.3 1192.4 1204.8 1274.6 1281.2
  1362.2 1362.3 1405.6 1441.5 1442.0 1475.6 1513.2 1524.0 1524.0 1608.2
  1636.6 2142.6 3161.7 3161.8 3166.3 3166.3 3183.2 3183.4 3188.2 3188.3
  3193.7 3194.3
 g94    symmetries=
                                                 A      A      A      A
       A      A      A      A      A      A      A      A      A      A
       A      A      A      A      A      A      A      A      A      A
       A      A      A      A      A      A      A      A      A      A
       A      A      A      A      A      A      A      A      A      A
       A      A      A      A      A      A      A      A      A      A
       A      A      A      A      A      A      A      A      A      A
       A      A
 atomic masses:
 12.0000 12.0000 12.0000 12.0000 12.0000 12.0000 12.0000 12.0000 12.0000 12.0000
 12.0000 12.0000 12.0000 12.0000  1.0078  1.0078  1.0078  1.0078  1.0078  1.0078
  1.0078  1.0078  1.0078  1.0078
 looking for force constants in 
 ./Benzene-bridges_2_C0S1.fchk                                                  
  
 Cartesian Force Constants                  R   N=        2628                  
  
 n3=          72        2628
 g94-fc frequencies=
    -5.0   -1.9   -1.5   -0.0    0.0    0.0   43.1   45.2   51.0  117.3
   142.8  216.3  261.0  348.1  386.8  406.5  459.8  473.7  514.9  531.9
   548.7  617.3  621.6  652.9  654.5  698.3  742.0  743.4  791.6  794.9
   820.1  865.3  865.3  964.2  964.8  975.5  975.6  986.4  993.2 1014.8
  1014.8 1096.6 1098.4 1149.8 1166.1 1166.3 1192.4 1204.8 1274.7 1281.2
  1362.2 1362.3 1405.7 1441.6 1442.0 1475.6 1513.2 1524.0 1524.0 1608.2
  1636.7 2142.7 3161.8 3161.9 3166.3 3166.4 3183.3 3183.5 3188.3 3188.4
  3193.8 3194.4
 at 99999: n3=          72
 symm operator            1 :  F  nop=           0
 symm operator            2 :  F  nop=           0
 symm operator            3 :  F  nop=           0
 symm operator            4 :  F  nop=           0
 symm operator            5 :  F  nop=           0
 symm operator            6 :  F  nop=           0
 symm operator            7 :  F  nop=           0
 The point group of the molecule is  C1
 Symmetry rotation matrix:
   1.00000   0.00000   0.00000
   0.00000   1.00000   0.00000
   0.00000   0.00000   1.00000

 Projecting out zero-frequency components
 generating redundant internal coords
         300        3600          24
 search for int coords
   1 str   2   1   1.249
   2 str   3   2   1.378
   3 str   4   3   1.441
   4 str   5   4   1.377
   5 str   6   5   1.407
   6 str   7   6   1.407
   7 str   8   3   1.441
   8 str   8   7   1.377
   9 str   9   1   1.378
  10 str  10   9   1.441
  11 str  11  10   1.377
  12 str  12  11   1.407
  13 str  13  12   1.407
  14 str  14   9   1.441
  15 str  14  13   1.377
  16 str  15   4   1.083
  17 str  16   5   1.085
  18 str  17   6   1.084
  19 str  18   7   1.085
  20 str  19   8   1.083
  21 str  20  10   1.083
  22 str  21  11   1.085
  23 str  22  12   1.084
  24 str  23  13   1.085
  25 str  24  14   1.083
 nber stretches=          25
  26 lin ben   1   2   3
  28 ben   1   9  10
  29 prop tor   1   9  10  11
  30 prop tor   1   9  10  20
  31 ben   1   9  14
  32 prop tor   1   9  14  13
  33 prop tor   1   9  14  24
 Extend lin bond           1           9           2           3
  34 lin ben   2   1   9
  36 ben   2   3   4
  37 prop tor   2   3   4   5
  38 prop tor   2   3   4  15
  39 ben   2   3   8
  40 prop tor   2   3   8   7
  41 prop tor   2   3   8  19
  42 ben   3   4   5
  43 prop tor   3   4   5   6
  44 prop tor   3   4   5  16
  45 ben   3   4  15
  46 ben   3   8   7
  47 ben   3   8  19
  48 ben   4   3   8
  49 prop tor   4   3   8   7
  50 prop tor   4   3   8  19
  51 ben   4   5   6
  52 prop tor   4   5   6   7
  53 prop tor   4   5   6  17
  54 ben   4   5  16
  55 ben   5   4  15
  56 ben   5   6   7
  57 prop tor   5   6   7   8
  58 prop tor   5   6   7  18
  59 ben   5   6  17
  60 ben   6   5  16
  61 ben   6   7   8
  62 prop tor   6   7   8   3
  63 prop tor   6   7   8  19
  64 ben   6   7  18
  65 ben   7   6  17
  66 ben   7   8  19
  67 prop tor   8   3   4   5
  68 prop tor   8   3   4  15
  69 ben   8   7  18
  70 ben   9  10  11
  71 prop tor   9  10  11  12
  72 prop tor   9  10  11  21
  73 ben   9  10  20
  74 ben   9  14  13
  75 ben   9  14  24
  76 ben  10   9  14
  77 prop tor  10   9  14  13
  78 prop tor  10   9  14  24
  79 ben  10  11  12
  80 prop tor  10  11  12  13
  81 prop tor  10  11  12  22
  82 ben  10  11  21
  83 ben  11  10  20
  84 ben  11  12  13
  85 prop tor  11  12  13  14
  86 prop tor  11  12  13  23
  87 ben  11  12  22
  88 ben  12  11  21
  89 ben  12  13  14
  90 prop tor  12  13  14   9
  91 prop tor  12  13  14  24
  92 ben  12  13  23
  93 ben  13  12  22
  94 ben  13  14  24
  95 prop tor  14   9  10  11
  96 prop tor  14   9  10  20
  97 ben  14  13  23
  98 prop tor  15   4   5   6
  99 prop tor  15   4   5  16
 100 prop tor  16   5   6   7
 101 prop tor  16   5   6  17
 102 prop tor  17   6   7   8
 103 prop tor  17   6   7  18
 104 prop tor  18   7   8   3
 105 prop tor  18   7   8  19
 106 prop tor  20  10  11  12
 107 prop tor  20  10  11  21
 108 prop tor  21  11  12  13
 109 prop tor  21  11  12  22
 110 prop tor  22  12  13  14
 111 prop tor  22  12  13  23
 112 prop tor  23  13  14   9
 113 prop tor  23  13  14  24
 114 lin bend prop tor  10   9   3   4
 115 lin bend prop tor  10   9   3   8
 116 lin bend prop tor  14   9   3   4
 117 lin bend prop tor  14   9   3   8
 nber bend=              40
 nber lin bend=           1
 nber prop tor=          52
 nber impr tor=           0
 nber tot redund int=         117
 Eigenvalues of G in red int coords
    Gval -0.00000000 -0.00000000 -0.00000000 -0.00000000 -0.00000000 -0.00000000 -0.00000000 -0.00000000
    Gval -0.00000000 -0.00000000 -0.00000000 -0.00000000 -0.00000000 -0.00000000 -0.00000000 -0.00000000
    Gval -0.00000000 -0.00000000 -0.00000000 -0.00000000 -0.00000000 -0.00000000 -0.00000000 -0.00000000
    Gval -0.00000000 -0.00000000  0.00000000  0.00000000  0.00000000  0.00000000  0.00000000  0.00000000
    Gval  0.00000000  0.00000000  0.00000000  0.00000000  0.00000000  0.00000000  0.00000000  0.00000000
    Gval  0.00000000  0.00000000  0.00000000  0.00000000  0.00000000  0.00000000  0.00000000  0.00000000
    Gval  0.00000000  0.00000000  0.00000000  0.00000150  0.00000371  0.00000718  0.00001236  0.00002887
    Gval  0.00004096  0.00004347  0.00004531  0.00005059  0.00005681  0.00005891  0.00006311  0.00006925
    Gval  0.00007009  0.00009668  0.00011297  0.00011361  0.00011895  0.00012494  0.00014691  0.00019060
    Gval  0.00022243  0.00024600  0.00026569  0.00026722  0.00034247  0.00035242  0.00036030  0.00036100
    Gval  0.00043235  0.00050799  0.00055916  0.00059302  0.00059303  0.00059359  0.00059379  0.00060384
    Gval  0.00060384  0.00062276  0.00062476  0.00065868  0.00065869  0.00069132  0.00076357  0.00103849
    Gval  0.00103868  0.00110491  0.00110491  0.00113950  0.00113957  0.00117049  0.00117049  0.00117126
    Gval  0.00117126  0.00137360  0.00140010  0.00170191  0.00173606  0.00231550  0.00232817  0.00309483
    Gval  0.00310474  0.00374213  0.00375498  0.00405511  0.00405558
  1.496729536113431E-006  1.496729536113431E-006
  3.706985341659784E-006  1.496729536113431E-006
  7.184432981003856E-006  1.496729536113431E-006
  1.236201966886759E-005  1.496729536113431E-006
  2.887357789388978E-005  1.496729536113431E-006
  4.095706481260473E-005  1.496729536113431E-006
  4.347122416268225E-005  1.496729536113431E-006
  4.531238749573772E-005  1.496729536113431E-006
  5.058989342787560E-005  1.496729536113431E-006
  5.681394012268443E-005  1.496729536113431E-006
  5.890783849154957E-005  1.496729536113431E-006
  6.311429009209471E-005  1.496729536113431E-006
  6.925261387092368E-005  1.496729536113431E-006
  7.009304492127034E-005  1.496729536113431E-006
  9.667666801240068E-005  1.496729536113431E-006
  1.129743330184374E-004  1.496729536113431E-006
  1.136108202392418E-004  1.496729536113431E-006
  1.189537149168608E-004  1.496729536113431E-006
  1.249399654097679E-004  1.496729536113431E-006
  1.469070519878932E-004  1.496729536113431E-006
  1.906023798993193E-004  1.496729536113431E-006
  2.224302532270316E-004  1.496729536113431E-006
  2.459976313351833E-004  1.496729536113431E-006
  2.656896205424801E-004  1.496729536113431E-006
  2.672150422939491E-004  1.496729536113431E-006
  3.424734911191589E-004  1.496729536113431E-006
  3.524160426970664E-004  1.496729536113431E-006
  3.603011028152578E-004  1.496729536113431E-006
  3.610034441507186E-004  1.496729536113431E-006
  4.323548452584586E-004  1.496729536113431E-006
  5.079942059354031E-004  1.496729536113431E-006
  5.591600299242514E-004  1.496729536113431E-006
  5.930249646752745E-004  1.496729536113431E-006
  5.930250467607890E-004  1.496729536113431E-006
  5.935866734037096E-004  1.496729536113431E-006
  5.937863506361234E-004  1.496729536113431E-006
  6.038361531216343E-004  1.496729536113431E-006
  6.038393548938112E-004  1.496729536113431E-006
  6.227630986155232E-004  1.496729536113431E-006
  6.247562367306935E-004  1.496729536113431E-006
  6.586752934689387E-004  1.496729536113431E-006
  6.586871213169001E-004  1.496729536113431E-006
  6.913180226316258E-004  1.496729536113431E-006
  7.635690484641576E-004  1.496729536113431E-006
  1.038491679446316E-003  1.496729536113431E-006
  1.038679196628912E-003  1.496729536113431E-006
  1.104908752903499E-003  1.496729536113431E-006
  1.104912459917988E-003  1.496729536113431E-006
  1.139498957801620E-003  1.496729536113431E-006
  1.139573591010867E-003  1.496729536113431E-006
  1.170490552482207E-003  1.496729536113431E-006
  1.170491391898624E-003  1.496729536113431E-006
  1.171259135375366E-003  1.496729536113431E-006
  1.171260841291785E-003  1.496729536113431E-006
  1.373598683211096E-003  1.496729536113431E-006
  1.400097371176263E-003  1.496729536113431E-006
  1.701912459276253E-003  1.496729536113431E-006
  1.736056750848476E-003  1.496729536113431E-006
  2.315499614812729E-003  1.496729536113431E-006
  2.328167489558506E-003  1.496729536113431E-006
  3.094826385263344E-003  1.496729536113431E-006
  3.104743339545471E-003  1.496729536113431E-006
  3.742130154796059E-003  1.496729536113431E-006
  3.754981586385909E-003  1.496729536113431E-006
  4.055109278655961E-003  1.496729536113431E-006
  4.055581968612080E-003  1.496729536113431E-006
 cut=1d-8, nber non-redundant internal coords=          66
 Check on Eigenvals of non-red overlap matrix:
  0.00000150  0.00000371  0.00000718  0.00001236  0.00002887  0.00004096  0.00004347  0.00004531
  0.00005059  0.00005681  0.00005891  0.00006311  0.00006925  0.00007009  0.00009668  0.00011297
  0.00011361  0.00011895  0.00012494  0.00014691  0.00019060  0.00022243  0.00024600  0.00026569
  0.00026722  0.00034247  0.00035242  0.00036030  0.00036100  0.00043235  0.00050799  0.00055916
  0.00059302  0.00059303  0.00059359  0.00059379  0.00060384  0.00060384  0.00062276  0.00062476
  0.00065868  0.00065869  0.00069132  0.00076357  0.00103849  0.00103868  0.00110491  0.00110491
  0.00113950  0.00113957  0.00117049  0.00117049  0.00117126  0.00117126  0.00137360  0.00140010
  0.00170191  0.00173606  0.00231550  0.00232817  0.00309483  0.00310474  0.00374213  0.00375498
  0.00405511  0.00405558
 Checking for correct frequencies
 recalc frequencies=
    -0.0   -0.0   -0.0    0.0    0.0    0.0   43.1   45.2   51.0  117.3
   142.8  216.3  261.0  348.1  386.8  406.5  459.8  473.7  514.9  531.9
   548.7  617.3  621.6  652.9  654.5  698.3  742.0  743.4  791.6  794.9
   820.1  865.3  865.3  964.2  964.8  975.5  975.6  986.4  993.2 1014.8
  1014.8 1096.6 1098.4 1149.8 1166.1 1166.3 1192.4 1204.8 1274.7 1281.2
  1362.2 1362.3 1405.7 1441.6 1442.0 1475.6 1513.2 1524.0 1524.0 1608.2
  1636.7 2142.7 3161.8 3161.9 3166.3 3166.4 3183.3 3183.5 3188.3 3188.4
  3193.8 3194.4
 recalc symmetries=
                                                                       
                                                                       
                                                                       
                                                                       
                                                                       
                                                                       
                                                                       
               
 recalc freqs check OK
 Zero-point lengths:
 10.0000 10.0000 10.0000 10.0000 10.0000 10.0000 37.7706 36.8804 34.7016 22.8858
 20.7443 16.8547 15.3460 13.2881 12.6048 12.2960 11.5609 11.3907 10.9254 10.7491
 10.5834  9.9784  9.9435  9.7025  9.6905  9.3817  9.1010  9.0922  8.8116  8.7929
  8.6566  8.4278  8.4276  7.9839  7.9814  7.9373  7.9369  7.8937  7.8664  7.7824
  7.7822  7.4864  7.4802  7.3110  7.2598  7.2593  7.1794  7.1424  6.9438  6.9261
  6.7169  6.7167  6.6123  6.5295  6.5284  6.4536  6.3730  6.3504  6.3503  6.1819
  6.1279  5.3557  4.4089  4.4088  4.4057  4.4057  4.3940  4.3939  4.3905  4.3905
  4.3867  4.3863
 highest evec of mol 2
 -0.0026 -0.0000  0.0000
  0.0026  0.0000  0.0000
 -0.0055 -0.0001 -0.0000
 -0.0518  0.0786 -0.0000
  0.0408  0.0719 -0.0000
  0.1153  0.0016  0.0000
  0.0428 -0.0707  0.0000
 -0.0495 -0.0800 -0.0000
  0.0055  0.0001 -0.0000
  0.0518 -0.0786 -0.0000
 -0.0408 -0.0719 -0.0000
 -0.1153 -0.0016  0.0000
 -0.0428  0.0707  0.0000
  0.0495  0.0799 -0.0000
  0.1573 -0.2594  0.0000
 -0.1266 -0.2254  0.0000
 -0.3713 -0.0052 -0.0000
 -0.1328  0.2217 -0.0000
  0.1498  0.2635  0.0000
 -0.1572  0.2594  0.0000
  0.1266  0.2254  0.0000
  0.3712  0.0052 -0.0000
  0.1328 -0.2217 -0.0000
 -0.1497 -0.2634  0.0000
 Enter nber and list of atoms to keep of mol #2
 keep list:          24           1           2           3           4
           5           6           7           8           9          10
          11          12          13          14          15          16
          17          18          19          20          21          22
          23          24
 reordering atoms
           1  0.624701113564970     
           2 -0.624701833790935     
           3  -2.00317039894062     
           4  -2.74743435279288     
           5  -4.12463042239231     
           6  -4.83086724042081     
           7  -4.12468180599968     
           8  -2.74748417266834     
           9   2.00317070666094     
          10   2.74743564639192     
          11   4.12463070206875     
          12   4.83086750607679     
          13   4.12468108577628     
          14   2.74748346646592     
          15  -2.20132501178348     
          16  -4.67066998733095     
          17  -5.91447306303840     
          18  -4.67076093752297     
          19  -2.20141279526752     
          20   2.20132731930492     
          21   4.67067226681030     
          22   5.91447332869571     
          23   4.67075920337653     
          24   2.20141110318552     
           1           1
           2           2
           3           3
           4           4
           5           5
           6           6
           7           7
           8           8
           9           9
          10          10
          11          11
          12          12
          13          13
          14          14
          15          15
          16          16
          17          17
          18          18
          19          19
          20          20
          21          21
          22          22
          23          23
          24          24
 initial cartes coords mol 1
   6   0.00001  -0.00001   0.60531
   6   0.00000  -0.00003  -0.60531
   6   0.00000  -0.00004  -2.02848
   6   0.00031   1.21066  -2.74531
   6   0.00031   1.20593  -4.13472
   6   0.00000   0.00004  -4.83484
   6  -0.00031  -1.20588  -4.13478
   6  -0.00031  -1.21069  -2.74536
   6   0.00001   0.00000   2.02848
   6   0.00031  -1.21067   2.74533
   6   0.00031  -1.20590   4.13475
   6  -0.00000  -0.00000   4.83485
   6  -0.00031   1.20591   4.13475
   6  -0.00031   1.21068   2.74534
   1   0.00055   2.14646  -2.19965
   1   0.00055   2.14661  -4.67380
   1   0.00000   0.00006  -5.91883
   1  -0.00055  -2.14654  -4.67391
   1  -0.00056  -2.14653  -2.19975
   1   0.00055  -2.14649   2.19970
   1   0.00055  -2.14658   4.67385
   1  -0.00000  -0.00000   5.91884
   1  -0.00055   2.14658   4.67386
   1  -0.00056   2.14650   2.19970
 initial cartes coords mol 2
   6   0.00007   0.00003   0.62470
   6   0.00007  -0.00003  -0.62470
   6   0.00007  -0.00003  -2.00317
   6   0.00013   1.23363  -2.74743
   6   0.00002   1.21699  -4.12463
   6  -0.00013   0.00003  -4.83087
   6  -0.00013  -1.21696  -4.12468
   6  -0.00002  -1.23366  -2.74748
   6   0.00007   0.00003   2.00317
   6   0.00013  -1.23363   2.74744
   6   0.00002  -1.21699   4.12463
   6  -0.00013  -0.00003   4.83087
   6  -0.00013   1.21696   4.12468
   6  -0.00002   1.23366   2.74748
   1   0.00025   2.16931  -2.20133
   1   0.00005   2.15406  -4.67067
   1  -0.00024   0.00005  -5.91447
   1  -0.00021  -2.15401  -4.67076
   1  -0.00001  -2.16936  -2.20141
   1   0.00025  -2.16931   2.20133
   1   0.00005  -2.15406   4.67067
   1  -0.00024  -0.00005   5.91447
   1  -0.00021   2.15401   4.67076
   1  -0.00001   2.16936   2.20141
 loop 1 0
 mod cartes coords mol 2
   6   0.00007   0.00003   0.62470
   6   0.00007  -0.00003  -0.62470
   6   0.00007  -0.00003  -2.00317
   6   0.00013   1.23363  -2.74743
   6   0.00002   1.21699  -4.12463
   6  -0.00013   0.00003  -4.83087
   6  -0.00013  -1.21696  -4.12468
   6  -0.00002  -1.23366  -2.74748
   6   0.00007   0.00003   2.00317
   6   0.00013  -1.23363   2.74744
   6   0.00002  -1.21699   4.12463
   6  -0.00013  -0.00003   4.83087
   6  -0.00013   1.21696   4.12468
   6  -0.00002   1.23366   2.74748
   1   0.00025   2.16931  -2.20133
   1   0.00005   2.15406  -4.67067
   1  -0.00024   0.00005  -5.91447
   1  -0.00021  -2.15401  -4.67076
   1  -0.00001  -2.16936  -2.20141
   1   0.00025  -2.16931   2.20133
   1   0.00005  -2.15406   4.67067
   1  -0.00024  -0.00005   5.91447
   1  -0.00021   2.15401   4.67076
   1  -0.00001   2.16936   2.20141
 read in order, maxerr=  0.03 for atom   9
 final axis swaps:           1           1           1
 final xyz swap pattern=           1
 reorder list:
   1   2   3   4   5   6   7   8   9  10  11  12  13  14  15  16  17  18  19  20
  21  22  23  24
 axis signs=           1           1           1
  6     0.000072  0.000032  0.624701     0.000005 -0.000008  0.605314
  6     0.000072 -0.000032 -0.624702     0.000003 -0.000029 -0.605315
  6     0.000073 -0.000029 -2.003170     0.000004 -0.000036 -2.028481
  6     0.000125  1.233632 -2.747434     0.000307  1.210655 -2.745306
  6     0.000015  1.216992 -4.124630     0.000307  1.205929 -4.134720
  6    -0.000131  0.000030 -4.830867     0.000000  0.000040 -4.834845
  6    -0.000130 -1.216959 -4.124682    -0.000311 -1.205881 -4.134782
  6    -0.000025 -1.233663 -2.747484    -0.000312 -1.210690 -2.745365
  6     0.000073  0.000027  2.003171     0.000005  0.000005  2.028482
  6     0.000125 -1.233633  2.747436     0.000308 -1.210666  2.745333
  6     0.000016 -1.216992  4.124631     0.000306 -1.205904  4.134748
  6    -0.000131 -0.000029  4.830868    -0.000000 -0.000000  4.834846
  6    -0.000131  1.216959  4.124681    -0.000311  1.205906  4.134754
  6    -0.000025  1.233663  2.747483    -0.000312  1.210680  2.745338
  1     0.000252  2.169309 -2.201325     0.000546  2.146460 -2.199646
  1     0.000052  2.154061 -4.670670     0.000548  2.146614 -4.673802
  1    -0.000236  0.000051 -5.914473     0.000001  0.000065 -5.918835
  1    -0.000206 -2.154005 -4.670761    -0.000553 -2.146539 -4.673913
  1    -0.000008 -2.169364 -2.201413    -0.000556 -2.146525 -2.199755
  1     0.000251 -2.169310  2.201327     0.000546 -2.146486  2.199698
  1     0.000050 -2.154061  4.670672     0.000547 -2.146576  4.673853
  1    -0.000237 -0.000049  5.914473    -0.000000 -0.000001  5.918835
  1    -0.000205  2.154007  4.670759    -0.000554  2.146577  4.673864
  1    -0.000008  2.169362  2.201411    -0.000556  2.146499  2.199702
 generating redundant internal coords
         300        3600          24
 Adding extra bonds for z output only
           6           6           6           6           6           6
           6           6           6           6           6           6
           6           6           1           1           1           1
           1           1           1           1           1           1
 search for int coords
   1 str   2   1   1.249
   2 str   3   2   1.378
   3 str   4   3   1.441
   4 str   5   4   1.377
   5 str   6   5   1.407
   6 str   7   6   1.407
   7 str   8   3   1.441
   8 str   8   7   1.377
   9 str   9   1   1.378
  10 str  10   9   1.441
  11 str  11  10   1.377
  12 str  12  11   1.407
  13 str  13  12   1.407
  14 str  14   9   1.441
  15 str  14  13   1.377
  16 str  15   4   1.083
  17 str  16   5   1.085
  18 str  17   6   1.084
  19 str  18   7   1.085
  20 str  19   8   1.083
  21 str  20  10   1.083
  22 str  21  11   1.085
  23 str  22  12   1.084
  24 str  23  13   1.085
  25 str  24  14   1.083
 nber stretches=          25
  26 lin ben   1   2   3
  28 ben   1   9  10
  29 prop tor   1   9  10  11
  30 prop tor   1   9  10  20
  31 ben   1   9  14
  32 prop tor   1   9  14  13
  33 prop tor   1   9  14  24
 Extend lin bond           1           9           2           3
  34 lin ben   2   1   9
  36 ben   2   3   4
  37 prop tor   2   3   4   5
  38 prop tor   2   3   4  15
  39 ben   2   3   8
  40 prop tor   2   3   8   7
  41 prop tor   2   3   8  19
  42 ben   3   4   5
  43 prop tor   3   4   5   6
  44 prop tor   3   4   5  16
  45 ben   3   4  15
  46 ben   3   8   7
  47 ben   3   8  19
  48 ben   4   3   8
  49 prop tor   4   3   8   7
  50 prop tor   4   3   8  19
  51 ben   4   5   6
  52 prop tor   4   5   6   7
  53 prop tor   4   5   6  17
  54 ben   4   5  16
  55 ben   5   4  15
  56 ben   5   6   7
  57 prop tor   5   6   7   8
  58 prop tor   5   6   7  18
  59 ben   5   6  17
  60 ben   6   5  16
  61 ben   6   7   8
  62 prop tor   6   7   8   3
  63 prop tor   6   7   8  19
  64 ben   6   7  18
  65 ben   7   6  17
  66 ben   7   8  19
  67 prop tor   8   3   4   5
  68 prop tor   8   3   4  15
  69 ben   8   7  18
  70 ben   9  10  11
  71 prop tor   9  10  11  12
  72 prop tor   9  10  11  21
  73 ben   9  10  20
  74 ben   9  14  13
  75 ben   9  14  24
  76 ben  10   9  14
  77 prop tor  10   9  14  13
  78 prop tor  10   9  14  24
  79 ben  10  11  12
  80 prop tor  10  11  12  13
  81 prop tor  10  11  12  22
  82 ben  10  11  21
  83 ben  11  10  20
  84 ben  11  12  13
  85 prop tor  11  12  13  14
  86 prop tor  11  12  13  23
  87 ben  11  12  22
  88 ben  12  11  21
  89 ben  12  13  14
  90 prop tor  12  13  14   9
  91 prop tor  12  13  14  24
  92 ben  12  13  23
  93 ben  13  12  22
  94 ben  13  14  24
  95 prop tor  14   9  10  11
  96 prop tor  14   9  10  20
  97 ben  14  13  23
  98 prop tor  15   4   5   6
  99 prop tor  15   4   5  16
 100 prop tor  16   5   6   7
 101 prop tor  16   5   6  17
 102 prop tor  17   6   7   8
 103 prop tor  17   6   7  18
 104 prop tor  18   7   8   3
 105 prop tor  18   7   8  19
 106 prop tor  20  10  11  12
 107 prop tor  20  10  11  21
 108 prop tor  21  11  12  13
 109 prop tor  21  11  12  22
 110 prop tor  22  12  13  14
 111 prop tor  22  12  13  23
 112 prop tor  23  13  14   9
 113 prop tor  23  13  14  24
 114 lin bend prop tor  10   9   3   4
 115 lin bend prop tor  10   9   3   8
 116 lin bend prop tor  14   9   3   4
 117 lin bend prop tor  14   9   3   8
 nber bend=              40
 nber lin bend=           1
 nber prop tor=          52
 nber impr tor=           0
 nber tot redund int=         117
 generating redundant internal coords
         300        3600          24
 search for int coords
   1 str   2   1   1.211
   2 str   3   2   1.423
   3 str   4   3   1.407
   4 str   5   4   1.389
   5 str   6   5   1.394
   6 str   7   6   1.394
   7 str   8   3   1.407
   8 str   8   7   1.389
   9 str   9   1   1.423
  10 str  10   9   1.407
  11 str  11  10   1.389
  12 str  12  11   1.394
  13 str  13  12   1.394
  14 str  14   9   1.407
  15 str  14  13   1.389
  16 str  15   4   1.083
  17 str  16   5   1.084
  18 str  17   6   1.084
  19 str  18   7   1.084
  20 str  19   8   1.083
  21 str  20  10   1.083
  22 str  21  11   1.084
  23 str  22  12   1.084
  24 str  23  13   1.084
  25 str  24  14   1.083
 nber stretches=          25
  26 lin ben   1   2   3
  28 ben   1   9  10
  29 prop tor   1   9  10  11
  30 prop tor   1   9  10  20
  31 ben   1   9  14
  32 prop tor   1   9  14  13
  33 prop tor   1   9  14  24
 Extend lin bond           1           9           2           3
  34 lin ben   2   1   9
  36 ben   2   3   4
  37 prop tor   2   3   4   5
  38 prop tor   2   3   4  15
  39 ben   2   3   8
  40 prop tor   2   3   8   7
  41 prop tor   2   3   8  19
  42 ben   3   4   5
  43 prop tor   3   4   5   6
  44 prop tor   3   4   5  16
  45 ben   3   4  15
  46 ben   3   8   7
  47 ben   3   8  19
  48 ben   4   3   8
  49 prop tor   4   3   8   7
  50 prop tor   4   3   8  19
  51 ben   4   5   6
  52 prop tor   4   5   6   7
  53 prop tor   4   5   6  17
  54 ben   4   5  16
  55 ben   5   4  15
  56 ben   5   6   7
  57 prop tor   5   6   7   8
  58 prop tor   5   6   7  18
  59 ben   5   6  17
  60 ben   6   5  16
  61 ben   6   7   8
  62 prop tor   6   7   8   3
  63 prop tor   6   7   8  19
  64 ben   6   7  18
  65 ben   7   6  17
  66 ben   7   8  19
  67 prop tor   8   3   4   5
  68 prop tor   8   3   4  15
  69 ben   8   7  18
  70 ben   9  10  11
  71 prop tor   9  10  11  12
  72 prop tor   9  10  11  21
  73 ben   9  10  20
  74 ben   9  14  13
  75 ben   9  14  24
  76 ben  10   9  14
  77 prop tor  10   9  14  13
  78 prop tor  10   9  14  24
  79 ben  10  11  12
  80 prop tor  10  11  12  13
  81 prop tor  10  11  12  22
  82 ben  10  11  21
  83 ben  11  10  20
  84 ben  11  12  13
  85 prop tor  11  12  13  14
  86 prop tor  11  12  13  23
  87 ben  11  12  22
  88 ben  12  11  21
  89 ben  12  13  14
  90 prop tor  12  13  14   9
  91 prop tor  12  13  14  24
  92 ben  12  13  23
  93 ben  13  12  22
  94 ben  13  14  24
  95 prop tor  14   9  10  11
  96 prop tor  14   9  10  20
  97 ben  14  13  23
  98 prop tor  15   4   5   6
  99 prop tor  15   4   5  16
 100 prop tor  16   5   6   7
 101 prop tor  16   5   6  17
 102 prop tor  17   6   7   8
 103 prop tor  17   6   7  18
 104 prop tor  18   7   8   3
 105 prop tor  18   7   8  19
 106 prop tor  20  10  11  12
 107 prop tor  20  10  11  21
 108 prop tor  21  11  12  13
 109 prop tor  21  11  12  22
 110 prop tor  22  12  13  14
 111 prop tor  22  12  13  23
 112 prop tor  23  13  14   9
 113 prop tor  23  13  14  24
 114 lin bend prop tor  10   9   3   4
 115 lin bend prop tor  10   9   3   8
 116 lin bend prop tor  14   9   3   4
 117 lin bend prop tor  14   9   3   8
 nber bend=              40
 nber lin bend=           1
 nber prop tor=          52
 nber impr tor=           0
 nber tot redund int=         117
 Eigenvalues of G in red int coords
    Gval -0.00000000 -0.00000000 -0.00000000 -0.00000000 -0.00000000 -0.00000000 -0.00000000 -0.00000000
    Gval -0.00000000 -0.00000000 -0.00000000 -0.00000000 -0.00000000 -0.00000000 -0.00000000 -0.00000000
    Gval -0.00000000 -0.00000000 -0.00000000 -0.00000000 -0.00000000 -0.00000000 -0.00000000 -0.00000000
    Gval -0.00000000 -0.00000000 -0.00000000 -0.00000000 -0.00000000 -0.00000000  0.00000000  0.00000000
    Gval  0.00000000  0.00000000  0.00000000  0.00000000  0.00000000  0.00000000  0.00000000  0.00000000
    Gval  0.00000000  0.00000000  0.00000000  0.00000000  0.00000000  0.00000000  0.00000000  0.00000000
    Gval  0.00000000  0.00000000  0.00000000  0.00000151  0.00000372  0.00000699  0.00001245  0.00002899
    Gval  0.00004058  0.00004432  0.00004534  0.00005083  0.00005699  0.00005914  0.00006368  0.00006943
    Gval  0.00006961  0.00009658  0.00011300  0.00011467  0.00011912  0.00012601  0.00014685  0.00018721
    Gval  0.00021450  0.00024699  0.00027038  0.00027169  0.00033895  0.00035526  0.00036652  0.00036725
    Gval  0.00042843  0.00050351  0.00055717  0.00059305  0.00059305  0.00059358  0.00059377  0.00060439
    Gval  0.00060440  0.00062303  0.00062494  0.00066049  0.00066051  0.00069534  0.00076115  0.00103949
    Gval  0.00103968  0.00110916  0.00110916  0.00113876  0.00113884  0.00117162  0.00117162  0.00117231
    Gval  0.00117231  0.00139061  0.00141523  0.00171804  0.00175436  0.00233311  0.00234668  0.00309339
    Gval  0.00310344  0.00374425  0.00375746  0.00406811  0.00406853
  1.507482264143674E-006  1.507482264143674E-006
  3.720472642636197E-006  1.507482264143674E-006
  6.991781073251516E-006  1.507482264143674E-006
  1.244680405999040E-005  1.507482264143674E-006
  2.898574784271067E-005  1.507482264143674E-006
  4.057940566392674E-005  1.507482264143674E-006
  4.432178925949547E-005  1.507482264143674E-006
  4.533760898958443E-005  1.507482264143674E-006
  5.083095542436348E-005  1.507482264143674E-006
  5.699007149596907E-005  1.507482264143674E-006
  5.913571953683088E-005  1.507482264143674E-006
  6.368379092251359E-005  1.507482264143674E-006
  6.943254806680226E-005  1.507482264143674E-006
  6.961416549719344E-005  1.507482264143674E-006
  9.658303495241177E-005  1.507482264143674E-006
  1.129967280085646E-004  1.507482264143674E-006
  1.146739854057189E-004  1.507482264143674E-006
  1.191223070350342E-004  1.507482264143674E-006
  1.260076020101941E-004  1.507482264143674E-006
  1.468478454514726E-004  1.507482264143674E-006
  1.872119060519734E-004  1.507482264143674E-006
  2.145030670806607E-004  1.507482264143674E-006
  2.469856648361984E-004  1.507482264143674E-006
  2.703794357990782E-004  1.507482264143674E-006
  2.716894678611550E-004  1.507482264143674E-006
  3.389533644239158E-004  1.507482264143674E-006
  3.552565019491352E-004  1.507482264143674E-006
  3.665249903215402E-004  1.507482264143674E-006
  3.672458679340123E-004  1.507482264143674E-006
  4.284259080881441E-004  1.507482264143674E-006
  5.035092050511581E-004  1.507482264143674E-006
  5.571708251390312E-004  1.507482264143674E-006
  5.930538034682632E-004  1.507482264143674E-006
  5.930538855586286E-004  1.507482264143674E-006
  5.935838121261496E-004  1.507482264143674E-006
  5.937720153325385E-004  1.507482264143674E-006
  6.043915274849172E-004  1.507482264143674E-006
  6.043950909392427E-004  1.507482264143674E-006
  6.230329742770135E-004  1.507482264143674E-006
  6.249439223433038E-004  1.507482264143674E-006
  6.604922780001254E-004  1.507482264143674E-006
  6.605054574278223E-004  1.507482264143674E-006
  6.953352839433800E-004  1.507482264143674E-006
  7.611465702608912E-004  1.507482264143674E-006
  1.039492036042654E-003  1.507482264143674E-006
  1.039675747368380E-003  1.507482264143674E-006
  1.109157105671982E-003  1.507482264143674E-006
  1.109161057919172E-003  1.507482264143674E-006
  1.138763568429510E-003  1.507482264143674E-006
  1.138844115562413E-003  1.507482264143674E-006
  1.171621822477964E-003  1.507482264143674E-006
  1.171623619640414E-003  1.507482264143674E-006
  1.172308844473022E-003  1.507482264143674E-006
  1.172309046000185E-003  1.507482264143674E-006
  1.390606487488212E-003  1.507482264143674E-006
  1.415233867340451E-003  1.507482264143674E-006
  1.718044289385331E-003  1.507482264143674E-006
  1.754355739906974E-003  1.507482264143674E-006
  2.333111334788974E-003  1.507482264143674E-006
  2.346677370844266E-003  1.507482264143674E-006
  3.093388453992028E-003  1.507482264143674E-006
  3.103435055859323E-003  1.507482264143674E-006
  3.744251083767275E-003  1.507482264143674E-006
  3.757461652733602E-003  1.507482264143674E-006
  4.068108829474394E-003  1.507482264143674E-006
  4.068531679886976E-003  1.507482264143674E-006
 cut=1d-8, nber non-redundant internal coords=          66
 Check on Eigenvals of non-red overlap matrix:
  0.00000151  0.00000372  0.00000699  0.00001245  0.00002899  0.00004058  0.00004432  0.00004534
  0.00005083  0.00005699  0.00005914  0.00006368  0.00006943  0.00006961  0.00009658  0.00011300
  0.00011467  0.00011912  0.00012601  0.00014685  0.00018721  0.00021450  0.00024699  0.00027038
  0.00027169  0.00033895  0.00035526  0.00036652  0.00036725  0.00042843  0.00050351  0.00055717
  0.00059305  0.00059305  0.00059358  0.00059377  0.00060439  0.00060440  0.00062303  0.00062494
  0.00066049  0.00066051  0.00069534  0.00076115  0.00103949  0.00103968  0.00110916  0.00110916
  0.00113876  0.00113884  0.00117162  0.00117162  0.00117231  0.00117231  0.00139061  0.00141523
  0.00171804  0.00175436  0.00233311  0.00234668  0.00309339  0.00310344  0.00374425  0.00375746
  0.00406811  0.00406853
 generating redundant internal coords
         300        3600          24
 search for int coords
   1 str   2   1   1.249
   2 str   3   2   1.378
   3 str   4   3   1.441
   4 str   5   4   1.377
   5 str   6   5   1.407
   6 str   7   6   1.407
   7 str   8   3   1.441
   8 str   8   7   1.377
   9 str   9   1   1.378
  10 str  10   9   1.441
  11 str  11  10   1.377
  12 str  12  11   1.407
  13 str  13  12   1.407
  14 str  14   9   1.441
  15 str  14  13   1.377
  16 str  15   4   1.083
  17 str  16   5   1.085
  18 str  17   6   1.084
  19 str  18   7   1.085
  20 str  19   8   1.083
  21 str  20  10   1.083
  22 str  21  11   1.085
  23 str  22  12   1.084
  24 str  23  13   1.085
  25 str  24  14   1.083
 nber stretches=          25
  26 lin ben   1   2   3
  28 ben   1   9  10
  29 prop tor   1   9  10  11
  30 prop tor   1   9  10  20
  31 ben   1   9  14
  32 prop tor   1   9  14  13
  33 prop tor   1   9  14  24
 Extend lin bond           1           9           2           3
  34 lin ben   2   1   9
  36 ben   2   3   4
  37 prop tor   2   3   4   5
  38 prop tor   2   3   4  15
  39 ben   2   3   8
  40 prop tor   2   3   8   7
  41 prop tor   2   3   8  19
  42 ben   3   4   5
  43 prop tor   3   4   5   6
  44 prop tor   3   4   5  16
  45 ben   3   4  15
  46 ben   3   8   7
  47 ben   3   8  19
  48 ben   4   3   8
  49 prop tor   4   3   8   7
  50 prop tor   4   3   8  19
  51 ben   4   5   6
  52 prop tor   4   5   6   7
  53 prop tor   4   5   6  17
  54 ben   4   5  16
  55 ben   5   4  15
  56 ben   5   6   7
  57 prop tor   5   6   7   8
  58 prop tor   5   6   7  18
  59 ben   5   6  17
  60 ben   6   5  16
  61 ben   6   7   8
  62 prop tor   6   7   8   3
  63 prop tor   6   7   8  19
  64 ben   6   7  18
  65 ben   7   6  17
  66 ben   7   8  19
  67 prop tor   8   3   4   5
  68 prop tor   8   3   4  15
  69 ben   8   7  18
  70 ben   9  10  11
  71 prop tor   9  10  11  12
  72 prop tor   9  10  11  21
  73 ben   9  10  20
  74 ben   9  14  13
  75 ben   9  14  24
  76 ben  10   9  14
  77 prop tor  10   9  14  13
  78 prop tor  10   9  14  24
  79 ben  10  11  12
  80 prop tor  10  11  12  13
  81 prop tor  10  11  12  22
  82 ben  10  11  21
  83 ben  11  10  20
  84 ben  11  12  13
  85 prop tor  11  12  13  14
  86 prop tor  11  12  13  23
  87 ben  11  12  22
  88 ben  12  11  21
  89 ben  12  13  14
  90 prop tor  12  13  14   9
  91 prop tor  12  13  14  24
  92 ben  12  13  23
  93 ben  13  12  22
  94 ben  13  14  24
  95 prop tor  14   9  10  11
  96 prop tor  14   9  10  20
  97 ben  14  13  23
  98 prop tor  15   4   5   6
  99 prop tor  15   4   5  16
 100 prop tor  16   5   6   7
 101 prop tor  16   5   6  17
 102 prop tor  17   6   7   8
 103 prop tor  17   6   7  18
 104 prop tor  18   7   8   3
 105 prop tor  18   7   8  19
 106 prop tor  20  10  11  12
 107 prop tor  20  10  11  21
 108 prop tor  21  11  12  13
 109 prop tor  21  11  12  22
 110 prop tor  22  12  13  14
 111 prop tor  22  12  13  23
 112 prop tor  23  13  14   9
 113 prop tor  23  13  14  24
 114 lin bend prop tor  10   9   3   4
 115 lin bend prop tor  10   9   3   8
 116 lin bend prop tor  14   9   3   4
 117 lin bend prop tor  14   9   3   8
 nber bend=              40
 nber lin bend=           1
 nber prop tor=          52
 nber impr tor=           0
 nber tot redund int=         117
 Eigenvalues of G in red int coords
    Gval -0.00000000 -0.00000000 -0.00000000 -0.00000000 -0.00000000 -0.00000000 -0.00000000 -0.00000000
    Gval -0.00000000 -0.00000000 -0.00000000 -0.00000000 -0.00000000 -0.00000000 -0.00000000 -0.00000000
    Gval -0.00000000 -0.00000000 -0.00000000 -0.00000000 -0.00000000 -0.00000000 -0.00000000 -0.00000000
    Gval -0.00000000  0.00000000  0.00000000  0.00000000  0.00000000  0.00000000  0.00000000  0.00000000
    Gval  0.00000000  0.00000000  0.00000000  0.00000000  0.00000000  0.00000000  0.00000000  0.00000000
    Gval  0.00000000  0.00000000  0.00000000  0.00000000  0.00000000  0.00000000  0.00000000  0.00000000
    Gval  0.00000000  0.00000000  0.00000000  0.00000150  0.00000371  0.00000718  0.00001236  0.00002887
    Gval  0.00004096  0.00004347  0.00004531  0.00005059  0.00005681  0.00005891  0.00006311  0.00006925
    Gval  0.00007009  0.00009668  0.00011297  0.00011361  0.00011895  0.00012494  0.00014691  0.00019060
    Gval  0.00022243  0.00024600  0.00026569  0.00026722  0.00034247  0.00035242  0.00036030  0.00036100
    Gval  0.00043235  0.00050799  0.00055916  0.00059302  0.00059303  0.00059359  0.00059379  0.00060384
    Gval  0.00060384  0.00062276  0.00062476  0.00065868  0.00065869  0.00069132  0.00076357  0.00103849
    Gval  0.00103868  0.00110491  0.00110491  0.00113950  0.00113957  0.00117049  0.00117049  0.00117126
    Gval  0.00117126  0.00137360  0.00140010  0.00170191  0.00173606  0.00231550  0.00232817  0.00309483
    Gval  0.00310474  0.00374213  0.00375498  0.00405511  0.00405558
  1.496729536113477E-006  1.496729536113477E-006
  3.706985341659819E-006  1.496729536113477E-006
  7.184432981003681E-006  1.496729536113477E-006
  1.236201966886771E-005  1.496729536113477E-006
  2.887357789389001E-005  1.496729536113477E-006
  4.095706481260485E-005  1.496729536113477E-006
  4.347122416268160E-005  1.496729536113477E-006
  4.531238749573757E-005  1.496729536113477E-006
  5.058989342787570E-005  1.496729536113477E-006
  5.681394012268415E-005  1.496729536113477E-006
  5.890783849154970E-005  1.496729536113477E-006
  6.311429009209473E-005  1.496729536113477E-006
  6.925261387092381E-005  1.496729536113477E-006
  7.009304492127056E-005  1.496729536113477E-006
  9.667666801240103E-005  1.496729536113477E-006
  1.129743330184372E-004  1.496729536113477E-006
  1.136108202392417E-004  1.496729536113477E-006
  1.189537149168608E-004  1.496729536113477E-006
  1.249399654097679E-004  1.496729536113477E-006
  1.469070519878935E-004  1.496729536113477E-006
  1.906023798993195E-004  1.496729536113477E-006
  2.224302532270313E-004  1.496729536113477E-006
  2.459976313351829E-004  1.496729536113477E-006
  2.656896205424811E-004  1.496729536113477E-006
  2.672150422939494E-004  1.496729536113477E-006
  3.424734911191596E-004  1.496729536113477E-006
  3.524160426970672E-004  1.496729536113477E-006
  3.603011028152584E-004  1.496729536113477E-006
  3.610034441507183E-004  1.496729536113477E-006
  4.323548452584583E-004  1.496729536113477E-006
  5.079942059354030E-004  1.496729536113477E-006
  5.591600299242506E-004  1.496729536113477E-006
  5.930249646752757E-004  1.496729536113477E-006
  5.930250467607888E-004  1.496729536113477E-006
  5.935866734037099E-004  1.496729536113477E-006
  5.937863506361237E-004  1.496729536113477E-006
  6.038361531216354E-004  1.496729536113477E-006
  6.038393548938116E-004  1.496729536113477E-006
  6.227630986155241E-004  1.496729536113477E-006
  6.247562367306939E-004  1.496729536113477E-006
  6.586752934689389E-004  1.496729536113477E-006
  6.586871213168996E-004  1.496729536113477E-006
  6.913180226316261E-004  1.496729536113477E-006
  7.635690484641606E-004  1.496729536113477E-006
  1.038491679446316E-003  1.496729536113477E-006
  1.038679196628913E-003  1.496729536113477E-006
  1.104908752903502E-003  1.496729536113477E-006
  1.104912459917991E-003  1.496729536113477E-006
  1.139498957801618E-003  1.496729536113477E-006
  1.139573591010869E-003  1.496729536113477E-006
  1.170490552482210E-003  1.496729536113477E-006
  1.170491391898627E-003  1.496729536113477E-006
  1.171259135375366E-003  1.496729536113477E-006
  1.171260841291788E-003  1.496729536113477E-006
  1.373598683211099E-003  1.496729536113477E-006
  1.400097371176263E-003  1.496729536113477E-006
  1.701912459276252E-003  1.496729536113477E-006
  1.736056750848474E-003  1.496729536113477E-006
  2.315499614812731E-003  1.496729536113477E-006
  2.328167489558507E-003  1.496729536113477E-006
  3.094826385263355E-003  1.496729536113477E-006
  3.104743339545464E-003  1.496729536113477E-006
  3.742130154796079E-003  1.496729536113477E-006
  3.754981586385919E-003  1.496729536113477E-006
  4.055109278655959E-003  1.496729536113477E-006
  4.055581968612098E-003  1.496729536113477E-006
 cut=1d-8, nber non-redundant internal coords=          66
 Check on Eigenvals of non-red overlap matrix:
  0.00000150  0.00000371  0.00000718  0.00001236  0.00002887  0.00004096  0.00004347  0.00004531
  0.00005059  0.00005681  0.00005891  0.00006311  0.00006925  0.00007009  0.00009668  0.00011297
  0.00011361  0.00011895  0.00012494  0.00014691  0.00019060  0.00022243  0.00024600  0.00026569
  0.00026722  0.00034247  0.00035242  0.00036030  0.00036100  0.00043235  0.00050799  0.00055916
  0.00059302  0.00059303  0.00059359  0.00059379  0.00060384  0.00060384  0.00062276  0.00062476
  0.00065868  0.00065869  0.00069132  0.00076357  0.00103849  0.00103868  0.00110491  0.00110491
  0.00113950  0.00113957  0.00117049  0.00117049  0.00117126  0.00117126  0.00137360  0.00140010
  0.00170191  0.00173606  0.00231550  0.00232817  0.00309483  0.00310474  0.00374213  0.00375498
  0.00405511  0.00405558
 d1=
  -0.0  -2.9   0.1   0.0   0.0  -0.0  -0.1   6.1  -0.0  -0.0   5.0   0.0   0.0  -0.0   1.8   0.0   0.0   0.0   0.0  -5.1
  -0.0   0.0   0.0  -0.0   3.6   0.0  -0.0   0.0  -1.3  -0.0  -0.0   0.0  -0.0   0.1   0.0  -0.0  -0.0   0.2  -0.0  -0.0
   0.0  -0.0   0.0   0.0  -0.0   0.0  -0.0  -1.1   0.0   0.0   0.0   0.5  -0.0   0.0   0.0  -0.0   0.0   0.0  -0.0  -0.0
   0.0  -0.0   0.0  -0.0   0.0  -0.0
 d2=
   0.0   2.7   0.1   0.0  -0.0   0.0   0.1   6.1   0.0  -0.0  -5.0   0.0  -0.0  -0.0   1.8  -0.0   0.0   0.0   0.0   5.1
  -0.0  -0.0  -0.0   0.0  -3.7   0.0   0.0   0.0   1.2  -0.0  -0.0   0.0  -0.0   0.1  -0.0   0.0   0.0  -0.2  -0.0  -0.0
  -0.0   0.0   0.0   0.0   0.0   0.0   0.1  -1.1  -0.0  -0.0  -0.0   0.0   0.1   0.5   0.0  -0.0   0.0   0.0  -0.0   0.0
  -0.0   0.0   0.0   0.0  -0.0  -0.0
 curvilinear- renormalizn of Dush matrix done
  mol 1 sym            1  -> mol 2 sym            1

 Dushinsky matrix, ncs 2 in terms of ncs 1

   mode   freq    coeff     %      %tot     of    at

   1        -0. -0.0000     0.0     0.0  10       140.
   2        -0.  0.0000     0.0     0.0  10       140.
   3        -0.  0.0000     0.0     0.0  10       140.
   4         0. -0.0000     0.0     0.0  10       140.
   5         0.  0.0000     0.0     0.0  10       140.
   6         0.  0.0000     0.0     0.0  10       140.
   7        43. -1.0000   100.0    99.3   8        47.
   8        45. -0.9998   100.0   102.4   9        51.
   9        51. -0.9998   100.0    97.6   7        21.
  10       117. -0.9976    99.5   101.0  10       140.
  11       143.  0.9998   100.0    96.6  11       156.
  12       216.  0.9961    99.2   102.5  13       286.
  13       261.  0.9995    99.9    98.2  12       261.
  14       348. -0.9971    99.4    96.8  14       405.
  15       387.  0.9998   100.0   100.9  16       412.
  16       406.  0.9997    99.9   100.9  15       411.
  17       460.  0.9977    99.5   101.0  18       529.
  18       474.  0.9994    99.9   105.5  17       479.
  19       515. -0.9945    98.9   101.1  20       570.
  20       532. -0.9988    99.8    96.9  19       550.
  21       549. -0.9953    99.1   102.3  21       577.
  22       617. -0.9987    99.7   100.0  22       636.
  23       622. -0.9982    99.6    99.9  23       642.
  24       653. -0.9876    97.5    99.9  24       705.
  25       654. -0.9902    98.0    99.9  25       706.
  26       698.  0.9959    99.2    98.4  26       716.
  27       742.  0.9895    97.9    98.4  28       775.
  28       743.  0.9894    97.9    98.5  27       775.
  29       792.  0.9888    97.8    99.3  30       853.
  30       795. -0.9896    97.9    99.3  29       853.
  31       820.  0.9691    93.9    99.7  31       857.
  32       865.  0.9778    95.6    99.7  32       930.
  33       865.  0.9781    95.7    99.7  33       932.
  34       964.  0.9891    97.8    99.9  35       981.
  35       965. -0.9901    98.0    99.9  34       981.
  36       976.  0.9706    94.2    99.9  36      1002.
  37       976.  0.9709    94.3    99.9  37      1002.
  38       986.  0.9723    94.5    99.3  39      1014.
  39       993. -0.9732    94.7    99.8  38      1014.
  40      1015. -0.9735    94.8    99.9  40      1047.
  41      1015. -0.9923    98.5   100.0  41      1049.
  42      1097.  0.9899    98.0    99.5  42      1100.
  43      1098.  0.9903    98.1    99.6  43      1102.
  44      1150. -0.9804    96.1    99.5  44      1160.
  45      1166.  0.9627    92.7   100.0  45      1183.
  46      1166. -0.9659    93.3   100.0  46      1183.
  47      1192.  0.9922    98.4   100.2  47      1200.
  48      1205.  0.9944    98.9    99.9  48      1202.
  49      1275. -0.8382    70.3    99.7  49      1309.
                -0.3234    10.5          52      1351.
  50      1281.  0.8313    69.1    99.8  50      1312.
                 0.3511    12.3          53      1352.
  51      1362.  0.9350    87.4   100.0  52      1351.
  52      1362.  0.9261    85.8   100.0  53      1352.
  53      1406. -0.9566    91.5   100.1  51      1341.
  54      1442. -0.4067    16.5   100.0  49      1309.
                -0.7244    52.5          54      1472.
                 0.5507    30.3          58      1607.
  55      1442. -0.4054    16.4   100.0  50      1312.
                -0.7163    51.3          55      1474.
                 0.5631    31.7          59      1609.
  56      1476.  0.9946    98.9    99.9  56      1516.
  57      1513. -0.9405    88.4    99.6  57      1535.
  58      1524. -0.6044    36.5    99.5  55      1474.
                -0.7834    61.4          59      1609.
  59      1524. -0.5920    35.0    99.5  54      1472.
                -0.7927    62.8          58      1607.
  60      1608. -0.9815    96.3    99.6  61      1646.
  61      1637.  0.9907    98.2    99.7  60      1637.
  62      2143.  0.9894    97.9   100.0  62      2302.
  63      3162.  0.9853    97.1   100.0  63      3163.
  64      3162.  0.9843    96.9   100.0  64      3163.
  65      3166.  1.0000   100.0   100.0  65      3172.
  66      3166. -1.0000   100.0   100.0  66      3172.
  67      3183.  0.9757    95.2   100.0  67      3183.
  68      3183. -0.9775    95.5   100.0  68      3183.
  69      3188.  1.0000   100.0   100.0  69      3191.
  70      3188. -1.0000   100.0   100.0  70      3191.
  71      3194. -0.9832    96.7   100.0  71      3195.
  72      3194. -0.9860    97.2   100.0  72      3195.
 nber times 1st assigned=           1           0
 nber times 1st assigned=           2           0
 nber times 1st assigned=           3           0
 nber times 1st assigned=           4           0
 nber times 1st assigned=           5           0
 nber times 1st assigned=           6           0
 nber times 1st assigned=           7           0
 nber times 1st assigned=           8           0
 nber times 1st assigned=           9           0
 nber times 1st assigned=          10           6
 nber times 1st assigned=          11           0
 nber times 1st assigned=          12           0
 nber times 1st assigned=          13           0
 nber times 1st assigned=          14           0
 nber times 1st assigned=          15           0
 nber times 1st assigned=          16           0
 nber times 1st assigned=          17           0
 nber times 1st assigned=          18           0
 nber times 1st assigned=          19           0
 nber times 1st assigned=          20           0
 nber times 1st assigned=          21           0
 nber times 1st assigned=          22           0
 nber times 1st assigned=          23           0
 nber times 1st assigned=          24           0
 nber times 1st assigned=          25           0
 nber times 1st assigned=          26           0
 nber times 1st assigned=          27           0
 nber times 1st assigned=          28           0
 nber times 1st assigned=          29           0
 nber times 1st assigned=          30           0
 nber times 1st assigned=          31           0
 nber times 1st assigned=          32           0
 nber times 1st assigned=          33           0
 nber times 1st assigned=          34           0
 nber times 1st assigned=          35           0
 nber times 1st assigned=          36           0
 nber times 1st assigned=          37           0
 nber times 1st assigned=          38           0
 nber times 1st assigned=          39           0
 nber times 1st assigned=          40           0
 nber times 1st assigned=          41           0
 nber times 1st assigned=          42           0
 nber times 1st assigned=          43           0
 nber times 1st assigned=          44           0
 nber times 1st assigned=          45           0
 nber times 1st assigned=          46           0
 nber times 1st assigned=          47           0
 nber times 1st assigned=          48           0
 nber times 1st assigned=          49           0
 nber times 1st assigned=          50           0
 nber times 1st assigned=          51           0
 nber times 1st assigned=          52           0
 nber times 1st assigned=          53           0
 nber times 1st assigned=          54           0
 nber times 1st assigned=          55           0
 nber times 1st assigned=          56           0
 nber times 1st assigned=          57           0
 nber times 1st assigned=          58           0
 nber times 1st assigned=          59           0
 nber times 1st assigned=          60           0
 nber times 1st assigned=          61           0
 nber times 1st assigned=          62           0
 nber times 1st assigned=          63           0
 nber times 1st assigned=          64           0
 nber times 1st assigned=          65           0
 nber times 1st assigned=          66           0
 nber times 1st assigned=          67           0
 nber times 1st assigned=          68           0
 nber times 1st assigned=          69           0
 nber times 1st assigned=          70           0
 nber times 1st assigned=          71           0
 nber times 1st assigned=          72           0
 Dushinsky matrix written to .out file
 modes represented=   65.9080604626656     

 Dushinsky matrix, ncs 1 in terms of ncs 2

   mode   freq    coeff     %      %tot     of    at

   7        21. -0.9998   100.0    97.6   9        51.
   8        47. -1.0000   100.0    99.6   7        43.
   9        51. -0.9998   100.0   102.5   8        45.
  10       140. -0.9976    99.5   101.2  10       117.
  11       156.  0.9998   100.0    97.5  11       143.
  12       261.  0.9995    99.9    98.7  13       261.
  13       286.  0.9961    99.2   102.3  12       216.
  14       405. -0.9971    99.4    96.9  14       348.
  15       411.  0.9997    99.9   100.8  16       406.
  16       412.  0.9998   100.0   100.8  15       387.
  17       479.  0.9994    99.9   105.6  18       474.
  18       529.  0.9977    99.5   101.2  17       460.
  19       550. -0.9988    99.8    97.1  20       532.
  20       570. -0.9945    98.9   100.9  19       515.
  21       577. -0.9953    99.1   101.6  21       549.
  22       636. -0.9987    99.7   100.0  22       617.
  23       642. -0.9982    99.6   100.0  23       622.
  24       705. -0.9876    97.5    99.6  24       653.
  25       706. -0.9902    98.0    99.6  25       654.
  26       716.  0.9959    99.2    98.3  26       698.
  27       775.  0.9894    97.9    98.7  28       743.
  28       775.  0.9895    97.9    98.7  27       742.
  29       853. -0.9896    97.9    99.3  30       795.
  30       853.  0.9888    97.8    99.3  29       792.
  31       857.  0.9691    93.9    99.4  31       820.
  32       930.  0.9778    95.6    99.9  32       865.
  33       932.  0.9781    95.7    99.8  33       865.
  34       981. -0.9901    98.0   100.0  35       965.
  35       981.  0.9891    97.8   100.0  34       964.
  36      1002.  0.9706    94.2    99.7  36       976.
  37      1002.  0.9709    94.3    99.7  37       976.
  38      1014. -0.9732    94.7    99.4  39       993.
  39      1014.  0.9723    94.5    99.2  38       986.
  40      1047. -0.9735    94.8   100.0  40      1015.
  41      1049. -0.9923    98.5   100.0  41      1015.
  42      1100.  0.9899    98.0    99.5  42      1097.
  43      1102.  0.9903    98.1    99.5  43      1098.
  44      1160. -0.9804    96.1    99.5  44      1150.
  45      1183.  0.9627    92.7   100.0  45      1166.
  46      1183. -0.9659    93.3   100.0  46      1166.
  47      1200.  0.9922    98.4   100.2  47      1192.
  48      1202.  0.9944    98.9   100.0  48      1205.
  49      1309. -0.8382    70.3    99.8  49      1275.
                -0.4067    16.5          54      1442.
  50      1312.  0.8313    69.1    99.9  50      1281.
                -0.4054    16.4          55      1442.
  51      1341. -0.9566    91.5   100.0  53      1406.
  52      1351. -0.3234    10.5    99.8  49      1275.
                 0.9350    87.4          51      1362.
  53      1352.  0.3511    12.3    99.8  50      1281.
                 0.9261    85.8          52      1362.
  54      1472. -0.7244    52.5    99.3  54      1442.
                -0.5920    35.0          59      1524.
  55      1474. -0.7163    51.3    99.3  55      1442.
                -0.6044    36.5          58      1524.
  56      1516.  0.9946    98.9    99.9  56      1476.
  57      1535. -0.9405    88.4    99.8  57      1513.
  58      1607.  0.5507    30.3   100.0  54      1442.
                -0.7927    62.8          59      1524.
  59      1609.  0.5631    31.7   100.0  55      1442.
                -0.7834    61.4          58      1524.
  60      1637.  0.9907    98.2    99.6  61      1637.
  61      1646. -0.9815    96.3    99.6  60      1608.
  62      2302.  0.9894    97.9   100.0  62      2143.
  63      3163.  0.9853    97.1   100.0  63      3162.
  64      3163.  0.9843    96.9   100.0  64      3162.
  65      3172.  1.0000   100.0   100.0  65      3166.
  66      3172. -1.0000   100.0   100.0  66      3166.
  67      3183.  0.9757    95.2   100.0  67      3183.
  68      3183. -0.9775    95.5   100.0  68      3183.
  69      3191.  1.0000   100.0   100.0  69      3188.
  70      3191. -1.0000   100.0   100.0  70      3188.
  71      3195. -0.9832    96.7   100.0  71      3194.
  72      3195. -0.9860    97.2   100.0  72      3194.
 nber times 1st assigned=           1           0
 nber times 1st assigned=           2           0
 nber times 1st assigned=           3           0
 nber times 1st assigned=           4           0
 nber times 1st assigned=           5           0
 nber times 1st assigned=           6           0
 nber times 1st assigned=           7           0
 nber times 1st assigned=           8           0
 nber times 1st assigned=           9           0
 nber times 1st assigned=          10           0
 nber times 1st assigned=          11           0
 nber times 1st assigned=          12           0
 nber times 1st assigned=          13           0
 nber times 1st assigned=          14           0
 nber times 1st assigned=          15           0
 nber times 1st assigned=          16           0
 nber times 1st assigned=          17           0
 nber times 1st assigned=          18           0
 nber times 1st assigned=          19           0
 nber times 1st assigned=          20           0
 nber times 1st assigned=          21           0
 nber times 1st assigned=          22           0
 nber times 1st assigned=          23           0
 nber times 1st assigned=          24           0
 nber times 1st assigned=          25           0
 nber times 1st assigned=          26           0
 nber times 1st assigned=          27           0
 nber times 1st assigned=          28           0
 nber times 1st assigned=          29           0
 nber times 1st assigned=          30           0
 nber times 1st assigned=          31           0
 nber times 1st assigned=          32           0
 nber times 1st assigned=          33           0
 nber times 1st assigned=          34           0
 nber times 1st assigned=          35           0
 nber times 1st assigned=          36           0
 nber times 1st assigned=          37           0
 nber times 1st assigned=          38           0
 nber times 1st assigned=          39           0
 nber times 1st assigned=          40           0
 nber times 1st assigned=          41           0
 nber times 1st assigned=          42           0
 nber times 1st assigned=          43           0
 nber times 1st assigned=          44           0
 nber times 1st assigned=          45           0
 nber times 1st assigned=          46           0
 nber times 1st assigned=          47           0
 nber times 1st assigned=          48           0
 nber times 1st assigned=          49           0
 nber times 1st assigned=          50           0
 nber times 1st assigned=          51           0
 nber times 1st assigned=          52           0
 nber times 1st assigned=          53           0
 nber times 1st assigned=          54           0
 nber times 1st assigned=          55           0
 nber times 1st assigned=          56           0
 nber times 1st assigned=          57           0
 nber times 1st assigned=          58           0
 nber times 1st assigned=          59           0
 nber times 1st assigned=          60           0
 nber times 1st assigned=          61           0
 nber times 1st assigned=          62           0
 nber times 1st assigned=          63           0
 nber times 1st assigned=          64           0
 nber times 1st assigned=          65           0
 nber times 1st assigned=          66           0
 nber times 1st assigned=          67           0
 nber times 1st assigned=          68           0
 nber times 1st assigned=          69           0
 nber times 1st assigned=          70           0
 nber times 1st assigned=          71           0
 nber times 1st assigned=          72           0
 modes represented=   65.9080604626656     
 p1=
    0.   -0.   -0.   -0.   -0.    0.    0.    0.    0.   -0.    0.    4.    0.   -0.   -0.    0.   -0.   -0.   -0.    0.
   -0.   -0.   -0.    0.    0.    4.   -0.    0.    0.    0.   -0.    0.    0.   -0.    0.   -0.   -0.    5.    0.   -0.
    0.   -0.   -0.    5.    0.    0.    0.   -2.    0.   -0.   -0.    0.    0.    0.   -0.   -2.    0.   -0.    0.    4.
   -0.   -5.   -0.   -0.    0.    0.   -0.   -0.    0.    0.    0.    0.
 p2=
    0.   -0.    0.   -0.    0.   -0.    0.    0.    0.   -0.   -0.   -0.   -3.   -0.   -0.    0.    0.    0.    0.   -0.
   -0.   -0.   -0.    0.    0.   -4.   -0.    0.   -0.   -0.    0.   -0.   -0.   -0.    0.    0.    0.    0.    5.    0.
   -0.    0.    0.    4.   -0.   -0.   -0.    2.    0.    0.   -0.   -0.   -0.    0.   -0.    2.    0.   -0.   -0.    0.
   -3.    6.   -0.    0.   -0.    0.   -0.    0.   -0.   -0.   -0.    0.

 Displacement: in terms of nc of 1 THEN of nc of 2

   1     freq=    -0. Q=  0.000 lam=    -0.0     freq=    -0. Q=  0.000 lam=    -0.0
   2     freq=    -0. Q= -0.000 lam=    -0.0     freq=    -0. Q= -0.000 lam=    -0.0
   3     freq=    -0. Q= -0.000 lam=    -0.0     freq=    -0. Q= -0.000 lam=    -0.0
   4     freq=     0. Q= -0.000 lam=     0.0     freq=     0. Q= -0.000 lam=     0.0
   5     freq=     0. Q= -0.000 lam=     0.0     freq=     0. Q= -0.000 lam=     0.0
   6     freq=     0. Q=  0.000 lam=     0.0     freq=     0. Q=  0.000 lam=     0.0
   7     freq=    21. Q=  0.002 lam=     0.0     freq=    43. Q=  0.001 lam=     0.0
   8     freq=    47. Q=  0.001 lam=     0.0     freq=    45. Q=  0.001 lam=     0.0
   9     freq=    51. Q=  0.002 lam=     0.0     freq=    51. Q=  0.003 lam=     0.0
  10     freq=   140. Q= -0.000 lam=     0.0     freq=   117. Q= -0.000 lam=     0.0
  11     freq=   156. Q=  0.000 lam=     0.0     freq=   143. Q=  0.000 lam=     0.0
  12     freq=   261. Q=  0.239 lam=     7.4     freq=   216. Q=  0.001 lam=     0.0
  13     freq=   286. Q=  0.001 lam=     0.0     freq=   261. Q=  0.223 lam=     6.5
  14     freq=   405. Q= -0.000 lam=     0.0     freq=   348. Q= -0.000 lam=     0.0
  15     freq=   411. Q= -0.000 lam=     0.0     freq=   387. Q= -0.000 lam=     0.0
  16     freq=   412. Q=  0.000 lam=     0.0     freq=   406. Q=  0.000 lam=     0.0
  17     freq=   479. Q= -0.000 lam=     0.0     freq=   460. Q= -0.000 lam=     0.0
  18     freq=   529. Q= -0.000 lam=     0.0     freq=   474. Q= -0.000 lam=     0.0
  19     freq=   550. Q= -0.000 lam=     0.0     freq=   515. Q= -0.000 lam=     0.0
  20     freq=   570. Q=  0.000 lam=     0.0     freq=   532. Q=  0.000 lam=     0.0
  21     freq=   577. Q= -0.000 lam=     0.0     freq=   549. Q= -0.000 lam=     0.0
  22     freq=   636. Q= -0.000 lam=     0.0     freq=   617. Q= -0.000 lam=     0.0
  23     freq=   642. Q= -0.000 lam=     0.0     freq=   622. Q= -0.000 lam=     0.0
  24     freq=   705. Q=  0.000 lam=     0.0     freq=   653. Q=  0.000 lam=     0.0
  25     freq=   706. Q=  0.000 lam=     0.0     freq=   654. Q=  0.000 lam=     0.0
  26     freq=   716. Q=  0.385 lam=    53.2     freq=   698. Q=  0.440 lam=    67.5
  27     freq=   775. Q= -0.000 lam=     0.0     freq=   742. Q= -0.000 lam=     0.0
  28     freq=   775. Q=  0.000 lam=     0.0     freq=   743. Q=  0.000 lam=     0.0
  29     freq=   853. Q=  0.000 lam=     0.0     freq=   792. Q=  0.000 lam=     0.0
  30     freq=   853. Q=  0.000 lam=     0.0     freq=   795. Q=  0.000 lam=     0.0
  31     freq=   857. Q= -0.000 lam=     0.0     freq=   820. Q= -0.000 lam=     0.0
  32     freq=   930. Q=  0.000 lam=     0.0     freq=   865. Q=  0.000 lam=     0.0
  33     freq=   932. Q=  0.000 lam=     0.0     freq=   865. Q=  0.000 lam=     0.0
  34     freq=   981. Q= -0.000 lam=     0.0     freq=   964. Q= -0.000 lam=     0.0
  35     freq=   981. Q=  0.000 lam=     0.0     freq=   965. Q=  0.000 lam=     0.0
  36     freq=  1002. Q= -0.000 lam=     0.0     freq=   976. Q= -0.000 lam=     0.0
  37     freq=  1002. Q= -0.000 lam=     0.0     freq=   976. Q= -0.000 lam=     0.0
  38     freq=  1014. Q=  0.582 lam=   171.6     freq=   986. Q=  0.000 lam=     0.0
  39     freq=  1014. Q=  0.000 lam=     0.0     freq=   993. Q=  0.599 lam=   178.4
  40     freq=  1047. Q= -0.008 lam=     0.0     freq=  1015. Q= -0.061 lam=     1.9
  41     freq=  1049. Q=  0.000 lam=     0.0     freq=  1015. Q=  0.000 lam=     0.0
  42     freq=  1100. Q= -0.000 lam=     0.0     freq=  1097. Q= -0.000 lam=     0.0
  43     freq=  1102. Q= -0.000 lam=     0.0     freq=  1098. Q= -0.000 lam=     0.0
  44     freq=  1160. Q=  0.625 lam=   226.9     freq=  1150. Q=  0.551 lam=   174.5
  45     freq=  1183. Q=  0.000 lam=     0.0     freq=  1166. Q=  0.000 lam=     0.0
  46     freq=  1183. Q=  0.000 lam=     0.0     freq=  1166. Q=  0.000 lam=     0.0
  47     freq=  1200. Q=  0.000 lam=     0.0     freq=  1192. Q=  0.000 lam=     0.0
  48     freq=  1202. Q= -0.330 lam=    65.4     freq=  1205. Q= -0.224 lam=    30.2
  49     freq=  1309. Q=  0.000 lam=     0.0     freq=  1275. Q=  0.000 lam=     0.0
  50     freq=  1312. Q= -0.000 lam=     0.0     freq=  1281. Q= -0.000 lam=     0.0
  51     freq=  1341. Q= -0.000 lam=     0.0     freq=  1362. Q= -0.000 lam=     0.0
  52     freq=  1351. Q=  0.000 lam=     0.0     freq=  1362. Q=  0.000 lam=     0.0
  53     freq=  1352. Q=  0.000 lam=     0.0     freq=  1406. Q=  0.000 lam=     0.0
  54     freq=  1472. Q=  0.000 lam=     0.0     freq=  1442. Q=  0.000 lam=     0.0
  55     freq=  1474. Q= -0.000 lam=     0.0     freq=  1442. Q= -0.000 lam=     0.0
  56     freq=  1516. Q= -0.301 lam=    68.5     freq=  1476. Q= -0.244 lam=    43.7
  57     freq=  1535. Q=  0.000 lam=     0.0     freq=  1513. Q=  0.000 lam=     0.0
  58     freq=  1607. Q= -0.000 lam=     0.0     freq=  1524. Q= -0.000 lam=     0.0
  59     freq=  1609. Q=  0.000 lam=     0.0     freq=  1524. Q=  0.000 lam=     0.0
  60     freq=  1637. Q=  0.714 lam=   416.6     freq=  1608. Q=  0.000 lam=     0.0
  61     freq=  1646. Q= -0.000 lam=     0.0     freq=  1637. Q= -0.566 lam=   262.3
  62     freq=  2302. Q= -0.887 lam=   905.9     freq=  2143. Q= -1.028 lam=  1132.6
  63     freq=  3163. Q= -0.000 lam=     0.0     freq=  3162. Q= -0.000 lam=     0.0
  64     freq=  3163. Q= -0.012 lam=     0.2     freq=  3162. Q= -0.010 lam=     0.2
  65     freq=  3172. Q=  0.000 lam=     0.0     freq=  3166. Q=  0.000 lam=     0.0
  66     freq=  3172. Q=  0.000 lam=     0.0     freq=  3166. Q=  0.000 lam=     0.0
  67     freq=  3183. Q= -0.000 lam=     0.0     freq=  3183. Q= -0.000 lam=     0.0
  68     freq=  3183. Q= -0.002 lam=     0.0     freq=  3183. Q= -0.006 lam=     0.1
  69     freq=  3191. Q=  0.000 lam=     0.0     freq=  3188. Q=  0.000 lam=     0.0
  70     freq=  3191. Q=  0.000 lam=     0.0     freq=  3188. Q=  0.000 lam=     0.0
  71     freq=  3195. Q=  0.000 lam=     0.0     freq=  3194. Q=  0.000 lam=     0.0
  72     freq=  3195. Q=  0.019 lam=     0.6     freq=  3194. Q=  0.022 lam=     0.8

 total reorg energy (cm**-1, kcal/mol)=     1917.     1899.      5.48      5.43
 Nber of molecules processed=           2
