 Enter ifcurve (0=recti, 1=orth curvi, 2=apprx curvi, -1 = skip
 And atom ordering flag, 0= never changes, 1= use the first order thenceforth,
  2= deduce it (does read on fail), 3= always read it
 Reading file: 
 ./thiophene-donors_1_C0S1.log                                                  
                                          
  Entering Gaussian System, Link 0=g16                                          
  
 Gaussian format, type: g94, g98, g03= F F F
  #P Geom=AllCheck Guess=TCheck SCRF=Check GenChk RB3LYP TD(FC,Read)/6-3    
 energy type= TD      
 Original G94 input coords:
  6 -1.243218  0.081995  0.000814
  6 -0.565188  1.298507 -0.000454
 16  1.160456  1.109866 -0.004446
  6  0.976363 -0.680402 -0.004416
  6 -0.406125 -1.029534 -0.001347
  6  2.095200 -1.499143 -0.007108
  6  3.477688 -1.150011 -0.010168
  6  4.314781 -2.261540 -0.012224
  6  3.636750 -3.478052 -0.010882
 16  1.911107 -3.289411 -0.006980
  1 -2.323946  0.025239  0.003264
  1 -0.992362  2.289764  0.000740
  1 -0.740486 -2.058077 -0.000838
  1  3.812048 -0.121468 -0.010780
  1  5.395509 -2.204784 -0.014648
  1  4.063925 -4.469309 -0.011997
 nber atoms=          16
  Total Energy, E(TD-HF/TD-DFT) =  -1104.80767706                               
  
          32          49 "  -1104.80767706"
After scan for Atom:   Atom  AN      X      Y      Z        X      Y      Z        X      Y      Z   
After scan for Atom:   Atom  AN      X      Y      Z        X      Y      Z        X      Y      Z   
After scan for Atom:   Atom  AN      X      Y      Z        X      Y      Z        X      Y      Z   
After scan for Atom:   Atom  AN      X      Y      Z        X      Y      Z        X      Y      Z   
After scan for Atom:   Atom  AN      X      Y      Z        X      Y      Z        X      Y      Z   
After scan for Atom:   Atom  AN      X      Y      Z        X      Y      Z        X      Y      Z   
After scan for Atom:   Atom  AN      X      Y      Z        X      Y      Z        X      Y      Z   
After scan for Atom:   Atom  AN      X      Y      Z        X      Y      Z        X      Y      Z   
After scan for Atom:   Atom  AN      X      Y      Z        X      Y      Z        X      Y      Z   
After scan for Atom:   Atom  AN      X      Y      Z        X      Y      Z        X      Y      Z   
After scan for Atom:   Atom  AN      X      Y      Z        X      Y      Z        X      Y      Z   
After scan for Atom:   Atom  AN      X      Y      Z        X      Y      Z        X      Y      Z   
After scan for Atom:   Atom  AN      X      Y      Z        X      Y      Z        X      Y      Z   
After scan for Atom:   Atom  AN      X      Y      Z        X      Y      Z        X      Y      Z   
 g94    frequencies=
     0.0    0.0    0.0    0.0    0.0    0.0   53.4   76.6  109.2  155.8
   277.4  353.0  380.1  421.5  487.4  531.6  545.8  603.5  626.9  651.0
   652.6  660.9  666.9  688.8  803.5  846.4  874.0  882.1  882.2 1079.1
  1083.2 1086.6 1093.2 1130.6 1169.0 1288.4 1303.0 1413.7 1419.1 1455.9
  1476.3 1586.3 3196.5 3196.7 3212.9 3213.7 3240.5 3240.9
 g94    symmetries=
                                                 A      A      A      A
       A      A      A      A      A      A      A      A      A      A
       A      A      A      A      A      A      A      A      A      A
       A      A      A      A      A      A      A      A      A      A
       A      A      A      A      A      A      A      A
 atomic masses:
 12.0000 12.0000 31.9721 12.0000 12.0000 12.0000 12.0000 12.0000 12.0000 31.9721
  1.0078  1.0078  1.0078  1.0078  1.0078  1.0078
 looking for force constants in 
 ./thiophene-donors_1_C0S1.fchk                                                 
  
 Cartesian Force Constants                  R   N=        1176                  
  
 n3=          48        1176
 g94-fc frequencies=
    -3.6   -3.0   -1.5   -0.0   -0.0    0.0   53.4   76.6  109.2  155.8
   277.4  353.0  380.1  421.5  487.4  531.6  545.8  603.5  626.9  651.0
   652.6  660.9  666.9  688.8  803.5  846.4  874.0  882.1  882.2 1079.2
  1083.2 1086.7 1093.2 1130.6 1169.0 1288.5 1303.0 1413.7 1419.2 1455.9
  1476.3 1586.3 3196.6 3196.7 3212.9 3213.8 3240.6 3240.9
 at 99999: n3=          48
 symm operator            1 :  F  nop=           0
 symm operator            2 :  F  nop=           0
 symm operator            3 :  F  nop=           0
 symm operator            4 :  F  nop=           0
 symm operator            5 :  F  nop=           0
 symm operator            6 :  F  nop=           0
 symm operator            7 :  F  nop=           0
 The point group of the molecule is  C1
 Symmetry rotation matrix:
   1.00000   0.00000   0.00000
   0.00000   1.00000   0.00000
   0.00000   0.00000   1.00000

 Projecting out zero-frequency components
 generating redundant internal coords
         300        3600          16
 search for int coords
   1 str   2   1   1.393
   2 str   3   2   1.736
   3 str   4   3   1.800
   4 str   5   1   1.391
   5 str   5   4   1.426
   6 str   6   4   1.386
   7 str   7   6   1.426
   8 str   8   7   1.391
   9 str   9   8   1.393
  10 str  10   6   1.800
  11 str  10   9   1.736
  12 str  11   1   1.082
  13 str  12   2   1.079
  14 str  13   5   1.082
  15 str  14   7   1.082
  16 str  15   8   1.082
  17 str  16   9   1.079
 nber stretches=          17
  18 ben   1   2   3
  19 prop tor   1   2   3   4
  20 ben   1   2  12
  21 ben   1   5   4
  22 ben   1   5  13
  23 ben   2   1   5
  24 prop tor   2   1   5   4
  25 prop tor   2   1   5  13
  26 ben   2   1  11
  27 ben   2   3   4
  28 prop tor   2   3   4   5
  29 prop tor   2   3   4   6
  30 ben   3   2  12
  31 ben   3   4   5
  32 prop tor   3   4   5   1
  33 prop tor   3   4   5  13
  34 ben   3   4   6
  35 prop tor   3   4   6   7
  36 prop tor   3   4   6  10
  37 ben   4   5  13
  38 ben   4   6   7
  39 prop tor   4   6   7   8
  40 prop tor   4   6   7  14
  41 ben   4   6  10
  42 prop tor   4   6  10   9
  43 prop tor   5   1   2   3
  44 prop tor   5   1   2  12
  45 ben   5   1  11
  46 ben   5   4   6
  47 prop tor   5   4   6   7
  48 prop tor   5   4   6  10
  49 prop tor   6   4   5   1
  50 prop tor   6   4   5  13
  51 ben   6   7   8
  52 prop tor   6   7   8   9
  53 prop tor   6   7   8  15
  54 ben   6   7  14
  55 ben   6  10   9
  56 ben   7   6  10
  57 prop tor   7   6  10   9
  58 ben   7   8   9
  59 prop tor   7   8   9  10
  60 prop tor   7   8   9  16
  61 ben   7   8  15
  62 ben   8   7  14
  63 ben   8   9  10
  64 prop tor   8   9  10   6
  65 ben   8   9  16
  66 ben   9   8  15
  67 prop tor  10   6   7   8
  68 prop tor  10   6   7  14
  69 ben  10   9  16
  70 prop tor  11   1   2   3
  71 prop tor  11   1   2  12
  72 prop tor  11   1   5   4
  73 prop tor  11   1   5  13
  74 prop tor  12   2   3   4
  75 prop tor  14   7   8   9
  76 prop tor  14   7   8  15
  77 prop tor  15   8   9  10
  78 prop tor  15   8   9  16
  79 prop tor  16   9  10   6
 nber bend=              26
 nber lin bend=           0
 nber prop tor=          36
 nber impr tor=           0
 nber tot redund int=          79
 Eigenvalues of G in red int coords
    Gval -0.00000000 -0.00000000 -0.00000000 -0.00000000 -0.00000000 -0.00000000 -0.00000000 -0.00000000
    Gval -0.00000000 -0.00000000 -0.00000000 -0.00000000 -0.00000000 -0.00000000 -0.00000000 -0.00000000
    Gval -0.00000000 -0.00000000  0.00000000  0.00000000  0.00000000  0.00000000  0.00000000  0.00000000
    Gval  0.00000000  0.00000000  0.00000000  0.00000000  0.00000000  0.00000000  0.00000000  0.00000000
    Gval  0.00000000  0.00000000  0.00000000  0.00000000  0.00000000  0.00000610  0.00000759  0.00002045
    Gval  0.00004161  0.00004176  0.00004309  0.00004936  0.00005760  0.00006740  0.00007274  0.00007732
    Gval  0.00011315  0.00012059  0.00013353  0.00015058  0.00020789  0.00023295  0.00026362  0.00029948
    Gval  0.00037230  0.00042643  0.00053805  0.00059442  0.00059456  0.00060125  0.00060276  0.00063065
    Gval  0.00063798  0.00071678  0.00105794  0.00106011  0.00114571  0.00114800  0.00119154  0.00119201
    Gval  0.00125853  0.00176592  0.00198204  0.00306392  0.00315807  0.00426952  0.00429686
  6.102508396973840E-006  6.102508396973840E-006
  7.590246514713201E-006  6.102508396973840E-006
  2.045044478412902E-005  6.102508396973840E-006
  4.160831622417101E-005  6.102508396973840E-006
  4.176073969426806E-005  6.102508396973840E-006
  4.308590526400816E-005  6.102508396973840E-006
  4.935888738081673E-005  6.102508396973840E-006
  5.759802356659116E-005  6.102508396973840E-006
  6.739831847224442E-005  6.102508396973840E-006
  7.274374416646507E-005  6.102508396973840E-006
  7.732467918402419E-005  6.102508396973840E-006
  1.131457147526171E-004  6.102508396973840E-006
  1.205866879508033E-004  6.102508396973840E-006
  1.335328331181993E-004  6.102508396973840E-006
  1.505836758757708E-004  6.102508396973840E-006
  2.078874684040158E-004  6.102508396973840E-006
  2.329548930557482E-004  6.102508396973840E-006
  2.636223379121815E-004  6.102508396973840E-006
  2.994769385776119E-004  6.102508396973840E-006
  3.723017178583468E-004  6.102508396973840E-006
  4.264312633655375E-004  6.102508396973840E-006
  5.380461867457798E-004  6.102508396973840E-006
  5.944191896515577E-004  6.102508396973840E-006
  5.945609313071015E-004  6.102508396973840E-006
  6.012496622617110E-004  6.102508396973840E-006
  6.027569619979804E-004  6.102508396973840E-006
  6.306466643565905E-004  6.102508396973840E-006
  6.379811010449679E-004  6.102508396973840E-006
  7.167805036847308E-004  6.102508396973840E-006
  1.057941592841130E-003  6.102508396973840E-006
  1.060114128297471E-003  6.102508396973840E-006
  1.145705363034729E-003  6.102508396973840E-006
  1.148001445434286E-003  6.102508396973840E-006
  1.191536006608858E-003  6.102508396973840E-006
  1.192012423705405E-003  6.102508396973840E-006
  1.258532803042170E-003  6.102508396973840E-006
  1.765916862739067E-003  6.102508396973840E-006
  1.982044408369489E-003  6.102508396973840E-006
  3.063922574039021E-003  6.102508396973840E-006
  3.158071070121979E-003  6.102508396973840E-006
  4.269522746284080E-003  6.102508396973840E-006
  4.296859831730095E-003  6.102508396973840E-006
 cut=1d-8, nber non-redundant internal coords=          42
 Check on Eigenvals of non-red overlap matrix:
  0.00000610  0.00000759  0.00002045  0.00004161  0.00004176  0.00004309  0.00004936  0.00005760
  0.00006740  0.00007274  0.00007732  0.00011315  0.00012059  0.00013353  0.00015058  0.00020789
  0.00023295  0.00026362  0.00029948  0.00037230  0.00042643  0.00053805  0.00059442  0.00059456
  0.00060125  0.00060276  0.00063065  0.00063798  0.00071678  0.00105794  0.00106011  0.00114571
  0.00114800  0.00119154  0.00119201  0.00125853  0.00176592  0.00198204  0.00306392  0.00315807
  0.00426952  0.00429686
 Checking for correct frequencies
 recalc frequencies=
    -0.0   -0.0   -0.0    0.0    0.0    0.0   53.4   76.6  109.2  155.8
   277.4  353.0  380.1  421.5  487.4  531.6  545.8  603.5  626.9  651.0
   652.6  660.9  666.9  688.8  803.5  846.4  874.0  882.1  882.2 1079.2
  1083.2 1086.7 1093.2 1130.6 1169.0 1288.5 1303.0 1413.7 1419.2 1455.9
  1476.3 1586.3 3196.6 3196.7 3212.9 3213.8 3240.6 3240.9
 recalc symmetries=
                                                                       
                                                                       
                                                                       
                                                                       
                                                         
 recalc freqs check OK
 Zero-point lengths:
 10.0000 10.0000 10.0000 10.0000 10.0000 10.0000 33.9398 28.3177 23.7206 19.8633
 14.8855 13.1942 12.7153 12.0758 11.2290 10.7526 10.6114 10.0912  9.9016  9.7161
  9.7044  9.6435  9.6000  9.4458  8.7457  8.5213  8.3855  8.3472  8.3466  7.5466
  7.5324  7.5205  7.4979  7.3729  7.2509  6.9065  6.8678  6.5936  6.5808  6.4972
  6.4521  6.2244  4.3848  4.3847  4.3737  4.3731  4.3549  4.3547
 highest evec of mol 1
 -0.0525 -0.0097  0.0001
 -0.0723  0.1875  0.0002
  0.0018  0.0002 -0.0000
  0.0032 -0.0018 -0.0000
 -0.0033 -0.0213  0.0000
 -0.0032  0.0018  0.0000
  0.0033  0.0213 -0.0000
  0.0525  0.0097 -0.0001
  0.0723 -0.1874 -0.0002
 -0.0018 -0.0002  0.0000
  0.1494  0.0095 -0.0003
  0.2575 -0.6034 -0.0007
  0.0177  0.0575 -0.0000
 -0.0177 -0.0575  0.0000
 -0.1493 -0.0095  0.0003
 -0.2574  0.6032  0.0007
 generating redundant internal coords
         300        3600          16
 Adding extra bonds for z output only
           6           6          16           6           6           6
           6           6           6          16           1           1
           1           1           1           1
 search for int coords
   1 str   2   1   1.393
   2 str   3   2   1.736
   3 str   4   3   1.800
   4 str   5   1   1.391
   5 str   5   4   1.426
   6 str   6   4   1.386
   7 str   7   6   1.426
   8 str   8   7   1.391
   9 str   9   8   1.393
  10 str  10   6   1.800
  11 str  10   9   1.736
  12 str  11   1   1.082
  13 str  12   2   1.079
  14 str  13   5   1.082
  15 str  14   7   1.082
  16 str  15   8   1.082
  17 str  16   9   1.079
 nber stretches=          17
  18 ben   1   2   3
  19 prop tor   1   2   3   4
  20 ben   1   2  12
  21 ben   1   5   4
  22 ben   1   5  13
  23 ben   2   1   5
  24 prop tor   2   1   5   4
  25 prop tor   2   1   5  13
  26 ben   2   1  11
  27 ben   2   3   4
  28 prop tor   2   3   4   5
  29 prop tor   2   3   4   6
  30 ben   3   2  12
  31 ben   3   4   5
  32 prop tor   3   4   5   1
  33 prop tor   3   4   5  13
  34 ben   3   4   6
  35 prop tor   3   4   6   7
  36 prop tor   3   4   6  10
  37 ben   4   5  13
  38 ben   4   6   7
  39 prop tor   4   6   7   8
  40 prop tor   4   6   7  14
  41 ben   4   6  10
  42 prop tor   4   6  10   9
  43 prop tor   5   1   2   3
  44 prop tor   5   1   2  12
  45 ben   5   1  11
  46 ben   5   4   6
  47 prop tor   5   4   6   7
  48 prop tor   5   4   6  10
  49 prop tor   6   4   5   1
  50 prop tor   6   4   5  13
  51 ben   6   7   8
  52 prop tor   6   7   8   9
  53 prop tor   6   7   8  15
  54 ben   6   7  14
  55 ben   6  10   9
  56 ben   7   6  10
  57 prop tor   7   6  10   9
  58 ben   7   8   9
  59 prop tor   7   8   9  10
  60 prop tor   7   8   9  16
  61 ben   7   8  15
  62 ben   8   7  14
  63 ben   8   9  10
  64 prop tor   8   9  10   6
  65 ben   8   9  16
  66 ben   9   8  15
  67 prop tor  10   6   7   8
  68 prop tor  10   6   7  14
  69 ben  10   9  16
  70 prop tor  11   1   2   3
  71 prop tor  11   1   2  12
  72 prop tor  11   1   5   4
  73 prop tor  11   1   5  13
  74 prop tor  12   2   3   4
  75 prop tor  14   7   8   9
  76 prop tor  14   7   8  15
  77 prop tor  15   8   9  10
  78 prop tor  15   8   9  16
  79 prop tor  16   9  10   6
 nber bend=              26
 nber lin bend=           0
 nber prop tor=          36
 nber impr tor=           0
 nber tot redund int=          79
 Reading file: 
 ./thiophene-donors_1_C1S0.log                                                  
                                          
  Entering Gaussian System, Link 0=g16                                          
  
 Gaussian format, type: g94, g98, g03= F F F
  #P Geom=AllCheck Guess=TCheck SCRF=Check GenChk UB3LYP/6-311G(d,p) Fre    
 energy type= B3LYP   
 Original G94 input coords:
  6 -1.242159  0.075670  0.000779
  6 -0.551604  1.285834 -0.000509
 16  1.148530  1.094460 -0.004366
  6  0.977308 -0.664392 -0.004355
  6 -0.390933 -1.020105 -0.001360
  6  2.094255 -1.515153 -0.007047
  6  3.462495 -1.159440 -0.010117
  6  4.313722 -2.255215 -0.012251
  6  3.623167 -3.465379 -0.010870
 16  1.923033 -3.274005 -0.006950
  1 -2.321524  0.014995  0.003180
  1 -0.974671  2.280862  0.000659
  1 -0.729934 -2.047763 -0.000826
  1  3.801496 -0.131782 -0.010725
  1  5.393086 -2.194540 -0.014717
  1  4.046234 -4.460407 -0.011995
 nber atoms=          16
  SCF Done:  E(UB3LYP) =  -1104.67430615     A.U. after    1 cycles             
  
          23          40 "  -1104.67430615"
After scan for Atom:   Atom  AN      X      Y      Z        X      Y      Z        X      Y      Z   
After scan for Atom:   Atom  AN      X      Y      Z        X      Y      Z        X      Y      Z   
After scan for Atom:   Atom  AN      X      Y      Z        X      Y      Z        X      Y      Z   
After scan for Atom:   Atom  AN      X      Y      Z        X      Y      Z        X      Y      Z   
After scan for Atom:   Atom  AN      X      Y      Z        X      Y      Z        X      Y      Z   
After scan for Atom:   Atom  AN      X      Y      Z        X      Y      Z        X      Y      Z   
After scan for Atom:   Atom  AN      X      Y      Z        X      Y      Z        X      Y      Z   
After scan for Atom:   Atom  AN      X      Y      Z        X      Y      Z        X      Y      Z   
After scan for Atom:   Atom  AN      X      Y      Z        X      Y      Z        X      Y      Z   
After scan for Atom:   Atom  AN      X      Y      Z        X      Y      Z        X      Y      Z   
After scan for Atom:   Atom  AN      X      Y      Z        X      Y      Z        X      Y      Z   
After scan for Atom:   Atom  AN      X      Y      Z        X      Y      Z        X      Y      Z   
After scan for Atom:   Atom  AN      X      Y      Z        X      Y      Z        X      Y      Z   
After scan for Atom:   Atom  AN      X      Y      Z        X      Y      Z        X      Y      Z   
 g94    frequencies=
     0.0    0.0    0.0    0.0    0.0    0.0   60.6  107.6  136.0  232.2
   293.5  383.2  437.7  481.1  548.7  595.8  606.4  681.6  697.3  711.2
   751.9  755.4  847.6  857.8  859.4  874.1  893.2  956.5  957.0 1094.5
  1097.4 1110.2 1122.6 1173.5 1220.9 1304.7 1318.5 1424.7 1437.5 1472.4
  1482.2 1545.2 3211.2 3211.4 3226.5 3226.7 3239.3 3239.5
 g94    symmetries=
                                                 A      A      A      A
       A      A      A      A      A      A      A      A      A      A
       A      A      A      A      A      A      A      A      A      A
       A      A      A      A      A      A      A      A      A      A
       A      A      A      A      A      A      A      A
 atomic masses:
 12.0000 12.0000 31.9721 12.0000 12.0000 12.0000 12.0000 12.0000 12.0000 31.9721
  1.0078  1.0078  1.0078  1.0078  1.0078  1.0078
 looking for force constants in 
 ./thiophene-donors_1_C1S0.fchk                                                 
  
 Cartesian Force Constants                  R   N=        1176                  
  
 n3=          48        1176
 g94-fc frequencies=
    -2.8   -0.0   -0.0    0.0    2.6    4.6   60.6  107.6  136.0  232.2
   293.5  383.2  437.7  481.1  548.7  595.8  606.4  681.6  697.3  711.2
   751.9  755.4  847.6  857.8  859.4  874.1  893.3  956.5  957.0 1094.6
  1097.5 1110.3 1122.6 1173.5 1220.9 1304.8 1318.6 1424.7 1437.5 1472.5
  1482.3 1545.2 3211.3 3211.4 3226.5 3226.8 3239.3 3239.6
 at 99999: n3=          48
 symm operator            1 :  F  nop=           0
 symm operator            2 :  F  nop=           0
 symm operator            3 :  F  nop=           0
 symm operator            4 :  F  nop=           0
 symm operator            5 :  F  nop=           0
 symm operator            6 :  F  nop=           0
 symm operator            7 :  F  nop=           0
 The point group of the molecule is  C1
 Symmetry rotation matrix:
   1.00000   0.00000   0.00000
   0.00000   1.00000   0.00000
   0.00000   0.00000   1.00000

 Projecting out zero-frequency components
 generating redundant internal coords
         300        3600          16
 search for int coords
   1 str   2   1   1.393
   2 str   3   2   1.711
   3 str   4   3   1.767
   4 str   5   1   1.388
   5 str   5   4   1.414
   6 str   6   4   1.404
   7 str   7   6   1.414
   8 str   8   7   1.388
   9 str   9   8   1.393
  10 str  10   6   1.767
  11 str  10   9   1.711
  12 str  11   1   1.081
  13 str  12   2   1.081
  14 str  13   5   1.082
  15 str  14   7   1.082
  16 str  15   8   1.081
  17 str  16   9   1.081
 nber stretches=          17
  18 ben   1   2   3
  19 prop tor   1   2   3   4
  20 ben   1   2  12
  21 ben   1   5   4
  22 ben   1   5  13
  23 ben   2   1   5
  24 prop tor   2   1   5   4
  25 prop tor   2   1   5  13
  26 ben   2   1  11
  27 ben   2   3   4
  28 prop tor   2   3   4   5
  29 prop tor   2   3   4   6
  30 ben   3   2  12
  31 ben   3   4   5
  32 prop tor   3   4   5   1
  33 prop tor   3   4   5  13
  34 ben   3   4   6
  35 prop tor   3   4   6   7
  36 prop tor   3   4   6  10
  37 ben   4   5  13
  38 ben   4   6   7
  39 prop tor   4   6   7   8
  40 prop tor   4   6   7  14
  41 ben   4   6  10
  42 prop tor   4   6  10   9
  43 prop tor   5   1   2   3
  44 prop tor   5   1   2  12
  45 ben   5   1  11
  46 ben   5   4   6
  47 prop tor   5   4   6   7
  48 prop tor   5   4   6  10
  49 prop tor   6   4   5   1
  50 prop tor   6   4   5  13
  51 ben   6   7   8
  52 prop tor   6   7   8   9
  53 prop tor   6   7   8  15
  54 ben   6   7  14
  55 ben   6  10   9
  56 ben   7   6  10
  57 prop tor   7   6  10   9
  58 ben   7   8   9
  59 prop tor   7   8   9  10
  60 prop tor   7   8   9  16
  61 ben   7   8  15
  62 ben   8   7  14
  63 ben   8   9  10
  64 prop tor   8   9  10   6
  65 ben   8   9  16
  66 ben   9   8  15
  67 prop tor  10   6   7   8
  68 prop tor  10   6   7  14
  69 ben  10   9  16
  70 prop tor  11   1   2   3
  71 prop tor  11   1   2  12
  72 prop tor  11   1   5   4
  73 prop tor  11   1   5  13
  74 prop tor  12   2   3   4
  75 prop tor  14   7   8   9
  76 prop tor  14   7   8  15
  77 prop tor  15   8   9  10
  78 prop tor  15   8   9  16
  79 prop tor  16   9  10   6
 nber bend=              26
 nber lin bend=           0
 nber prop tor=          36
 nber impr tor=           0
 nber tot redund int=          79
 Eigenvalues of G in red int coords
    Gval -0.00000000 -0.00000000 -0.00000000 -0.00000000 -0.00000000 -0.00000000 -0.00000000 -0.00000000
    Gval -0.00000000 -0.00000000 -0.00000000 -0.00000000 -0.00000000 -0.00000000 -0.00000000 -0.00000000
    Gval -0.00000000 -0.00000000 -0.00000000  0.00000000  0.00000000  0.00000000  0.00000000  0.00000000
    Gval  0.00000000  0.00000000  0.00000000  0.00000000  0.00000000  0.00000000  0.00000000  0.00000000
    Gval  0.00000000  0.00000000  0.00000000  0.00000000  0.00000000  0.00000621  0.00000760  0.00002051
    Gval  0.00004148  0.00004186  0.00004325  0.00005130  0.00005775  0.00006802  0.00007275  0.00007814
    Gval  0.00011391  0.00012163  0.00013398  0.00015377  0.00020997  0.00023335  0.00026703  0.00030116
    Gval  0.00037572  0.00042292  0.00053232  0.00059446  0.00059460  0.00060140  0.00060282  0.00063110
    Gval  0.00063823  0.00071410  0.00105836  0.00106046  0.00114319  0.00114555  0.00119373  0.00119416
    Gval  0.00124339  0.00177202  0.00197332  0.00305230  0.00314526  0.00429000  0.00431287
  6.206638769031005E-006  6.206638769031005E-006
  7.602463918663474E-006  6.206638769031005E-006
  2.050523623621830E-005  6.206638769031005E-006
  4.147912592392918E-005  6.206638769031005E-006
  4.186227741742998E-005  6.206638769031005E-006
  4.324570446875878E-005  6.206638769031005E-006
  5.129577066790494E-005  6.206638769031005E-006
  5.774751453536956E-005  6.206638769031005E-006
  6.801795129022710E-005  6.206638769031005E-006
  7.275322755273207E-005  6.206638769031005E-006
  7.814030140133181E-005  6.206638769031005E-006
  1.139107382732273E-004  6.206638769031005E-006
  1.216294949017351E-004  6.206638769031005E-006
  1.339791388778109E-004  6.206638769031005E-006
  1.537679100102239E-004  6.206638769031005E-006
  2.099721936910275E-004  6.206638769031005E-006
  2.333523915095350E-004  6.206638769031005E-006
  2.670253641822139E-004  6.206638769031005E-006
  3.011592363799731E-004  6.206638769031005E-006
  3.757228315600180E-004  6.206638769031005E-006
  4.229203337322507E-004  6.206638769031005E-006
  5.323159642042785E-004  6.206638769031005E-006
  5.944578638538128E-004  6.206638769031005E-006
  5.946041923190660E-004  6.206638769031005E-006
  6.013959233140263E-004  6.206638769031005E-006
  6.028203606990098E-004  6.206638769031005E-006
  6.310993503399045E-004  6.206638769031005E-006
  6.382316431245568E-004  6.206638769031005E-006
  7.141006760387000E-004  6.206638769031005E-006
  1.058362512730087E-003  6.206638769031005E-006
  1.060457352677687E-003  6.206638769031005E-006
  1.143189954633170E-003  6.206638769031005E-006
  1.145548481712726E-003  6.206638769031005E-006
  1.193727996051559E-003  6.206638769031005E-006
  1.194155818548731E-003  6.206638769031005E-006
  1.243393367076782E-003  6.206638769031005E-006
  1.772020171952155E-003  6.206638769031005E-006
  1.973318605678428E-003  6.206638769031005E-006
  3.052300949919636E-003  6.206638769031005E-006
  3.145260461798698E-003  6.206638769031005E-006
  4.289998471307272E-003  6.206638769031005E-006
  4.312865873224886E-003  6.206638769031005E-006
 cut=1d-8, nber non-redundant internal coords=          42
 Check on Eigenvals of non-red overlap matrix:
  0.00000621  0.00000760  0.00002051  0.00004148  0.00004186  0.00004325  0.00005130  0.00005775
  0.00006802  0.00007275  0.00007814  0.00011391  0.00012163  0.00013398  0.00015377  0.00020997
  0.00023335  0.00026703  0.00030116  0.00037572  0.00042292  0.00053232  0.00059446  0.00059460
  0.00060140  0.00060282  0.00063110  0.00063823  0.00071410  0.00105836  0.00106046  0.00114319
  0.00114555  0.00119373  0.00119416  0.00124339  0.00177202  0.00197332  0.00305230  0.00314526
  0.00429000  0.00431287
 Checking for correct frequencies
 recalc frequencies=
    -0.0   -0.0   -0.0    0.0    0.0    0.0   60.6  107.6  136.0  232.2
   293.5  383.2  437.7  481.1  548.7  595.8  606.4  681.6  697.3  711.2
   751.9  755.4  847.6  857.8  859.4  874.1  893.3  956.5  957.0 1094.6
  1097.5 1110.3 1122.6 1173.5 1220.9 1304.8 1318.6 1424.7 1437.5 1472.5
  1482.3 1545.2 3211.3 3211.4 3226.5 3226.8 3239.3 3239.6
 recalc symmetries=
                                                                       
                                                                       
                                                                       
                                                                       
                                                         
 recalc freqs check OK
 Zero-point lengths:
 10.0000 10.0000 10.0000 10.0000 10.0000 10.0000 31.8558 23.9005 21.2574 16.2677
 14.4712 12.6650 11.8493 11.3027 10.5831 10.1565 10.0670  9.4957  9.3885  9.2960
  9.0410  9.0200  8.5153  8.4646  8.4564  8.3852  8.2948  8.0159  8.0138  7.4933
  7.4835  7.4402  7.3991  7.2368  7.0950  6.8632  6.8272  6.5680  6.5387  6.4606
  6.4392  6.3067  4.3748  4.3747  4.3644  4.3642  4.3558  4.3556
 highest evec of mol 2
 -0.1223 -0.0119  0.0003
 -0.0599  0.1615  0.0002
  0.0023  0.0001 -0.0000
  0.0040 -0.0018 -0.0000
 -0.0038 -0.0342  0.0000
 -0.0040  0.0018  0.0000
  0.0038  0.0342 -0.0000
  0.1223  0.0119 -0.0003
  0.0599 -0.1614 -0.0002
 -0.0023 -0.0001  0.0000
  0.3764  0.0224 -0.0008
  0.2134 -0.5070 -0.0006
  0.0287  0.0925 -0.0000
 -0.0287 -0.0925  0.0001
 -0.3763 -0.0224  0.0009
 -0.2134  0.5068  0.0006
 Enter nber and list of atoms to keep of mol #2
 keep list:          16           1           2           3           4
           5           6           7           8           9          10
          11          12          13          14          15          16
 reordering atoms
           1  -2.72859819766351     
           2  -3.16203360601431     
           3  -1.87892926963895     
           4 -0.690185459205969     
           5  -1.34499166596786     
           6  0.690185586642363     
           7   1.34499124675157     
           8   2.72859844140967     
           9   3.16203369523464     
          10   1.87892925418049     
          11  -3.40817488672873     
          12  -4.18355334232730     
          13 -0.810842662351128     
          14  0.810842366090873     
          15   3.40817456720652     
          16   4.18355336010020     
           1           1
           2           2
           3           3
           4           4
           5           5
           6           6
           7           7
           8           8
           9           9
          10          10
          11          11
          12          12
          13          13
          14          14
          15          15
          16          16
 initial cartes coords mol 1
   6   0.00001  -1.28114  -2.73031
   6   0.00005   0.03674  -3.18066
  16   0.00001   1.19292  -1.88579
   6  -0.00004  -0.14181  -0.67855
   6  -0.00004  -1.40281  -1.34416
   6  -0.00004   0.14181   0.67855
   6  -0.00004   1.40281   1.34416
   6   0.00001   1.28114   2.73031
   6   0.00005  -0.03675   3.18066
  16   0.00001  -1.19292   1.88579
   1   0.00003  -2.12225  -3.41129
   1   0.00009   0.38257  -4.20315
   1  -0.00009  -2.33952  -0.80354
   1  -0.00009   2.33952   0.80354
   1   0.00003   2.12225   3.41129
   1   0.00009  -0.38257   4.20315
 initial cartes coords mol 2
   6  -0.00004  -1.27672  -2.72860
   6   0.00000   0.04748  -3.16203
  16   0.00003   1.17918  -1.87893
   6  -0.00001  -0.12840  -0.69019
   6  -0.00005  -1.38134  -1.34499
   6  -0.00001   0.12840   0.69019
   6  -0.00005   1.38134   1.34499
   6  -0.00004   1.27672   2.72860
   6   0.00000  -0.04748   3.16203
  16   0.00004  -1.17918   1.87893
   1  -0.00008  -2.11748  -3.40817
   1   0.00002   0.40183  -4.18355
   1  -0.00008  -2.32245  -0.81084
   1  -0.00008   2.32245   0.81084
   1  -0.00008   2.11748   3.40817
   1   0.00003  -0.40183   4.18355
 loop 1 0
 mod cartes coords mol 2
   6  -0.00004  -1.27672  -2.72860
   6   0.00000   0.04748  -3.16203
  16   0.00003   1.17918  -1.87893
   6  -0.00001  -0.12840  -0.69019
   6  -0.00005  -1.38134  -1.34499
   6  -0.00001   0.12840   0.69019
   6  -0.00005   1.38134   1.34499
   6  -0.00004   1.27672   2.72860
   6   0.00000  -0.04748   3.16203
  16   0.00004  -1.17918   1.87893
   1  -0.00008  -2.11748  -3.40817
   1   0.00002   0.40183  -4.18355
   1  -0.00008  -2.32245  -0.81084
   1  -0.00008   2.32245   0.81084
   1  -0.00008   2.11748   3.40817
   1   0.00003  -0.40183   4.18355
 read in order, maxerr=  0.03 for atom  12
 final axis swaps:           1           1           1
 final xyz swap pattern=           1
 reorder list:
   1   2   3   4   5   6   7   8   9  10  11  12  13  14  15  16
 axis signs=           1           1           1
  6    -0.000043 -1.276716 -2.728598     0.000014 -1.281137 -2.730313
  6     0.000004  0.047482 -3.162034     0.000052  0.036744 -3.180665
 16     0.000035  1.179178 -1.878929     0.000006  1.192925 -1.885792
  6    -0.000008 -0.128402 -0.690185    -0.000042 -0.141807 -0.678547
  6    -0.000045 -1.381339 -1.344992    -0.000039 -1.402813 -1.344159
  6    -0.000008  0.128402  0.690186    -0.000044  0.141807  0.678547
  6    -0.000046  1.381339  1.344991    -0.000038  1.402813  1.344160
  6    -0.000043  1.276716  2.728598     0.000014  1.281137  2.730313
  6     0.000003 -0.047482  3.162034     0.000050 -0.036745  3.180664
 16     0.000035 -1.179178  1.878929     0.000007 -1.192924  1.885792
  1    -0.000076 -2.117484 -3.408175     0.000026 -2.122253 -3.411286
  1     0.000024  0.401833 -4.183553     0.000090  0.382572 -4.203148
  1    -0.000084 -2.322449 -0.810843    -0.000093 -2.339522 -0.803535
  1    -0.000081  2.322449  0.810842    -0.000087  2.339521  0.803535
  1    -0.000075  2.117484  3.408175     0.000028  2.122253  3.411286
  1     0.000026 -0.401833  4.183553     0.000091 -0.382573  4.203148
 generating redundant internal coords
         300        3600          16
 Adding extra bonds for z output only
           6           6          16           6           6           6
           6           6           6          16           1           1
           1           1           1           1
 search for int coords
   1 str   2   1   1.393
   2 str   3   2   1.711
   3 str   4   3   1.767
   4 str   5   1   1.388
   5 str   5   4   1.414
   6 str   6   4   1.404
   7 str   7   6   1.414
   8 str   8   7   1.388
   9 str   9   8   1.393
  10 str  10   6   1.767
  11 str  10   9   1.711
  12 str  11   1   1.081
  13 str  12   2   1.081
  14 str  13   5   1.082
  15 str  14   7   1.082
  16 str  15   8   1.081
  17 str  16   9   1.081
 nber stretches=          17
  18 ben   1   2   3
  19 prop tor   1   2   3   4
  20 ben   1   2  12
  21 ben   1   5   4
  22 ben   1   5  13
  23 ben   2   1   5
  24 prop tor   2   1   5   4
  25 prop tor   2   1   5  13
  26 ben   2   1  11
  27 ben   2   3   4
  28 prop tor   2   3   4   5
  29 prop tor   2   3   4   6
  30 ben   3   2  12
  31 ben   3   4   5
  32 prop tor   3   4   5   1
  33 prop tor   3   4   5  13
  34 ben   3   4   6
  35 prop tor   3   4   6   7
  36 prop tor   3   4   6  10
  37 ben   4   5  13
  38 ben   4   6   7
  39 prop tor   4   6   7   8
  40 prop tor   4   6   7  14
  41 ben   4   6  10
  42 prop tor   4   6  10   9
  43 prop tor   5   1   2   3
  44 prop tor   5   1   2  12
  45 ben   5   1  11
  46 ben   5   4   6
  47 prop tor   5   4   6   7
  48 prop tor   5   4   6  10
  49 prop tor   6   4   5   1
  50 prop tor   6   4   5  13
  51 ben   6   7   8
  52 prop tor   6   7   8   9
  53 prop tor   6   7   8  15
  54 ben   6   7  14
  55 ben   6  10   9
  56 ben   7   6  10
  57 prop tor   7   6  10   9
  58 ben   7   8   9
  59 prop tor   7   8   9  10
  60 prop tor   7   8   9  16
  61 ben   7   8  15
  62 ben   8   7  14
  63 ben   8   9  10
  64 prop tor   8   9  10   6
  65 ben   8   9  16
  66 ben   9   8  15
  67 prop tor  10   6   7   8
  68 prop tor  10   6   7  14
  69 ben  10   9  16
  70 prop tor  11   1   2   3
  71 prop tor  11   1   2  12
  72 prop tor  11   1   5   4
  73 prop tor  11   1   5  13
  74 prop tor  12   2   3   4
  75 prop tor  14   7   8   9
  76 prop tor  14   7   8  15
  77 prop tor  15   8   9  10
  78 prop tor  15   8   9  16
  79 prop tor  16   9  10   6
 nber bend=              26
 nber lin bend=           0
 nber prop tor=          36
 nber impr tor=           0
 nber tot redund int=          79
 generating redundant internal coords
         300        3600          16
 search for int coords
   1 str   2   1   1.393
   2 str   3   2   1.736
   3 str   4   3   1.800
   4 str   5   1   1.391
   5 str   5   4   1.426
   6 str   6   4   1.386
   7 str   7   6   1.426
   8 str   8   7   1.391
   9 str   9   8   1.393
  10 str  10   6   1.800
  11 str  10   9   1.736
  12 str  11   1   1.082
  13 str  12   2   1.079
  14 str  13   5   1.082
  15 str  14   7   1.082
  16 str  15   8   1.082
  17 str  16   9   1.079
 nber stretches=          17
  18 ben   1   2   3
  19 prop tor   1   2   3   4
  20 ben   1   2  12
  21 ben   1   5   4
  22 ben   1   5  13
  23 ben   2   1   5
  24 prop tor   2   1   5   4
  25 prop tor   2   1   5  13
  26 ben   2   1  11
  27 ben   2   3   4
  28 prop tor   2   3   4   5
  29 prop tor   2   3   4   6
  30 ben   3   2  12
  31 ben   3   4   5
  32 prop tor   3   4   5   1
  33 prop tor   3   4   5  13
  34 ben   3   4   6
  35 prop tor   3   4   6   7
  36 prop tor   3   4   6  10
  37 ben   4   5  13
  38 ben   4   6   7
  39 prop tor   4   6   7   8
  40 prop tor   4   6   7  14
  41 ben   4   6  10
  42 prop tor   4   6  10   9
  43 prop tor   5   1   2   3
  44 prop tor   5   1   2  12
  45 ben   5   1  11
  46 ben   5   4   6
  47 prop tor   5   4   6   7
  48 prop tor   5   4   6  10
  49 prop tor   6   4   5   1
  50 prop tor   6   4   5  13
  51 ben   6   7   8
  52 prop tor   6   7   8   9
  53 prop tor   6   7   8  15
  54 ben   6   7  14
  55 ben   6  10   9
  56 ben   7   6  10
  57 prop tor   7   6  10   9
  58 ben   7   8   9
  59 prop tor   7   8   9  10
  60 prop tor   7   8   9  16
  61 ben   7   8  15
  62 ben   8   7  14
  63 ben   8   9  10
  64 prop tor   8   9  10   6
  65 ben   8   9  16
  66 ben   9   8  15
  67 prop tor  10   6   7   8
  68 prop tor  10   6   7  14
  69 ben  10   9  16
  70 prop tor  11   1   2   3
  71 prop tor  11   1   2  12
  72 prop tor  11   1   5   4
  73 prop tor  11   1   5  13
  74 prop tor  12   2   3   4
  75 prop tor  14   7   8   9
  76 prop tor  14   7   8  15
  77 prop tor  15   8   9  10
  78 prop tor  15   8   9  16
  79 prop tor  16   9  10   6
 nber bend=              26
 nber lin bend=           0
 nber prop tor=          36
 nber impr tor=           0
 nber tot redund int=          79
 Eigenvalues of G in red int coords
    Gval -0.00000000 -0.00000000 -0.00000000 -0.00000000 -0.00000000 -0.00000000 -0.00000000 -0.00000000
    Gval -0.00000000 -0.00000000 -0.00000000 -0.00000000 -0.00000000 -0.00000000 -0.00000000 -0.00000000
    Gval -0.00000000 -0.00000000  0.00000000  0.00000000  0.00000000  0.00000000  0.00000000  0.00000000
    Gval  0.00000000  0.00000000  0.00000000  0.00000000  0.00000000  0.00000000  0.00000000  0.00000000
    Gval  0.00000000  0.00000000  0.00000000  0.00000000  0.00000000  0.00000610  0.00000759  0.00002045
    Gval  0.00004161  0.00004176  0.00004309  0.00004936  0.00005760  0.00006740  0.00007274  0.00007732
    Gval  0.00011315  0.00012059  0.00013353  0.00015058  0.00020789  0.00023295  0.00026362  0.00029948
    Gval  0.00037230  0.00042643  0.00053805  0.00059442  0.00059456  0.00060125  0.00060276  0.00063065
    Gval  0.00063798  0.00071678  0.00105794  0.00106011  0.00114571  0.00114800  0.00119154  0.00119201
    Gval  0.00125853  0.00176592  0.00198204  0.00306392  0.00315807  0.00426952  0.00429686
  6.102508396973855E-006  6.102508396973855E-006
  7.590246514713163E-006  6.102508396973855E-006
  2.045044478412915E-005  6.102508396973855E-006
  4.160831622417103E-005  6.102508396973855E-006
  4.176073969426806E-005  6.102508396973855E-006
  4.308590526400812E-005  6.102508396973855E-006
  4.935888738081681E-005  6.102508396973855E-006
  5.759802356659125E-005  6.102508396973855E-006
  6.739831847224449E-005  6.102508396973855E-006
  7.274374416646504E-005  6.102508396973855E-006
  7.732467918402420E-005  6.102508396973855E-006
  1.131457147526171E-004  6.102508396973855E-006
  1.205866879508033E-004  6.102508396973855E-006
  1.335328331181994E-004  6.102508396973855E-006
  1.505836758757706E-004  6.102508396973855E-006
  2.078874684040162E-004  6.102508396973855E-006
  2.329548930557483E-004  6.102508396973855E-006
  2.636223379121822E-004  6.102508396973855E-006
  2.994769385776122E-004  6.102508396973855E-006
  3.723017178583468E-004  6.102508396973855E-006
  4.264312633655381E-004  6.102508396973855E-006
  5.380461867457807E-004  6.102508396973855E-006
  5.944191896515577E-004  6.102508396973855E-006
  5.945609313071006E-004  6.102508396973855E-006
  6.012496622617112E-004  6.102508396973855E-006
  6.027569619979805E-004  6.102508396973855E-006
  6.306466643565906E-004  6.102508396973855E-006
  6.379811010449684E-004  6.102508396973855E-006
  7.167805036847326E-004  6.102508396973855E-006
  1.057941592841129E-003  6.102508396973855E-006
  1.060114128297469E-003  6.102508396973855E-006
  1.145705363034730E-003  6.102508396973855E-006
  1.148001445434284E-003  6.102508396973855E-006
  1.191536006608858E-003  6.102508396973855E-006
  1.192012423705406E-003  6.102508396973855E-006
  1.258532803042171E-003  6.102508396973855E-006
  1.765916862739065E-003  6.102508396973855E-006
  1.982044408369487E-003  6.102508396973855E-006
  3.063922574039020E-003  6.102508396973855E-006
  3.158071070121978E-003  6.102508396973855E-006
  4.269522746284078E-003  6.102508396973855E-006
  4.296859831730094E-003  6.102508396973855E-006
 cut=1d-8, nber non-redundant internal coords=          42
 Check on Eigenvals of non-red overlap matrix:
  0.00000610  0.00000759  0.00002045  0.00004161  0.00004176  0.00004309  0.00004936  0.00005760
  0.00006740  0.00007274  0.00007732  0.00011315  0.00012059  0.00013353  0.00015058  0.00020789
  0.00023295  0.00026362  0.00029948  0.00037230  0.00042643  0.00053805  0.00059442  0.00059456
  0.00060125  0.00060276  0.00063065  0.00063798  0.00071678  0.00105794  0.00106011  0.00114571
  0.00114800  0.00119154  0.00119201  0.00125853  0.00176592  0.00198204  0.00306392  0.00315807
  0.00426952  0.00429686
 generating redundant internal coords
         300        3600          16
 search for int coords
   1 str   2   1   1.393
   2 str   3   2   1.711
   3 str   4   3   1.767
   4 str   5   1   1.388
   5 str   5   4   1.414
   6 str   6   4   1.404
   7 str   7   6   1.414
   8 str   8   7   1.388
   9 str   9   8   1.393
  10 str  10   6   1.767
  11 str  10   9   1.711
  12 str  11   1   1.081
  13 str  12   2   1.081
  14 str  13   5   1.082
  15 str  14   7   1.082
  16 str  15   8   1.081
  17 str  16   9   1.081
 nber stretches=          17
  18 ben   1   2   3
  19 prop tor   1   2   3   4
  20 ben   1   2  12
  21 ben   1   5   4
  22 ben   1   5  13
  23 ben   2   1   5
  24 prop tor   2   1   5   4
  25 prop tor   2   1   5  13
  26 ben   2   1  11
  27 ben   2   3   4
  28 prop tor   2   3   4   5
  29 prop tor   2   3   4   6
  30 ben   3   2  12
  31 ben   3   4   5
  32 prop tor   3   4   5   1
  33 prop tor   3   4   5  13
  34 ben   3   4   6
  35 prop tor   3   4   6   7
  36 prop tor   3   4   6  10
  37 ben   4   5  13
  38 ben   4   6   7
  39 prop tor   4   6   7   8
  40 prop tor   4   6   7  14
  41 ben   4   6  10
  42 prop tor   4   6  10   9
  43 prop tor   5   1   2   3
  44 prop tor   5   1   2  12
  45 ben   5   1  11
  46 ben   5   4   6
  47 prop tor   5   4   6   7
  48 prop tor   5   4   6  10
  49 prop tor   6   4   5   1
  50 prop tor   6   4   5  13
  51 ben   6   7   8
  52 prop tor   6   7   8   9
  53 prop tor   6   7   8  15
  54 ben   6   7  14
  55 ben   6  10   9
  56 ben   7   6  10
  57 prop tor   7   6  10   9
  58 ben   7   8   9
  59 prop tor   7   8   9  10
  60 prop tor   7   8   9  16
  61 ben   7   8  15
  62 ben   8   7  14
  63 ben   8   9  10
  64 prop tor   8   9  10   6
  65 ben   8   9  16
  66 ben   9   8  15
  67 prop tor  10   6   7   8
  68 prop tor  10   6   7  14
  69 ben  10   9  16
  70 prop tor  11   1   2   3
  71 prop tor  11   1   2  12
  72 prop tor  11   1   5   4
  73 prop tor  11   1   5  13
  74 prop tor  12   2   3   4
  75 prop tor  14   7   8   9
  76 prop tor  14   7   8  15
  77 prop tor  15   8   9  10
  78 prop tor  15   8   9  16
  79 prop tor  16   9  10   6
 nber bend=              26
 nber lin bend=           0
 nber prop tor=          36
 nber impr tor=           0
 nber tot redund int=          79
 Eigenvalues of G in red int coords
    Gval -0.00000000 -0.00000000 -0.00000000 -0.00000000 -0.00000000 -0.00000000 -0.00000000 -0.00000000
    Gval -0.00000000 -0.00000000 -0.00000000 -0.00000000 -0.00000000 -0.00000000 -0.00000000 -0.00000000
    Gval -0.00000000 -0.00000000  0.00000000  0.00000000  0.00000000  0.00000000  0.00000000  0.00000000
    Gval  0.00000000  0.00000000  0.00000000  0.00000000  0.00000000  0.00000000  0.00000000  0.00000000
    Gval  0.00000000  0.00000000  0.00000000  0.00000000  0.00000000  0.00000621  0.00000760  0.00002051
    Gval  0.00004148  0.00004186  0.00004325  0.00005130  0.00005775  0.00006802  0.00007275  0.00007814
    Gval  0.00011391  0.00012163  0.00013398  0.00015377  0.00020997  0.00023335  0.00026703  0.00030116
    Gval  0.00037572  0.00042292  0.00053232  0.00059446  0.00059460  0.00060140  0.00060282  0.00063110
    Gval  0.00063823  0.00071410  0.00105836  0.00106046  0.00114319  0.00114555  0.00119373  0.00119416
    Gval  0.00124339  0.00177202  0.00197332  0.00305230  0.00314526  0.00429000  0.00431287
  6.206638769030992E-006  6.206638769030992E-006
  7.602463918663398E-006  6.206638769030992E-006
  2.050523623621833E-005  6.206638769030992E-006
  4.147912592392918E-005  6.206638769030992E-006
  4.186227741743002E-005  6.206638769030992E-006
  4.324570446875874E-005  6.206638769030992E-006
  5.129577066790484E-005  6.206638769030992E-006
  5.774751453536949E-005  6.206638769030992E-006
  6.801795129022708E-005  6.206638769030992E-006
  7.275322755273188E-005  6.206638769030992E-006
  7.814030140133170E-005  6.206638769030992E-006
  1.139107382732270E-004  6.206638769030992E-006
  1.216294949017349E-004  6.206638769030992E-006
  1.339791388778109E-004  6.206638769030992E-006
  1.537679100102231E-004  6.206638769030992E-006
  2.099721936910276E-004  6.206638769030992E-006
  2.333523915095353E-004  6.206638769030992E-006
  2.670253641822134E-004  6.206638769030992E-006
  3.011592363799725E-004  6.206638769030992E-006
  3.757228315600162E-004  6.206638769030992E-006
  4.229203337322510E-004  6.206638769030992E-006
  5.323159642042796E-004  6.206638769030992E-006
  5.944578638538130E-004  6.206638769030992E-006
  5.946041923190663E-004  6.206638769030992E-006
  6.013959233140265E-004  6.206638769030992E-006
  6.028203606990102E-004  6.206638769030992E-006
  6.310993503399053E-004  6.206638769030992E-006
  6.382316431245567E-004  6.206638769030992E-006
  7.141006760386994E-004  6.206638769030992E-006
  1.058362512730089E-003  6.206638769030992E-006
  1.060457352677690E-003  6.206638769030992E-006
  1.143189954633171E-003  6.206638769030992E-006
  1.145548481712727E-003  6.206638769030992E-006
  1.193727996051560E-003  6.206638769030992E-006
  1.194155818548733E-003  6.206638769030992E-006
  1.243393367076785E-003  6.206638769030992E-006
  1.772020171952155E-003  6.206638769030992E-006
  1.973318605678431E-003  6.206638769030992E-006
  3.052300949919636E-003  6.206638769030992E-006
  3.145260461798698E-003  6.206638769030992E-006
  4.289998471307266E-003  6.206638769030992E-006
  4.312865873224879E-003  6.206638769030992E-006
 cut=1d-8, nber non-redundant internal coords=          42
 Check on Eigenvals of non-red overlap matrix:
  0.00000621  0.00000760  0.00002051  0.00004148  0.00004186  0.00004325  0.00005130  0.00005775
  0.00006802  0.00007275  0.00007814  0.00011391  0.00012163  0.00013398  0.00015377  0.00020997
  0.00023335  0.00026703  0.00030116  0.00037572  0.00042292  0.00053232  0.00059446  0.00059460
  0.00060140  0.00060282  0.00063110  0.00063823  0.00071410  0.00105836  0.00106046  0.00114319
  0.00114555  0.00119373  0.00119416  0.00124339  0.00177202  0.00197332  0.00305230  0.00314526
  0.00429000  0.00431287
 d1=
   0.0   3.3  -2.1  -0.0   0.0   6.0  -0.0   0.0   0.0   0.5   1.8  -0.0  -0.0  -3.1  -0.0   0.0   3.0  -2.4   0.0  -0.0
   1.7  -0.0   0.0  -0.0  -0.0   0.3   0.0   0.2  -0.0   0.0  -0.4   0.0   1.1   0.0   0.4   0.0  -0.0   0.0   0.0   0.0
  -0.0   0.0
 d2=
   0.0   3.5   1.9   0.0   0.0  -6.0   0.0  -0.0   0.0   0.5   1.8  -0.0   0.0  -3.1   0.0   0.0   3.1   2.3   0.0   0.0
   1.7   0.0   0.0  -0.0   0.0   0.3   0.0  -0.2   0.0   0.0   0.4   0.0  -1.1  -0.0  -0.4  -0.0   0.0  -0.0  -0.0  -0.0
   0.0  -0.0
 curvilinear- renormalizn of Dush matrix done
  mol 1 sym            1  -> mol 2 sym            1

 Dushinsky matrix, ncs 2 in terms of ncs 1

   mode   freq    coeff     %      %tot     of    at

   1        -0. -0.0000     0.0     0.0   7        53.
   2        -0.  0.0000     0.0     0.0   8        77.
   3        -0.  0.0000     0.0     0.0   8        77.
   4         0.  0.0000     0.0     0.0   8        77.
   5         0. -0.0000     0.0     0.0   7        53.
   6         0.  0.0000     0.0     0.0   9       109.
   7        61. -0.4184    17.5   101.0   7        53.
                -0.9068    82.2           8        77.
   8       108.  0.9206    84.7   101.9   7        53.
                -0.3863    14.9           8        77.
   9       136. -0.9997    99.9   101.9   9       109.
  10       232. -0.9907    98.1   100.7  10       156.
  11       293. -0.9983    99.7   102.0  11       277.
  12       383.  0.9977    99.5    98.9  13       380.
  13       438. -0.9574    91.7   101.5  12       353.
  14       481. -0.9759    95.2    98.9  14       421.
  15       549.  0.9422    88.8   100.1  15       487.
  16       596. -0.9024    81.4    99.5  16       532.
                -0.4199    17.6          18       604.
  17       606.  0.9908    98.2   102.1  17       546.
  18       682.  0.9597    92.1   100.4  20       651.
  19       697. -0.9799    96.0   100.2  21       653.
  20       711.  0.9597    92.1   100.5  24       689.
  21       752.  0.4139    17.1   100.3  16       532.
                -0.8691    75.5          18       604.
  22       755.  0.9425    88.8   100.4  19       627.
  23       848.  0.9873    97.5   100.1  25       804.
  24       858. -0.9391    88.2    99.6  23       667.
  25       859. -0.9588    91.9    99.6  22       661.
  26       874. -0.9970    99.4   100.1  26       846.
  27       893. -0.9841    96.8   100.9  27       874.
  28       956.  0.9598    92.1   100.6  29       882.
  29       957.  0.9565    91.5   100.6  28       882.
  30      1095.  0.9772    95.5   100.2  30      1079.
  31      1097. -0.9774    95.5   100.3  31      1083.
  32      1110. -0.9753    95.1   100.1  32      1087.
  33      1123.  0.9725    94.6   100.1  33      1093.
  34      1174. -0.9808    96.2   100.3  34      1131.
  35      1221. -0.9783    95.7   100.8  35      1169.
  36      1305.  0.9906    98.1   100.1  36      1288.
  37      1319. -0.9952    99.0   100.0  37      1303.
  38      1425. -0.9372    87.8   100.4  38      1414.
  39      1437. -0.9649    93.1   100.2  39      1419.
  40      1472.  0.9523    90.7   100.1  41      1476.
  41      1482. -0.9708    94.2   100.3  40      1456.
  42      1545.  0.9673    93.6   100.1  42      1586.
  43      3211. -0.8319    69.2   100.0  43      3197.
                 0.5472    29.9          45      3213.
  44      3211. -0.8270    68.4   100.0  44      3197.
                 0.5548    30.8          46      3214.
  45      3226.  0.4835    23.4   100.0  43      3197.
                 0.7959    63.3          45      3213.
                 0.3644    13.3          47      3241.
  46      3227.  0.4933    24.3   100.0  44      3197.
                 0.7934    62.9          46      3214.
                -0.3566    12.7          48      3241.
  47      3239. -0.9267    85.9   100.0  47      3241.
  48      3240.  0.9298    86.5   100.0  48      3241.
 nber times 1st assigned=           1           0
 nber times 1st assigned=           2           0
 nber times 1st assigned=           3           0
 nber times 1st assigned=           4           0
 nber times 1st assigned=           5           0
 nber times 1st assigned=           6           0
 nber times 1st assigned=           7           2
 nber times 1st assigned=           8           3
 nber times 1st assigned=          10           0
 nber times 1st assigned=          11           0
 nber times 1st assigned=          12           0
 nber times 1st assigned=          13           0
 nber times 1st assigned=          14           0
 nber times 1st assigned=          15           0
 nber times 1st assigned=          16           0
 nber times 1st assigned=          17           0
 nber times 1st assigned=          18           0
 nber times 1st assigned=          19           0
 nber times 1st assigned=          20           0
 nber times 1st assigned=          21           0
 nber times 1st assigned=          22           0
 nber times 1st assigned=          23           0
 nber times 1st assigned=          24           0
 nber times 1st assigned=          25           0
 nber times 1st assigned=          26           0
 nber times 1st assigned=          27           0
 nber times 1st assigned=          28           0
 nber times 1st assigned=          29           0
 nber times 1st assigned=          30           0
 nber times 1st assigned=          31           0
 nber times 1st assigned=          32           0
 nber times 1st assigned=          33           0
 nber times 1st assigned=          34           0
 nber times 1st assigned=          35           0
 nber times 1st assigned=          36           0
 nber times 1st assigned=          37           0
 nber times 1st assigned=          38           0
 nber times 1st assigned=          39           0
 nber times 1st assigned=          40           0
 nber times 1st assigned=          41           0
 nber times 1st assigned=          42           0
 nber times 1st assigned=          43           0
 nber times 1st assigned=          44           0
 nber times 1st assigned=          45           0
 nber times 1st assigned=          46           0
 nber times 1st assigned=          47           0
 nber times 1st assigned=          48           0
 Dushinsky matrix written to .out file
 modes represented=   42.1475128907074     

 Dushinsky matrix, ncs 1 in terms of ncs 2

   mode   freq    coeff     %      %tot     of    at

   7        53. -0.4184    17.5   104.7   7        61.
                 0.9206    84.7           8       108.
   8        77. -0.9068    82.2    99.2   7        61.
                -0.3863    14.9           8       108.
   9       109. -0.9997    99.9   102.0   9       136.
  10       156. -0.9907    98.1   100.9  10       232.
  11       277. -0.9983    99.7   102.3  11       293.
  12       353. -0.9574    91.7   101.7  13       438.
  13       380.  0.9977    99.5    99.3  12       383.
  14       421. -0.9759    95.2    98.3  14       481.
  15       487.  0.9422    88.8    99.0  15       549.
  16       532. -0.9024    81.4    99.8  16       596.
                 0.4139    17.1          21       752.
  17       546.  0.9908    98.2   101.9  17       606.
  18       604. -0.4199    17.6    99.9  16       596.
                -0.8691    75.5          21       752.
  19       627.  0.9425    88.8   100.3  22       755.
  20       651.  0.9597    92.1    99.9  18       682.
  21       653. -0.9799    96.0   100.4  19       697.
  22       661. -0.9588    91.9    99.5  25       859.
  23       667. -0.9391    88.2    99.2  24       858.
  24       689.  0.9597    92.1   100.7  20       711.
  25       804.  0.9873    97.5   100.3  23       848.
  26       846. -0.9970    99.4   100.1  26       874.
  27       874. -0.9841    96.8   100.7  27       893.
  28       882.  0.9565    91.5   101.2  29       957.
  29       882.  0.9598    92.1   101.2  28       956.
  30      1079.  0.9772    95.5   100.2  30      1095.
  31      1083. -0.9774    95.5   100.3  31      1097.
  32      1087. -0.9753    95.1   100.2  32      1110.
  33      1093.  0.9725    94.6   100.2  33      1123.
  34      1131. -0.9808    96.2   100.2  34      1174.
  35      1169. -0.9783    95.7   100.6  35      1221.
  36      1288.  0.9906    98.1   100.1  36      1305.
  37      1303. -0.9952    99.0   100.1  37      1319.
  38      1414. -0.9372    87.8   100.4  38      1425.
  39      1419. -0.9649    93.1   100.2  39      1437.
  40      1456. -0.9708    94.2   100.3  41      1482.
  41      1476.  0.9523    90.7    99.9  40      1472.
  42      1586.  0.9673    93.6    99.8  42      1545.
  43      3197. -0.8319    69.2   100.0  43      3211.
                 0.4835    23.4          45      3226.
  44      3197. -0.8270    68.4   100.0  44      3211.
                 0.4933    24.3          46      3227.
  45      3213.  0.5472    29.9   100.0  43      3211.
                 0.7959    63.3          45      3226.
  46      3214.  0.5548    30.8   100.0  44      3211.
                 0.7934    62.9          46      3227.
  47      3241.  0.3644    13.3   100.0  45      3226.
                -0.9267    85.9          47      3239.
  48      3241. -0.3566    12.7   100.0  46      3227.
                 0.9298    86.5          48      3240.
 nber times 1st assigned=           1           0
 nber times 1st assigned=           2           0
 nber times 1st assigned=           3           0
 nber times 1st assigned=           4           0
 nber times 1st assigned=           5           0
 nber times 1st assigned=           6           0
 nber times 1st assigned=           7           0
 nber times 1st assigned=           8           0
 nber times 1st assigned=           9           0
 nber times 1st assigned=          10           0
 nber times 1st assigned=          11           0
 nber times 1st assigned=          12           0
 nber times 1st assigned=          13           0
 nber times 1st assigned=          14           0
 nber times 1st assigned=          15           0
 nber times 1st assigned=          16           0
 nber times 1st assigned=          17           0
 nber times 1st assigned=          18           0
 nber times 1st assigned=          19           0
 nber times 1st assigned=          20           0
 nber times 1st assigned=          21           0
 nber times 1st assigned=          22           0
 nber times 1st assigned=          23           0
 nber times 1st assigned=          24           0
 nber times 1st assigned=          25           0
 nber times 1st assigned=          26           0
 nber times 1st assigned=          27           0
 nber times 1st assigned=          28           0
 nber times 1st assigned=          29           0
 nber times 1st assigned=          30           0
 nber times 1st assigned=          31           0
 nber times 1st assigned=          32           0
 nber times 1st assigned=          33           0
 nber times 1st assigned=          34           0
 nber times 1st assigned=          35           0
 nber times 1st assigned=          36           0
 nber times 1st assigned=          37           0
 nber times 1st assigned=          38           0
 nber times 1st assigned=          39           0
 nber times 1st assigned=          40           0
 nber times 1st assigned=          41           0
 nber times 1st assigned=          42           0
 nber times 1st assigned=          43           0
 nber times 1st assigned=          44           0
 nber times 1st assigned=          45           0
 nber times 1st assigned=          46           0
 nber times 1st assigned=          47           0
 nber times 1st assigned=          48           0
 modes represented=   42.1475128907074     
 p1=
    0.   -0.   -0.   -0.    0.   -0.   -0.    0.   -0.    0.   -3.   -0.   -1.   -0.   -0.   -0.   -0.   -0.    0.   -6.
   -0.   -0.    0.   -1.    0.    5.    0.   -0.   -0.   -0.    1.   -1.    0.    0.    1.   -1.    0.   -1.   -0.   -0.
   -1.   -2.    0.    0.    0.   -0.    0.   -0.
 p2=
   -0.    0.   -0.   -0.    0.   -0.    0.    0.   -0.    0.   -3.    0.   -0.   -0.    0.   -0.    0.    6.   -0.   -1.
   -0.   -0.   -0.   -0.   -0.    5.    0.    0.    0.   -0.    1.   -1.   -0.    0.    1.    1.    0.   -0.   -0.    0.
   -0.    2.    0.    0.   -0.   -0.   -0.    0.

 Displacement: in terms of nc of 1 THEN of nc of 2

   1     freq=    -0. Q=  0.000 lam=    -0.0     freq=    -0. Q=  0.000 lam=    -0.0
   2     freq=    -0. Q= -0.000 lam=    -0.0     freq=    -0. Q= -0.000 lam=    -0.0
   3     freq=    -0. Q= -0.000 lam=    -0.0     freq=    -0. Q= -0.000 lam=    -0.0
   4     freq=     0. Q= -0.000 lam=     0.0     freq=     0. Q= -0.000 lam=     0.0
   5     freq=     0. Q=  0.000 lam=     0.0     freq=     0. Q=  0.000 lam=     0.0
   6     freq=     0. Q= -0.000 lam=     0.0     freq=     0. Q= -0.000 lam=     0.0
   7     freq=    53. Q= -0.000 lam=     0.0     freq=    61. Q= -0.000 lam=     0.0
   8     freq=    77. Q=  0.001 lam=     0.0     freq=   108. Q=  0.001 lam=     0.0
   9     freq=   109. Q= -0.000 lam=     0.0     freq=   136. Q= -0.000 lam=     0.0
  10     freq=   156. Q=  0.000 lam=     0.0     freq=   232. Q=  0.000 lam=     0.0
  11     freq=   277. Q= -0.199 lam=     5.5     freq=   293. Q= -0.208 lam=     6.4
  12     freq=   353. Q= -0.000 lam=     0.0     freq=   383. Q= -0.036 lam=     0.3
  13     freq=   380. Q= -0.085 lam=     1.4     freq=   438. Q= -0.000 lam=     0.0
  14     freq=   421. Q= -0.000 lam=     0.0     freq=   481. Q= -0.000 lam=     0.0
  15     freq=   487. Q= -0.000 lam=     0.0     freq=   549. Q= -0.000 lam=     0.0
  16     freq=   532. Q= -0.000 lam=     0.0     freq=   596. Q= -0.000 lam=     0.0
  17     freq=   546. Q= -0.000 lam=     0.0     freq=   606. Q= -0.000 lam=     0.0
  18     freq=   604. Q= -0.000 lam=     0.0     freq=   682. Q= -0.656 lam=   146.4
  19     freq=   627. Q=  0.000 lam=     0.0     freq=   697. Q=  0.000 lam=     0.0
  20     freq=   651. Q= -0.643 lam=   134.4     freq=   711. Q= -0.121 lam=     5.2
  21     freq=   653. Q= -0.000 lam=     0.0     freq=   752. Q= -0.000 lam=     0.0
  22     freq=   661. Q= -0.000 lam=     0.0     freq=   755. Q= -0.000 lam=     0.0
  23     freq=   667. Q=  0.000 lam=     0.0     freq=   848. Q=  0.000 lam=     0.0
  24     freq=   689. Q= -0.102 lam=     3.6     freq=   858. Q= -0.000 lam=     0.0
  25     freq=   804. Q=  0.000 lam=     0.0     freq=   859. Q=  0.000 lam=     0.0
  26     freq=   846. Q=  0.603 lam=   154.0     freq=   874. Q=  0.618 lam=   166.8
  27     freq=   874. Q=  0.000 lam=     0.0     freq=   893. Q=  0.000 lam=     0.0
  28     freq=   882. Q= -0.000 lam=     0.0     freq=   956. Q= -0.000 lam=     0.0
  29     freq=   882. Q= -0.000 lam=     0.0     freq=   957. Q= -0.000 lam=     0.0
  30     freq=  1079. Q= -0.000 lam=     0.0     freq=  1095. Q= -0.000 lam=     0.0
  31     freq=  1083. Q=  0.097 lam=     5.1     freq=  1097. Q=  0.096 lam=     5.1
  32     freq=  1087. Q= -0.096 lam=     5.0     freq=  1110. Q= -0.071 lam=     2.8
  33     freq=  1093. Q=  0.000 lam=     0.0     freq=  1123. Q=  0.000 lam=     0.0
  34     freq=  1131. Q=  0.000 lam=     0.0     freq=  1174. Q=  0.000 lam=     0.0
  35     freq=  1169. Q=  0.110 lam=     7.0     freq=  1221. Q=  0.138 lam=    11.7
  36     freq=  1288. Q= -0.103 lam=     6.8     freq=  1305. Q= -0.154 lam=    15.4
  37     freq=  1303. Q=  0.000 lam=     0.0     freq=  1319. Q=  0.000 lam=     0.0
  38     freq=  1414. Q= -0.106 lam=     8.0     freq=  1425. Q= -0.043 lam=     1.3
  39     freq=  1419. Q= -0.000 lam=     0.0     freq=  1437. Q= -0.000 lam=     0.0
  40     freq=  1456. Q= -0.000 lam=     0.0     freq=  1472. Q= -0.013 lam=     0.1
  41     freq=  1476. Q= -0.084 lam=     5.2     freq=  1482. Q= -0.000 lam=     0.0
  42     freq=  1586. Q= -0.339 lam=    91.0     freq=  1545. Q= -0.377 lam=   109.7
  43     freq=  3197. Q=  0.000 lam=     0.0     freq=  3211. Q=  0.000 lam=     0.0
  44     freq=  3197. Q=  0.022 lam=     0.7     freq=  3211. Q=  0.027 lam=     1.2
  45     freq=  3213. Q=  0.000 lam=     0.0     freq=  3226. Q=  0.000 lam=     0.0
  46     freq=  3214. Q= -0.005 lam=     0.0     freq=  3227. Q= -0.021 lam=     0.7
  47     freq=  3241. Q=  0.000 lam=     0.0     freq=  3239. Q=  0.000 lam=     0.0
  48     freq=  3241. Q= -0.033 lam=     1.8     freq=  3240. Q= -0.027 lam=     1.2

 total reorg energy (cm**-1, kcal/mol)=      430.      474.      1.23      1.36
 Nber of molecules processed=           2
