 Enter ifcurve (0=recti, 1=orth curvi, 2=apprx curvi, -1 = skip
 And atom ordering flag, 0= never changes, 1= use the first order thenceforth,
  2= deduce it (does read on fail), 3= always read it
 Reading file: 
 ./IDT-PDI_0_C0S1.log                                                           
                                          
  Entering Gaussian System, Link 0=g16                                          
  
 Gaussian format, type: g94, g98, g03= F F F
  #P Geom=AllCheck Guess=TCheck SCRF=Check GenChk RB3LYP TD(FC,Read)/6-3    
 energy type= TD      
 Original G94 input coords:
  6  1.444083  1.036065  0.147274
  6  2.874078  0.484158  0.137481
  6  3.391719  0.118002  1.533027
  7  3.027899 -0.644726 -0.826631
  6  2.312171 -1.832244 -0.608484
  8  1.568231 -1.950437  0.358158
  6  2.496817 -2.916212 -1.586667
  6  1.806777 -4.115943 -1.413134
  6  1.958303 -5.153944 -2.313653
  6  2.808672 -5.047150 -3.436488
  6  2.976870 -6.126901 -4.386186
  6  2.289730 -7.359887 -4.251806
  6  2.455989 -8.379488 -5.156053
  6  3.326647 -8.233546 -6.250438
  6  3.471593 -9.333314 -7.172931
  8  2.854090-10.386380 -7.086359
  7  4.411222 -9.176125 -8.258388
  6  4.638301-10.275388 -9.096352
  6  5.633811-10.394877-10.077004
  6  5.561320-11.610954-10.746520
  6  4.529467-12.436062-10.295894
 16  3.617056-11.727557 -8.992766
  6  4.524439-13.664207-11.000343
  6  3.690235-14.801235-10.893033
  6  3.932513-15.860723-11.732123
  6  5.001639-15.805014-12.685347
  6  5.836020-14.673945-12.795717
  6  5.597079-13.612508-11.957789
  6  6.343921-12.276946-11.862892
  6  6.239858-11.475220-13.178957
  6  7.823781-12.481447-11.472243
  6  4.985821-17.045572-13.392305
 16  5.904103-17.781831-14.666564
  6  4.903353-19.202485-14.569544
  6  3.920951-19.110636-13.610667
  6  3.968162-17.874074-12.935677
  6  3.186846-17.198754-11.822730
  6  3.288172-17.990522-10.500516
  6  1.707301-16.993273-12.215779
  6  5.100023 -7.905903 -8.520255
  8  5.796518 -7.784664 -9.510614
  6  4.891181 -6.860277 -7.544250
  6  5.569808 -5.639900 -7.721749
  6  5.416462 -4.611187 -6.826463
  6  4.568750 -4.726645 -5.695070
  6  4.401976 -3.648227 -4.746355
  6  5.078082 -2.414170 -4.876187
  6  4.910048 -1.391209 -3.962095
  6  4.057400 -1.545043 -2.868047
  6  3.902493 -0.436234 -1.915861
  8  4.499982  0.624042 -2.050305
  6  3.359158 -2.759512 -2.693001
  6  3.525007 -3.828667 -3.633987
  6  3.858026 -5.949780 -5.496427
  6  4.031553 -7.027238 -6.436970
  1  1.414908  1.945882  0.754069
  1  0.739980  0.315471  0.561168
  1  1.127475  1.299644 -0.865376
  1  3.527906  1.250088 -0.273991
  1  2.768429 -0.640615  2.004554
  1  3.393170  1.013492  2.161452
  1  4.418873 -0.252051  1.476469
  1  1.152176 -4.209994 -0.556007
  1  1.404957 -6.065834 -2.139102
  1  1.615098 -7.512479 -3.422137
  1  1.923562 -9.314832 -5.041901
  1  6.333070 -9.603292-10.271411
  1  2.887082-14.822590-10.165542
  1  6.640350-14.652709-13.522496
  1  5.198308-11.329102-13.471946
  1  6.756994-11.996106-13.988926
  1  6.701676-10.492701-13.059105
  1  7.913777-13.052189-10.545795
  1  8.311929-11.515031-11.327548
  1  8.360294-13.015766-12.260524
  1  5.103587-20.028997-15.234416
  1  3.213062-19.905624-13.420013
  1  4.329266-18.141019-10.208121
  1  2.815834-18.970311-10.606931
  1  2.778392-17.458061 -9.694077
  1  1.619771-16.431589-13.147901
  1  1.174720-16.446682-11.433907
  1  1.211584-17.958259-12.347921
  1  6.218143 -5.534025 -8.581764
  1  5.959608 -3.693587 -6.999816
  1  5.749477 -2.250788 -5.707323
  1  5.434579 -0.450810 -4.073752
 nber atoms=          87
  Total Energy, E(TD-HF/TD-DFT) =  -3017.73600520                               
  
          32          49 "  -3017.73600520"
After scan for Atom:   Atom  AN      X      Y      Z        X      Y      Z        X      Y      Z   
After scan for Atom:   Atom  AN      X      Y      Z        X      Y      Z        X      Y      Z   
After scan for Atom:   Atom  AN      X      Y      Z        X      Y      Z        X      Y      Z   
After scan for Atom:   Atom  AN      X      Y      Z        X      Y      Z        X      Y      Z   
After scan for Atom:   Atom  AN      X      Y      Z        X      Y      Z        X      Y      Z   
After scan for Atom:   Atom  AN      X      Y      Z        X      Y      Z        X      Y      Z   
After scan for Atom:   Atom  AN      X      Y      Z        X      Y      Z        X      Y      Z   
After scan for Atom:   Atom  AN      X      Y      Z        X      Y      Z        X      Y      Z   
After scan for Atom:   Atom  AN      X      Y      Z        X      Y      Z        X      Y      Z   
After scan for Atom:   Atom  AN      X      Y      Z        X      Y      Z        X      Y      Z   
After scan for Atom:   Atom  AN      X      Y      Z        X      Y      Z        X      Y      Z   
After scan for Atom:   Atom  AN      X      Y      Z        X      Y      Z        X      Y      Z   
After scan for Atom:   Atom  AN      X      Y      Z        X      Y      Z        X      Y      Z   
After scan for Atom:   Atom  AN      X      Y      Z        X      Y      Z        X      Y      Z   
After scan for Atom:   Atom  AN      X      Y      Z        X      Y      Z        X      Y      Z   
After scan for Atom:   Atom  AN      X      Y      Z        X      Y      Z        X      Y      Z   
After scan for Atom:   Atom  AN      X      Y      Z        X      Y      Z        X      Y      Z   
After scan for Atom:   Atom  AN      X      Y      Z        X      Y      Z        X      Y      Z   
After scan for Atom:   Atom  AN      X      Y      Z        X      Y      Z        X      Y      Z   
After scan for Atom:   Atom  AN      X      Y      Z        X      Y      Z        X      Y      Z   
After scan for Atom:   Atom  AN      X      Y      Z        X      Y      Z        X      Y      Z   
After scan for Atom:   Atom  AN      X      Y      Z        X      Y      Z        X      Y      Z   
After scan for Atom:   Atom  AN      X      Y      Z        X      Y      Z        X      Y      Z   
After scan for Atom:   Atom  AN      X      Y      Z        X      Y      Z        X      Y      Z   
After scan for Atom:   Atom  AN      X      Y      Z        X      Y      Z        X      Y      Z   
After scan for Atom:   Atom  AN      X      Y      Z        X      Y      Z        X      Y      Z   
After scan for Atom:   Atom  AN      X      Y      Z        X      Y      Z        X      Y      Z   
After scan for Atom:   Atom  AN      X      Y      Z        X      Y      Z        X      Y      Z   
After scan for Atom:   Atom  AN      X      Y      Z        X      Y      Z        X      Y      Z   
After scan for Atom:   Atom  AN      X      Y      Z        X      Y      Z        X      Y      Z   
After scan for Atom:   Atom  AN      X      Y      Z        X      Y      Z        X      Y      Z   
After scan for Atom:   Atom  AN      X      Y      Z        X      Y      Z        X      Y      Z   
After scan for Atom:   Atom  AN      X      Y      Z        X      Y      Z        X      Y      Z   
After scan for Atom:   Atom  AN      X      Y      Z        X      Y      Z        X      Y      Z   
After scan for Atom:   Atom  AN      X      Y      Z        X      Y      Z        X      Y      Z   
After scan for Atom:   Atom  AN      X      Y      Z        X      Y      Z        X      Y      Z   
After scan for Atom:   Atom  AN      X      Y      Z        X      Y      Z        X      Y      Z   
After scan for Atom:   Atom  AN      X      Y      Z        X      Y      Z        X      Y      Z   
After scan for Atom:   Atom  AN      X      Y      Z        X      Y      Z        X      Y      Z   
After scan for Atom:   Atom  AN      X      Y      Z        X      Y      Z        X      Y      Z   
After scan for Atom:   Atom  AN      X      Y      Z        X      Y      Z        X      Y      Z   
After scan for Atom:   Atom  AN      X      Y      Z        X      Y      Z        X      Y      Z   
After scan for Atom:   Atom  AN      X      Y      Z        X      Y      Z        X      Y      Z   
After scan for Atom:   Atom  AN      X      Y      Z        X      Y      Z        X      Y      Z   
After scan for Atom:   Atom  AN      X      Y      Z        X      Y      Z        X      Y      Z   
After scan for Atom:   Atom  AN      X      Y      Z        X      Y      Z        X      Y      Z   
After scan for Atom:   Atom  AN      X      Y      Z        X      Y      Z        X      Y      Z   
After scan for Atom:   Atom  AN      X      Y      Z        X      Y      Z        X      Y      Z   
After scan for Atom:   Atom  AN      X      Y      Z        X      Y      Z        X      Y      Z   
After scan for Atom:   Atom  AN      X      Y      Z        X      Y      Z        X      Y      Z   
After scan for Atom:   Atom  AN      X      Y      Z        X      Y      Z        X      Y      Z   
After scan for Atom:   Atom  AN      X      Y      Z        X      Y      Z        X      Y      Z   
After scan for Atom:   Atom  AN      X      Y      Z        X      Y      Z        X      Y      Z   
After scan for Atom:   Atom  AN      X      Y      Z        X      Y      Z        X      Y      Z   
After scan for Atom:   Atom  AN      X      Y      Z        X      Y      Z        X      Y      Z   
After scan for Atom:   Atom  AN      X      Y      Z        X      Y      Z        X      Y      Z   
After scan for Atom:   Atom  AN      X      Y      Z        X      Y      Z        X      Y      Z   
After scan for Atom:   Atom  AN      X      Y      Z        X      Y      Z        X      Y      Z   
After scan for Atom:   Atom  AN      X      Y      Z        X      Y      Z        X      Y      Z   
After scan for Atom:   Atom  AN      X      Y      Z        X      Y      Z        X      Y      Z   
After scan for Atom:   Atom  AN      X      Y      Z        X      Y      Z        X      Y      Z   
After scan for Atom:   Atom  AN      X      Y      Z        X      Y      Z        X      Y      Z   
After scan for Atom:   Atom  AN      X      Y      Z        X      Y      Z        X      Y      Z   
After scan for Atom:   Atom  AN      X      Y      Z        X      Y      Z        X      Y      Z   
After scan for Atom:   Atom  AN      X      Y      Z        X      Y      Z        X      Y      Z   
After scan for Atom:   Atom  AN      X      Y      Z        X      Y      Z        X      Y      Z   
After scan for Atom:   Atom  AN      X      Y      Z        X      Y      Z        X      Y      Z   
After scan for Atom:   Atom  AN      X      Y      Z        X      Y      Z        X      Y      Z   
After scan for Atom:   Atom  AN      X      Y      Z        X      Y      Z        X      Y      Z   
After scan for Atom:   Atom  AN      X      Y      Z        X      Y      Z        X      Y      Z   
After scan for Atom:   Atom  AN      X      Y      Z        X      Y      Z        X      Y      Z   
After scan for Atom:   Atom  AN      X      Y      Z        X      Y      Z        X      Y      Z   
After scan for Atom:   Atom  AN      X      Y      Z        X      Y      Z        X      Y      Z   
After scan for Atom:   Atom  AN      X      Y      Z        X      Y      Z        X      Y      Z   
After scan for Atom:   Atom  AN      X      Y      Z        X      Y      Z        X      Y      Z   
After scan for Atom:   Atom  AN      X      Y      Z        X      Y      Z        X      Y      Z   
After scan for Atom:   Atom  AN      X      Y      Z        X      Y      Z        X      Y      Z   
After scan for Atom:   Atom  AN      X      Y      Z        X      Y      Z        X      Y      Z   
After scan for Atom:   Atom  AN      X      Y      Z        X      Y      Z        X      Y      Z   
After scan for Atom:   Atom  AN      X      Y      Z        X      Y      Z        X      Y      Z   
After scan for Atom:   Atom  AN      X      Y      Z        X      Y      Z        X      Y      Z   
After scan for Atom:   Atom  AN      X      Y      Z        X      Y      Z        X      Y      Z   
After scan for Atom:   Atom  AN      X      Y      Z        X      Y      Z        X      Y      Z   
After scan for Atom:   Atom  AN      X      Y      Z        X      Y      Z        X      Y      Z   
After scan for Atom:   Atom  AN      X      Y      Z        X      Y      Z        X      Y      Z   
 g94    frequencies=
     0.0    0.0    0.0    0.0    0.0    0.0    6.6   10.5   20.9   24.5
    31.9   34.3   51.1   57.4   60.3   74.1   80.5   85.7   89.6   92.5
   102.0  108.6  111.1  133.0  150.0  154.0  166.6  168.9  173.4  195.2
   199.1  203.9  208.2  213.6  230.3  233.5  234.9  238.7  242.5  245.2
   247.9  260.1  272.6  277.7  285.9  290.7  296.9  298.0  318.2  322.7
   327.4  331.9  351.6  377.2  383.4  395.8  402.7  417.4  421.0  424.2
   427.2  437.5  443.6  451.8  453.7  462.2  465.3  472.5  481.9  493.0
   500.0  502.1  507.1  509.6  514.8  516.3  540.3  552.7  573.7  579.9
   581.0  581.9  599.9  602.6  623.3  628.8  630.4  652.6  660.9  667.5
   668.2  685.5  697.2  698.1  713.9  723.1  724.6  727.1  732.3  747.7
   749.3  753.3  757.0  763.1  769.4  784.3  785.8  798.8  804.3  812.8
   816.0  819.0  825.4  827.2  832.9  834.7  840.5  847.8  884.4  886.2
   899.5  902.8  903.4  904.0  904.4  927.3  943.8  952.4  953.5  955.5
   961.9  971.3  975.5  978.6  983.2  984.8  985.8  988.6  997.5 1006.8
  1032.2 1032.6 1067.6 1069.7 1080.5 1094.5 1097.8 1107.2 1133.2 1151.0
  1154.3 1155.0 1155.3 1161.6 1165.2 1165.7 1174.9 1190.0 1200.6 1203.0
  1216.1 1226.5 1229.3 1236.1 1236.6 1247.1 1252.6 1256.6 1270.9 1282.4
  1286.6 1295.7 1301.9 1321.0 1349.3 1355.4 1365.3 1365.7 1368.4 1373.7
  1381.9 1384.2 1393.8 1397.8 1398.7 1400.1 1402.7 1402.8 1411.7 1424.1
  1426.7 1428.2 1441.8 1451.9 1459.3 1470.1 1478.3 1484.1 1484.9 1485.3
  1486.1 1488.3 1489.7 1489.8 1491.4 1496.4 1499.6 1505.0 1506.4 1506.6
  1507.5 1516.3 1522.8 1523.6 1532.4 1549.1 1554.8 1559.5 1575.0 1589.1
  1615.8 1620.0 1622.9 1633.0 1638.1 1683.5 1719.4 1756.9 2013.7 3029.5
  3032.1 3032.2 3034.1 3035.5 3035.7 3086.7 3089.9 3098.6 3099.6 3103.3
  3103.9 3109.3 3109.6 3110.1 3111.3 3112.3 3131.5 3141.3 3176.3 3182.1
  3192.4 3192.8 3199.9 3200.3 3208.6 3208.7 3211.7 3222.2 3223.0 3245.3
  3290.4
 g94    symmetries=
                                                 A      A      A      A
       A      A      A      A      A      A      A      A      A      A
       A      A      A      A      A      A      A      A      A      A
       A      A      A      A      A      A      A      A      A      A
       A      A      A      A      A      A      A      A      A      A
       A      A      A      A      A      A      A      A      A      A
       A      A      A      A      A      A      A      A      A      A
       A      A      A      A      A      A      A      A      A      A
       A      A      A      A      A      A      A      A      A      A
       A      A      A      A      A      A      A      A      A      A
       A      A      A      A      A      A      A      A      A      A
       A      A      A      A      A      A      A      A      A      A
       A      A      A      A      A      A      A      A      A      A
       A      A      A      A      A      A      A      A      A      A
       A      A      A      A      A      A      A      A      A      A
       A      A      A      A      A      A      A      A      A      A
       A      A      A      A      A      A      A      A      A      A
       A      A      A      A      A      A      A      A      A      A
       A      A      A      A      A      A      A      A      A      A
       A      A      A      A      A      A      A      A      A      A
       A      A      A      A      A      A      A      A      A      A
       A      A      A      A      A      A      A      A      A      A
       A      A      A      A      A      A      A      A      A      A
       A      A      A      A      A      A      A      A      A      A
       A      A      A      A      A      A      A      A      A      A
       A      A      A      A      A      A      A      A      A      A
       A
 atomic masses:
 12.0000 12.0000 12.0000 14.0031 12.0000 15.9949 12.0000 12.0000 12.0000 12.0000
 12.0000 12.0000 12.0000 12.0000 12.0000 15.9949 14.0031 12.0000 12.0000 12.0000
 12.0000 31.9721 12.0000 12.0000 12.0000 12.0000 12.0000 12.0000 12.0000 12.0000
 12.0000 12.0000 31.9721 12.0000 12.0000 12.0000 12.0000 12.0000 12.0000 12.0000
 15.9949 12.0000 12.0000 12.0000 12.0000 12.0000 12.0000 12.0000 12.0000 12.0000
 15.9949 12.0000 12.0000 12.0000 12.0000  1.0078  1.0078  1.0078  1.0078  1.0078
  1.0078  1.0078  1.0078  1.0078  1.0078  1.0078  1.0078  1.0078  1.0078  1.0078
  1.0078  1.0078  1.0078  1.0078  1.0078  1.0078  1.0078  1.0078  1.0078  1.0078
  1.0078  1.0078  1.0078  1.0078  1.0078  1.0078  1.0078
 looking for force constants in 
 ./IDT-PDI_0_C0S1.fchk                                                          
  
 Cartesian Force Constants                  R   N=       34191                  
  
 n3=         261       34191
 g94-fc frequencies=
    -0.0    0.0    0.0    0.5    0.6    4.5    6.6   10.5   20.9   24.5
    31.9   34.3   51.1   57.4   60.3   74.1   80.5   85.7   89.6   92.5
   102.0  108.6  111.1  133.0  150.0  154.0  166.6  168.9  173.4  195.2
   199.1  204.0  208.2  213.6  230.3  233.5  234.9  238.7  242.5  245.2
   247.9  260.1  272.6  277.7  285.9  290.7  296.9  298.0  318.2  322.7
   327.4  331.9  351.6  377.2  383.4  395.8  402.8  417.4  421.0  424.3
   427.2  437.5  443.6  451.8  453.7  462.2  465.3  472.5  482.0  493.1
   500.0  502.1  507.2  509.6  514.8  516.3  540.3  552.7  573.7  579.9
   581.1  581.9  599.9  602.7  623.3  628.8  630.4  652.7  660.9  667.5
   668.2  685.5  697.2  698.1  714.0  723.2  724.6  727.2  732.3  747.7
   749.3  753.4  757.0  763.1  769.4  784.3  785.8  798.8  804.3  812.9
   816.0  819.0  825.4  827.2  832.9  834.7  840.5  847.8  884.4  886.2
   899.5  902.8  903.4  904.1  904.4  927.4  943.8  952.4  953.6  955.5
   961.9  971.4  975.6  978.7  983.2  984.9  985.8  988.6  997.5 1006.8
  1032.3 1032.7 1067.6 1069.7 1080.5 1094.5 1097.8 1107.2 1133.3 1151.0
  1154.3 1155.0 1155.3 1161.6 1165.2 1165.7 1174.9 1190.0 1200.6 1203.0
  1216.1 1226.5 1229.3 1236.1 1236.6 1247.1 1252.6 1256.6 1271.0 1282.5
  1286.6 1295.8 1301.9 1321.1 1349.3 1355.4 1365.3 1365.8 1368.5 1373.7
  1381.9 1384.3 1393.8 1397.8 1398.7 1400.2 1402.7 1402.8 1411.8 1424.2
  1426.7 1428.2 1441.8 1451.9 1459.3 1470.2 1478.4 1484.1 1485.0 1485.3
  1486.2 1488.3 1489.8 1489.8 1491.4 1496.4 1499.6 1505.0 1506.5 1506.7
  1507.6 1516.3 1522.8 1523.6 1532.4 1549.1 1554.8 1559.6 1575.0 1589.2
  1615.8 1620.0 1622.9 1633.1 1638.1 1683.5 1719.5 1756.9 2013.7 3029.5
  3032.2 3032.2 3034.1 3035.5 3035.7 3086.8 3089.9 3098.7 3099.6 3103.4
  3104.0 3109.4 3109.6 3110.1 3111.4 3112.4 3131.6 3141.4 3176.3 3182.2
  3192.5 3192.9 3199.9 3200.3 3208.7 3208.8 3211.8 3222.3 3223.0 3245.3
  3290.5
 at 99999: n3=         261
 symm operator            1 :  F  nop=           0
 symm operator            2 :  F  nop=           0
 symm operator            3 :  F  nop=           0
 symm operator            4 :  F  nop=           0
 symm operator            5 :  F  nop=           0
 symm operator            6 :  F  nop=           0
 symm operator            7 :  F  nop=           0
 The point group of the molecule is  C1
 Symmetry rotation matrix:
   1.00000   0.00000   0.00000
   0.00000   1.00000   0.00000
   0.00000   0.00000   1.00000

 Projecting out zero-frequency components
 generating redundant internal coords
         300        3600          87
 search for int coords
   1 str   2   1   1.533
   2 str   3   2   1.533
   3 str   4   2   1.492
   4 str   5   4   1.404
   5 str   6   5   1.225
   6 str   7   5   1.472
   7 str   8   7   1.395
   8 str   9   8   1.383
   9 str  10   9   1.413
  10 str  11  10   1.448
  11 str  12  11   1.418
  12 str  13  12   1.373
  13 str  14  13   1.406
  14 str  15  14   1.443
  15 str  16  15   1.224
  16 str  17  15   1.444
  17 str  18  17   1.401
  18 str  19  18   1.402
  19 str  20  19   1.390
  20 str  21  20   1.396
  21 str  22  16   2.453
  22 str  22  18   1.778
  23 str  22  21   1.741
  24 str  23  21   1.416
  25 str  24  23   1.414
  26 str  25  24   1.373
  27 str  26  25   1.433
  28 str  27  26   1.410
  29 str  28  23   1.439
  30 str  28  27   1.373
  31 str  29  20   1.517
  32 str  29  28   1.533
  33 str  30  29   1.545
  34 str  31  29   1.544
  35 str  32  26   1.428
  36 str  33  32   1.735
  37 str  34  33   1.740
  38 str  35  34   1.376
  39 str  36  32   1.389
  40 str  36  35   1.410
  41 str  37  25   1.534
  42 str  37  36   1.518
  43 str  38  37   1.544
  44 str  39  37   1.545
  45 str  40  17   1.468
  46 str  41  40   1.217
  47 str  42  40   1.446
  48 str  43  42   1.408
  49 str  44  43   1.372
  50 str  45  44   1.418
  51 str  46  45   1.446
  52 str  47  46   1.413
  53 str  48  47   1.382
  54 str  49  48   1.396
  55 str  50   4   1.412
  56 str  50  49   1.470
  57 str  51  50   1.224
  58 str  52   7   1.411
  59 str  52  49   1.412
  60 str  53  10   1.427
  61 str  53  46   1.428
  62 str  53  52   1.434
  63 str  54  11   1.428
  64 str  54  45   1.429
  65 str  55  14   1.410
  66 str  55  42   1.412
  67 str  55  54   1.441
  68 str  56   1   1.094
  69 str  57   1   1.089
  70 str  58   1   1.093
  71 str  59   2   1.088
  72 str  60   3   1.089
  73 str  61   3   1.094
  74 str  62   3   1.093
  75 str  63   8   1.083
  76 str  64   9   1.081
  77 str  65  12   1.080
  78 str  66  13   1.082
  79 str  67  19   1.074
  80 str  68  24   1.084
  81 str  69  27   1.084
  82 str  70  30   1.092
  83 str  71  30   1.093
  84 str  72  30   1.092
  85 str  73  31   1.092
  86 str  74  31   1.092
  87 str  75  31   1.093
  88 str  76  34   1.079
  89 str  77  35   1.081
  90 str  78  38   1.092
  91 str  79  38   1.093
  92 str  80  38   1.093
  93 str  81  39   1.092
  94 str  82  39   1.093
  95 str  83  39   1.093
  96 str  84  43   1.082
  97 str  85  44   1.080
  98 str  86  47   1.081
  99 str  87  48   1.083
 nber stretches=          99
 100 ben   1   2   3
 101 prop tor   1   2   3  60
 102 prop tor   1   2   3  61
 103 prop tor   1   2   3  62
 104 ben   1   2   4
 105 prop tor   1   2   4   5
 106 prop tor   1   2   4  50
 107 ben   1   2  59
 108 ben   2   1  56
 109 ben   2   1  57
 110 ben   2   1  58
 111 ben   2   3  60
 112 ben   2   3  61
 113 ben   2   3  62
 114 ben   2   4   5
 115 prop tor   2   4   5   6
 116 prop tor   2   4   5   7
 117 ben   2   4  50
 118 prop tor   2   4  50  49
 119 prop tor   2   4  50  51
 120 ben   3   2   4
 121 prop tor   3   2   4   5
 122 prop tor   3   2   4  50
 123 ben   3   2  59
 124 prop tor   4   2   3  60
 125 prop tor   4   2   3  61
 126 prop tor   4   2   3  62
 127 ben   4   2  59
 128 ben   4   5   6
 129 ben   4   5   7
 130 prop tor   4   5   7   8
 131 prop tor   4   5   7  52
 132 ben   4  50  49
 133 ben   4  50  51
 134 ben   5   4  50
 135 prop tor   5   4  50  49
 136 prop tor   5   4  50  51
 137 ben   5   7   8
 138 prop tor   5   7   8   9
 139 prop tor   5   7   8  63
 140 ben   5   7  52
 141 prop tor   5   7  52  49
 142 prop tor   5   7  52  53
 143 ben   6   5   7
 144 prop tor   6   5   7   8
 145 prop tor   6   5   7  52
 146 ben   7   8   9
 147 prop tor   7   8   9  10
 148 prop tor   7   8   9  64
 149 ben   7   8  63
 150 ben   7  52  49
 151 ben   7  52  53
 152 prop tor   7  52  53  10
 153 prop tor   7  52  53  46
 154 ben   8   7  52
 155 prop tor   8   7  52  49
 156 prop tor   8   7  52  53
 157 ben   8   9  10
 158 prop tor   8   9  10  11
 159 prop tor   8   9  10  53
 160 ben   8   9  64
 161 ben   9   8  63
 162 ben   9  10  11
 163 prop tor   9  10  11  12
 164 prop tor   9  10  11  54
 165 ben   9  10  53
 166 prop tor   9  10  53  46
 167 prop tor   9  10  53  52
 168 ben  10   9  64
 169 ben  10  11  12
 170 prop tor  10  11  12  13
 171 prop tor  10  11  12  65
 172 ben  10  11  54
 173 prop tor  10  11  54  45
 174 prop tor  10  11  54  55
 175 ben  10  53  46
 176 ben  10  53  52
 177 ben  11  10  53
 178 prop tor  11  10  53  46
 179 prop tor  11  10  53  52
 180 ben  11  12  13
 181 prop tor  11  12  13  14
 182 prop tor  11  12  13  66
 183 ben  11  12  65
 184 ben  11  54  45
 185 ben  11  54  55
 186 prop tor  11  54  55  14
 187 prop tor  11  54  55  42
 188 ben  12  11  54
 189 prop tor  12  11  54  45
 190 prop tor  12  11  54  55
 191 ben  12  13  14
 192 prop tor  12  13  14  15
 193 prop tor  12  13  14  55
 194 ben  12  13  66
 195 ben  13  12  65
 196 ben  13  14  15
 197 prop tor  13  14  15  16
 198 prop tor  13  14  15  17
 199 ben  13  14  55
 200 prop tor  13  14  55  42
 201 prop tor  13  14  55  54
 202 ben  14  13  66
 203 ben  14  15  16
 204 prop tor  14  15  16  22
 205 ben  14  15  17
 206 prop tor  14  15  17  18
 207 prop tor  14  15  17  40
 208 ben  14  55  42
 209 ben  14  55  54
 210 ben  15  14  55
 211 prop tor  15  14  55  42
 212 prop tor  15  14  55  54
 213 ben  15  16  22
 214 prop tor  15  16  22  18
 215 prop tor  15  16  22  21
 216 ben  15  17  18
 217 prop tor  15  17  18  19
 218 prop tor  15  17  18  22
 219 ben  15  17  40
 220 prop tor  15  17  40  41
 221 prop tor  15  17  40  42
 222 ben  16  15  17
 223 prop tor  16  15  17  18
 224 prop tor  16  15  17  40
 225 ben  16  22  18
 226 ben  16  22  21
 227 prop tor  17  15  16  22
 228 ben  17  18  19
 229 prop tor  17  18  19  20
 230 prop tor  17  18  19  67
 231 ben  17  18  22
 232 prop tor  17  18  22  16
 233 prop tor  17  18  22  21
 234 ben  17  40  41
 235 ben  17  40  42
 236 prop tor  17  40  42  43
 237 prop tor  17  40  42  55
 238 ben  18  17  40
 239 prop tor  18  17  40  41
 240 prop tor  18  17  40  42
 241 ben  18  19  20
 242 prop tor  18  19  20  21
 243 prop tor  18  19  20  29
 244 ben  18  19  67
 245 ben  18  22  21
 246 ben  19  18  22
 247 prop tor  19  18  22  16
 248 prop tor  19  18  22  21
 249 ben  19  20  21
 250 prop tor  19  20  21  22
 251 prop tor  19  20  21  23
 252 ben  19  20  29
 253 prop tor  19  20  29  28
 254 prop tor  19  20  29  30
 255 prop tor  19  20  29  31
 256 ben  20  19  67
 257 ben  20  21  22
 258 prop tor  20  21  22  16
 259 prop tor  20  21  22  18
 260 ben  20  21  23
 261 prop tor  20  21  23  24
 262 prop tor  20  21  23  28
 263 ben  20  29  28
 264 ben  20  29  30
 265 prop tor  20  29  30  70
 266 prop tor  20  29  30  71
 267 prop tor  20  29  30  72
 268 ben  20  29  31
 269 prop tor  20  29  31  73
 270 prop tor  20  29  31  74
 271 prop tor  20  29  31  75
 272 ben  21  20  29
 273 prop tor  21  20  29  28
 274 prop tor  21  20  29  30
 275 prop tor  21  20  29  31
 276 ben  21  23  24
 277 prop tor  21  23  24  25
 278 prop tor  21  23  24  68
 279 ben  21  23  28
 280 prop tor  21  23  28  27
 281 prop tor  21  23  28  29
 282 prop tor  22  18  19  20
 283 prop tor  22  18  19  67
 284 ben  22  21  23
 285 prop tor  22  21  23  24
 286 prop tor  22  21  23  28
 287 prop tor  23  21  22  16
 288 prop tor  23  21  22  18
 289 ben  23  24  25
 290 prop tor  23  24  25  26
 291 prop tor  23  24  25  37
 292 ben  23  24  68
 293 ben  23  28  27
 294 ben  23  28  29
 295 prop tor  23  28  29  20
 296 prop tor  23  28  29  30
 297 prop tor  23  28  29  31
 298 ben  24  23  28
 299 prop tor  24  23  28  27
 300 prop tor  24  23  28  29
 301 ben  24  25  26
 302 prop tor  24  25  26  27
 303 prop tor  24  25  26  32
 304 ben  24  25  37
 305 prop tor  24  25  37  36
 306 prop tor  24  25  37  38
 307 prop tor  24  25  37  39
 308 ben  25  24  68
 309 ben  25  26  27
 310 prop tor  25  26  27  28
 311 prop tor  25  26  27  69
 312 ben  25  26  32
 313 prop tor  25  26  32  33
 314 prop tor  25  26  32  36
 315 ben  25  37  36
 316 ben  25  37  38
 317 prop tor  25  37  38  78
 318 prop tor  25  37  38  79
 319 prop tor  25  37  38  80
 320 ben  25  37  39
 321 prop tor  25  37  39  81
 322 prop tor  25  37  39  82
 323 prop tor  25  37  39  83
 324 ben  26  25  37
 325 prop tor  26  25  37  36
 326 prop tor  26  25  37  38
 327 prop tor  26  25  37  39
 328 ben  26  27  28
 329 prop tor  26  27  28  23
 330 prop tor  26  27  28  29
 331 ben  26  27  69
 332 ben  26  32  33
 333 prop tor  26  32  33  34
 334 ben  26  32  36
 335 prop tor  26  32  36  35
 336 prop tor  26  32  36  37
 337 ben  27  26  32
 338 prop tor  27  26  32  33
 339 prop tor  27  26  32  36
 340 ben  27  28  29
 341 prop tor  27  28  29  20
 342 prop tor  27  28  29  30
 343 prop tor  27  28  29  31
 344 prop tor  28  23  24  25
 345 prop tor  28  23  24  68
 346 ben  28  27  69
 347 ben  28  29  30
 348 prop tor  28  29  30  70
 349 prop tor  28  29  30  71
 350 prop tor  28  29  30  72
 351 ben  28  29  31
 352 prop tor  28  29  31  73
 353 prop tor  28  29  31  74
 354 prop tor  28  29  31  75
 355 prop tor  29  20  21  22
 356 prop tor  29  20  21  23
 357 ben  29  30  70
 358 ben  29  30  71
 359 ben  29  30  72
 360 ben  29  31  73
 361 ben  29  31  74
 362 ben  29  31  75
 363 ben  30  29  31
 364 prop tor  30  29  31  73
 365 prop tor  30  29  31  74
 366 prop tor  30  29  31  75
 367 prop tor  31  29  30  70
 368 prop tor  31  29  30  71
 369 prop tor  31  29  30  72
 370 prop tor  32  26  27  28
 371 prop tor  32  26  27  69
 372 ben  32  33  34
 373 prop tor  32  33  34  35
 374 prop tor  32  33  34  76
 375 ben  32  36  35
 376 ben  32  36  37
 377 prop tor  32  36  37  25
 378 prop tor  32  36  37  38
 379 prop tor  32  36  37  39
 380 ben  33  32  36
 381 prop tor  33  32  36  35
 382 prop tor  33  32  36  37
 383 ben  33  34  35
 384 prop tor  33  34  35  36
 385 prop tor  33  34  35  77
 386 ben  33  34  76
 387 ben  34  35  36
 388 prop tor  34  35  36  32
 389 prop tor  34  35  36  37
 390 ben  34  35  77
 391 ben  35  34  76
 392 ben  35  36  37
 393 prop tor  35  36  37  25
 394 prop tor  35  36  37  38
 395 prop tor  35  36  37  39
 396 prop tor  36  32  33  34
 397 ben  36  35  77
 398 ben  36  37  38
 399 prop tor  36  37  38  78
 400 prop tor  36  37  38  79
 401 prop tor  36  37  38  80
 402 ben  36  37  39
 403 prop tor  36  37  39  81
 404 prop tor  36  37  39  82
 405 prop tor  36  37  39  83
 406 prop tor  37  25  26  27
 407 prop tor  37  25  26  32
 408 ben  37  38  78
 409 ben  37  38  79
 410 ben  37  38  80
 411 ben  37  39  81
 412 ben  37  39  82
 413 ben  37  39  83
 414 ben  38  37  39
 415 prop tor  38  37  39  81
 416 prop tor  38  37  39  82
 417 prop tor  38  37  39  83
 418 prop tor  39  37  38  78
 419 prop tor  39  37  38  79
 420 prop tor  39  37  38  80
 421 prop tor  40  17  18  19
 422 prop tor  40  17  18  22
 423 ben  40  42  43
 424 prop tor  40  42  43  44
 425 prop tor  40  42  43  84
 426 ben  40  42  55
 427 prop tor  40  42  55  14
 428 prop tor  40  42  55  54
 429 ben  41  40  42
 430 prop tor  41  40  42  43
 431 prop tor  41  40  42  55
 432 ben  42  43  44
 433 prop tor  42  43  44  45
 434 prop tor  42  43  44  85
 435 ben  42  43  84
 436 ben  42  55  54
 437 ben  43  42  55
 438 prop tor  43  42  55  14
 439 prop tor  43  42  55  54
 440 ben  43  44  45
 441 prop tor  43  44  45  46
 442 prop tor  43  44  45  54
 443 ben  43  44  85
 444 ben  44  43  84
 445 ben  44  45  46
 446 prop tor  44  45  46  47
 447 prop tor  44  45  46  53
 448 ben  44  45  54
 449 prop tor  44  45  54  11
 450 prop tor  44  45  54  55
 451 ben  45  44  85
 452 ben  45  46  47
 453 prop tor  45  46  47  48
 454 prop tor  45  46  47  86
 455 ben  45  46  53
 456 prop tor  45  46  53  10
 457 prop tor  45  46  53  52
 458 ben  45  54  55
 459 prop tor  45  54  55  14
 460 prop tor  45  54  55  42
 461 ben  46  45  54
 462 prop tor  46  45  54  11
 463 prop tor  46  45  54  55
 464 ben  46  47  48
 465 prop tor  46  47  48  49
 466 prop tor  46  47  48  87
 467 ben  46  47  86
 468 ben  46  53  52
 469 ben  47  46  53
 470 prop tor  47  46  53  10
 471 prop tor  47  46  53  52
 472 ben  47  48  49
 473 prop tor  47  48  49  50
 474 prop tor  47  48  49  52
 475 ben  47  48  87
 476 ben  48  47  86
 477 ben  48  49  50
 478 prop tor  48  49  50   4
 479 prop tor  48  49  50  51
 480 ben  48  49  52
 481 prop tor  48  49  52   7
 482 prop tor  48  49  52  53
 483 ben  49  48  87
 484 ben  49  50  51
 485 ben  49  52  53
 486 prop tor  49  52  53  10
 487 prop tor  49  52  53  46
 488 prop tor  50   4   5   6
 489 prop tor  50   4   5   7
 490 ben  50  49  52
 491 prop tor  50  49  52   7
 492 prop tor  50  49  52  53
 493 prop tor  52   7   8   9
 494 prop tor  52   7   8  63
 495 prop tor  52  49  50   4
 496 prop tor  52  49  50  51
 497 prop tor  53  10  11  12
 498 prop tor  53  10  11  54
 499 prop tor  53  46  47  48
 500 prop tor  53  46  47  86
 501 prop tor  54  11  12  13
 502 prop tor  54  11  12  65
 503 prop tor  54  45  46  47
 504 prop tor  54  45  46  53
 505 prop tor  55  14  15  16
 506 prop tor  55  14  15  17
 507 prop tor  55  42  43  44
 508 prop tor  55  42  43  84
 509 prop tor  56   1   2   3
 510 prop tor  56   1   2   4
 511 prop tor  56   1   2  59
 512 ben  56   1  57
 513 ben  56   1  58
 514 prop tor  57   1   2   3
 515 prop tor  57   1   2   4
 516 prop tor  57   1   2  59
 517 ben  57   1  58
 518 prop tor  58   1   2   3
 519 prop tor  58   1   2   4
 520 prop tor  58   1   2  59
 521 prop tor  59   2   3  60
 522 prop tor  59   2   3  61
 523 prop tor  59   2   3  62
 524 prop tor  59   2   4   5
 525 prop tor  59   2   4  50
 526 ben  60   3  61
 527 ben  60   3  62
 528 ben  61   3  62
 529 prop tor  63   8   9  10
 530 prop tor  63   8   9  64
 531 prop tor  64   9  10  11
 532 prop tor  64   9  10  53
 533 prop tor  65  12  13  14
 534 prop tor  65  12  13  66
 535 prop tor  66  13  14  15
 536 prop tor  66  13  14  55
 537 prop tor  67  19  20  21
 538 prop tor  67  19  20  29
 539 prop tor  68  24  25  26
 540 prop tor  68  24  25  37
 541 prop tor  69  27  28  23
 542 prop tor  69  27  28  29
 543 ben  70  30  71
 544 ben  70  30  72
 545 ben  71  30  72
 546 ben  73  31  74
 547 ben  73  31  75
 548 ben  74  31  75
 549 prop tor  76  34  35  36
 550 prop tor  76  34  35  77
 551 prop tor  77  35  36  32
 552 prop tor  77  35  36  37
 553 ben  78  38  79
 554 ben  78  38  80
 555 ben  79  38  80
 556 ben  81  39  82
 557 ben  81  39  83
 558 ben  82  39  83
 559 prop tor  84  43  44  45
 560 prop tor  84  43  44  85
 561 prop tor  85  44  45  46
 562 prop tor  85  44  45  54
 563 prop tor  86  47  48  49
 564 prop tor  86  47  48  87
 565 prop tor  87  48  49  50
 566 prop tor  87  48  49  52
 nber bend=             179
 nber lin bend=           0
 nber prop tor=         288
 nber impr tor=           0
 nber tot redund int=         566
 Eigenvalues of G in red int coords
    Gval -0.00000000 -0.00000000 -0.00000000 -0.00000000 -0.00000000 -0.00000000 -0.00000000 -0.00000000
    Gval -0.00000000 -0.00000000 -0.00000000 -0.00000000 -0.00000000 -0.00000000 -0.00000000 -0.00000000
    Gval -0.00000000 -0.00000000 -0.00000000 -0.00000000 -0.00000000 -0.00000000 -0.00000000 -0.00000000
    Gval -0.00000000 -0.00000000 -0.00000000 -0.00000000 -0.00000000 -0.00000000 -0.00000000 -0.00000000
    Gval -0.00000000 -0.00000000 -0.00000000 -0.00000000 -0.00000000 -0.00000000 -0.00000000 -0.00000000
    Gval -0.00000000 -0.00000000 -0.00000000 -0.00000000 -0.00000000 -0.00000000 -0.00000000 -0.00000000
    Gval -0.00000000 -0.00000000 -0.00000000 -0.00000000 -0.00000000 -0.00000000 -0.00000000 -0.00000000
    Gval -0.00000000 -0.00000000 -0.00000000 -0.00000000 -0.00000000 -0.00000000 -0.00000000 -0.00000000
    Gval -0.00000000 -0.00000000 -0.00000000 -0.00000000 -0.00000000 -0.00000000 -0.00000000 -0.00000000
    Gval -0.00000000 -0.00000000 -0.00000000 -0.00000000 -0.00000000 -0.00000000 -0.00000000 -0.00000000
    Gval -0.00000000 -0.00000000 -0.00000000 -0.00000000 -0.00000000 -0.00000000 -0.00000000 -0.00000000
    Gval -0.00000000 -0.00000000 -0.00000000 -0.00000000 -0.00000000 -0.00000000 -0.00000000 -0.00000000
    Gval -0.00000000 -0.00000000 -0.00000000 -0.00000000 -0.00000000 -0.00000000 -0.00000000 -0.00000000
    Gval -0.00000000 -0.00000000 -0.00000000 -0.00000000 -0.00000000 -0.00000000 -0.00000000 -0.00000000
    Gval -0.00000000 -0.00000000 -0.00000000 -0.00000000 -0.00000000 -0.00000000 -0.00000000 -0.00000000
    Gval -0.00000000 -0.00000000 -0.00000000 -0.00000000 -0.00000000 -0.00000000 -0.00000000 -0.00000000
    Gval -0.00000000 -0.00000000 -0.00000000 -0.00000000 -0.00000000 -0.00000000 -0.00000000 -0.00000000
    Gval -0.00000000 -0.00000000 -0.00000000 -0.00000000 -0.00000000 -0.00000000 -0.00000000 -0.00000000
    Gval -0.00000000 -0.00000000 -0.00000000 -0.00000000 -0.00000000 -0.00000000 -0.00000000 -0.00000000
    Gval -0.00000000 -0.00000000  0.00000000  0.00000000  0.00000000  0.00000000  0.00000000  0.00000000
    Gval  0.00000000  0.00000000  0.00000000  0.00000000  0.00000000  0.00000000  0.00000000  0.00000000
    Gval  0.00000000  0.00000000  0.00000000  0.00000000  0.00000000  0.00000000  0.00000000  0.00000000
    Gval  0.00000000  0.00000000  0.00000000  0.00000000  0.00000000  0.00000000  0.00000000  0.00000000
    Gval  0.00000000  0.00000000  0.00000000  0.00000000  0.00000000  0.00000000  0.00000000  0.00000000
    Gval  0.00000000  0.00000000  0.00000000  0.00000000  0.00000000  0.00000000  0.00000000  0.00000000
    Gval  0.00000000  0.00000000  0.00000000  0.00000000  0.00000000  0.00000000  0.00000000  0.00000000
    Gval  0.00000000  0.00000000  0.00000000  0.00000000  0.00000000  0.00000000  0.00000000  0.00000000
    Gval  0.00000000  0.00000000  0.00000000  0.00000000  0.00000000  0.00000000  0.00000000  0.00000000
    Gval  0.00000000  0.00000000  0.00000000  0.00000000  0.00000000  0.00000000  0.00000000  0.00000000
    Gval  0.00000000  0.00000000  0.00000000  0.00000000  0.00000000  0.00000000  0.00000000  0.00000000
    Gval  0.00000000  0.00000000  0.00000000  0.00000000  0.00000000  0.00000000  0.00000000  0.00000000
    Gval  0.00000000  0.00000000  0.00000000  0.00000000  0.00000000  0.00000000  0.00000000  0.00000000
    Gval  0.00000000  0.00000000  0.00000000  0.00000000  0.00000000  0.00000000  0.00000000  0.00000000
    Gval  0.00000000  0.00000000  0.00000000  0.00000000  0.00000000  0.00000000  0.00000000  0.00000000
    Gval  0.00000000  0.00000000  0.00000000  0.00000000  0.00000000  0.00000000  0.00000000  0.00000000
    Gval  0.00000000  0.00000000  0.00000000  0.00000000  0.00000000  0.00000000  0.00000000  0.00000000
    Gval  0.00000000  0.00000000  0.00000000  0.00000000  0.00000000  0.00000000  0.00000000  0.00000000
    Gval  0.00000000  0.00000000  0.00000000  0.00000000  0.00000000  0.00000000  0.00000000  0.00000000
    Gval  0.00000000  0.00000000  0.00000000  0.00000000  0.00000000  0.00000000  0.00000000  0.00000015
    Gval  0.00000039  0.00000079  0.00000101  0.00000214  0.00000261  0.00000325  0.00000333  0.00000480
    Gval  0.00000698  0.00000778  0.00000841  0.00000915  0.00001139  0.00001200  0.00001289  0.00001417
    Gval  0.00001589  0.00001643  0.00001729  0.00001827  0.00001871  0.00001983  0.00002052  0.00002130
    Gval  0.00002376  0.00002427  0.00002481  0.00002761  0.00002959  0.00003010  0.00003095  0.00003453
    Gval  0.00003635  0.00003732  0.00003839  0.00003995  0.00004089  0.00004197  0.00004340  0.00004375
    Gval  0.00004538  0.00004723  0.00004813  0.00004931  0.00005136  0.00005217  0.00005382  0.00005431
    Gval  0.00005720  0.00005930  0.00006118  0.00006356  0.00006764  0.00007032  0.00007140  0.00007234
    Gval  0.00007260  0.00007573  0.00007808  0.00008081  0.00008203  0.00008281  0.00008393  0.00008613
    Gval  0.00008993  0.00009293  0.00009389  0.00009498  0.00009714  0.00010026  0.00010549  0.00011880
    Gval  0.00012447  0.00012888  0.00012940  0.00013489  0.00013668  0.00013834  0.00014048  0.00014383
    Gval  0.00014664  0.00014868  0.00015644  0.00015946  0.00016348  0.00017310  0.00017746  0.00017982
    Gval  0.00018212  0.00018512  0.00020116  0.00020475  0.00022409  0.00022925  0.00023168  0.00023559
    Gval  0.00025039  0.00025969  0.00027317  0.00028372  0.00028657  0.00029124  0.00030159  0.00030356
    Gval  0.00031706  0.00034597  0.00035600  0.00036446  0.00036960  0.00038006  0.00038499  0.00039099
    Gval  0.00039393  0.00040231  0.00041131  0.00041868  0.00042169  0.00042877  0.00043105  0.00043247
    Gval  0.00043583  0.00044185  0.00044254  0.00044768  0.00045398  0.00046032  0.00046190  0.00046415
    Gval  0.00046954  0.00047125  0.00048958  0.00049499  0.00050705  0.00051056  0.00052566  0.00053133
    Gval  0.00053436  0.00053536  0.00053539  0.00053729  0.00055217  0.00055367  0.00055572  0.00055594
    Gval  0.00055613  0.00055615  0.00055619  0.00055657  0.00056442  0.00057843  0.00057854  0.00059448
    Gval  0.00059650  0.00059852  0.00059895  0.00059925  0.00059958  0.00059986  0.00060221  0.00060854
    Gval  0.00062562  0.00062790  0.00062970  0.00063632  0.00063748  0.00064141  0.00064488  0.00064571
    Gval  0.00064747  0.00067066  0.00067633  0.00067678  0.00069363  0.00069701  0.00071305  0.00079842
    Gval  0.00080390  0.00081680  0.00089942  0.00098652  0.00098693  0.00099130  0.00105691  0.00108060
    Gval  0.00109370  0.00109440  0.00109463  0.00109535  0.00109584  0.00110269  0.00110860  0.00112977
    Gval  0.00113590  0.00113644  0.00114616  0.00116296  0.00116442  0.00116493  0.00116631  0.00116692
    Gval  0.00116868  0.00116927  0.00117886  0.00117994  0.00118026  0.00118071  0.00118540  0.00122799
    Gval  0.00129184  0.00129222  0.00144919  0.00146406  0.00153047  0.00160156  0.00162693  0.00167186
    Gval  0.00167201  0.00168127  0.00171757  0.00173476  0.00186277  0.00195350  0.00199200  0.00213549
    Gval  0.00227880  0.00233185  0.00234439  0.00252192  0.00253987  0.00256898  0.00267311  0.00278299
    Gval  0.00292484  0.00302220  0.00302798  0.00303203  0.00303775  0.00303817  0.00304255  0.00304697
    Gval  0.00304744  0.00308292  0.00309192  0.00309811  0.00309882  0.00342385  0.00346214  0.00366389
    Gval  0.00366892  0.00371180  0.00371656  0.00375238  0.00393334  0.00403620
  1.453025973975765E-007  1.453025973975765E-007
  3.948700027303325E-007  1.453025973975765E-007
  7.939423579936842E-007  1.453025973975765E-007
  1.007095744320278E-006  1.453025973975765E-007
  2.138360717363427E-006  1.453025973975765E-007
  2.605590840193920E-006  1.453025973975765E-007
  3.247168431740396E-006  1.453025973975765E-007
  3.333412514554897E-006  1.453025973975765E-007
  4.804539926941151E-006  1.453025973975765E-007
  6.977425923954136E-006  1.453025973975765E-007
  7.779938245935698E-006  1.453025973975765E-007
  8.406680591006149E-006  1.453025973975765E-007
  9.149172682077301E-006  1.453025973975765E-007
  1.139056599365672E-005  1.453025973975765E-007
  1.200313779518908E-005  1.453025973975765E-007
  1.288637072846815E-005  1.453025973975765E-007
  1.416831168668329E-005  1.453025973975765E-007
  1.588895150071955E-005  1.453025973975765E-007
  1.643465858141405E-005  1.453025973975765E-007
  1.728540530888498E-005  1.453025973975765E-007
  1.826775877085730E-005  1.453025973975765E-007
  1.871061537931010E-005  1.453025973975765E-007
  1.982634571847788E-005  1.453025973975765E-007
  2.051613845849627E-005  1.453025973975765E-007
  2.130079806894028E-005  1.453025973975765E-007
  2.376371005079498E-005  1.453025973975765E-007
  2.426683559175725E-005  1.453025973975765E-007
  2.480920402988211E-005  1.453025973975765E-007
  2.761124622572798E-005  1.453025973975765E-007
  2.959262797596217E-005  1.453025973975765E-007
  3.009965684342682E-005  1.453025973975765E-007
  3.095121455424055E-005  1.453025973975765E-007
  3.452642000870841E-005  1.453025973975765E-007
  3.635200296058772E-005  1.453025973975765E-007
  3.732422298126228E-005  1.453025973975765E-007
  3.839015448540089E-005  1.453025973975765E-007
  3.994980747906634E-005  1.453025973975765E-007
  4.088736790441980E-005  1.453025973975765E-007
  4.196813606984512E-005  1.453025973975765E-007
  4.339760427717598E-005  1.453025973975765E-007
  4.374509521790768E-005  1.453025973975765E-007
  4.537518148179284E-005  1.453025973975765E-007
  4.723371652340629E-005  1.453025973975765E-007
  4.812996004526474E-005  1.453025973975765E-007
  4.930828640789268E-005  1.453025973975765E-007
  5.135553567968250E-005  1.453025973975765E-007
  5.217063000051224E-005  1.453025973975765E-007
  5.382044590687028E-005  1.453025973975765E-007
  5.430954291768317E-005  1.453025973975765E-007
  5.719781889066070E-005  1.453025973975765E-007
  5.929618121747679E-005  1.453025973975765E-007
  6.118224176346694E-005  1.453025973975765E-007
  6.356412260383913E-005  1.453025973975765E-007
  6.763617765589253E-005  1.453025973975765E-007
  7.032159066625295E-005  1.453025973975765E-007
  7.139553124614234E-005  1.453025973975765E-007
  7.233517146739637E-005  1.453025973975765E-007
  7.259755023809396E-005  1.453025973975765E-007
  7.573150085170300E-005  1.453025973975765E-007
  7.807826357271482E-005  1.453025973975765E-007
  8.081455776112678E-005  1.453025973975765E-007
  8.203269800947845E-005  1.453025973975765E-007
  8.281348817466993E-005  1.453025973975765E-007
  8.393229392537435E-005  1.453025973975765E-007
  8.612602114380410E-005  1.453025973975765E-007
  8.993204241699662E-005  1.453025973975765E-007
  9.293347473225664E-005  1.453025973975765E-007
  9.388895935355935E-005  1.453025973975765E-007
  9.498242426680514E-005  1.453025973975765E-007
  9.713912583228894E-005  1.453025973975765E-007
  1.002579346578987E-004  1.453025973975765E-007
  1.054891618514776E-004  1.453025973975765E-007
  1.187985219510354E-004  1.453025973975765E-007
  1.244659469046538E-004  1.453025973975765E-007
  1.288773685268785E-004  1.453025973975765E-007
  1.294014419813484E-004  1.453025973975765E-007
  1.348852941618960E-004  1.453025973975765E-007
  1.366773119625559E-004  1.453025973975765E-007
  1.383417200681191E-004  1.453025973975765E-007
  1.404820325922469E-004  1.453025973975765E-007
  1.438334048231489E-004  1.453025973975765E-007
  1.466383578559786E-004  1.453025973975765E-007
  1.486761733493876E-004  1.453025973975765E-007
  1.564392699380117E-004  1.453025973975765E-007
  1.594616174857725E-004  1.453025973975765E-007
  1.634809019931922E-004  1.453025973975765E-007
  1.731031203096979E-004  1.453025973975765E-007
  1.774611074511079E-004  1.453025973975765E-007
  1.798235389223455E-004  1.453025973975765E-007
  1.821152008802795E-004  1.453025973975765E-007
  1.851235195156123E-004  1.453025973975765E-007
  2.011566178168056E-004  1.453025973975765E-007
  2.047518887445681E-004  1.453025973975765E-007
  2.240889320403122E-004  1.453025973975765E-007
  2.292476461475397E-004  1.453025973975765E-007
  2.316820368788328E-004  1.453025973975765E-007
  2.355903030357619E-004  1.453025973975765E-007
  2.503866225423439E-004  1.453025973975765E-007
  2.596880145492643E-004  1.453025973975765E-007
  2.731732981077959E-004  1.453025973975765E-007
  2.837226980289400E-004  1.453025973975765E-007
  2.865702530612043E-004  1.453025973975765E-007
  2.912444061327315E-004  1.453025973975765E-007
  3.015919525919604E-004  1.453025973975765E-007
  3.035583058793404E-004  1.453025973975765E-007
  3.170615189589276E-004  1.453025973975765E-007
  3.459740291600477E-004  1.453025973975765E-007
  3.560018330659902E-004  1.453025973975765E-007
  3.644562363671680E-004  1.453025973975765E-007
  3.695979572512545E-004  1.453025973975765E-007
  3.800565185718355E-004  1.453025973975765E-007
  3.849850268120603E-004  1.453025973975765E-007
  3.909899873612701E-004  1.453025973975765E-007
  3.939290145262176E-004  1.453025973975765E-007
  4.023113693772320E-004  1.453025973975765E-007
  4.113059989385401E-004  1.453025973975765E-007
  4.186765087195997E-004  1.453025973975765E-007
  4.216884876011519E-004  1.453025973975765E-007
  4.287684426474718E-004  1.453025973975765E-007
  4.310493963643909E-004  1.453025973975765E-007
  4.324689693113987E-004  1.453025973975765E-007
  4.358300510241265E-004  1.453025973975765E-007
  4.418474189604075E-004  1.453025973975765E-007
  4.425436842980101E-004  1.453025973975765E-007
  4.476827327693199E-004  1.453025973975765E-007
  4.539753360976319E-004  1.453025973975765E-007
  4.603230289300109E-004  1.453025973975765E-007
  4.618962446343136E-004  1.453025973975765E-007
  4.641450959646275E-004  1.453025973975765E-007
  4.695443986231521E-004  1.453025973975765E-007
  4.712459476038800E-004  1.453025973975765E-007
  4.895766541128783E-004  1.453025973975765E-007
  4.949880049681685E-004  1.453025973975765E-007
  5.070480008951245E-004  1.453025973975765E-007
  5.105562816326341E-004  1.453025973975765E-007
  5.256590459486306E-004  1.453025973975765E-007
  5.313335721214441E-004  1.453025973975765E-007
  5.343572780091633E-004  1.453025973975765E-007
  5.353645413969552E-004  1.453025973975765E-007
  5.353874082381479E-004  1.453025973975765E-007
  5.372882073091509E-004  1.453025973975765E-007
  5.521716362752318E-004  1.453025973975765E-007
  5.536720571581059E-004  1.453025973975765E-007
  5.557200647338717E-004  1.453025973975765E-007
  5.559363679172593E-004  1.453025973975765E-007
  5.561344186387903E-004  1.453025973975765E-007
  5.561482926491469E-004  1.453025973975765E-007
  5.561895850699259E-004  1.453025973975765E-007
  5.565730561617416E-004  1.453025973975765E-007
  5.644206877994629E-004  1.453025973975765E-007
  5.784250982364715E-004  1.453025973975765E-007
  5.785420234809551E-004  1.453025973975765E-007
  5.944803976839925E-004  1.453025973975765E-007
  5.964995354453707E-004  1.453025973975765E-007
  5.985230200615593E-004  1.453025973975765E-007
  5.989489580439363E-004  1.453025973975765E-007
  5.992505314458299E-004  1.453025973975765E-007
  5.995795546720014E-004  1.453025973975765E-007
  5.998614768206785E-004  1.453025973975765E-007
  6.022127210704183E-004  1.453025973975765E-007
  6.085377509365479E-004  1.453025973975765E-007
  6.256225347099887E-004  1.453025973975765E-007
  6.279043708735444E-004  1.453025973975765E-007
  6.296978927212757E-004  1.453025973975765E-007
  6.363216791566938E-004  1.453025973975765E-007
  6.374770934420992E-004  1.453025973975765E-007
  6.414091685644874E-004  1.453025973975765E-007
  6.448784491452695E-004  1.453025973975765E-007
  6.457145231055543E-004  1.453025973975765E-007
  6.474665108623878E-004  1.453025973975765E-007
  6.706577049701272E-004  1.453025973975765E-007
  6.763346406983278E-004  1.453025973975765E-007
  6.767819530762650E-004  1.453025973975765E-007
  6.936275500449108E-004  1.453025973975765E-007
  6.970146700386097E-004  1.453025973975765E-007
  7.130531140774506E-004  1.453025973975765E-007
  7.984234534132768E-004  1.453025973975765E-007
  8.039033640599905E-004  1.453025973975765E-007
  8.167963565996573E-004  1.453025973975765E-007
  8.994228228894927E-004  1.453025973975765E-007
  9.865181372430418E-004  1.453025973975765E-007
  9.869308385727137E-004  1.453025973975765E-007
  9.913018164215332E-004  1.453025973975765E-007
  1.056907372650384E-003  1.453025973975765E-007
  1.080597070803403E-003  1.453025973975765E-007
  1.093697982348979E-003  1.453025973975765E-007
  1.094400205327913E-003  1.453025973975765E-007
  1.094628869708759E-003  1.453025973975765E-007
  1.095347300981461E-003  1.453025973975765E-007
  1.095843971505828E-003  1.453025973975765E-007
  1.102686183786730E-003  1.453025973975765E-007
  1.108596357963392E-003  1.453025973975765E-007
  1.129770795572910E-003  1.453025973975765E-007
  1.135898048916420E-003  1.453025973975765E-007
  1.136437589061434E-003  1.453025973975765E-007
  1.146160832259264E-003  1.453025973975765E-007
  1.162957348566203E-003  1.453025973975765E-007
  1.164421195906272E-003  1.453025973975765E-007
  1.164934410868180E-003  1.453025973975765E-007
  1.166313946706134E-003  1.453025973975765E-007
  1.166923898970095E-003  1.453025973975765E-007
  1.168682687261815E-003  1.453025973975765E-007
  1.169266849812693E-003  1.453025973975765E-007
  1.178864243965394E-003  1.453025973975765E-007
  1.179935256901126E-003  1.453025973975765E-007
  1.180256808955948E-003  1.453025973975765E-007
  1.180713053327799E-003  1.453025973975765E-007
  1.185399379582034E-003  1.453025973975765E-007
  1.227987277194942E-003  1.453025973975765E-007
  1.291844645972826E-003  1.453025973975765E-007
  1.292223993875651E-003  1.453025973975765E-007
  1.449192679899387E-003  1.453025973975765E-007
  1.464058196011613E-003  1.453025973975765E-007
  1.530474414561786E-003  1.453025973975765E-007
  1.601561157235019E-003  1.453025973975765E-007
  1.626932275604374E-003  1.453025973975765E-007
  1.671857952325979E-003  1.453025973975765E-007
  1.672007169280661E-003  1.453025973975765E-007
  1.681270623664989E-003  1.453025973975765E-007
  1.717565723714524E-003  1.453025973975765E-007
  1.734757348759107E-003  1.453025973975765E-007
  1.862771116288761E-003  1.453025973975765E-007
  1.953503416364625E-003  1.453025973975765E-007
  1.992002384424459E-003  1.453025973975765E-007
  2.135492505915139E-003  1.453025973975765E-007
  2.278799832999674E-003  1.453025973975765E-007
  2.331851964995014E-003  1.453025973975765E-007
  2.344392832553201E-003  1.453025973975765E-007
  2.521915726917868E-003  1.453025973975765E-007
  2.539873988289653E-003  1.453025973975765E-007
  2.568975488886515E-003  1.453025973975765E-007
  2.673114393987272E-003  1.453025973975765E-007
  2.782988404155687E-003  1.453025973975765E-007
  2.924836032975223E-003  1.453025973975765E-007
  3.022195103570175E-003  1.453025973975765E-007
  3.027975578481267E-003  1.453025973975765E-007
  3.032034425091195E-003  1.453025973975765E-007
  3.037751484310176E-003  1.453025973975765E-007
  3.038169982434514E-003  1.453025973975765E-007
  3.042554405448623E-003  1.453025973975765E-007
  3.046965806835576E-003  1.453025973975765E-007
  3.047443897661286E-003  1.453025973975765E-007
  3.082919901782879E-003  1.453025973975765E-007
  3.091920546914415E-003  1.453025973975765E-007
  3.098106288104574E-003  1.453025973975765E-007
  3.098817276986615E-003  1.453025973975765E-007
  3.423854072909801E-003  1.453025973975765E-007
  3.462138450673107E-003  1.453025973975765E-007
  3.663885556629797E-003  1.453025973975765E-007
  3.668923693724532E-003  1.453025973975765E-007
  3.711799955499812E-003  1.453025973975765E-007
  3.716558203389823E-003  1.453025973975765E-007
  3.752377188530696E-003  1.453025973975765E-007
  3.933335191879850E-003  1.453025973975765E-007
  4.036201991002326E-003  1.453025973975765E-007
 cut=1d-8, nber non-redundant internal coords=         255
 Check on Eigenvals of non-red overlap matrix:
  0.00000015  0.00000039  0.00000079  0.00000101  0.00000214  0.00000261  0.00000325  0.00000333
  0.00000480  0.00000698  0.00000778  0.00000841  0.00000915  0.00001139  0.00001200  0.00001289
  0.00001417  0.00001589  0.00001643  0.00001729  0.00001827  0.00001871  0.00001983  0.00002052
  0.00002130  0.00002376  0.00002427  0.00002481  0.00002761  0.00002959  0.00003010  0.00003095
  0.00003453  0.00003635  0.00003732  0.00003839  0.00003995  0.00004089  0.00004197  0.00004340
  0.00004375  0.00004538  0.00004723  0.00004813  0.00004931  0.00005136  0.00005217  0.00005382
  0.00005431  0.00005720  0.00005930  0.00006118  0.00006356  0.00006764  0.00007032  0.00007140
  0.00007234  0.00007260  0.00007573  0.00007808  0.00008081  0.00008203  0.00008281  0.00008393
  0.00008613  0.00008993  0.00009293  0.00009389  0.00009498  0.00009714  0.00010026  0.00010549
  0.00011880  0.00012447  0.00012888  0.00012940  0.00013489  0.00013668  0.00013834  0.00014048
  0.00014383  0.00014664  0.00014868  0.00015644  0.00015946  0.00016348  0.00017310  0.00017746
  0.00017982  0.00018212  0.00018512  0.00020116  0.00020475  0.00022409  0.00022925  0.00023168
  0.00023559  0.00025039  0.00025969  0.00027317  0.00028372  0.00028657  0.00029124  0.00030159
  0.00030356  0.00031706  0.00034597  0.00035600  0.00036446  0.00036960  0.00038006  0.00038499
  0.00039099  0.00039393  0.00040231  0.00041131  0.00041868  0.00042169  0.00042877  0.00043105
  0.00043247  0.00043583  0.00044185  0.00044254  0.00044768  0.00045398  0.00046032  0.00046190
  0.00046415  0.00046954  0.00047125  0.00048958  0.00049499  0.00050705  0.00051056  0.00052566
  0.00053133  0.00053436  0.00053536  0.00053539  0.00053729  0.00055217  0.00055367  0.00055572
  0.00055594  0.00055613  0.00055615  0.00055619  0.00055657  0.00056442  0.00057843  0.00057854
  0.00059448  0.00059650  0.00059852  0.00059895  0.00059925  0.00059958  0.00059986  0.00060221
  0.00060854  0.00062562  0.00062790  0.00062970  0.00063632  0.00063748  0.00064141  0.00064488
  0.00064571  0.00064747  0.00067066  0.00067633  0.00067678  0.00069363  0.00069701  0.00071305
  0.00079842  0.00080390  0.00081680  0.00089942  0.00098652  0.00098693  0.00099130  0.00105691
  0.00108060  0.00109370  0.00109440  0.00109463  0.00109535  0.00109584  0.00110269  0.00110860
  0.00112977  0.00113590  0.00113644  0.00114616  0.00116296  0.00116442  0.00116493  0.00116631
  0.00116692  0.00116868  0.00116927  0.00117886  0.00117994  0.00118026  0.00118071  0.00118540
  0.00122799  0.00129184  0.00129222  0.00144919  0.00146406  0.00153047  0.00160156  0.00162693
  0.00167186  0.00167201  0.00168127  0.00171757  0.00173476  0.00186277  0.00195350  0.00199200
  0.00213549  0.00227880  0.00233185  0.00234439  0.00252192  0.00253987  0.00256898  0.00267311
  0.00278299  0.00292484  0.00302220  0.00302798  0.00303203  0.00303775  0.00303817  0.00304255
  0.00304697  0.00304744  0.00308292  0.00309192  0.00309811  0.00309882  0.00342385  0.00346214
  0.00366389  0.00366892  0.00371180  0.00371656  0.00375238  0.00393334  0.00403620
 Checking for correct frequencies
 recalc frequencies=
    -0.0   -0.0   -0.0    0.0    0.0    0.0    6.6   10.5   20.9   24.5
    31.9   34.3   51.1   57.4   60.3   74.1   80.5   85.7   89.6   92.5
   102.0  108.6  111.1  133.0  150.0  154.0  166.6  168.9  173.4  195.2
   199.1  204.0  208.2  213.6  230.3  233.5  234.9  238.7  242.5  245.2
   247.9  260.1  272.6  277.7  285.9  290.7  296.9  298.0  318.2  322.7
   327.4  331.9  351.6  377.2  383.4  395.8  402.8  417.4  421.0  424.3
   427.2  437.5  443.6  451.8  453.7  462.2  465.3  472.5  482.0  493.1
   500.0  502.1  507.2  509.6  514.8  516.3  540.3  552.7  573.7  579.9
   581.1  581.9  599.9  602.7  623.3  628.8  630.4  652.7  660.9  667.5
   668.2  685.5  697.2  698.1  714.0  723.2  724.6  727.2  732.3  747.7
   749.3  753.4  757.0  763.1  769.4  784.3  785.8  798.8  804.3  812.9
   816.0  819.0  825.4  827.2  832.9  834.7  840.5  847.8  884.4  886.2
   899.5  902.8  903.4  904.1  904.4  927.4  943.8  952.4  953.6  955.5
   961.9  971.4  975.6  978.7  983.2  984.9  985.8  988.6  997.5 1006.8
  1032.3 1032.7 1067.6 1069.7 1080.5 1094.5 1097.8 1107.2 1133.3 1151.0
  1154.3 1155.0 1155.3 1161.6 1165.2 1165.7 1174.9 1190.0 1200.6 1203.0
  1216.1 1226.5 1229.3 1236.1 1236.6 1247.1 1252.6 1256.6 1271.0 1282.5
  1286.6 1295.8 1301.9 1321.1 1349.3 1355.4 1365.3 1365.8 1368.5 1373.7
  1381.9 1384.3 1393.8 1397.8 1398.7 1400.2 1402.7 1402.8 1411.8 1424.2
  1426.7 1428.2 1441.8 1451.9 1459.3 1470.2 1478.4 1484.1 1485.0 1485.3
  1486.2 1488.3 1489.8 1489.8 1491.4 1496.4 1499.6 1505.0 1506.5 1506.7
  1507.6 1516.3 1522.8 1523.6 1532.4 1549.1 1554.8 1559.6 1575.0 1589.2
  1615.8 1620.0 1622.9 1633.1 1638.1 1683.5 1719.5 1756.9 2013.7 3029.5
  3032.2 3032.2 3034.1 3035.5 3035.7 3086.8 3089.9 3098.7 3099.6 3103.4
  3104.0 3109.4 3109.6 3110.1 3111.4 3112.4 3131.6 3141.4 3176.3 3182.2
  3192.5 3192.9 3199.9 3200.3 3208.7 3208.8 3211.8 3222.3 3223.0 3245.3
  3290.5
 recalc symmetries=
                                                                       
                                                                       
                                                                       
                                                                       
                                                                       
                                                                       
                                                                       
                                                                       
                                                                       
                                                                       
                                                                       
                                                                       
                                                                       
                                                                       
                                                                       
                                                                       
                                                                       
                                                                       
                                                                       
                                                                       
                                                                       
                                                                       
                                                                       
                                                                       
                                                                       
                                                                       
        
 recalc freqs check OK
 Zero-point lengths:
 10.0000 10.0000 10.0000 10.0000 10.0000 10.0000 96.5849 76.6273 54.2370 50.1336
 43.8692 42.3299 34.6874 32.7303 31.9284 28.7997 27.6347 26.7796 26.1892 25.7767
 24.5467 23.7932 23.5190 21.4961 20.2389 19.9773 19.2087 19.0749 18.8283 17.7458
 17.5692 17.3593 17.1826 16.9610 16.3359 16.2226 16.1748 16.0447 15.9205 15.8331
 15.7440 15.3721 15.0157 14.8768 14.6619 14.5413 14.3881 14.3618 13.8972 13.8011
 13.7008 13.6072 13.2204 12.7648 12.6617 12.4609 12.3530 12.1341 12.0820 12.0359
 11.9945 11.8528 11.7704 11.6638 11.6391 11.5316 11.4928 11.4044 11.2926 11.1647
 11.0865 11.0638 11.0084 10.9822 10.9260 10.9108 10.6650 10.5449 10.3500 10.2951
 10.2845 10.2772 10.1218 10.0986  9.9297  9.8864  9.8738  9.7040  9.6434  9.5953
  9.5902  9.4689  9.3887  9.3827  9.2781  9.2189  9.2096  9.1935  9.1611  9.0664
  9.0568  9.0322  9.0106  8.9745  8.9373  8.8523  8.8440  8.7716  8.7413  8.6954
  8.6786  8.6628  8.6289  8.6198  8.5901  8.5809  8.5509  8.5143  8.3362  8.3278
  8.2658  8.2506  8.2480  8.2452  8.2433  8.1409  8.0695  8.0331  8.0282  8.0200
  7.9935  7.9544  7.9372  7.9246  7.9064  7.8996  7.8958  7.8847  7.8495  7.8130
  7.7162  7.7147  7.5874  7.5798  7.5420  7.4935  7.4824  7.4503  7.3643  7.3072
  7.2969  7.2947  7.2936  7.2738  7.2627  7.2611  7.2326  7.1866  7.1547  7.1477
  7.1091  7.0788  7.0706  7.0513  7.0497  7.0200  7.0047  6.9934  6.9539  6.9226
  6.9115  6.8870  6.8708  6.8208  6.7490  6.7338  6.7094  6.7082  6.7016  6.6887
  6.6689  6.6632  6.6405  6.6308  6.6288  6.6253  6.6194  6.6191  6.5980  6.5692
  6.5634  6.5600  6.5290  6.5061  6.4896  6.4657  6.4477  6.4352  6.4333  6.4326
  6.4307  6.4261  6.4230  6.4229  6.4194  6.4086  6.4018  6.3904  6.3873  6.3869
  6.3850  6.3665  6.3529  6.3513  6.3329  6.2987  6.2872  6.2776  6.2467  6.2188
  6.1674  6.1593  6.1539  6.1347  6.1253  6.0420  5.9786  5.9145  5.5245  4.5041
  4.5021  4.5021  4.5007  4.4997  4.4995  4.4621  4.4599  4.4536  4.4529  4.4502
  4.4498  4.4459  4.4457  4.4453  4.4445  4.4438  4.4301  4.4232  4.3988  4.3947
  4.3876  4.3874  4.3825  4.3823  4.3766  4.3765  4.3744  4.3673  4.3668  4.3518
  4.3218
 highest evec of mol 1
 -0.0000 -0.0000  0.0000
  0.0000  0.0000 -0.0000
 -0.0000 -0.0000  0.0000
  0.0001  0.0001 -0.0001
 -0.0001 -0.0002 -0.0001
  0.0000  0.0000 -0.0000
  0.0000  0.0002  0.0001
  0.0000 -0.0001 -0.0001
 -0.0001  0.0001  0.0002
  0.0000 -0.0005 -0.0003
 -0.0000  0.0005  0.0004
  0.0002 -0.0003 -0.0005
 -0.0004 -0.0001  0.0005
  0.0003 -0.0008 -0.0010
  0.0005  0.0008  0.0002
 -0.0003 -0.0006 -0.0000
  0.0010  0.0016 -0.0005
 -0.0061  0.0010  0.0063
  0.1932  0.2116 -0.0548
 -0.0025 -0.0116 -0.0048
 -0.0024 -0.0025  0.0002
 -0.0013 -0.0018  0.0001
 -0.0000  0.0003  0.0002
 -0.0000 -0.0002  0.0000
  0.0000  0.0000  0.0000
  0.0000  0.0001  0.0001
  0.0001 -0.0001 -0.0001
 -0.0003  0.0003  0.0004
  0.0008  0.0010  0.0001
  0.0005  0.0009  0.0004
  0.0003  0.0011  0.0001
 -0.0001 -0.0001 -0.0000
 -0.0000  0.0000  0.0000
 -0.0000 -0.0000  0.0000
  0.0001  0.0001 -0.0001
  0.0001  0.0001 -0.0000
  0.0000  0.0000 -0.0000
  0.0000  0.0000  0.0000
  0.0000  0.0000  0.0000
 -0.0015 -0.0020  0.0014
  0.0005  0.0056  0.0004
  0.0001  0.0007  0.0003
 -0.0002 -0.0002  0.0002
  0.0003  0.0005  0.0000
  0.0000 -0.0004 -0.0003
 -0.0001  0.0003  0.0004
 -0.0000 -0.0002 -0.0001
  0.0000  0.0002  0.0001
  0.0001 -0.0002 -0.0002
 -0.0001  0.0002  0.0003
 -0.0000 -0.0001 -0.0000
 -0.0000 -0.0000  0.0000
  0.0002  0.0001 -0.0002
  0.0000  0.0001 -0.0000
  0.0003  0.0002 -0.0003
  0.0000 -0.0000 -0.0000
  0.0000  0.0000 -0.0000
 -0.0000  0.0000 -0.0000
 -0.0001 -0.0001  0.0001
  0.0000  0.0000 -0.0000
 -0.0000 -0.0000 -0.0000
  0.0000 -0.0000  0.0000
 -0.0001 -0.0000  0.0002
  0.0001  0.0002 -0.0001
 -0.0006 -0.0001  0.0008
  0.0006  0.0009 -0.0003
 -0.6255 -0.7013  0.1775
  0.0003  0.0001 -0.0002
 -0.0001 -0.0000  0.0001
 -0.0006  0.0001 -0.0002
  0.0004 -0.0006 -0.0005
 -0.0017 -0.0032  0.0000
  0.0000 -0.0002  0.0005
 -0.0021 -0.0032 -0.0002
  0.0003 -0.0005 -0.0007
  0.0000 -0.0000 -0.0000
 -0.0003 -0.0003  0.0001
 -0.0000  0.0000 -0.0000
 -0.0001 -0.0002 -0.0000
  0.0000  0.0000  0.0000
  0.0000  0.0000 -0.0000
 -0.0000  0.0000  0.0000
 -0.0001 -0.0002 -0.0000
  0.0004  0.0003 -0.0006
 -0.0007 -0.0012  0.0002
  0.0001  0.0001 -0.0000
 -0.0002 -0.0003  0.0000
 generating redundant internal coords
         300        3600          87
 Adding extra bonds for z output only
           6           6           6           7           6           8
           6           6           6           6           6           6
           6           6           6           8           7           6
           6           6           6          16           6           6
           6           6           6           6           6           6
           6           6          16           6           6           6
           6           6           6           6           8           6
           6           6           6           6           6           6
           6           6           8           6           6           6
           6           1           1           1           1           1
           1           1           1           1           1           1
           1           1           1           1           1           1
           1           1           1           1           1           1
           1           1           1           1           1           1
           1           1           1
 search for int coords
   1 str   2   1   1.533
   2 str   3   2   1.533
   3 str   4   2   1.492
   4 str   5   4   1.404
   5 str   6   5   1.225
   6 str   7   5   1.472
   7 str   8   7   1.395
   8 str   9   8   1.383
   9 str  10   9   1.413
  10 str  11  10   1.448
  11 str  12  11   1.418
  12 str  13  12   1.373
  13 str  14  13   1.406
  14 str  15  14   1.443
  15 str  16  15   1.224
  16 str  17  15   1.444
  17 str  18  17   1.401
  18 str  19  18   1.402
  19 str  20  19   1.390
  20 str  21  20   1.396
  21 str  22  16   2.453
  22 str  22  18   1.778
  23 str  22  21   1.741
  24 str  23  21   1.416
  25 str  24  23   1.414
  26 str  25  24   1.373
  27 str  26  25   1.433
  28 str  27  26   1.410
  29 str  28  23   1.439
  30 str  28  27   1.373
  31 str  29  20   1.517
  32 str  29  28   1.533
  33 str  30  29   1.545
  34 str  31  29   1.544
  35 str  32  26   1.428
  36 str  33  32   1.735
  37 str  34  33   1.740
  38 str  35  34   1.376
  39 str  36  32   1.389
  40 str  36  35   1.410
  41 str  37  25   1.534
  42 str  37  36   1.518
  43 str  38  37   1.544
  44 str  39  37   1.545
  45 str  40  17   1.468
  46 str  41  40   1.217
  47 str  42  40   1.446
  48 str  43  42   1.408
  49 str  44  43   1.372
  50 str  45  44   1.418
  51 str  46  45   1.446
  52 str  47  46   1.413
  53 str  48  47   1.382
  54 str  49  48   1.396
  55 str  50   4   1.412
  56 str  50  49   1.470
  57 str  51  50   1.224
  58 str  52   7   1.411
  59 str  52  49   1.412
  60 str  53  10   1.427
  61 str  53  46   1.428
  62 str  53  52   1.434
  63 str  54  11   1.428
  64 str  54  45   1.429
  65 str  55  14   1.410
  66 str  55  42   1.412
  67 str  55  54   1.441
  68 str  56   1   1.094
  69 str  57   1   1.089
  70 str  58   1   1.093
  71 str  59   2   1.088
  72 str  60   3   1.089
  73 str  61   3   1.094
  74 str  62   3   1.093
  75 str  63   8   1.083
  76 str  64   9   1.081
  77 str  65  12   1.080
  78 str  66  13   1.082
  79 str  67  19   1.074
  80 str  68  24   1.084
  81 str  69  27   1.084
  82 str  70  30   1.092
  83 str  71  30   1.093
  84 str  72  30   1.092
  85 str  73  31   1.092
  86 str  74  31   1.092
  87 str  75  31   1.093
  88 str  76  34   1.079
  89 str  77  35   1.081
  90 str  78  38   1.092
  91 str  79  38   1.093
  92 str  80  38   1.093
  93 str  81  39   1.092
  94 str  82  39   1.093
  95 str  83  39   1.093
  96 str  84  43   1.082
  97 str  85  44   1.080
  98 str  86  47   1.081
  99 str  87  48   1.083
 nber stretches=          99
 100 ben   1   2   3
 101 prop tor   1   2   3  60
 102 prop tor   1   2   3  61
 103 prop tor   1   2   3  62
 104 ben   1   2   4
 105 prop tor   1   2   4   5
 106 prop tor   1   2   4  50
 107 ben   1   2  59
 108 ben   2   1  56
 109 ben   2   1  57
 110 ben   2   1  58
 111 ben   2   3  60
 112 ben   2   3  61
 113 ben   2   3  62
 114 ben   2   4   5
 115 prop tor   2   4   5   6
 116 prop tor   2   4   5   7
 117 ben   2   4  50
 118 prop tor   2   4  50  49
 119 prop tor   2   4  50  51
 120 ben   3   2   4
 121 prop tor   3   2   4   5
 122 prop tor   3   2   4  50
 123 ben   3   2  59
 124 prop tor   4   2   3  60
 125 prop tor   4   2   3  61
 126 prop tor   4   2   3  62
 127 ben   4   2  59
 128 ben   4   5   6
 129 ben   4   5   7
 130 prop tor   4   5   7   8
 131 prop tor   4   5   7  52
 132 ben   4  50  49
 133 ben   4  50  51
 134 ben   5   4  50
 135 prop tor   5   4  50  49
 136 prop tor   5   4  50  51
 137 ben   5   7   8
 138 prop tor   5   7   8   9
 139 prop tor   5   7   8  63
 140 ben   5   7  52
 141 prop tor   5   7  52  49
 142 prop tor   5   7  52  53
 143 ben   6   5   7
 144 prop tor   6   5   7   8
 145 prop tor   6   5   7  52
 146 ben   7   8   9
 147 prop tor   7   8   9  10
 148 prop tor   7   8   9  64
 149 ben   7   8  63
 150 ben   7  52  49
 151 ben   7  52  53
 152 prop tor   7  52  53  10
 153 prop tor   7  52  53  46
 154 ben   8   7  52
 155 prop tor   8   7  52  49
 156 prop tor   8   7  52  53
 157 ben   8   9  10
 158 prop tor   8   9  10  11
 159 prop tor   8   9  10  53
 160 ben   8   9  64
 161 ben   9   8  63
 162 ben   9  10  11
 163 prop tor   9  10  11  12
 164 prop tor   9  10  11  54
 165 ben   9  10  53
 166 prop tor   9  10  53  46
 167 prop tor   9  10  53  52
 168 ben  10   9  64
 169 ben  10  11  12
 170 prop tor  10  11  12  13
 171 prop tor  10  11  12  65
 172 ben  10  11  54
 173 prop tor  10  11  54  45
 174 prop tor  10  11  54  55
 175 ben  10  53  46
 176 ben  10  53  52
 177 ben  11  10  53
 178 prop tor  11  10  53  46
 179 prop tor  11  10  53  52
 180 ben  11  12  13
 181 prop tor  11  12  13  14
 182 prop tor  11  12  13  66
 183 ben  11  12  65
 184 ben  11  54  45
 185 ben  11  54  55
 186 prop tor  11  54  55  14
 187 prop tor  11  54  55  42
 188 ben  12  11  54
 189 prop tor  12  11  54  45
 190 prop tor  12  11  54  55
 191 ben  12  13  14
 192 prop tor  12  13  14  15
 193 prop tor  12  13  14  55
 194 ben  12  13  66
 195 ben  13  12  65
 196 ben  13  14  15
 197 prop tor  13  14  15  16
 198 prop tor  13  14  15  17
 199 ben  13  14  55
 200 prop tor  13  14  55  42
 201 prop tor  13  14  55  54
 202 ben  14  13  66
 203 ben  14  15  16
 204 prop tor  14  15  16  22
 205 ben  14  15  17
 206 prop tor  14  15  17  18
 207 prop tor  14  15  17  40
 208 ben  14  55  42
 209 ben  14  55  54
 210 ben  15  14  55
 211 prop tor  15  14  55  42
 212 prop tor  15  14  55  54
 213 ben  15  16  22
 214 prop tor  15  16  22  18
 215 prop tor  15  16  22  21
 216 ben  15  17  18
 217 prop tor  15  17  18  19
 218 prop tor  15  17  18  22
 219 ben  15  17  40
 220 prop tor  15  17  40  41
 221 prop tor  15  17  40  42
 222 ben  16  15  17
 223 prop tor  16  15  17  18
 224 prop tor  16  15  17  40
 225 ben  16  22  18
 226 ben  16  22  21
 227 prop tor  17  15  16  22
 228 ben  17  18  19
 229 prop tor  17  18  19  20
 230 prop tor  17  18  19  67
 231 ben  17  18  22
 232 prop tor  17  18  22  16
 233 prop tor  17  18  22  21
 234 ben  17  40  41
 235 ben  17  40  42
 236 prop tor  17  40  42  43
 237 prop tor  17  40  42  55
 238 ben  18  17  40
 239 prop tor  18  17  40  41
 240 prop tor  18  17  40  42
 241 ben  18  19  20
 242 prop tor  18  19  20  21
 243 prop tor  18  19  20  29
 244 ben  18  19  67
 245 ben  18  22  21
 246 ben  19  18  22
 247 prop tor  19  18  22  16
 248 prop tor  19  18  22  21
 249 ben  19  20  21
 250 prop tor  19  20  21  22
 251 prop tor  19  20  21  23
 252 ben  19  20  29
 253 prop tor  19  20  29  28
 254 prop tor  19  20  29  30
 255 prop tor  19  20  29  31
 256 ben  20  19  67
 257 ben  20  21  22
 258 prop tor  20  21  22  16
 259 prop tor  20  21  22  18
 260 ben  20  21  23
 261 prop tor  20  21  23  24
 262 prop tor  20  21  23  28
 263 ben  20  29  28
 264 ben  20  29  30
 265 prop tor  20  29  30  70
 266 prop tor  20  29  30  71
 267 prop tor  20  29  30  72
 268 ben  20  29  31
 269 prop tor  20  29  31  73
 270 prop tor  20  29  31  74
 271 prop tor  20  29  31  75
 272 ben  21  20  29
 273 prop tor  21  20  29  28
 274 prop tor  21  20  29  30
 275 prop tor  21  20  29  31
 276 ben  21  23  24
 277 prop tor  21  23  24  25
 278 prop tor  21  23  24  68
 279 ben  21  23  28
 280 prop tor  21  23  28  27
 281 prop tor  21  23  28  29
 282 prop tor  22  18  19  20
 283 prop tor  22  18  19  67
 284 ben  22  21  23
 285 prop tor  22  21  23  24
 286 prop tor  22  21  23  28
 287 prop tor  23  21  22  16
 288 prop tor  23  21  22  18
 289 ben  23  24  25
 290 prop tor  23  24  25  26
 291 prop tor  23  24  25  37
 292 ben  23  24  68
 293 ben  23  28  27
 294 ben  23  28  29
 295 prop tor  23  28  29  20
 296 prop tor  23  28  29  30
 297 prop tor  23  28  29  31
 298 ben  24  23  28
 299 prop tor  24  23  28  27
 300 prop tor  24  23  28  29
 301 ben  24  25  26
 302 prop tor  24  25  26  27
 303 prop tor  24  25  26  32
 304 ben  24  25  37
 305 prop tor  24  25  37  36
 306 prop tor  24  25  37  38
 307 prop tor  24  25  37  39
 308 ben  25  24  68
 309 ben  25  26  27
 310 prop tor  25  26  27  28
 311 prop tor  25  26  27  69
 312 ben  25  26  32
 313 prop tor  25  26  32  33
 314 prop tor  25  26  32  36
 315 ben  25  37  36
 316 ben  25  37  38
 317 prop tor  25  37  38  78
 318 prop tor  25  37  38  79
 319 prop tor  25  37  38  80
 320 ben  25  37  39
 321 prop tor  25  37  39  81
 322 prop tor  25  37  39  82
 323 prop tor  25  37  39  83
 324 ben  26  25  37
 325 prop tor  26  25  37  36
 326 prop tor  26  25  37  38
 327 prop tor  26  25  37  39
 328 ben  26  27  28
 329 prop tor  26  27  28  23
 330 prop tor  26  27  28  29
 331 ben  26  27  69
 332 ben  26  32  33
 333 prop tor  26  32  33  34
 334 ben  26  32  36
 335 prop tor  26  32  36  35
 336 prop tor  26  32  36  37
 337 ben  27  26  32
 338 prop tor  27  26  32  33
 339 prop tor  27  26  32  36
 340 ben  27  28  29
 341 prop tor  27  28  29  20
 342 prop tor  27  28  29  30
 343 prop tor  27  28  29  31
 344 prop tor  28  23  24  25
 345 prop tor  28  23  24  68
 346 ben  28  27  69
 347 ben  28  29  30
 348 prop tor  28  29  30  70
 349 prop tor  28  29  30  71
 350 prop tor  28  29  30  72
 351 ben  28  29  31
 352 prop tor  28  29  31  73
 353 prop tor  28  29  31  74
 354 prop tor  28  29  31  75
 355 prop tor  29  20  21  22
 356 prop tor  29  20  21  23
 357 ben  29  30  70
 358 ben  29  30  71
 359 ben  29  30  72
 360 ben  29  31  73
 361 ben  29  31  74
 362 ben  29  31  75
 363 ben  30  29  31
 364 prop tor  30  29  31  73
 365 prop tor  30  29  31  74
 366 prop tor  30  29  31  75
 367 prop tor  31  29  30  70
 368 prop tor  31  29  30  71
 369 prop tor  31  29  30  72
 370 prop tor  32  26  27  28
 371 prop tor  32  26  27  69
 372 ben  32  33  34
 373 prop tor  32  33  34  35
 374 prop tor  32  33  34  76
 375 ben  32  36  35
 376 ben  32  36  37
 377 prop tor  32  36  37  25
 378 prop tor  32  36  37  38
 379 prop tor  32  36  37  39
 380 ben  33  32  36
 381 prop tor  33  32  36  35
 382 prop tor  33  32  36  37
 383 ben  33  34  35
 384 prop tor  33  34  35  36
 385 prop tor  33  34  35  77
 386 ben  33  34  76
 387 ben  34  35  36
 388 prop tor  34  35  36  32
 389 prop tor  34  35  36  37
 390 ben  34  35  77
 391 ben  35  34  76
 392 ben  35  36  37
 393 prop tor  35  36  37  25
 394 prop tor  35  36  37  38
 395 prop tor  35  36  37  39
 396 prop tor  36  32  33  34
 397 ben  36  35  77
 398 ben  36  37  38
 399 prop tor  36  37  38  78
 400 prop tor  36  37  38  79
 401 prop tor  36  37  38  80
 402 ben  36  37  39
 403 prop tor  36  37  39  81
 404 prop tor  36  37  39  82
 405 prop tor  36  37  39  83
 406 prop tor  37  25  26  27
 407 prop tor  37  25  26  32
 408 ben  37  38  78
 409 ben  37  38  79
 410 ben  37  38  80
 411 ben  37  39  81
 412 ben  37  39  82
 413 ben  37  39  83
 414 ben  38  37  39
 415 prop tor  38  37  39  81
 416 prop tor  38  37  39  82
 417 prop tor  38  37  39  83
 418 prop tor  39  37  38  78
 419 prop tor  39  37  38  79
 420 prop tor  39  37  38  80
 421 prop tor  40  17  18  19
 422 prop tor  40  17  18  22
 423 ben  40  42  43
 424 prop tor  40  42  43  44
 425 prop tor  40  42  43  84
 426 ben  40  42  55
 427 prop tor  40  42  55  14
 428 prop tor  40  42  55  54
 429 ben  41  40  42
 430 prop tor  41  40  42  43
 431 prop tor  41  40  42  55
 432 ben  42  43  44
 433 prop tor  42  43  44  45
 434 prop tor  42  43  44  85
 435 ben  42  43  84
 436 ben  42  55  54
 437 ben  43  42  55
 438 prop tor  43  42  55  14
 439 prop tor  43  42  55  54
 440 ben  43  44  45
 441 prop tor  43  44  45  46
 442 prop tor  43  44  45  54
 443 ben  43  44  85
 444 ben  44  43  84
 445 ben  44  45  46
 446 prop tor  44  45  46  47
 447 prop tor  44  45  46  53
 448 ben  44  45  54
 449 prop tor  44  45  54  11
 450 prop tor  44  45  54  55
 451 ben  45  44  85
 452 ben  45  46  47
 453 prop tor  45  46  47  48
 454 prop tor  45  46  47  86
 455 ben  45  46  53
 456 prop tor  45  46  53  10
 457 prop tor  45  46  53  52
 458 ben  45  54  55
 459 prop tor  45  54  55  14
 460 prop tor  45  54  55  42
 461 ben  46  45  54
 462 prop tor  46  45  54  11
 463 prop tor  46  45  54  55
 464 ben  46  47  48
 465 prop tor  46  47  48  49
 466 prop tor  46  47  48  87
 467 ben  46  47  86
 468 ben  46  53  52
 469 ben  47  46  53
 470 prop tor  47  46  53  10
 471 prop tor  47  46  53  52
 472 ben  47  48  49
 473 prop tor  47  48  49  50
 474 prop tor  47  48  49  52
 475 ben  47  48  87
 476 ben  48  47  86
 477 ben  48  49  50
 478 prop tor  48  49  50   4
 479 prop tor  48  49  50  51
 480 ben  48  49  52
 481 prop tor  48  49  52   7
 482 prop tor  48  49  52  53
 483 ben  49  48  87
 484 ben  49  50  51
 485 ben  49  52  53
 486 prop tor  49  52  53  10
[...]
  29     freq=   173. Q=  0.004 lam=     0.0     freq=   172. Q=  0.066 lam=     0.4
  30     freq=   195. Q=  0.026 lam=     0.1     freq=   195. Q=  0.000 lam=     0.0
  31     freq=   199. Q=  0.135 lam=     1.8     freq=   196. Q=  0.125 lam=     1.5
  32     freq=   204. Q=  0.088 lam=     0.8     freq=   201. Q=  0.180 lam=     3.2
  33     freq=   208. Q=  0.160 lam=     2.7     freq=   208. Q=  0.210 lam=     4.6
  34     freq=   214. Q= -0.051 lam=     0.3     freq=   213. Q= -0.052 lam=     0.3
  35     freq=   230. Q= -0.003 lam=     0.0     freq=   230. Q= -0.003 lam=     0.0
  36     freq=   234. Q= -0.046 lam=     0.2     freq=   233. Q= -0.045 lam=     0.2
  37     freq=   235. Q= -0.005 lam=     0.0     freq=   235. Q= -0.009 lam=     0.0
  38     freq=   239. Q= -0.050 lam=     0.3     freq=   238. Q= -0.069 lam=     0.6
  39     freq=   242. Q= -0.002 lam=     0.0     freq=   242. Q= -0.008 lam=     0.0
  40     freq=   245. Q=  0.011 lam=     0.0     freq=   246. Q=  0.027 lam=     0.1
  41     freq=   248. Q=  0.293 lam=    10.7     freq=   248. Q=  0.299 lam=    11.1
  42     freq=   260. Q=  0.018 lam=     0.0     freq=   261. Q=  0.010 lam=     0.0
  43     freq=   273. Q=  0.128 lam=     2.2     freq=   272. Q=  0.172 lam=     4.0
  44     freq=   278. Q=  0.108 lam=     1.6     freq=   279. Q=  0.080 lam=     0.9
  45     freq=   286. Q=  0.018 lam=     0.0     freq=   285. Q=  0.144 lam=     2.9
  46     freq=   291. Q=  0.133 lam=     2.6     freq=   291. Q=  0.119 lam=     2.1
  47     freq=   297. Q= -0.002 lam=     0.0     freq=   296. Q= -0.057 lam=     0.5
  48     freq=   298. Q= -0.038 lam=     0.2     freq=   298. Q= -0.025 lam=     0.1
  49     freq=   318. Q= -0.036 lam=     0.2     freq=   317. Q= -0.016 lam=     0.0
  50     freq=   323. Q=  0.109 lam=     1.9     freq=   322. Q=  0.172 lam=     4.7
  51     freq=   327. Q= -0.190 lam=     5.9     freq=   327. Q= -0.060 lam=     0.6
  52     freq=   332. Q= -0.034 lam=     0.2     freq=   331. Q= -0.169 lam=     4.7
  53     freq=   352. Q= -0.039 lam=     0.3     freq=   353. Q= -0.077 lam=     1.0
  54     freq=   377. Q= -0.001 lam=     0.0     freq=   374. Q= -0.027 lam=     0.1
  55     freq=   383. Q= -0.019 lam=     0.1     freq=   375. Q= -0.014 lam=     0.0
  56     freq=   396. Q=  0.130 lam=     3.3     freq=   394. Q=  0.087 lam=     1.5
  57     freq=   403. Q= -0.134 lam=     3.6     freq=   401. Q= -0.135 lam=     3.7
  58     freq=   417. Q=  0.016 lam=     0.1     freq=   412. Q=  0.023 lam=     0.1
  59     freq=   421. Q=  0.049 lam=     0.5     freq=   414. Q=  0.010 lam=     0.0
  60     freq=   424. Q= -0.015 lam=     0.1     freq=   417. Q= -0.007 lam=     0.0
  61     freq=   427. Q=  0.048 lam=     0.5     freq=   426. Q=  0.007 lam=     0.0
  62     freq=   437. Q=  0.024 lam=     0.1     freq=   437. Q=  0.004 lam=     0.0
  63     freq=   444. Q= -0.003 lam=     0.0     freq=   443. Q= -0.022 lam=     0.1
  64     freq=   452. Q=  0.014 lam=     0.0     freq=   443. Q=  0.000 lam=     0.0
  65     freq=   454. Q=  0.001 lam=     0.0     freq=   454. Q=  0.009 lam=     0.0
  66     freq=   462. Q=  0.053 lam=     0.6     freq=   455. Q=  0.077 lam=     1.4
  67     freq=   465. Q= -0.037 lam=     0.3     freq=   458. Q= -0.107 lam=     2.6
  68     freq=   473. Q= -0.018 lam=     0.1     freq=   465. Q= -0.036 lam=     0.3
  69     freq=   482. Q=  0.055 lam=     0.7     freq=   471. Q=  0.064 lam=     1.0
  70     freq=   493. Q= -0.193 lam=     9.1     freq=   478. Q= -0.069 lam=     1.1
  71     freq=   500. Q= -0.115 lam=     3.3     freq=   482. Q= -0.226 lam=    12.4
  72     freq=   502. Q= -0.010 lam=     0.0     freq=   498. Q= -0.019 lam=     0.1
  73     freq=   507. Q= -0.140 lam=     4.9     freq=   502. Q= -0.000 lam=     0.0
  74     freq=   510. Q=  0.025 lam=     0.2     freq=   506. Q=  0.075 lam=     1.4
  75     freq=   515. Q= -0.020 lam=     0.1     freq=   510. Q= -0.006 lam=     0.0
  76     freq=   516. Q=  0.006 lam=     0.0     freq=   516. Q=  0.002 lam=     0.0
  77     freq=   540. Q= -0.101 lam=     2.8     freq=   540. Q= -0.129 lam=     4.5
  78     freq=   553. Q=  0.225 lam=    14.0     freq=   552. Q=  0.197 lam=    10.7
  79     freq=   574. Q=  0.152 lam=     6.6     freq=   564. Q=  0.058 lam=     0.9
  80     freq=   580. Q=  0.009 lam=     0.0     freq=   574. Q=  0.068 lam=     1.3
  81     freq=   581. Q= -0.016 lam=     0.1     freq=   580. Q= -0.017 lam=     0.1
  82     freq=   582. Q=  0.066 lam=     1.3     freq=   581. Q=  0.084 lam=     2.1
  83     freq=   600. Q=  0.039 lam=     0.5     freq=   593. Q=  0.028 lam=     0.2
  84     freq=   603. Q= -0.203 lam=    12.4     freq=   596. Q= -0.237 lam=    16.7
  85     freq=   623. Q=  0.016 lam=     0.1     freq=   623. Q=  0.098 lam=     3.0
  86     freq=   629. Q=  0.181 lam=    10.3     freq=   624. Q=  0.161 lam=     8.1
  87     freq=   630. Q= -0.097 lam=     3.0     freq=   629. Q= -0.045 lam=     0.6
  88     freq=   653. Q= -0.196 lam=    12.6     freq=   642. Q= -0.102 lam=     3.3
  89     freq=   661. Q= -0.010 lam=     0.0     freq=   656. Q= -0.055 lam=     1.0
  90     freq=   668. Q= -0.003 lam=     0.0     freq=   659. Q= -0.020 lam=     0.1
  91     freq=   668. Q=  0.025 lam=     0.2     freq=   666. Q=  0.007 lam=     0.0
  92     freq=   685. Q= -0.005 lam=     0.0     freq=   671. Q= -0.001 lam=     0.0
  93     freq=   697. Q=  0.113 lam=     4.5     freq=   673. Q=  0.005 lam=     0.0
  94     freq=   698. Q= -0.011 lam=     0.0     freq=   685. Q= -0.005 lam=     0.0
  95     freq=   714. Q= -0.025 lam=     0.2     freq=   703. Q= -0.076 lam=     2.0
  96     freq=   723. Q=  0.050 lam=     0.9     freq=   715. Q=  0.053 lam=     1.0
  97     freq=   725. Q= -0.023 lam=     0.2     freq=   718. Q= -0.004 lam=     0.0
  98     freq=   727. Q= -0.021 lam=     0.2     freq=   720. Q= -0.024 lam=     0.2
  99     freq=   732. Q= -0.002 lam=     0.0     freq=   731. Q= -0.021 lam=     0.2
 100     freq=   748. Q=  0.049 lam=     0.9     freq=   736. Q=  0.001 lam=     0.0
 101     freq=   749. Q= -0.151 lam=     8.6     freq=   745. Q= -0.113 lam=     4.8
 102     freq=   753. Q= -0.009 lam=     0.0     freq=   748. Q= -0.023 lam=     0.2
 103     freq=   757. Q=  0.010 lam=     0.0     freq=   753. Q=  0.003 lam=     0.0
 104     freq=   763. Q=  0.047 lam=     0.8     freq=   759. Q=  0.028 lam=     0.3
 105     freq=   769. Q= -0.018 lam=     0.1     freq=   768. Q= -0.008 lam=     0.0
 106     freq=   784. Q=  0.011 lam=     0.0     freq=   774. Q=  0.005 lam=     0.0
 107     freq=   786. Q=  0.008 lam=     0.0     freq=   781. Q=  0.008 lam=     0.0
 108     freq=   799. Q=  0.097 lam=     3.7     freq=   785. Q=  0.002 lam=     0.0
 109     freq=   804. Q=  0.018 lam=     0.1     freq=   804. Q=  0.012 lam=     0.1
 110     freq=   813. Q=  0.034 lam=     0.5     freq=   811. Q=  0.036 lam=     0.5
 111     freq=   816. Q= -0.002 lam=     0.0     freq=   813. Q= -0.015 lam=     0.1
 112     freq=   819. Q= -0.006 lam=     0.0     freq=   816. Q= -0.003 lam=     0.0
 113     freq=   825. Q=  0.044 lam=     0.8     freq=   825. Q=  0.034 lam=     0.5
 114     freq=   827. Q= -0.004 lam=     0.0     freq=   826. Q= -0.007 lam=     0.0
 115     freq=   833. Q= -0.010 lam=     0.0     freq=   831. Q= -0.068 lam=     1.9
 116     freq=   835. Q= -0.095 lam=     3.7     freq=   832. Q= -0.002 lam=     0.0
 117     freq=   841. Q=  0.000 lam=     0.0     freq=   837. Q=  0.002 lam=     0.0
 118     freq=   848. Q=  0.050 lam=     1.1     freq=   847. Q=  0.030 lam=     0.4
 119     freq=   884. Q=  0.060 lam=     1.6     freq=   864. Q=  0.015 lam=     0.1
 120     freq=   886. Q=  0.136 lam=     8.2     freq=   883. Q=  0.128 lam=     7.2
 121     freq=   900. Q= -0.002 lam=     0.0     freq=   892. Q= -0.003 lam=     0.0
 122     freq=   903. Q= -0.004 lam=     0.0     freq=   898. Q= -0.024 lam=     0.3
 123     freq=   903. Q= -0.041 lam=     0.8     freq=   900. Q= -0.001 lam=     0.0
 124     freq=   904. Q= -0.013 lam=     0.1     freq=   902. Q= -0.001 lam=     0.0
 125     freq=   904. Q=  0.003 lam=     0.0     freq=   904. Q=  0.000 lam=     0.0
 126     freq=   927. Q= -0.001 lam=     0.0     freq=   927. Q= -0.005 lam=     0.0
 127     freq=   944. Q= -0.000 lam=     0.0     freq=   943. Q= -0.000 lam=     0.0
 128     freq=   952. Q=  0.000 lam=     0.0     freq=   952. Q=  0.000 lam=     0.0
 129     freq=   954. Q= -0.000 lam=     0.0     freq=   953. Q= -0.001 lam=     0.0
 130     freq=   956. Q=  0.000 lam=     0.0     freq=   955. Q=  0.000 lam=     0.0
 131     freq=   962. Q=  0.046 lam=     1.0     freq=   961. Q=  0.025 lam=     0.3
 132     freq=   971. Q= -0.003 lam=     0.0     freq=   971. Q= -0.001 lam=     0.0
 133     freq=   976. Q=  0.001 lam=     0.0     freq=   975. Q=  0.002 lam=     0.0
 134     freq=   979. Q=  0.002 lam=     0.0     freq=   976. Q=  0.015 lam=     0.1
 135     freq=   983. Q= -0.011 lam=     0.1     freq=   979. Q= -0.018 lam=     0.2
 136     freq=   985. Q=  0.009 lam=     0.0     freq=   984. Q=  0.002 lam=     0.0
 137     freq=   986. Q=  0.051 lam=     1.3     freq=   988. Q=  0.013 lam=     0.1
 138     freq=   989. Q=  0.002 lam=     0.0     freq=   988. Q=  0.047 lam=     1.1
 139     freq=   997. Q=  0.013 lam=     0.1     freq=  1005. Q=  0.024 lam=     0.3
 140     freq=  1007. Q=  0.066 lam=     2.2     freq=  1009. Q=  0.068 lam=     2.3
 141     freq=  1032. Q= -0.000 lam=     0.0     freq=  1030. Q= -0.000 lam=     0.0
 142     freq=  1033. Q= -0.001 lam=     0.0     freq=  1032. Q= -0.001 lam=     0.0
 143     freq=  1068. Q=  0.048 lam=     1.2     freq=  1067. Q=  0.023 lam=     0.3
 144     freq=  1070. Q=  0.057 lam=     1.7     freq=  1076. Q=  0.011 lam=     0.1
 145     freq=  1080. Q=  0.035 lam=     0.7     freq=  1080. Q=  0.023 lam=     0.3
 146     freq=  1094. Q=  0.029 lam=     0.5     freq=  1087. Q=  0.049 lam=     1.3
 147     freq=  1098. Q= -0.070 lam=     2.7     freq=  1093. Q= -0.019 lam=     0.2
 148     freq=  1107. Q=  0.022 lam=     0.3     freq=  1103. Q=  0.077 lam=     3.3
 149     freq=  1133. Q= -0.102 lam=     5.9     freq=  1132. Q= -0.073 lam=     3.0
 150     freq=  1151. Q= -0.003 lam=     0.0     freq=  1149. Q= -0.005 lam=     0.0
 151     freq=  1154. Q= -0.002 lam=     0.0     freq=  1150. Q= -0.004 lam=     0.0
 152     freq=  1155. Q= -0.001 lam=     0.0     freq=  1151. Q= -0.000 lam=     0.0
 153     freq=  1155. Q=  0.000 lam=     0.0     freq=  1153. Q=  0.001 lam=     0.0
 154     freq=  1162. Q=  0.009 lam=     0.0     freq=  1155. Q=  0.000 lam=     0.0
 155     freq=  1165. Q= -0.002 lam=     0.0     freq=  1163. Q= -0.007 lam=     0.0
 156     freq=  1166. Q=  0.033 lam=     0.6     freq=  1164. Q=  0.000 lam=     0.0
 157     freq=  1175. Q=  0.000 lam=     0.0     freq=  1175. Q=  0.001 lam=     0.0
 158     freq=  1190. Q= -0.006 lam=     0.0     freq=  1189. Q= -0.003 lam=     0.0
 159     freq=  1201. Q=  0.028 lam=     0.5     freq=  1198. Q=  0.032 lam=     0.6
 160     freq=  1203. Q=  0.054 lam=     1.8     freq=  1201. Q=  0.022 lam=     0.3
 161     freq=  1216. Q= -0.003 lam=     0.0     freq=  1211. Q= -0.012 lam=     0.1
 162     freq=  1226. Q=  0.020 lam=     0.3     freq=  1217. Q=  0.011 lam=     0.1
 163     freq=  1229. Q=  0.071 lam=     3.1     freq=  1226. Q=  0.010 lam=     0.1
 164     freq=  1236. Q=  0.042 lam=     1.1     freq=  1227. Q=  0.010 lam=     0.1
 165     freq=  1237. Q=  0.020 lam=     0.2     freq=  1236. Q=  0.015 lam=     0.1
 166     freq=  1247. Q=  0.168 lam=    17.6     freq=  1241. Q=  0.223 lam=    30.7
 167     freq=  1253. Q=  0.146 lam=    13.3     freq=  1244. Q=  0.096 lam=     5.8
 168     freq=  1257. Q= -0.104 lam=     6.8     freq=  1251. Q= -0.047 lam=     1.4
 169     freq=  1271. Q=  0.007 lam=     0.0     freq=  1255. Q=  0.153 lam=    14.6
 170     freq=  1282. Q=  0.080 lam=     4.1     freq=  1279. Q=  0.100 lam=     6.4
 171     freq=  1287. Q=  0.044 lam=     1.2     freq=  1282. Q=  0.001 lam=     0.0
 172     freq=  1296. Q= -0.034 lam=     0.7     freq=  1288. Q= -0.034 lam=     0.7
 173     freq=  1302. Q= -0.001 lam=     0.0     freq=  1293. Q= -0.027 lam=     0.5
 174     freq=  1321. Q= -0.083 lam=     4.5     freq=  1299. Q= -0.002 lam=     0.0
 175     freq=  1349. Q=  0.087 lam=     5.1     freq=  1326. Q=  0.037 lam=     0.9
 176     freq=  1355. Q= -0.097 lam=     6.3     freq=  1329. Q= -0.132 lam=    11.6
 177     freq=  1365. Q=  0.001 lam=     0.0     freq=  1344. Q=  0.548 lam=   202.0
 178     freq=  1366. Q=  0.085 lam=     4.9     freq=  1361. Q=  0.018 lam=     0.2
 179     freq=  1368. Q= -0.125 lam=    10.8     freq=  1364. Q= -0.048 lam=     1.6
 180     freq=  1374. Q= -0.089 lam=     5.5     freq=  1366. Q= -0.107 lam=     7.8
 181     freq=  1382. Q= -0.489 lam=   165.5     freq=  1372. Q= -0.105 lam=     7.6
 182     freq=  1384. Q= -0.000 lam=     0.0     freq=  1384. Q= -0.000 lam=     0.0
 183     freq=  1394. Q= -0.144 lam=    14.4     freq=  1393. Q= -0.067 lam=     3.1
 184     freq=  1398. Q= -0.000 lam=     0.0     freq=  1397. Q= -0.013 lam=     0.1
 185     freq=  1399. Q= -0.061 lam=     2.6     freq=  1398. Q= -0.000 lam=     0.0
 186     freq=  1400. Q=  0.271 lam=    51.4     freq=  1400. Q=  0.008 lam=     0.0
 187     freq=  1403. Q=  0.002 lam=     0.0     freq=  1401. Q=  0.070 lam=     3.5
 188     freq=  1403. Q= -0.001 lam=     0.0     freq=  1403. Q= -0.003 lam=     0.0
 189     freq=  1412. Q= -0.002 lam=     0.0     freq=  1406. Q= -0.113 lam=     8.9
 190     freq=  1424. Q= -0.043 lam=     1.3     freq=  1411. Q= -0.001 lam=     0.0
 191     freq=  1427. Q=  0.049 lam=     1.7     freq=  1419. Q=  0.069 lam=     3.4
 192     freq=  1428. Q=  0.139 lam=    13.9     freq=  1426. Q=  0.024 lam=     0.4
 193     freq=  1442. Q=  0.001 lam=     0.0     freq=  1428. Q=  0.000 lam=     0.0
 194     freq=  1452. Q=  0.113 lam=     9.2     freq=  1439. Q=  0.125 lam=    11.3
 195     freq=  1459. Q=  0.010 lam=     0.1     freq=  1444. Q=  0.180 lam=    23.3
 196     freq=  1470. Q=  0.027 lam=     0.5     freq=  1464. Q=  0.037 lam=     1.0
 197     freq=  1478. Q= -0.003 lam=     0.0     freq=  1468. Q= -0.040 lam=     1.2
 198     freq=  1484. Q= -0.000 lam=     0.0     freq=  1475. Q= -0.004 lam=     0.0
 199     freq=  1485. Q= -0.001 lam=     0.0     freq=  1477. Q= -0.012 lam=     0.1
 200     freq=  1485. Q= -0.000 lam=     0.0     freq=  1483. Q= -0.004 lam=     0.0
 201     freq=  1486. Q=  0.034 lam=     0.9     freq=  1484. Q=  0.000 lam=     0.0
 202     freq=  1488. Q= -0.005 lam=     0.0     freq=  1484. Q= -0.001 lam=     0.0
 203     freq=  1490. Q=  0.000 lam=     0.0     freq=  1485. Q=  0.000 lam=     0.0
 204     freq=  1490. Q= -0.000 lam=     0.0     freq=  1486. Q= -0.020 lam=     0.3
 205     freq=  1491. Q= -0.007 lam=     0.0     freq=  1488. Q= -0.001 lam=     0.0
 206     freq=  1496. Q=  0.000 lam=     0.0     freq=  1490. Q=  0.024 lam=     0.4
 207     freq=  1500. Q= -0.125 lam=    11.6     freq=  1490. Q= -0.127 lam=    12.0
 208     freq=  1505. Q=  0.036 lam=     1.0     freq=  1496. Q=  0.002 lam=     0.0
 209     freq=  1506. Q= -0.051 lam=     1.9     freq=  1504. Q= -0.003 lam=     0.0
 210     freq=  1507. Q=  0.000 lam=     0.0     freq=  1505. Q=  0.011 lam=     0.1
 211     freq=  1508. Q= -0.139 lam=    14.7     freq=  1507. Q= -0.000 lam=     0.0
 212     freq=  1516. Q=  0.331 lam=    83.1     freq=  1513. Q=  0.020 lam=     0.3
 213     freq=  1523. Q=  0.045 lam=     1.5     freq=  1513. Q=  0.001 lam=     0.0
 214     freq=  1524. Q=  0.000 lam=     0.0     freq=  1524. Q=  0.000 lam=     0.0
 215     freq=  1532. Q= -0.117 lam=    10.4     freq=  1544. Q= -0.020 lam=     0.3
 216     freq=  1549. Q= -0.197 lam=    30.0     freq=  1557. Q= -0.349 lam=    94.7
 217     freq=  1555. Q=  0.013 lam=     0.1     freq=  1559. Q=  0.300 lam=    69.9
 218     freq=  1560. Q=  0.010 lam=     0.1     freq=  1574. Q=  0.013 lam=     0.1
 219     freq=  1575. Q=  0.003 lam=     0.0     freq=  1585. Q=  0.055 lam=     2.4
 220     freq=  1589. Q= -0.003 lam=     0.0     freq=  1588. Q= -0.192 lam=    29.3
 221     freq=  1616. Q=  0.000 lam=     0.0     freq=  1602. Q=  0.021 lam=     0.4
 222     freq=  1620. Q=  0.028 lam=     0.6     freq=  1615. Q=  0.003 lam=     0.0
 223     freq=  1623. Q= -0.001 lam=     0.0     freq=  1620. Q= -0.004 lam=     0.0
 224     freq=  1633. Q=  0.412 lam=   138.7     freq=  1634. Q=  0.123 lam=    12.3
 225     freq=  1638. Q= -0.298 lam=    72.9     freq=  1664. Q= -0.380 lam=   120.0
 226     freq=  1684. Q=  0.001 lam=     0.0     freq=  1682. Q=  0.002 lam=     0.0
 227     freq=  1719. Q= -0.003 lam=     0.0     freq=  1718. Q= -0.018 lam=     0.3
 228     freq=  1757. Q=  0.020 lam=     0.3     freq=  1745. Q=  0.029 lam=     0.8
 229     freq=  2014. Q=  0.025 lam=     0.6     freq=  1761. Q=  0.008 lam=     0.0
 230     freq=  3029. Q=  0.000 lam=     0.0     freq=  3029. Q=  0.000 lam=     0.0
 231     freq=  3032. Q=  0.000 lam=     0.0     freq=  3029. Q=  0.000 lam=     0.0
 232     freq=  3032. Q= -0.000 lam=     0.0     freq=  3032. Q= -0.006 lam=     0.1
 233     freq=  3034. Q= -0.000 lam=     0.0     freq=  3032. Q= -0.000 lam=     0.0
 234     freq=  3035. Q= -0.003 lam=     0.0     freq=  3034. Q= -0.000 lam=     0.0
 235     freq=  3036. Q=  0.004 lam=     0.0     freq=  3036. Q=  0.002 lam=     0.0
 236     freq=  3087. Q=  0.000 lam=     0.0     freq=  3086. Q=  0.000 lam=     0.0
 237     freq=  3090. Q=  0.000 lam=     0.0     freq=  3089. Q=  0.000 lam=     0.0
 238     freq=  3099. Q= -0.000 lam=     0.0     freq=  3095. Q= -0.000 lam=     0.0
 239     freq=  3100. Q=  0.000 lam=     0.0     freq=  3099. Q=  0.000 lam=     0.0
 240     freq=  3103. Q=  0.002 lam=     0.0     freq=  3099. Q=  0.004 lam=     0.0
 241     freq=  3104. Q= -0.004 lam=     0.0     freq=  3103. Q= -0.002 lam=     0.0
 242     freq=  3109. Q= -0.000 lam=     0.0     freq=  3109. Q= -0.000 lam=     0.0
 243     freq=  3110. Q= -0.000 lam=     0.0     freq=  3109. Q= -0.000 lam=     0.0
 244     freq=  3110. Q= -0.001 lam=     0.0     freq=  3111. Q= -0.000 lam=     0.0
 245     freq=  3111. Q= -0.001 lam=     0.0     freq=  3111. Q= -0.002 lam=     0.0
 246     freq=  3112. Q=  0.002 lam=     0.0     freq=  3112. Q=  0.001 lam=     0.0
 247     freq=  3131. Q= -0.000 lam=     0.0     freq=  3132. Q= -0.000 lam=     0.0
 248     freq=  3141. Q=  0.000 lam=     0.0     freq=  3141. Q=  0.000 lam=     0.0
 249     freq=  3176. Q=  0.006 lam=     0.0     freq=  3174. Q=  0.005 lam=     0.0
 250     freq=  3182. Q=  0.000 lam=     0.0     freq=  3183. Q=  0.003 lam=     0.0
 251     freq=  3192. Q= -0.000 lam=     0.0     freq=  3192. Q= -0.000 lam=     0.0
 252     freq=  3193. Q= -0.000 lam=     0.0     freq=  3192. Q= -0.000 lam=     0.0
 253     freq=  3200. Q=  0.000 lam=     0.0     freq=  3199. Q=  0.000 lam=     0.0
 254     freq=  3200. Q=  0.000 lam=     0.0     freq=  3200. Q=  0.000 lam=     0.0
 255     freq=  3209. Q= -0.000 lam=     0.0     freq=  3208. Q= -0.000 lam=     0.0
 256     freq=  3209. Q= -0.000 lam=     0.0     freq=  3208. Q= -0.000 lam=     0.0
 257     freq=  3212. Q= -0.001 lam=     0.0     freq=  3217. Q= -0.000 lam=     0.0
 258     freq=  3222. Q= -0.000 lam=     0.0     freq=  3221. Q= -0.000 lam=     0.0
 259     freq=  3223. Q= -0.001 lam=     0.0     freq=  3222. Q= -0.001 lam=     0.0
 260     freq=  3245. Q=  0.007 lam=     0.1     freq=  3250. Q=  0.008 lam=     0.1
 261     freq=  3290. Q= -0.002 lam=     0.0     freq=  3285. Q= -0.002 lam=     0.0

 total reorg energy (cm**-1, kcal/mol)=      950.      901.      2.72      2.57
 Nber of molecules processed=           2
