 Enter ifcurve (0=recti, 1=orth curvi, 2=apprx curvi, -1 = skip
 And atom ordering flag, 0= never changes, 1= use the first order thenceforth,
  2= deduce it (does read on fail), 3= always read it
 Reading file: 
 ./conjugated_carbonyls_3_C0S0.log                                              
                                          
  Entering Gaussian System, Link 0=g16                                          
  
 Gaussian format, type: g94, g98, g03= F F F
  #P Geom=AllCheck Guess=TCheck SCRF=Check Test GenChk RB3LYP/6-311G(d,p    
 energy type= B3LYP   
 Original G94 input coords:
  8  1.363872 -3.241482  0.000000
  6  0.774434 -2.183936  0.000002
  6 -0.774434 -2.183936 -0.000002
  8 -1.363872 -3.241482  0.000000
  6 -1.464708 -0.870129  0.000000
  6 -2.864388 -0.871146  0.000000
  6 -3.574096  0.319070  0.000000
  6 -2.873340  1.525088  0.000000
  6 -1.483544  1.535933  0.000000
  6 -0.742396  0.344520  0.000000
  6  0.742396  0.344520  0.000000
  6  1.483544  1.535933  0.000000
  6  2.873340  1.525088  0.000000
  6  3.574096  0.319070  0.000000
  6  2.864388 -0.871146  0.000000
  6  1.464708 -0.870129  0.000000
  1 -3.367417 -1.830241 -0.000001
  1 -4.657587  0.312973  0.000000
  1 -3.411718  2.466109  0.000001
  1 -0.980437  2.493241  0.000000
  1  0.980437  2.493241  0.000000
  1  3.411718  2.466109 -0.000001
  1  4.657587  0.312973  0.000000
  1  3.367417 -1.830241  0.000001
 nber atoms=          24
  SCF Done:  E(RB3LYP) =  -688.925185200     A.U. after    1 cycles             
  
          23          40 "  -688.925185200"
After scan for Atom:   Atom  AN      X      Y      Z        X      Y      Z        X      Y      Z   
After scan for Atom:   Atom  AN      X      Y      Z        X      Y      Z        X      Y      Z   
After scan for Atom:   Atom  AN      X      Y      Z        X      Y      Z        X      Y      Z   
After scan for Atom:   Atom  AN      X      Y      Z        X      Y      Z        X      Y      Z   
After scan for Atom:   Atom  AN      X      Y      Z        X      Y      Z        X      Y      Z   
After scan for Atom:   Atom  AN      X      Y      Z        X      Y      Z        X      Y      Z   
After scan for Atom:   Atom  AN      X      Y      Z        X      Y      Z        X      Y      Z   
After scan for Atom:   Atom  AN      X      Y      Z        X      Y      Z        X      Y      Z   
After scan for Atom:   Atom  AN      X      Y      Z        X      Y      Z        X      Y      Z   
After scan for Atom:   Atom  AN      X      Y      Z        X      Y      Z        X      Y      Z   
After scan for Atom:   Atom  AN      X      Y      Z        X      Y      Z        X      Y      Z   
After scan for Atom:   Atom  AN      X      Y      Z        X      Y      Z        X      Y      Z   
After scan for Atom:   Atom  AN      X      Y      Z        X      Y      Z        X      Y      Z   
After scan for Atom:   Atom  AN      X      Y      Z        X      Y      Z        X      Y      Z   
After scan for Atom:   Atom  AN      X      Y      Z        X      Y      Z        X      Y      Z   
After scan for Atom:   Atom  AN      X      Y      Z        X      Y      Z        X      Y      Z   
After scan for Atom:   Atom  AN      X      Y      Z        X      Y      Z        X      Y      Z   
After scan for Atom:   Atom  AN      X      Y      Z        X      Y      Z        X      Y      Z   
After scan for Atom:   Atom  AN      X      Y      Z        X      Y      Z        X      Y      Z   
After scan for Atom:   Atom  AN      X      Y      Z        X      Y      Z        X      Y      Z   
After scan for Atom:   Atom  AN      X      Y      Z        X      Y      Z        X      Y      Z   
After scan for Atom:   Atom  AN      X      Y      Z        X      Y      Z        X      Y      Z   
 g94    frequencies=
     0.0    0.0    0.0    0.0    0.0    0.0   25.0   84.6  101.7  151.9
   243.0  259.0  318.7  366.1  386.1  389.2  401.2  430.6  448.9  463.2
   555.6  566.1  616.5  630.7  682.7  692.6  718.0  744.1  781.2  796.2
   797.0  843.9  897.1  905.4  937.0  981.7  988.2 1015.9 1016.3 1021.6
  1021.8 1072.2 1080.3 1113.6 1140.5 1186.3 1193.8 1239.3 1249.4 1289.7
  1301.7 1312.1 1333.5 1358.0 1471.3 1481.9 1508.2 1527.4 1601.9 1621.9
  1634.0 1641.4 1751.6 1776.5 3170.5 3171.5 3185.4 3186.9 3197.5 3201.6
  3202.3 3213.5
 g94    symmetries=
                                                 A      A      A      A
       A      A      A      A      A      A      A      A      A      A
       A      A      A      A      A      A      A      A      A      A
       A      A      A      A      A      A      A      A      A      A
       A      A      A      A      A      A      A      A      A      A
       A      A      A      A      A      A      A      A      A      A
       A      A      A      A      A      A      A      A      A      A
       A      A
 atomic masses:
 15.9949 12.0000 12.0000 15.9949 12.0000 12.0000 12.0000 12.0000 12.0000 12.0000
 12.0000 12.0000 12.0000 12.0000 12.0000 12.0000  1.0078  1.0078  1.0078  1.0078
  1.0078  1.0078  1.0078  1.0078
 looking for force constants in 
 ./conjugated_carbonyls_3_C0S0.fchk                                             
  
 Cartesian Force Constants                  R   N=        2628                  
  
 n3=          72        2628
 g94-fc frequencies=
    -4.1   -4.1   -1.9   -0.0   -0.0    0.0   25.0   84.6  101.7  151.9
   243.0  259.0  318.7  366.1  386.1  389.2  401.2  430.6  448.9  463.2
   555.6  566.1  616.5  630.7  682.7  692.6  718.0  744.2  781.2  796.3
   797.0  843.9  897.1  905.5  937.0  981.7  988.3 1015.9 1016.3 1021.7
  1021.9 1072.2 1080.3 1113.6 1140.5 1186.3 1193.9 1239.4 1249.4 1289.7
  1301.7 1312.1 1333.6 1358.0 1471.4 1481.9 1508.2 1527.5 1601.9 1621.9
  1634.0 1641.4 1751.7 1776.6 3170.5 3171.6 3185.4 3187.0 3197.6 3201.6
  3202.4 3213.6
 at 99999: n3=          72
 symm operator            1 :  F  nop=           0
 symm operator            2 :  T  nop=           1
 symm operator            3 :  F  nop=           1
 symm operator            4 :  F  nop=           1
 symm operator            5 :  T  nop=           2
 symm operator            6 :  F  nop=           2
 symm operator            7 :  T  nop=           3
 swap           2           3
   1   1.36387   0.00000  -3.24148
   2   0.77443   0.00000  -2.18394
   3  -0.77443  -0.00000  -2.18394
   4  -1.36387   0.00000  -3.24148
   5  -1.46471   0.00000  -0.87013
   6  -2.86439   0.00000  -0.87115
   7  -3.57410   0.00000   0.31907
   8  -2.87334   0.00000   1.52509
   9  -1.48354   0.00000   1.53593
  10  -0.74240   0.00000   0.34452
  11   0.74240   0.00000   0.34452
  12   1.48354   0.00000   1.53593
  13   2.87334   0.00000   1.52509
  14   3.57410   0.00000   0.31907
  15   2.86439   0.00000  -0.87115
  16   1.46471   0.00000  -0.87013
  17  -3.36742  -0.00000  -1.83024
  18  -4.65759   0.00000   0.31297
  19  -3.41172   0.00000   2.46611
  20  -0.98044   0.00000   2.49324
  21   0.98044   0.00000   2.49324
  22   3.41172  -0.00000   2.46611
  23   4.65759   0.00000   0.31297
  24   3.36742   0.00000  -1.83024
 The point group of the molecule is C2V
 enforcing symm op           1  jsymt=          -1          -1           1
 enforcing symm op           6  jsymt=           1          -1           1
 enforcing symm op           7  jsymt=          -1           1           1
 cartesian coord symmetries:
 A1 :   24 A2 :   12 B1 :   24 B2 :   12
 Symmetry rotation matrix:
   1.00000   0.00000   0.00000
   0.00000   0.00000   1.00000
   0.00000  -1.00000   0.00000

 Projecting out zero-frequency components
 generating redundant internal coords
         300        3600          24
 search for int coords
   1 str   2   1   1.211
   2 str   3   2   1.549
   3 str   4   3   1.211
   4 str   5   3   1.484
   5 str   6   5   1.400
   6 str   7   6   1.386
   7 str   8   7   1.395
   8 str   9   8   1.390
   9 str  10   5   1.413
  10 str  10   9   1.403
  11 str  11  10   1.485
  12 str  12  11   1.403
  13 str  13  12   1.390
  14 str  14  13   1.395
  15 str  15  14   1.386
  16 str  16   2   1.484
  17 str  16  11   1.413
  18 str  16  15   1.400
  19 str  17   6   1.083
  20 str  18   7   1.084
  21 str  19   8   1.084
  22 str  20   9   1.081
  23 str  21  12   1.081
  24 str  22  13   1.084
  25 str  23  14   1.084
  26 str  24  15   1.083
 nber stretches=          26
  27 ben   1   2   3
  28 prop tor   1   2   3   4
  29 prop tor   1   2   3   5
  30 ben   1   2  16
  31 prop tor   1   2  16  11
  32 prop tor   1   2  16  15
  33 ben   2   3   4
  34 ben   2   3   5
  35 prop tor   2   3   5   6
  36 prop tor   2   3   5  10
  37 ben   2  16  11
  38 ben   2  16  15
  39 ben   3   2  16
  40 prop tor   3   2  16  11
  41 prop tor   3   2  16  15
  42 ben   3   5   6
  43 prop tor   3   5   6   7
  44 prop tor   3   5   6  17
  45 ben   3   5  10
  46 prop tor   3   5  10   9
  47 prop tor   3   5  10  11
  48 ben   4   3   5
  49 prop tor   4   3   5   6
  50 prop tor   4   3   5  10
  51 ben   5   6   7
  52 prop tor   5   6   7   8
  53 prop tor   5   6   7  18
  54 ben   5   6  17
  55 ben   5  10   9
  56 ben   5  10  11
  57 prop tor   5  10  11  12
  58 prop tor   5  10  11  16
  59 ben   6   5  10
  60 prop tor   6   5  10   9
  61 prop tor   6   5  10  11
  62 ben   6   7   8
  63 prop tor   6   7   8   9
  64 prop tor   6   7   8  19
  65 ben   6   7  18
  66 ben   7   6  17
  67 ben   7   8   9
  68 prop tor   7   8   9  10
  69 prop tor   7   8   9  20
  70 ben   7   8  19
  71 ben   8   7  18
  72 ben   8   9  10
  73 prop tor   8   9  10   5
  74 prop tor   8   9  10  11
  75 ben   8   9  20
  76 ben   9   8  19
  77 ben   9  10  11
  78 prop tor   9  10  11  12
  79 prop tor   9  10  11  16
  80 prop tor  10   5   6   7
  81 prop tor  10   5   6  17
  82 ben  10   9  20
  83 ben  10  11  12
  84 prop tor  10  11  12  13
  85 prop tor  10  11  12  21
  86 ben  10  11  16
  87 prop tor  10  11  16   2
  88 prop tor  10  11  16  15
  89 ben  11  12  13
  90 prop tor  11  12  13  14
  91 prop tor  11  12  13  22
  92 ben  11  12  21
  93 ben  11  16  15
  94 ben  12  11  16
  95 prop tor  12  11  16   2
  96 prop tor  12  11  16  15
  97 ben  12  13  14
  98 prop tor  12  13  14  15
  99 prop tor  12  13  14  23
 100 ben  12  13  22
 101 ben  13  12  21
 102 ben  13  14  15
 103 prop tor  13  14  15  16
 104 prop tor  13  14  15  24
 105 ben  13  14  23
 106 ben  14  13  22
 107 ben  14  15  16
 108 prop tor  14  15  16   2
 109 prop tor  14  15  16  11
 110 ben  14  15  24
 111 ben  15  14  23
 112 prop tor  16   2   3   4
 113 prop tor  16   2   3   5
 114 prop tor  16  11  12  13
 115 prop tor  16  11  12  21
 116 ben  16  15  24
 117 prop tor  17   6   7   8
 118 prop tor  17   6   7  18
 119 prop tor  18   7   8   9
 120 prop tor  18   7   8  19
 121 prop tor  19   8   9  10
 122 prop tor  19   8   9  20
 123 prop tor  20   9  10   5
 124 prop tor  20   9  10  11
 125 prop tor  21  12  13  14
 126 prop tor  21  12  13  22
 127 prop tor  22  13  14  15
 128 prop tor  22  13  14  23
 129 prop tor  23  14  15  16
 130 prop tor  23  14  15  24
 131 prop tor  24  15  16   2
 132 prop tor  24  15  16  11
 nber bend=              42
 nber lin bend=           0
 nber prop tor=          64
 nber impr tor=           0
 nber tot redund int=         132
 Eigenvalues of G in red int coords
    Gval -0.00000000 -0.00000000 -0.00000000 -0.00000000 -0.00000000 -0.00000000 -0.00000000 -0.00000000
    Gval -0.00000000 -0.00000000 -0.00000000 -0.00000000 -0.00000000 -0.00000000 -0.00000000 -0.00000000
    Gval -0.00000000 -0.00000000 -0.00000000 -0.00000000 -0.00000000 -0.00000000 -0.00000000 -0.00000000
    Gval -0.00000000 -0.00000000 -0.00000000 -0.00000000 -0.00000000 -0.00000000 -0.00000000 -0.00000000
    Gval -0.00000000  0.00000000  0.00000000  0.00000000  0.00000000  0.00000000  0.00000000  0.00000000
    Gval  0.00000000  0.00000000  0.00000000  0.00000000  0.00000000  0.00000000  0.00000000  0.00000000
    Gval  0.00000000  0.00000000  0.00000000  0.00000000  0.00000000  0.00000000  0.00000000  0.00000000
    Gval  0.00000000  0.00000000  0.00000000  0.00000000  0.00000000  0.00000000  0.00000000  0.00000000
    Gval  0.00000000  0.00000000  0.00000686  0.00001102  0.00001192  0.00002011  0.00002200  0.00002623
    Gval  0.00003533  0.00004721  0.00004769  0.00004991  0.00005493  0.00005972  0.00006099  0.00007802
    Gval  0.00007842  0.00009775  0.00010118  0.00010940  0.00011330  0.00012793  0.00013005  0.00013491
    Gval  0.00015730  0.00020249  0.00023305  0.00026167  0.00026729  0.00029708  0.00031705  0.00037571
    Gval  0.00038107  0.00041828  0.00042011  0.00044024  0.00044636  0.00059320  0.00059324  0.00059736
    Gval  0.00059748  0.00061794  0.00062180  0.00062389  0.00065570  0.00065581  0.00068851  0.00089579
    Gval  0.00095020  0.00105465  0.00105574  0.00112174  0.00112207  0.00116069  0.00116086  0.00117396
    Gval  0.00117401  0.00118290  0.00167668  0.00183216  0.00186191  0.00216513  0.00264063  0.00281010
    Gval  0.00348561  0.00353633  0.00403128  0.00403475
  6.861249812505296E-006  6.861249812505296E-006
  1.102223483684036E-005  6.861249812505296E-006
  1.191807535952632E-005  6.861249812505296E-006
  2.010988833846924E-005  6.861249812505296E-006
  2.199979824408360E-005  6.861249812505296E-006
  2.622681071061957E-005  6.861249812505296E-006
  3.533032500857165E-005  6.861249812505296E-006
  4.720554796874094E-005  6.861249812505296E-006
  4.769261104030395E-005  6.861249812505296E-006
  4.991446427121520E-005  6.861249812505296E-006
  5.493236292850078E-005  6.861249812505296E-006
  5.971914301409298E-005  6.861249812505296E-006
  6.098741194842109E-005  6.861249812505296E-006
  7.802099092399766E-005  6.861249812505296E-006
  7.842196694045396E-005  6.861249812505296E-006
  9.774726383582650E-005  6.861249812505296E-006
  1.011808948502924E-004  6.861249812505296E-006
  1.093959268487255E-004  6.861249812505296E-006
  1.132975316400361E-004  6.861249812505296E-006
  1.279288471023734E-004  6.861249812505296E-006
  1.300454170294308E-004  6.861249812505296E-006
  1.349097833164786E-004  6.861249812505296E-006
  1.573030421394315E-004  6.861249812505296E-006
  2.024939795840825E-004  6.861249812505296E-006
  2.330485394528793E-004  6.861249812505296E-006
  2.616746095145004E-004  6.861249812505296E-006
  2.672853484288952E-004  6.861249812505296E-006
  2.970752677391333E-004  6.861249812505296E-006
  3.170478218935972E-004  6.861249812505296E-006
  3.757058096367059E-004  6.861249812505296E-006
  3.810661669016695E-004  6.861249812505296E-006
  4.182832710540819E-004  6.861249812505296E-006
  4.201103553610504E-004  6.861249812505296E-006
  4.402359220556926E-004  6.861249812505296E-006
  4.463613452227096E-004  6.861249812505296E-006
  5.932025642483152E-004  6.861249812505296E-006
  5.932427744800813E-004  6.861249812505296E-006
  5.973552035254136E-004  6.861249812505296E-006
  5.974806978432884E-004  6.861249812505296E-006
  6.179402004447021E-004  6.861249812505296E-006
  6.218004641894865E-004  6.861249812505296E-006
  6.238916821723503E-004  6.861249812505296E-006
  6.557027369305868E-004  6.861249812505296E-006
  6.558066568498977E-004  6.861249812505296E-006
  6.885119024405994E-004  6.861249812505296E-006
  8.957910566832952E-004  6.861249812505296E-006
  9.501968951594249E-004  6.861249812505296E-006
  1.054649163262470E-003  6.861249812505296E-006
  1.055742568939618E-003  6.861249812505296E-006
  1.121740124264401E-003  6.861249812505296E-006
  1.122071441940284E-003  6.861249812505296E-006
  1.160686377734766E-003  6.861249812505296E-006
  1.160856351532661E-003  6.861249812505296E-006
  1.173955539250099E-003  6.861249812505296E-006
  1.174007859396036E-003  6.861249812505296E-006
  1.182901646988172E-003  6.861249812505296E-006
  1.676677452286809E-003  6.861249812505296E-006
  1.832160124691505E-003  6.861249812505296E-006
  1.861909945493822E-003  6.861249812505296E-006
  2.165126016804277E-003  6.861249812505296E-006
  2.640634123806550E-003  6.861249812505296E-006
  2.810101086752139E-003  6.861249812505296E-006
  3.485608871373759E-003  6.861249812505296E-006
  3.536326148084063E-003  6.861249812505296E-006
  4.031280965335627E-003  6.861249812505296E-006
  4.034754860549770E-003  6.861249812505296E-006
 cut=1d-8, nber non-redundant internal coords=          66
 Check on Eigenvals of non-red overlap matrix:
  0.00000686  0.00001102  0.00001192  0.00002011  0.00002200  0.00002623  0.00003533  0.00004721
  0.00004769  0.00004991  0.00005493  0.00005972  0.00006099  0.00007802  0.00007842  0.00009775
  0.00010118  0.00010940  0.00011330  0.00012793  0.00013005  0.00013491  0.00015730  0.00020249
  0.00023305  0.00026167  0.00026729  0.00029708  0.00031705  0.00037571  0.00038107  0.00041828
  0.00042011  0.00044024  0.00044636  0.00059320  0.00059324  0.00059736  0.00059748  0.00061794
  0.00062180  0.00062389  0.00065570  0.00065581  0.00068851  0.00089579  0.00095020  0.00105465
  0.00105574  0.00112174  0.00112207  0.00116069  0.00116086  0.00117396  0.00117401  0.00118290
  0.00167668  0.00183216  0.00186191  0.00216513  0.00264063  0.00281010  0.00348561  0.00353633
  0.00403128  0.00403475
 Checking for correct frequencies
 recalc frequencies=
    -0.0   -0.0    0.0    0.0    0.0    0.0   25.0   84.6  101.7  151.9
   243.0  259.0  318.7  366.1  386.1  389.2  401.2  430.6  448.9  463.2
   555.6  566.1  616.5  630.7  682.7  692.6  718.0  744.2  781.2  796.3
   797.0  843.9  897.1  905.5  937.0  981.7  988.3 1015.9 1016.3 1021.7
  1021.9 1072.2 1080.3 1113.6 1140.5 1186.3 1193.9 1239.4 1249.4 1289.7
  1301.7 1312.1 1333.6 1358.0 1471.4 1481.9 1508.2 1527.5 1601.9 1621.9
  1634.0 1641.4 1751.7 1776.6 3170.5 3171.6 3185.4 3187.0 3197.6 3201.6
  3202.4 3213.6
 recalc symmetries=
     B2     A1     B1     B1     A2     B2     A2     B2     A2     B2 
     A1     A2     B1     A1     B2     B1     A1     A2     B2     A1 
     B2     A2     B1     B1     B1     A1     A2     B2     B2     A1 
     A2     A2     B2     A2     B1     A2     B2     B2     A2     A1 
     B1     B1     A1     A1     B1     B1     A1     B1     A1     A1 
     B1     A1     B1     A1     A1     B1     B1     A1     A1     B1 
     A1     B1     A1     B1     B1     A1     B1     A1     B1     A1 
     B1     A1 
 recalc freqs check OK
 Zero-point lengths:
 10.0000 10.0000 10.0000 10.0000 10.0000 10.0000 49.5673 26.9511 24.5823 20.1173
 15.9043 15.4053 13.8862 12.9560 12.6161 12.5666 12.3774 11.9465 11.7006 11.5191
 10.5178 10.4194  9.9845  9.8713  9.4883  9.4200  9.2521  9.0879  8.8699  8.7856
  8.7814  8.5341  8.2768  8.2387  8.0989  7.9122  7.8860  7.7781  7.7765  7.7561
  7.7553  7.5711  7.5426  7.4290  7.3408  7.1977  7.1750  7.0420  7.0137  6.9031
  6.8714  6.8441  6.7887  6.7274  6.4630  6.4399  6.3835  6.3432  6.1940  6.1557
  6.1329  6.1191  5.9234  5.8817  4.4028  4.4021  4.3925  4.3914  4.3841  4.3814
  4.3809  4.3732
 highest evec of mol 1
  0.0003  0.0000  0.0005
 -0.0000  0.0000 -0.0007
  0.0000  0.0000 -0.0007
 -0.0003  0.0000  0.0005
  0.0002  0.0000 -0.0014
  0.0080  0.0000 -0.0172
  0.0197  0.0000 -0.0023
  0.0304  0.0000  0.0436
 -0.0917  0.0000  0.1706
 -0.0038  0.0000 -0.0027
  0.0038  0.0000 -0.0027
  0.0917  0.0000  0.1706
 -0.0304  0.0000  0.0436
 -0.0197  0.0000 -0.0023
 -0.0080  0.0000 -0.0172
 -0.0002  0.0000 -0.0014
 -0.0286  0.0000  0.0536
 -0.0589  0.0000  0.0013
 -0.0814  0.0000 -0.1389
  0.3124  0.0000 -0.5729
 -0.3124  0.0000 -0.5729
  0.0814  0.0000 -0.1389
  0.0589  0.0000  0.0013
  0.0286  0.0000  0.0536
 generating redundant internal coords
         300        3600          24
 Adding extra bonds for z output only
           8           6           6           8           6           6
           6           6           6           6           6           6
           6           6           6           6           1           1
           1           1           1           1           1           1
 search for int coords
   1 str   2   1   1.211
   2 str   3   2   1.549
   3 str   4   3   1.211
   4 str   5   3   1.484
   5 str   6   5   1.400
   6 str   7   6   1.386
   7 str   8   7   1.395
   8 str   9   8   1.390
   9 str  10   5   1.413
  10 str  10   9   1.403
  11 str  11  10   1.485
  12 str  12  11   1.403
  13 str  13  12   1.390
  14 str  14  13   1.395
  15 str  15  14   1.386
  16 str  16   2   1.484
  17 str  16  11   1.413
  18 str  16  15   1.400
  19 str  17   6   1.083
  20 str  18   7   1.084
  21 str  19   8   1.084
  22 str  20   9   1.081
  23 str  21  12   1.081
  24 str  22  13   1.084
  25 str  23  14   1.084
  26 str  24  15   1.083
 nber stretches=          26
  27 ben   1   2   3
  28 prop tor   1   2   3   4
  29 prop tor   1   2   3   5
  30 ben   1   2  16
  31 prop tor   1   2  16  11
  32 prop tor   1   2  16  15
  33 ben   2   3   4
  34 ben   2   3   5
  35 prop tor   2   3   5   6
  36 prop tor   2   3   5  10
  37 ben   2  16  11
  38 ben   2  16  15
  39 ben   3   2  16
  40 prop tor   3   2  16  11
  41 prop tor   3   2  16  15
  42 ben   3   5   6
  43 prop tor   3   5   6   7
  44 prop tor   3   5   6  17
  45 ben   3   5  10
  46 prop tor   3   5  10   9
  47 prop tor   3   5  10  11
  48 ben   4   3   5
  49 prop tor   4   3   5   6
  50 prop tor   4   3   5  10
  51 ben   5   6   7
  52 prop tor   5   6   7   8
  53 prop tor   5   6   7  18
  54 ben   5   6  17
  55 ben   5  10   9
  56 ben   5  10  11
  57 prop tor   5  10  11  12
  58 prop tor   5  10  11  16
  59 ben   6   5  10
  60 prop tor   6   5  10   9
  61 prop tor   6   5  10  11
  62 ben   6   7   8
  63 prop tor   6   7   8   9
  64 prop tor   6   7   8  19
  65 ben   6   7  18
  66 ben   7   6  17
  67 ben   7   8   9
  68 prop tor   7   8   9  10
  69 prop tor   7   8   9  20
  70 ben   7   8  19
  71 ben   8   7  18
  72 ben   8   9  10
  73 prop tor   8   9  10   5
  74 prop tor   8   9  10  11
  75 ben   8   9  20
  76 ben   9   8  19
  77 ben   9  10  11
  78 prop tor   9  10  11  12
  79 prop tor   9  10  11  16
  80 prop tor  10   5   6   7
  81 prop tor  10   5   6  17
  82 ben  10   9  20
  83 ben  10  11  12
  84 prop tor  10  11  12  13
  85 prop tor  10  11  12  21
  86 ben  10  11  16
  87 prop tor  10  11  16   2
  88 prop tor  10  11  16  15
  89 ben  11  12  13
  90 prop tor  11  12  13  14
  91 prop tor  11  12  13  22
  92 ben  11  12  21
  93 ben  11  16  15
  94 ben  12  11  16
  95 prop tor  12  11  16   2
  96 prop tor  12  11  16  15
  97 ben  12  13  14
  98 prop tor  12  13  14  15
  99 prop tor  12  13  14  23
 100 ben  12  13  22
 101 ben  13  12  21
 102 ben  13  14  15
 103 prop tor  13  14  15  16
 104 prop tor  13  14  15  24
 105 ben  13  14  23
 106 ben  14  13  22
 107 ben  14  15  16
 108 prop tor  14  15  16   2
 109 prop tor  14  15  16  11
 110 ben  14  15  24
 111 ben  15  14  23
 112 prop tor  16   2   3   4
 113 prop tor  16   2   3   5
 114 prop tor  16  11  12  13
 115 prop tor  16  11  12  21
 116 ben  16  15  24
 117 prop tor  17   6   7   8
 118 prop tor  17   6   7  18
 119 prop tor  18   7   8   9
 120 prop tor  18   7   8  19
 121 prop tor  19   8   9  10
 122 prop tor  19   8   9  20
 123 prop tor  20   9  10   5
 124 prop tor  20   9  10  11
 125 prop tor  21  12  13  14
 126 prop tor  21  12  13  22
 127 prop tor  22  13  14  15
 128 prop tor  22  13  14  23
 129 prop tor  23  14  15  16
 130 prop tor  23  14  15  24
 131 prop tor  24  15  16   2
 132 prop tor  24  15  16  11
 nber bend=              42
 nber lin bend=           0
 nber prop tor=          64
 nber impr tor=           0
 nber tot redund int=         132
 Reading file: 
 ./conjugated_carbonyls_3_C-3S0.log                                             
                                          
  Entering Gaussian System, Link 0=g16                                          
  
 Gaussian format, type: g94, g98, g03= F F F
  #P Geom=AllCheck Guess=TCheck SCRF=Check Test GenChk UB3LYP/6-311G(d,p    
 energy type= B3LYP   
 Original G94 input coords:
  8  1.387112 -3.290466  0.000009
  6  0.737563 -2.199550 -0.000012
  6 -0.737563 -2.199550 -0.000010
  8 -1.387112 -3.290466  0.000009
  6 -1.449313 -0.891787 -0.000005
  6 -2.849293 -0.880955  0.000003
  6 -3.599712  0.321669  0.000004
  6 -2.899267  1.528266  0.000000
  6 -1.511904  1.563411 -0.000003
  6 -0.716308  0.353148 -0.000007
  6  0.716308  0.353148 -0.000007
  6  1.511904  1.563411 -0.000003
  6  2.899267  1.528266  0.000003
  6  3.599712  0.321669  0.000003
  6  2.849293 -0.880955 -0.000001
  6  1.449313 -0.891787 -0.000006
  1 -3.340093 -1.853629  0.000007
  1 -4.706458  0.320307  0.000007
  1 -3.467381  2.487250 -0.000001
  1 -1.019851  2.542335 -0.000003
  1  1.019851  2.542335 -0.000002
  1  3.467381  2.487250  0.000010
  1  4.706458  0.320307  0.000007
  1  3.340093 -1.853629 -0.000003
 nber atoms=          24
  SCF Done:  E(UB3LYP) =  -688.536281245     A.U. after    8 cycles             
  
          23          40 "  -688.536281245"
After scan for Atom:   Atom  AN      X      Y      Z        X      Y      Z        X      Y      Z   
After scan for Atom:   Atom  AN      X      Y      Z        X      Y      Z        X      Y      Z   
After scan for Atom:   Atom  AN      X      Y      Z        X      Y      Z        X      Y      Z   
After scan for Atom:   Atom  AN      X      Y      Z        X      Y      Z        X      Y      Z   
After scan for Atom:   Atom  AN      X      Y      Z        X      Y      Z        X      Y      Z   
After scan for Atom:   Atom  AN      X      Y      Z        X      Y      Z        X      Y      Z   
After scan for Atom:   Atom  AN      X      Y      Z        X      Y      Z        X      Y      Z   
After scan for Atom:   Atom  AN      X      Y      Z        X      Y      Z        X      Y      Z   
After scan for Atom:   Atom  AN      X      Y      Z        X      Y      Z        X      Y      Z   
After scan for Atom:   Atom  AN      X      Y      Z        X      Y      Z        X      Y      Z   
After scan for Atom:   Atom  AN      X      Y      Z        X      Y      Z        X      Y      Z   
After scan for Atom:   Atom  AN      X      Y      Z        X      Y      Z        X      Y      Z   
After scan for Atom:   Atom  AN      X      Y      Z        X      Y      Z        X      Y      Z   
After scan for Atom:   Atom  AN      X      Y      Z        X      Y      Z        X      Y      Z   
After scan for Atom:   Atom  AN      X      Y      Z        X      Y      Z        X      Y      Z   
After scan for Atom:   Atom  AN      X      Y      Z        X      Y      Z        X      Y      Z   
After scan for Atom:   Atom  AN      X      Y      Z        X      Y      Z        X      Y      Z   
After scan for Atom:   Atom  AN      X      Y      Z        X      Y      Z        X      Y      Z   
After scan for Atom:   Atom  AN      X      Y      Z        X      Y      Z        X      Y      Z   
After scan for Atom:   Atom  AN      X      Y      Z        X      Y      Z        X      Y      Z   
After scan for Atom:   Atom  AN      X      Y      Z        X      Y      Z        X      Y      Z   
After scan for Atom:   Atom  AN      X      Y      Z        X      Y      Z        X      Y      Z   
 g94    frequencies=
     0.0    0.0    0.0    0.0    0.0    0.0   61.9   85.3  100.5  159.0
   236.3  250.5  313.9  372.6  381.2  389.2  412.7  413.6  451.7  475.7
   523.7  570.5  584.2  586.1  608.8  610.8  635.2  650.3  671.6  694.7
   708.9  719.3  750.5  754.7  839.9  842.0  850.2  870.7  919.7  950.4
  1001.2 1011.2 1024.3 1059.9 1071.6 1084.0 1090.0 1157.8 1189.1 1236.2
  1254.1 1297.1 1316.0 1350.2 1375.2 1421.7 1444.5 1455.9 1461.7 1479.1
  1499.4 1528.1 1535.8 1576.6 2582.7 2740.6 2778.2 2830.4 2963.6 2983.4
  3089.9 3096.1
 g94    symmetries=
                                                 A      A      A      A
       A      A      A      A      A      A      A      A      A      A
       A      A      A      A      A      A      A      A      A      A
       A      A      A      A      A      A      A      A      A      A
       A      A      A      A      A      A      A      A      A      A
       A      A      A      A      A      A      A      A      A      A
       A      A      A      A      A      A      A      A      A      A
       A      A
 atomic masses:
 15.9949 12.0000 12.0000 15.9949 12.0000 12.0000 12.0000 12.0000 12.0000 12.0000
 12.0000 12.0000 12.0000 12.0000 12.0000 12.0000  1.0078  1.0078  1.0078  1.0078
  1.0078  1.0078  1.0078  1.0078
 looking for force constants in 
 ./conjugated_carbonyls_3_C-3S0.fchk                                            
  
 Cartesian Force Constants                  R   N=        2628                  
  
 n3=          72        2628
 g94-fc frequencies=
    -0.0   -0.0    0.0    1.8    2.3    4.2   61.9   85.3  100.5  159.0
   236.3  250.5  313.9  372.6  381.3  389.3  412.7  413.6  451.7  475.7
   523.8  570.5  584.2  586.1  608.8  610.8  635.2  650.3  671.6  694.7
   708.9  719.3  750.6  754.7  839.9  842.0  850.2  870.8  919.8  950.4
  1001.2 1011.2 1024.4 1059.9 1071.6 1084.0 1090.0 1157.8 1189.2 1236.2
  1254.1 1297.2 1316.0 1350.3 1375.2 1421.8 1444.5 1455.9 1461.7 1479.2
  1499.5 1528.1 1535.9 1576.7 2582.7 2740.7 2778.3 2830.5 2963.6 2983.5
  3090.0 3096.2
 at 99999: n3=          72
 symm operator            1 :  F  nop=           0
 symm operator            2 :  T  nop=           1
 symm operator            3 :  F  nop=           1
 symm operator            4 :  F  nop=           1
 symm operator            5 :  T  nop=           2
 symm operator            6 :  F  nop=           2
 symm operator            7 :  T  nop=           3
 swap           2           3
   1   1.38711   0.00001  -3.29047
   2   0.73756  -0.00001  -2.19955
   3  -0.73756  -0.00001  -2.19955
   4  -1.38711   0.00001  -3.29047
   5  -1.44931  -0.00001  -0.89179
   6  -2.84929   0.00000  -0.88096
   7  -3.59971   0.00000   0.32167
   8  -2.89927   0.00000   1.52827
   9  -1.51190  -0.00000   1.56341
  10  -0.71631  -0.00001   0.35315
  11   0.71631  -0.00001   0.35315
  12   1.51190  -0.00000   1.56341
  13   2.89927   0.00000   1.52827
  14   3.59971   0.00000   0.32167
  15   2.84929  -0.00000  -0.88096
  16   1.44931  -0.00001  -0.89179
  17  -3.34009   0.00001  -1.85363
  18  -4.70646   0.00001   0.32031
  19  -3.46738  -0.00000   2.48725
  20  -1.01985  -0.00000   2.54234
  21   1.01985  -0.00000   2.54234
  22   3.46738   0.00001   2.48725
  23   4.70646   0.00001   0.32031
  24   3.34009  -0.00000  -1.85363
 The point group of the molecule is C2V
 enforcing symm op           1  jsymt=          -1          -1           1
 enforcing symm op           6  jsymt=           1          -1           1
 enforcing symm op           7  jsymt=          -1           1           1
 cartesian coord symmetries:
 A1 :   24 A2 :   12 B1 :   24 B2 :   12
 Symmetry rotation matrix:
   1.00000   0.00000   0.00000
   0.00000   0.00000   1.00000
   0.00000  -1.00000   0.00000

 Projecting out zero-frequency components
 generating redundant internal coords
         300        3600          24
 search for int coords
   1 str   2   1   1.270
   2 str   3   2   1.475
   3 str   4   3   1.270
   4 str   5   3   1.489
   5 str   6   5   1.400
   6 str   7   6   1.418
   7 str   8   7   1.395
   8 str   9   8   1.388
   9 str  10   5   1.445
  10 str  10   9   1.448
  11 str  11  10   1.433
  12 str  12  11   1.448
  13 str  13  12   1.388
  14 str  14  13   1.395
  15 str  15  14   1.418
  16 str  16   2   1.489
  17 str  16  11   1.445
  18 str  16  15   1.400
  19 str  17   6   1.089
  20 str  18   7   1.107
  21 str  19   8   1.115
  22 str  20   9   1.096
  23 str  21  12   1.096
  24 str  22  13   1.115
  25 str  23  14   1.107
  26 str  24  15   1.089
 nber stretches=          26
  27 ben   1   2   3
  28 prop tor   1   2   3   4
  29 prop tor   1   2   3   5
  30 ben   1   2  16
  31 prop tor   1   2  16  11
  32 prop tor   1   2  16  15
  33 ben   2   3   4
  34 ben   2   3   5
  35 prop tor   2   3   5   6
  36 prop tor   2   3   5  10
  37 ben   2  16  11
  38 ben   2  16  15
  39 ben   3   2  16
  40 prop tor   3   2  16  11
  41 prop tor   3   2  16  15
  42 ben   3   5   6
  43 prop tor   3   5   6   7
  44 prop tor   3   5   6  17
  45 ben   3   5  10
  46 prop tor   3   5  10   9
  47 prop tor   3   5  10  11
  48 ben   4   3   5
  49 prop tor   4   3   5   6
  50 prop tor   4   3   5  10
  51 ben   5   6   7
  52 prop tor   5   6   7   8
  53 prop tor   5   6   7  18
  54 ben   5   6  17
  55 ben   5  10   9
  56 ben   5  10  11
  57 prop tor   5  10  11  12
  58 prop tor   5  10  11  16
  59 ben   6   5  10
  60 prop tor   6   5  10   9
  61 prop tor   6   5  10  11
  62 ben   6   7   8
  63 prop tor   6   7   8   9
  64 prop tor   6   7   8  19
  65 ben   6   7  18
  66 ben   7   6  17
  67 ben   7   8   9
  68 prop tor   7   8   9  10
  69 prop tor   7   8   9  20
  70 ben   7   8  19
  71 ben   8   7  18
  72 ben   8   9  10
  73 prop tor   8   9  10   5
  74 prop tor   8   9  10  11
  75 ben   8   9  20
  76 ben   9   8  19
  77 ben   9  10  11
  78 prop tor   9  10  11  12
  79 prop tor   9  10  11  16
  80 prop tor  10   5   6   7
  81 prop tor  10   5   6  17
  82 ben  10   9  20
  83 ben  10  11  12
  84 prop tor  10  11  12  13
  85 prop tor  10  11  12  21
  86 ben  10  11  16
  87 prop tor  10  11  16   2
  88 prop tor  10  11  16  15
  89 ben  11  12  13
  90 prop tor  11  12  13  14
  91 prop tor  11  12  13  22
  92 ben  11  12  21
  93 ben  11  16  15
  94 ben  12  11  16
  95 prop tor  12  11  16   2
  96 prop tor  12  11  16  15
  97 ben  12  13  14
  98 prop tor  12  13  14  15
  99 prop tor  12  13  14  23
 100 ben  12  13  22
 101 ben  13  12  21
 102 ben  13  14  15
 103 prop tor  13  14  15  16
 104 prop tor  13  14  15  24
 105 ben  13  14  23
 106 ben  14  13  22
 107 ben  14  15  16
 108 prop tor  14  15  16   2
 109 prop tor  14  15  16  11
 110 ben  14  15  24
 111 ben  15  14  23
 112 prop tor  16   2   3   4
 113 prop tor  16   2   3   5
 114 prop tor  16  11  12  13
 115 prop tor  16  11  12  21
 116 ben  16  15  24
 117 prop tor  17   6   7   8
 118 prop tor  17   6   7  18
 119 prop tor  18   7   8   9
 120 prop tor  18   7   8  19
 121 prop tor  19   8   9  10
 122 prop tor  19   8   9  20
 123 prop tor  20   9  10   5
 124 prop tor  20   9  10  11
 125 prop tor  21  12  13  14
 126 prop tor  21  12  13  22
 127 prop tor  22  13  14  15
 128 prop tor  22  13  14  23
 129 prop tor  23  14  15  16
 130 prop tor  23  14  15  24
 131 prop tor  24  15  16   2
 132 prop tor  24  15  16  11
 nber bend=              42
 nber lin bend=           0
 nber prop tor=          64
 nber impr tor=           0
 nber tot redund int=         132
 Eigenvalues of G in red int coords
    Gval -0.00000000 -0.00000000 -0.00000000 -0.00000000 -0.00000000 -0.00000000 -0.00000000 -0.00000000
    Gval -0.00000000 -0.00000000 -0.00000000 -0.00000000 -0.00000000 -0.00000000 -0.00000000 -0.00000000
    Gval -0.00000000 -0.00000000 -0.00000000 -0.00000000 -0.00000000 -0.00000000 -0.00000000 -0.00000000
    Gval -0.00000000 -0.00000000 -0.00000000 -0.00000000 -0.00000000 -0.00000000 -0.00000000 -0.00000000
    Gval -0.00000000  0.00000000  0.00000000  0.00000000  0.00000000  0.00000000  0.00000000  0.00000000
    Gval  0.00000000  0.00000000  0.00000000  0.00000000  0.00000000  0.00000000  0.00000000  0.00000000
    Gval  0.00000000  0.00000000  0.00000000  0.00000000  0.00000000  0.00000000  0.00000000  0.00000000
    Gval  0.00000000  0.00000000  0.00000000  0.00000000  0.00000000  0.00000000  0.00000000  0.00000000
    Gval  0.00000000  0.00000000  0.00000675  0.00001095  0.00001155  0.00002019  0.00002150  0.00002577
    Gval  0.00003561  0.00004715  0.00004757  0.00004946  0.00005465  0.00005947  0.00006066  0.00007750
    Gval  0.00007799  0.00009258  0.00010006  0.00010868  0.00011221  0.00012760  0.00012822  0.00012993
    Gval  0.00015454  0.00020086  0.00022815  0.00025949  0.00026327  0.00029383  0.00031772  0.00036919
    Gval  0.00037636  0.00040335  0.00042671  0.00042764  0.00044897  0.00059308  0.00059312  0.00059549
    Gval  0.00059678  0.00059699  0.00061617  0.00062037  0.00065323  0.00065373  0.00069737  0.00088468
    Gval  0.00095193  0.00101440  0.00101561  0.00109184  0.00109201  0.00112288  0.00112290  0.00113761
    Gval  0.00113776  0.00119501  0.00160342  0.00177982  0.00180936  0.00211660  0.00255461  0.00274213
    Gval  0.00337711  0.00343956  0.00387723  0.00388076
  6.754669324894623E-006  6.754669324894623E-006
  1.094513725821648E-005  6.754669324894623E-006
  1.154657204827732E-005  6.754669324894623E-006
  2.018844729423633E-005  6.754669324894623E-006
  2.149583370945451E-005  6.754669324894623E-006
  2.576557425085754E-005  6.754669324894623E-006
  3.560822191339757E-005  6.754669324894623E-006
  4.715426096633596E-005  6.754669324894623E-006
  4.756798162276499E-005  6.754669324894623E-006
  4.946330674504074E-005  6.754669324894623E-006
  5.464952142840844E-005  6.754669324894623E-006
  5.947246844131342E-005  6.754669324894623E-006
  6.066417765913794E-005  6.754669324894623E-006
  7.750398585736035E-005  6.754669324894623E-006
  7.798870978461769E-005  6.754669324894623E-006
  9.258348710981897E-005  6.754669324894623E-006
  1.000610955049510E-004  6.754669324894623E-006
  1.086822272747849E-004  6.754669324894623E-006
  1.122067002453155E-004  6.754669324894623E-006
  1.275955037155119E-004  6.754669324894623E-006
  1.282201796843978E-004  6.754669324894623E-006
  1.299266309245089E-004  6.754669324894623E-006
  1.545416029813773E-004  6.754669324894623E-006
  2.008593058026030E-004  6.754669324894623E-006
  2.281519776764726E-004  6.754669324894623E-006
  2.594876167306170E-004  6.754669324894623E-006
  2.632679699285991E-004  6.754669324894623E-006
  2.938279364287915E-004  6.754669324894623E-006
  3.177219542091335E-004  6.754669324894623E-006
  3.691858413000558E-004  6.754669324894623E-006
  3.763628808326708E-004  6.754669324894623E-006
  4.033514275377682E-004  6.754669324894623E-006
  4.267071348343707E-004  6.754669324894623E-006
  4.276404874290709E-004  6.754669324894623E-006
  4.489668846267438E-004  6.754669324894623E-006
  5.930797178714880E-004  6.754669324894623E-006
  5.931192758319033E-004  6.754669324894623E-006
  5.954874843452816E-004  6.754669324894623E-006
  5.967760539419481E-004  6.754669324894623E-006
  5.969939931028243E-004  6.754669324894623E-006
  6.161685903106585E-004  6.754669324894623E-006
  6.203714270560615E-004  6.754669324894623E-006
  6.532343331179138E-004  6.754669324894623E-006
  6.537303431647840E-004  6.754669324894623E-006
  6.973710089651993E-004  6.754669324894623E-006
  8.846775050726228E-004  6.754669324894623E-006
  9.519347104433524E-004  6.754669324894623E-006
  1.014402227780385E-003  6.754669324894623E-006
  1.015610918475842E-003  6.754669324894623E-006
  1.091838432189608E-003  6.754669324894623E-006
  1.092011394051822E-003  6.754669324894623E-006
  1.122882576359197E-003  6.754669324894623E-006
  1.122896226967067E-003  6.754669324894623E-006
  1.137606876004677E-003  6.754669324894623E-006
  1.137763400491065E-003  6.754669324894623E-006
  1.195013452666288E-003  6.754669324894623E-006
  1.603418402714988E-003  6.754669324894623E-006
  1.779822180007341E-003  6.754669324894623E-006
  1.809363020095272E-003  6.754669324894623E-006
  2.116599622770517E-003  6.754669324894623E-006
  2.554605855431285E-003  6.754669324894623E-006
  2.742131668664380E-003  6.754669324894623E-006
  3.377111535934452E-003  6.754669324894623E-006
  3.439564907625030E-003  6.754669324894623E-006
  3.877231614895207E-003  6.754669324894623E-006
  3.880763459443810E-003  6.754669324894623E-006
 cut=1d-8, nber non-redundant internal coords=          66
 Check on Eigenvals of non-red overlap matrix:
  0.00000675  0.00001095  0.00001155  0.00002019  0.00002150  0.00002577  0.00003561  0.00004715
  0.00004757  0.00004946  0.00005465  0.00005947  0.00006066  0.00007750  0.00007799  0.00009258
  0.00010006  0.00010868  0.00011221  0.00012760  0.00012822  0.00012993  0.00015454  0.00020086
  0.00022815  0.00025949  0.00026327  0.00029383  0.00031772  0.00036919  0.00037636  0.00040335
  0.00042671  0.00042764  0.00044897  0.00059308  0.00059312  0.00059549  0.00059678  0.00059699
  0.00061617  0.00062037  0.00065323  0.00065373  0.00069737  0.00088468  0.00095193  0.00101440
  0.00101561  0.00109184  0.00109201  0.00112288  0.00112290  0.00113761  0.00113776  0.00119501
  0.00160342  0.00177982  0.00180936  0.00211660  0.00255461  0.00274213  0.00337711  0.00343956
  0.00387723  0.00388076
 Checking for correct frequencies
 recalc frequencies=
    -0.0   -0.0    0.0    0.0    0.0    0.0   61.9   85.3  100.5  159.0
   236.3  250.5  313.9  372.6  381.3  389.3  412.7  413.6  451.7  475.7
   523.8  570.5  584.2  586.1  608.8  610.8  635.2  650.3  671.6  694.7
   708.9  719.3  750.6  754.7  839.9  842.0  850.2  870.8  919.8  950.4
  1001.2 1011.2 1024.4 1059.9 1071.6 1084.0 1090.0 1157.8 1189.2 1236.2
  1254.1 1297.2 1316.0 1350.3 1375.2 1421.8 1444.5 1455.9 1461.7 1479.2
  1499.5 1528.1 1535.9 1576.7 2582.7 2740.7 2778.3 2830.5 2963.6 2983.5
  3090.0 3096.2
 recalc symmetries=
     A1     B1     B2     B1     A2     B2     A2     B2     A2     B2 
     A1     A2     B1     A1     B1     B2     A1     B2     A1     A2 
     A2     B2     B1     A2     B1     B2     A2     B1     A1     B2 
     A2     B2     A1     A2     A2     B2     B1     B2     B1     A2 
     B1     A1     A1     B1     A1     B1     A1     B1     A1     B1 
     A1     B1     A1     A1     B1     B1     A1     B1     A1     B1 
     A1     A1     B1     A1     B1     A1     B1     A1     B1     A1 
     B1     A1 
 recalc freqs check OK
 Zero-point lengths:
 10.0000 10.0000 10.0000 10.0000 10.0000 10.0000 31.5161 26.8427 24.7326 19.6590
 16.1264 15.6627 13.9932 12.8435 12.6966 12.5655 12.2033 12.1896 11.6643 11.3663
 10.8325 10.3790 10.2565 10.2398 10.0471 10.0311  9.8365  9.7216  9.5664  9.4059
  9.3111  9.2433  9.0491  9.0242  8.5543  8.5435  8.5023  8.4013  8.1744  8.0414
  7.8349  7.7960  7.7459  7.6148  7.5733  7.5297  7.5088  7.2858  7.1891  7.0511
  7.0004  6.8834  6.8339  6.7466  6.6852  6.5748  6.5228  6.4972  6.4843  6.4460
  6.4021  6.3419  6.3258  6.2435  4.8782  4.7355  4.7034  4.6598  4.5539  4.5387
  4.4598  4.4554
 highest evec of mol 2
 -0.0029  0.0000 -0.0013
  0.0008  0.0000  0.0042
 -0.0008  0.0000  0.0042
  0.0029  0.0000 -0.0013
  0.0010  0.0000  0.0033
 -0.0905  0.0000  0.1752
 -0.0092  0.0000 -0.0044
  0.0014  0.0000 -0.0007
  0.0034  0.0000 -0.0078
  0.0025  0.0000 -0.0015
 -0.0025  0.0000 -0.0015
 -0.0034  0.0000 -0.0078
 -0.0014  0.0000 -0.0007
  0.0092  0.0000 -0.0044
  0.0905  0.0000  0.1752
 -0.0010  0.0000  0.0033
  0.3092  0.0000 -0.6035
  0.0164  0.0000  0.0028
 -0.0006  0.0000  0.0000
 -0.0128  0.0000  0.0253
  0.0128  0.0000  0.0253
  0.0006  0.0000  0.0000
 -0.0164  0.0000  0.0028
 -0.3092  0.0000 -0.6035
 Enter nber and list of atoms to keep of mol #2
 keep list:          24           1           2           3           4
           5           6           7           8           9          10
          11          12          13          14          15          16
          17          18          19          20          21          22
          23          24
 reordering atoms
           1   1.38711199999861     
           2  0.737563000000958     
           3 -0.737562999999245     
           4  -1.38711200000138     
           5  -1.44931299999961     
           6  -2.84929300000045     
           7  -3.59971200000041     
           8  -2.89926699999984     
           9  -1.51190399999953     
          10 -0.716307999999257     
          11  0.716308000000735     
          12   1.51190400000045     
          13   2.89926699999981     
          14   3.59971199999966     
          15   2.84929299999994     
          16   1.44931300000048     
          17  -3.34009300000098     
          18  -4.70645800000072     
          19  -3.46738099999962     
          20  -1.01985099999942     
          21   1.01985100000047     
          22   3.46738099999918     
          23   4.70645799999923     
          24   3.34009300000004     
           1           1
           2           2
           3           3
           4           4
           5           5
           6           6
           7           7
           8           8
           9           9
          10          10
          11          11
          12          12
          13          13
          14          14
          15          15
          16          16
          17          17
          18          18
          19          19
          20          20
          21          21
          22          22
          23          23
          24          24
 initial cartes coords mol 1
   8  -0.00000   2.69891   1.36387
   6   0.00000   1.64136   0.77443
   6  -0.00000   1.64136  -0.77443
   8   0.00000   2.69891  -1.36387
   6   0.00000   0.32756  -1.46471
   6   0.00000   0.32857  -2.86439
   6   0.00000  -0.86164  -3.57410
   6   0.00000  -2.06766  -2.87334
   6   0.00000  -2.07850  -1.48354
   6   0.00000  -0.88709  -0.74240
   6  -0.00000  -0.88709   0.74240
   6  -0.00000  -2.07850   1.48354
   6  -0.00000  -2.06766   2.87334
   6  -0.00000  -0.86164   3.57410
   6  -0.00000   0.32857   2.86439
   6  -0.00000   0.32756   1.46471
   1  -0.00000   1.28767  -3.36742
   1   0.00000  -0.85554  -4.65759
   1   0.00000  -3.00868  -3.41172
   1   0.00000  -3.03581  -0.98044
   1  -0.00000  -3.03581   0.98044
   1  -0.00000  -3.00868   3.41172
   1  -0.00000  -0.85554   4.65759
   1   0.00000   1.28767   3.36742
 initial cartes coords mol 2
   8  -0.00001   2.73944   1.38711
   6   0.00001   1.64852   0.73756
   6   0.00001   1.64852  -0.73756
   8  -0.00001   2.73944  -1.38711
   6   0.00000   0.34076  -1.44931
   6  -0.00000   0.32992  -2.84929
   6  -0.00001  -0.87270  -3.59971
   6  -0.00000  -2.07930  -2.89927
   6   0.00000  -2.11444  -1.51190
   6   0.00001  -0.90418  -0.71631
   6   0.00001  -0.90418   0.71631
   6   0.00000  -2.11444   1.51190
   6  -0.00001  -2.07930   2.89927
   6  -0.00001  -0.87270   3.59971
   6  -0.00000   0.32992   2.84929
   6   0.00001   0.34076   1.44931
   1  -0.00001   1.30260  -3.34009
   1  -0.00001  -0.87134  -4.70646
   1  -0.00000  -3.03828  -3.46738
   1  -0.00000  -3.09337  -1.01985
   1  -0.00000  -3.09337   1.01985
   1  -0.00001  -3.03828   3.46738
   1  -0.00001  -0.87134   4.70646
   1   0.00000   1.30260   3.34009
 loop 1 0
 mod cartes coords mol 2
   8  -0.00001   2.73944   1.38711
   6   0.00001   1.64852   0.73756
   6   0.00001   1.64852  -0.73756
   8  -0.00001   2.73944  -1.38711
   6   0.00000   0.34076  -1.44931
   6  -0.00000   0.32992  -2.84929
   6  -0.00001  -0.87270  -3.59971
   6  -0.00000  -2.07930  -2.89927
   6   0.00000  -2.11444  -1.51190
   6   0.00001  -0.90418  -0.71631
   6   0.00001  -0.90418   0.71631
   6   0.00000  -2.11444   1.51190
   6  -0.00001  -2.07930   2.89927
   6  -0.00001  -0.87270   3.59971
   6  -0.00000   0.32992   2.84929
   6   0.00001   0.34076   1.44931
   1  -0.00001   1.30260  -3.34009
   1  -0.00001  -0.87134  -4.70646
   1  -0.00000  -3.03828  -3.46738
   1  -0.00000  -3.09337  -1.01985
   1  -0.00000  -3.09337   1.01985
   1  -0.00001  -3.03828   3.46738
   1  -0.00001  -0.87134   4.70646
   1   0.00000   1.30260   3.34009
 read in order, maxerr=  0.07 for atom  21
 final axis swaps:           1           1           1
 final xyz swap pattern=           1
 reorder list:
   1   2   3   4   5   6   7   8   9  10  11  12  13  14  15  16  17  18  19  20
  21  22  23  24
 axis signs=           1           1           1
  8    -0.000008  2.739435  1.387112    -0.000000  2.698910  1.363872
  6     0.000012  1.648519  0.737563     0.000002  1.641364  0.774434
  6     0.000010  1.648519 -0.737563    -0.000002  1.641364 -0.774434
  8    -0.000008  2.739435 -1.387112     0.000000  2.698910 -1.363872
  6     0.000004  0.340756 -1.449313     0.000000  0.327557 -1.464708
  6    -0.000003  0.329924 -2.849293     0.000000  0.328574 -2.864388
  6    -0.000005 -0.872700 -3.599712     0.000000 -0.861642 -3.574096
  6    -0.000002 -2.079297 -2.899267     0.000000 -2.067660 -2.873340
  6     0.000001 -2.114442 -1.511904     0.000000 -2.078505 -1.483544
  6     0.000005 -0.904179 -0.716308     0.000000 -0.887092 -0.742396
  6     0.000005 -0.904179  0.716308    -0.000000 -0.887092  0.742396
  6     0.000000 -2.114442  1.511904    -0.000000 -2.078505  1.483544
  6    -0.000006 -2.079297  2.899267    -0.000000 -2.067660  2.873340
  6    -0.000005 -0.872700  3.599712    -0.000000 -0.861642  3.574096
  6    -0.000000  0.329924  2.849293    -0.000000  0.328574  2.864388
  6     0.000005  0.340756  1.449313    -0.000000  0.327557  1.464708
  1    -0.000007  1.302598 -3.340093    -0.000001  1.287669 -3.367417
  1    -0.000008 -0.871338 -4.706458     0.000000 -0.855545 -4.657587
  1    -0.000002 -3.038281 -3.467381     0.000001 -3.008681 -3.411718
  1    -0.000000 -3.093366 -1.019851     0.000000 -3.035813 -0.980437
  1    -0.000001 -3.093366  1.019851    -0.000000 -3.035813  0.980437
  1    -0.000014 -3.038281  3.467381    -0.000001 -3.008681  3.411718
  1    -0.000009 -0.871338  4.706458    -0.000000 -0.855545  4.657587
  1     0.000003  1.302598  3.340093     0.000001  1.287669  3.367417
 generating redundant internal coords
         300        3600          24
 Adding extra bonds for z output only
           8           6           6           8           6           6
           6           6           6           6           6           6
           6           6           6           6           1           1
           1           1           1           1           1           1
 search for int coords
   1 str   2   1   1.270
   2 str   3   2   1.475
   3 str   4   3   1.270
   4 str   5   3   1.489
   5 str   6   5   1.400
   6 str   7   6   1.418
   7 str   8   7   1.395
   8 str   9   8   1.388
   9 str  10   5   1.445
  10 str  10   9   1.448
  11 str  11  10   1.433
  12 str  12  11   1.448
  13 str  13  12   1.388
  14 str  14  13   1.395
  15 str  15  14   1.418
  16 str  16   2   1.489
  17 str  16  11   1.445
  18 str  16  15   1.400
  19 str  17   6   1.089
  20 str  18   7   1.107
  21 str  19   8   1.115
  22 str  20   9   1.096
  23 str  21  12   1.096
  24 str  22  13   1.115
  25 str  23  14   1.107
  26 str  24  15   1.089
 nber stretches=          26
  27 ben   1   2   3
  28 prop tor   1   2   3   4
  29 prop tor   1   2   3   5
  30 ben   1   2  16
  31 prop tor   1   2  16  11
  32 prop tor   1   2  16  15
  33 ben   2   3   4
  34 ben   2   3   5
  35 prop tor   2   3   5   6
  36 prop tor   2   3   5  10
  37 ben   2  16  11
  38 ben   2  16  15
  39 ben   3   2  16
  40 prop tor   3   2  16  11
  41 prop tor   3   2  16  15
  42 ben   3   5   6
  43 prop tor   3   5   6   7
  44 prop tor   3   5   6  17
  45 ben   3   5  10
  46 prop tor   3   5  10   9
  47 prop tor   3   5  10  11
  48 ben   4   3   5
  49 prop tor   4   3   5   6
  50 prop tor   4   3   5  10
  51 ben   5   6   7
  52 prop tor   5   6   7   8
  53 prop tor   5   6   7  18
  54 ben   5   6  17
  55 ben   5  10   9
  56 ben   5  10  11
  57 prop tor   5  10  11  12
  58 prop tor   5  10  11  16
  59 ben   6   5  10
  60 prop tor   6   5  10   9
  61 prop tor   6   5  10  11
  62 ben   6   7   8
  63 prop tor   6   7   8   9
  64 prop tor   6   7   8  19
  65 ben   6   7  18
  66 ben   7   6  17
  67 ben   7   8   9
  68 prop tor   7   8   9  10
  69 prop tor   7   8   9  20
  70 ben   7   8  19
  71 ben   8   7  18
  72 ben   8   9  10
  73 prop tor   8   9  10   5
  74 prop tor   8   9  10  11
  75 ben   8   9  20
  76 ben   9   8  19
  77 ben   9  10  11
  78 prop tor   9  10  11  12
  79 prop tor   9  10  11  16
  80 prop tor  10   5   6   7
  81 prop tor  10   5   6  17
  82 ben  10   9  20
  83 ben  10  11  12
  84 prop tor  10  11  12  13
  85 prop tor  10  11  12  21
  86 ben  10  11  16
  87 prop tor  10  11  16   2
  88 prop tor  10  11  16  15
  89 ben  11  12  13
  90 prop tor  11  12  13  14
  91 prop tor  11  12  13  22
  92 ben  11  12  21
  93 ben  11  16  15
  94 ben  12  11  16
  95 prop tor  12  11  16   2
  96 prop tor  12  11  16  15
  97 ben  12  13  14
  98 prop tor  12  13  14  15
  99 prop tor  12  13  14  23
 100 ben  12  13  22
 101 ben  13  12  21
 102 ben  13  14  15
 103 prop tor  13  14  15  16
 104 prop tor  13  14  15  24
 105 ben  13  14  23
 106 ben  14  13  22
 107 ben  14  15  16
 108 prop tor  14  15  16   2
 109 prop tor  14  15  16  11
 110 ben  14  15  24
 111 ben  15  14  23
 112 prop tor  16   2   3   4
 113 prop tor  16   2   3   5
 114 prop tor  16  11  12  13
 115 prop tor  16  11  12  21
 116 ben  16  15  24
 117 prop tor  17   6   7   8
 118 prop tor  17   6   7  18
 119 prop tor  18   7   8   9
 120 prop tor  18   7   8  19
 121 prop tor  19   8   9  10
 122 prop tor  19   8   9  20
 123 prop tor  20   9  10   5
 124 prop tor  20   9  10  11
 125 prop tor  21  12  13  14
 126 prop tor  21  12  13  22
 127 prop tor  22  13  14  15
 128 prop tor  22  13  14  23
 129 prop tor  23  14  15  16
 130 prop tor  23  14  15  24
 131 prop tor  24  15  16   2
 132 prop tor  24  15  16  11
 nber bend=              42
 nber lin bend=           0
 nber prop tor=          64
 nber impr tor=           0
 nber tot redund int=         132
 generating redundant internal coords
         300        3600          24
 search for int coords
   1 str   2   1   1.211
   2 str   3   2   1.549
   3 str   4   3   1.211
   4 str   5   3   1.484
   5 str   6   5   1.400
   6 str   7   6   1.386
   7 str   8   7   1.395
   8 str   9   8   1.390
   9 str  10   5   1.413
  10 str  10   9   1.403
  11 str  11  10   1.485
  12 str  12  11   1.403
  13 str  13  12   1.390
  14 str  14  13   1.395
  15 str  15  14   1.386
  16 str  16   2   1.484
  17 str  16  11   1.413
  18 str  16  15   1.400
  19 str  17   6   1.083
  20 str  18   7   1.084
  21 str  19   8   1.084
  22 str  20   9   1.081
  23 str  21  12   1.081
  24 str  22  13   1.084
  25 str  23  14   1.084
  26 str  24  15   1.083
 nber stretches=          26
  27 ben   1   2   3
  28 prop tor   1   2   3   4
  29 prop tor   1   2   3   5
  30 ben   1   2  16
  31 prop tor   1   2  16  11
  32 prop tor   1   2  16  15
  33 ben   2   3   4
  34 ben   2   3   5
  35 prop tor   2   3   5   6
  36 prop tor   2   3   5  10
  37 ben   2  16  11
  38 ben   2  16  15
  39 ben   3   2  16
  40 prop tor   3   2  16  11
  41 prop tor   3   2  16  15
  42 ben   3   5   6
  43 prop tor   3   5   6   7
  44 prop tor   3   5   6  17
  45 ben   3   5  10
  46 prop tor   3   5  10   9
  47 prop tor   3   5  10  11
  48 ben   4   3   5
  49 prop tor   4   3   5   6
  50 prop tor   4   3   5  10
  51 ben   5   6   7
  52 prop tor   5   6   7   8
  53 prop tor   5   6   7  18
  54 ben   5   6  17
  55 ben   5  10   9
  56 ben   5  10  11
  57 prop tor   5  10  11  12
  58 prop tor   5  10  11  16
  59 ben   6   5  10
  60 prop tor   6   5  10   9
  61 prop tor   6   5  10  11
  62 ben   6   7   8
  63 prop tor   6   7   8   9
  64 prop tor   6   7   8  19
  65 ben   6   7  18
  66 ben   7   6  17
  67 ben   7   8   9
  68 prop tor   7   8   9  10
  69 prop tor   7   8   9  20
  70 ben   7   8  19
  71 ben   8   7  18
  72 ben   8   9  10
  73 prop tor   8   9  10   5
  74 prop tor   8   9  10  11
  75 ben   8   9  20
  76 ben   9   8  19
  77 ben   9  10  11
  78 prop tor   9  10  11  12
  79 prop tor   9  10  11  16
  80 prop tor  10   5   6   7
  81 prop tor  10   5   6  17
  82 ben  10   9  20
  83 ben  10  11  12
  84 prop tor  10  11  12  13
  85 prop tor  10  11  12  21
  86 ben  10  11  16
  87 prop tor  10  11  16   2
  88 prop tor  10  11  16  15
  89 ben  11  12  13
  90 prop tor  11  12  13  14
  91 prop tor  11  12  13  22
  92 ben  11  12  21
  93 ben  11  16  15
  94 ben  12  11  16
  95 prop tor  12  11  16   2
  96 prop tor  12  11  16  15
  97 ben  12  13  14
  98 prop tor  12  13  14  15
  99 prop tor  12  13  14  23
 100 ben  12  13  22
 101 ben  13  12  21
 102 ben  13  14  15
 103 prop tor  13  14  15  16
 104 prop tor  13  14  15  24
 105 ben  13  14  23
 106 ben  14  13  22
 107 ben  14  15  16
 108 prop tor  14  15  16   2
 109 prop tor  14  15  16  11
 110 ben  14  15  24
 111 ben  15  14  23
 112 prop tor  16   2   3   4
 113 prop tor  16   2   3   5
 114 prop tor  16  11  12  13
 115 prop tor  16  11  12  21
 116 ben  16  15  24
 117 prop tor  17   6   7   8
 118 prop tor  17   6   7  18
 119 prop tor  18   7   8   9
 120 prop tor  18   7   8  19
 121 prop tor  19   8   9  10
 122 prop tor  19   8   9  20
 123 prop tor  20   9  10   5
 124 prop tor  20   9  10  11
 125 prop tor  21  12  13  14
 126 prop tor  21  12  13  22
 127 prop tor  22  13  14  15
 128 prop tor  22  13  14  23
 129 prop tor  23  14  15  16
 130 prop tor  23  14  15  24
 131 prop tor  24  15  16   2
 132 prop tor  24  15  16  11
 nber bend=              42
 nber lin bend=           0
 nber prop tor=          64
 nber impr tor=           0
 nber tot redund int=         132
 Eigenvalues of G in red int coords
    Gval -0.00000000 -0.00000000 -0.00000000 -0.00000000 -0.00000000 -0.00000000 -0.00000000 -0.00000000
    Gval -0.00000000 -0.00000000 -0.00000000 -0.00000000 -0.00000000 -0.00000000 -0.00000000 -0.00000000
    Gval -0.00000000 -0.00000000 -0.00000000 -0.00000000 -0.00000000 -0.00000000 -0.00000000 -0.00000000
    Gval -0.00000000 -0.00000000 -0.00000000 -0.00000000  0.00000000  0.00000000  0.00000000  0.00000000
    Gval  0.00000000  0.00000000  0.00000000  0.00000000  0.00000000  0.00000000  0.00000000  0.00000000
    Gval  0.00000000  0.00000000  0.00000000  0.00000000  0.00000000  0.00000000  0.00000000  0.00000000
    Gval  0.00000000  0.00000000  0.00000000  0.00000000  0.00000000  0.00000000  0.00000000  0.00000000
    Gval  0.00000000  0.00000000  0.00000000  0.00000000  0.00000000  0.00000000  0.00000000  0.00000000
    Gval  0.00000000  0.00000000  0.00000686  0.00001102  0.00001192  0.00002011  0.00002200  0.00002623
    Gval  0.00003533  0.00004721  0.00004769  0.00004991  0.00005493  0.00005972  0.00006099  0.00007802
    Gval  0.00007842  0.00009775  0.00010118  0.00010940  0.00011330  0.00012793  0.00013005  0.00013491
    Gval  0.00015730  0.00020249  0.00023305  0.00026167  0.00026729  0.00029708  0.00031705  0.00037571
    Gval  0.00038107  0.00041828  0.00042011  0.00044024  0.00044636  0.00059320  0.00059324  0.00059736
    Gval  0.00059748  0.00061794  0.00062180  0.00062389  0.00065570  0.00065581  0.00068851  0.00089579
    Gval  0.00095020  0.00105465  0.00105574  0.00112174  0.00112207  0.00116069  0.00116086  0.00117396
    Gval  0.00117401  0.00118290  0.00167668  0.00183216  0.00186191  0.00216513  0.00264063  0.00281010
    Gval  0.00348561  0.00353633  0.00403128  0.00403475
  6.861249812505527E-006  6.861249812505527E-006
  1.102223483684036E-005  6.861249812505527E-006
  1.191807535952639E-005  6.861249812505527E-006
  2.010988833846937E-005  6.861249812505527E-006
  2.199979824408370E-005  6.861249812505527E-006
  2.622681071061976E-005  6.861249812505527E-006
  3.533032500857182E-005  6.861249812505527E-006
  4.720554796874152E-005  6.861249812505527E-006
  4.769261104030402E-005  6.861249812505527E-006
  4.991446427121525E-005  6.861249812505527E-006
  5.493236292850081E-005  6.861249812505527E-006
  5.971914301409302E-005  6.861249812505527E-006
  6.098741194842123E-005  6.861249812505527E-006
  7.802099092399763E-005  6.861249812505527E-006
  7.842196694045410E-005  6.861249812505527E-006
  9.774726383582656E-005  6.861249812505527E-006
  1.011808948502923E-004  6.861249812505527E-006
  1.093959268487254E-004  6.861249812505527E-006
  1.132975316400361E-004  6.861249812505527E-006
  1.279288471023735E-004  6.861249812505527E-006
  1.300454170294305E-004  6.861249812505527E-006
  1.349097833164791E-004  6.861249812505527E-006
  1.573030421394317E-004  6.861249812505527E-006
  2.024939795840824E-004  6.861249812505527E-006
  2.330485394528790E-004  6.861249812505527E-006
  2.616746095145008E-004  6.861249812505527E-006
  2.672853484288954E-004  6.861249812505527E-006
  2.970752677391331E-004  6.861249812505527E-006
  3.170478218935971E-004  6.861249812505527E-006
  3.757058096367059E-004  6.861249812505527E-006
  3.810661669016692E-004  6.861249812505527E-006
  4.182832710540822E-004  6.861249812505527E-006
  4.201103553610508E-004  6.861249812505527E-006
  4.402359220556924E-004  6.861249812505527E-006
  4.463613452227095E-004  6.861249812505527E-006
  5.932025642483167E-004  6.861249812505527E-006
  5.932427744800817E-004  6.861249812505527E-006
  5.973552035254135E-004  6.861249812505527E-006
  5.974806978432873E-004  6.861249812505527E-006
  6.179402004447030E-004  6.861249812505527E-006
  6.218004641894884E-004  6.861249812505527E-006
  6.238916821723507E-004  6.861249812505527E-006
  6.557027369305876E-004  6.861249812505527E-006
  6.558066568498974E-004  6.861249812505527E-006
  6.885119024406001E-004  6.861249812505527E-006
  8.957910566832953E-004  6.861249812505527E-006
  9.501968951594235E-004  6.861249812505527E-006
  1.054649163262469E-003  6.861249812505527E-006
  1.055742568939618E-003  6.861249812505527E-006
  1.121740124264401E-003  6.861249812505527E-006
  1.122071441940284E-003  6.861249812505527E-006
  1.160686377734768E-003  6.861249812505527E-006
  1.160856351532663E-003  6.861249812505527E-006
  1.173955539250099E-003  6.861249812505527E-006
  1.174007859396036E-003  6.861249812505527E-006
  1.182901646988173E-003  6.861249812505527E-006
  1.676677452286807E-003  6.861249812505527E-006
  1.832160124691505E-003  6.861249812505527E-006
  1.861909945493823E-003  6.861249812505527E-006
  2.165126016804277E-003  6.861249812505527E-006
  2.640634123806549E-003  6.861249812505527E-006
  2.810101086752142E-003  6.861249812505527E-006
  3.485608871373756E-003  6.861249812505527E-006
  3.536326148084060E-003  6.861249812505527E-006
  4.031280965335620E-003  6.861249812505527E-006
  4.034754860549763E-003  6.861249812505527E-006
 cut=1d-8, nber non-redundant internal coords=          66
 Check on Eigenvals of non-red overlap matrix:
  0.00000686  0.00001102  0.00001192  0.00002011  0.00002200  0.00002623  0.00003533  0.00004721
  0.00004769  0.00004991  0.00005493  0.00005972  0.00006099  0.00007802  0.00007842  0.00009775
  0.00010118  0.00010940  0.00011330  0.00012793  0.00013005  0.00013491  0.00015730  0.00020249
  0.00023305  0.00026167  0.00026729  0.00029708  0.00031705  0.00037571  0.00038107  0.00041828
  0.00042011  0.00044024  0.00044636  0.00059320  0.00059324  0.00059736  0.00059748  0.00061794
  0.00062180  0.00062389  0.00065570  0.00065581  0.00068851  0.00089579  0.00095020  0.00105465
  0.00105574  0.00112174  0.00112207  0.00116069  0.00116086  0.00117396  0.00117401  0.00118290
  0.00167668  0.00183216  0.00186191  0.00216513  0.00264063  0.00281010  0.00348561  0.00353633
  0.00403128  0.00403475
 generating redundant internal coords
         300        3600          24
 search for int coords
   1 str   2   1   1.270
   2 str   3   2   1.475
   3 str   4   3   1.270
   4 str   5   3   1.489
   5 str   6   5   1.400
   6 str   7   6   1.418
   7 str   8   7   1.395
   8 str   9   8   1.388
   9 str  10   5   1.445
  10 str  10   9   1.448
  11 str  11  10   1.433
  12 str  12  11   1.448
  13 str  13  12   1.388
  14 str  14  13   1.395
  15 str  15  14   1.418
  16 str  16   2   1.489
  17 str  16  11   1.445
  18 str  16  15   1.400
  19 str  17   6   1.089
  20 str  18   7   1.107
  21 str  19   8   1.115
  22 str  20   9   1.096
  23 str  21  12   1.096
  24 str  22  13   1.115
  25 str  23  14   1.107
  26 str  24  15   1.089
 nber stretches=          26
  27 ben   1   2   3
  28 prop tor   1   2   3   4
  29 prop tor   1   2   3   5
  30 ben   1   2  16
  31 prop tor   1   2  16  11
  32 prop tor   1   2  16  15
  33 ben   2   3   4
  34 ben   2   3   5
  35 prop tor   2   3   5   6
  36 prop tor   2   3   5  10
  37 ben   2  16  11
  38 ben   2  16  15
  39 ben   3   2  16
  40 prop tor   3   2  16  11
  41 prop tor   3   2  16  15
  42 ben   3   5   6
  43 prop tor   3   5   6   7
  44 prop tor   3   5   6  17
  45 ben   3   5  10
  46 prop tor   3   5  10   9
  47 prop tor   3   5  10  11
  48 ben   4   3   5
  49 prop tor   4   3   5   6
  50 prop tor   4   3   5  10
  51 ben   5   6   7
  52 prop tor   5   6   7   8
  53 prop tor   5   6   7  18
  54 ben   5   6  17
  55 ben   5  10   9
  56 ben   5  10  11
  57 prop tor   5  10  11  12
  58 prop tor   5  10  11  16
  59 ben   6   5  10
  60 prop tor   6   5  10   9
  61 prop tor   6   5  10  11
  62 ben   6   7   8
  63 prop tor   6   7   8   9
  64 prop tor   6   7   8  19
  65 ben   6   7  18
  66 ben   7   6  17
  67 ben   7   8   9
  68 prop tor   7   8   9  10
  69 prop tor   7   8   9  20
  70 ben   7   8  19
  71 ben   8   7  18
  72 ben   8   9  10
  73 prop tor   8   9  10   5
  74 prop tor   8   9  10  11
  75 ben   8   9  20
  76 ben   9   8  19
  77 ben   9  10  11
  78 prop tor   9  10  11  12
  79 prop tor   9  10  11  16
  80 prop tor  10   5   6   7
  81 prop tor  10   5   6  17
  82 ben  10   9  20
  83 ben  10  11  12
  84 prop tor  10  11  12  13
  85 prop tor  10  11  12  21
  86 ben  10  11  16
  87 prop tor  10  11  16   2
  88 prop tor  10  11  16  15
  89 ben  11  12  13
  90 prop tor  11  12  13  14
  91 prop tor  11  12  13  22
  92 ben  11  12  21
  93 ben  11  16  15
  94 ben  12  11  16
  95 prop tor  12  11  16   2
  96 prop tor  12  11  16  15
  97 ben  12  13  14
  98 prop tor  12  13  14  15
  99 prop tor  12  13  14  23
 100 ben  12  13  22
 101 ben  13  12  21
 102 ben  13  14  15
 103 prop tor  13  14  15  16
 104 prop tor  13  14  15  24
 105 ben  13  14  23
 106 ben  14  13  22
 107 ben  14  15  16
 108 prop tor  14  15  16   2
 109 prop tor  14  15  16  11
 110 ben  14  15  24
 111 ben  15  14  23
 112 prop tor  16   2   3   4
 113 prop tor  16   2   3   5
 114 prop tor  16  11  12  13
 115 prop tor  16  11  12  21
 116 ben  16  15  24
 117 prop tor  17   6   7   8
 118 prop tor  17   6   7  18
 119 prop tor  18   7   8   9
 120 prop tor  18   7   8  19
 121 prop tor  19   8   9  10
 122 prop tor  19   8   9  20
 123 prop tor  20   9  10   5
 124 prop tor  20   9  10  11
 125 prop tor  21  12  13  14
 126 prop tor  21  12  13  22
 127 prop tor  22  13  14  15
 128 prop tor  22  13  14  23
 129 prop tor  23  14  15  16
 130 prop tor  23  14  15  24
 131 prop tor  24  15  16   2
 132 prop tor  24  15  16  11
 nber bend=              42
 nber lin bend=           0
 nber prop tor=          64
 nber impr tor=           0
 nber tot redund int=         132
 Eigenvalues of G in red int coords
    Gval -0.00000000 -0.00000000 -0.00000000 -0.00000000 -0.00000000 -0.00000000 -0.00000000 -0.00000000
    Gval -0.00000000 -0.00000000 -0.00000000 -0.00000000 -0.00000000 -0.00000000 -0.00000000 -0.00000000
    Gval -0.00000000 -0.00000000 -0.00000000 -0.00000000 -0.00000000 -0.00000000 -0.00000000 -0.00000000
    Gval -0.00000000 -0.00000000 -0.00000000 -0.00000000 -0.00000000 -0.00000000 -0.00000000 -0.00000000
    Gval -0.00000000 -0.00000000  0.00000000  0.00000000  0.00000000  0.00000000  0.00000000  0.00000000
    Gval  0.00000000  0.00000000  0.00000000  0.00000000  0.00000000  0.00000000  0.00000000  0.00000000
    Gval  0.00000000  0.00000000  0.00000000  0.00000000  0.00000000  0.00000000  0.00000000  0.00000000
    Gval  0.00000000  0.00000000  0.00000000  0.00000000  0.00000000  0.00000000  0.00000000  0.00000000
    Gval  0.00000000  0.00000000  0.00000675  0.00001095  0.00001155  0.00002019  0.00002150  0.00002577
    Gval  0.00003561  0.00004715  0.00004757  0.00004946  0.00005465  0.00005947  0.00006066  0.00007750
    Gval  0.00007799  0.00009258  0.00010006  0.00010868  0.00011221  0.00012760  0.00012822  0.00012993
    Gval  0.00015454  0.00020086  0.00022815  0.00025949  0.00026327  0.00029383  0.00031772  0.00036919
    Gval  0.00037636  0.00040335  0.00042671  0.00042764  0.00044897  0.00059308  0.00059312  0.00059549
    Gval  0.00059678  0.00059699  0.00061617  0.00062037  0.00065323  0.00065373  0.00069737  0.00088468
    Gval  0.00095193  0.00101440  0.00101561  0.00109184  0.00109201  0.00112288  0.00112290  0.00113761
    Gval  0.00113776  0.00119501  0.00160342  0.00177982  0.00180936  0.00211660  0.00255461  0.00274213
    Gval  0.00337711  0.00343956  0.00387723  0.00388076
  6.754669324894612E-006  6.754669324894612E-006
  1.094513725821658E-005  6.754669324894612E-006
  1.154657204827740E-005  6.754669324894612E-006
  2.018844729423639E-005  6.754669324894612E-006
  2.149583370945449E-005  6.754669324894612E-006
  2.576557425085749E-005  6.754669324894612E-006
  3.560822191339772E-005  6.754669324894612E-006
  4.715426096633591E-005  6.754669324894612E-006
  4.756798162276507E-005  6.754669324894612E-006
  4.946330674504128E-005  6.754669324894612E-006
  5.464952142840847E-005  6.754669324894612E-006
  5.947246844131344E-005  6.754669324894612E-006
  6.066417765913802E-005  6.754669324894612E-006
  7.750398585736050E-005  6.754669324894612E-006
  7.798870978461783E-005  6.754669324894612E-006
  9.258348710981904E-005  6.754669324894612E-006
  1.000610955049509E-004  6.754669324894612E-006
  1.086822272747852E-004  6.754669324894612E-006
  1.122067002453156E-004  6.754669324894612E-006
  1.275955037155117E-004  6.754669324894612E-006
  1.282201796843977E-004  6.754669324894612E-006
  1.299266309245092E-004  6.754669324894612E-006
  1.545416029813775E-004  6.754669324894612E-006
  2.008593058026030E-004  6.754669324894612E-006
  2.281519776764725E-004  6.754669324894612E-006
  2.594876167306171E-004  6.754669324894612E-006
  2.632679699285999E-004  6.754669324894612E-006
  2.938279364287917E-004  6.754669324894612E-006
  3.177219542091335E-004  6.754669324894612E-006
  3.691858413000560E-004  6.754669324894612E-006
  3.763628808326717E-004  6.754669324894612E-006
  4.033514275377677E-004  6.754669324894612E-006
  4.267071348343711E-004  6.754669324894612E-006
  4.276404874290710E-004  6.754669324894612E-006
  4.489668846267441E-004  6.754669324894612E-006
  5.930797178714893E-004  6.754669324894612E-006
  5.931192758319039E-004  6.754669324894612E-006
  5.954874843452818E-004  6.754669324894612E-006
  5.967760539419468E-004  6.754669324894612E-006
  5.969939931028232E-004  6.754669324894612E-006
  6.161685903106599E-004  6.754669324894612E-006
  6.203714270560619E-004  6.754669324894612E-006
  6.532343331179156E-004  6.754669324894612E-006
  6.537303431647844E-004  6.754669324894612E-006
  6.973710089651998E-004  6.754669324894612E-006
  8.846775050726202E-004  6.754669324894612E-006
  9.519347104433507E-004  6.754669324894612E-006
  1.014402227780382E-003  6.754669324894612E-006
  1.015610918475840E-003  6.754669324894612E-006
  1.091838432189606E-003  6.754669324894612E-006
  1.092011394051819E-003  6.754669324894612E-006
  1.122882576359195E-003  6.754669324894612E-006
  1.122896226967066E-003  6.754669324894612E-006
  1.137606876004674E-003  6.754669324894612E-006
  1.137763400491062E-003  6.754669324894612E-006
  1.195013452666288E-003  6.754669324894612E-006
  1.603418402714990E-003  6.754669324894612E-006
  1.779822180007346E-003  6.754669324894612E-006
  1.809363020095272E-003  6.754669324894612E-006
  2.116599622770514E-003  6.754669324894612E-006
  2.554605855431284E-003  6.754669324894612E-006
  2.742131668664378E-003  6.754669324894612E-006
  3.377111535934446E-003  6.754669324894612E-006
  3.439564907625030E-003  6.754669324894612E-006
  3.877231614895200E-003  6.754669324894612E-006
  3.880763459443803E-003  6.754669324894612E-006
 cut=1d-8, nber non-redundant internal coords=          66
 Check on Eigenvals of non-red overlap matrix:
  0.00000675  0.00001095  0.00001155  0.00002019  0.00002150  0.00002577  0.00003561  0.00004715
  0.00004757  0.00004946  0.00005465  0.00005947  0.00006066  0.00007750  0.00007799  0.00009258
  0.00010006  0.00010868  0.00011221  0.00012760  0.00012822  0.00012993  0.00015454  0.00020086
  0.00022815  0.00025949  0.00026327  0.00029383  0.00031772  0.00036919  0.00037636  0.00040335
  0.00042671  0.00042764  0.00044897  0.00059308  0.00059312  0.00059549  0.00059678  0.00059699
  0.00061617  0.00062037  0.00065323  0.00065373  0.00069737  0.00088468  0.00095193  0.00101440
  0.00101561  0.00109184  0.00109201  0.00112288  0.00112290  0.00113761  0.00113776  0.00119501
  0.00160342  0.00177982  0.00180936  0.00211660  0.00255461  0.00274213  0.00337711  0.00343956
  0.00387723  0.00388076
 d1=
   3.6 -10.0  -0.0   0.0 -10.1   8.2   0.0   0.0   0.0  -0.0  -1.0   0.0   5.6  -0.0  -6.9   0.0   0.9   0.0  -0.0  -3.9
  -6.3   0.0   0.8  -0.0  -0.0  -0.0  -0.7   0.8   0.0  -0.0   4.5   0.0  -0.0   4.7  -0.0   2.3  -0.0  -0.6   0.0  -0.8
  -0.0  -0.0  -0.9  -0.0   0.0   0.0   0.0  -1.4   0.0  -0.0   0.1   0.2   0.0   0.0   0.2  -0.0   0.0  -0.0   0.0  -0.0
  -0.0  -0.0   0.0  -0.0  -0.0  -0.0
 d2=
  -4.1   9.7  -0.0  -0.0  -7.9   9.8   0.0   0.0   0.0  -0.0  -1.0   0.0  -5.9  -0.0   6.8   0.0  -0.6   0.0  -0.0   7.2
  -1.9  -0.0   0.7   0.0  -0.0  -0.5   0.0  -1.0  -0.0   0.0   4.3  -0.0   5.0   0.0   0.0  -2.3   0.0  -0.0  -0.5   0.0
   0.8  -0.0  -0.9   0.0  -0.0  -0.0   0.0   1.4  -0.0  -0.0  -0.1  -0.4   0.0   0.0  -0.0   0.0   0.0   0.0  -0.0   0.0
   0.0   0.0  -0.0   0.0   0.0  -0.0
 curvilinear- renormalizn of Dush matrix done
  mol 1 sym            1  -> mol 2 sym            1
  mol 1 sym            2  -> mol 2 sym            2
  mol 1 sym            3  -> mol 2 sym            3
  mol 1 sym            4  -> mol 2 sym            4

 Dushinsky matrix, ncs 2 in terms of ncs 1

   mode   freq    coeff     %      %tot     of    at

   1 A1     -0. -0.0000     0.0     0.0  11 A1    243.
   2 B1     -0.  0.0000     0.0     0.0  16 B1    389.
   3 B2      0. -0.0000     0.0     0.0  63 A1   1752.
   4 B1      0. -0.0000     0.0     0.0  16 B1    389.
   5 A2      0. -0.0000     0.0     0.0  35 B1    937.
   6 B2      0.  0.0000     0.0     0.0  63 A1   1752.
   7 A2     62. -0.9756    95.2    98.1   7 A2     25.
   8 B2     85.  0.9990    99.8    98.7   8 B2     85.
   9 A2    100.  0.9067    82.2    97.0   9 A2    102.
                 0.3466    12.0          12 A2    259.
  10 B2    159.  0.9979    99.6    97.0  10 B2    152.
  11 A1    236. -0.9977    99.5    97.9  11 A1    243.
  12 A2    251. -0.3521    12.4   101.7   9 A2    102.
                 0.9276    86.0          12 A2    259.
  13 B1    314. -0.9990    99.8    95.2  13 B1    319.
  14 A1    373. -0.9961    99.2    95.5  14 A1    366.
  15 B1    381. -0.9962    99.2   103.5  16 B1    389.
  16 B2    389. -0.8702    75.7    98.6  15 B2    386.
                 0.4813    23.2          19 B2    449.
  17 A1    413. -0.9920    98.4    96.5  17 A1    401.
  18 B2    414. -0.4844    23.5    93.3  15 B2    386.
                -0.8585    73.7          19 B2    449.
  19 A1    452.  0.9966    99.3    99.5  20 A1    463.
  20 A2    476. -0.8839    78.1   101.7  18 A2    431.
                -0.4253    18.1          22 A2    566.
  21 A2    524.  0.4422    19.6    99.6  18 A2    431.
                -0.8629    74.5          22 A2    566.
  22 B2    571. -0.9421    88.8    97.4  21 B2    556.
  23 B1    584.  0.6937    48.1    98.9  23 B1    616.
                -0.7116    50.6          24 B1    631.
  24 A2    586.  0.3191    10.2    96.9  27 A2    718.
                 0.4225    17.9          32 A2    844.
                 0.6499    42.2          34 A2    905.
                 0.4206    17.7          39 A2   1016.
  25 B1    609.  0.7282    53.0    98.8  23 B1    616.
                 0.6760    45.7          24 B1    631.
  26 B2    611.  0.5851    34.2    96.3  28 B2    744.
                 0.6615    43.8          29 B2    781.
  27 A2    635. -0.6749    45.5    98.5  27 A2    718.
                 0.6290    39.6          31 A2    797.
  28 B1    650. -0.9897    97.9    98.6  25 B1    683.
  29 A1    672.  0.9935    98.7    98.7  26 A1    693.
  30 B2    695.  0.4347    18.9    97.0  28 B2    744.
                -0.5533    30.6          29 B2    781.
                 0.6575    43.2          33 B2    897.
  31 A2    709. -0.5913    35.0   100.9  27 A2    718.
                -0.5128    26.3          31 A2    797.
                 0.5859    34.3          32 A2    844.
  32 B2    719.  0.5787    33.5    97.4  28 B2    744.
                -0.4022    16.2          29 B2    781.
                -0.6165    38.0          33 B2    897.
  33 A1    751.  0.9902    98.1    98.4  30 A1    796.
  34 A2    755. -0.3304    10.9    99.7  31 A2    797.
                -0.6669    44.5          32 A2    844.
                 0.6052    36.6          34 A2    905.
  35 A2    840. -0.4276    18.3    97.9  34 A2    905.
                 0.8409    70.7          39 A2   1016.
  36 B2    842. -0.3950    15.6    97.8  33 B2    897.
                 0.5415    29.3          37 B2    988.
                 0.7125    50.8          38 B2   1016.
  37 B1    850.  0.7806    60.9   100.1  35 B1    937.
                -0.3752    14.1          41 B1   1022.
  38 B2    871.  0.7650    58.5    94.6  37 B2    988.
                -0.5642    31.8          38 B2   1016.
  39 B1    920. -0.5398    29.1    98.8  35 B1    937.
                -0.7886    62.2          41 B1   1022.
  40 A2    950.  0.9440    89.1    94.8  36 A2    982.
  41 B1   1001. -0.4273    18.3    98.5  41 B1   1022.
                -0.7835    61.4          42 B1   1072.
                 0.3717    13.8          45 B1   1140.
  42 A1   1011. -0.4890    23.9    98.9  40 A1   1022.
                -0.6981    48.7          43 A1   1080.
                -0.4839    23.4          44 A1   1114.
  43 A1   1024. -0.7480    55.9    98.2  40 A1   1022.
                 0.5962    35.5          44 A1   1114.
  44 B1   1060.  0.3609    13.0    97.5  42 B1   1072.
                 0.6685    44.7          45 B1   1140.
                -0.6166    38.0          46 B1   1186.
  45 A1   1072. -0.6283    39.5    96.7  43 A1   1080.
                 0.5990    35.9          44 A1   1114.
                -0.3709    13.8          47 A1   1194.
  46 B1   1084. -0.5761    33.2    97.5  45 B1   1140.
                -0.7517    56.5          46 B1   1186.
  47 A1   1090.  0.8949    80.1    96.9  47 A1   1194.
  48 B1   1158. -0.9423    88.8   100.9  48 B1   1239.
  49 A1   1189. -0.9191    84.5    98.2  49 A1   1249.
  50 B1   1236. -0.6912    47.8    98.9  51 B1   1302.
                 0.5993    35.9          53 B1   1334.
  51 A1   1254.  0.7610    57.9    99.2  50 A1   1290.
                 0.5350    28.6          52 A1   1312.
  52 B1   1297.  0.6628    43.9    98.7  51 B1   1302.
                 0.4763    22.7          53 B1   1334.
                -0.4441    19.7          60 B1   1622.
  53 A1   1316.  0.4809    23.1    99.5  50 A1   1290.
                -0.6783    46.0          52 A1   1312.
  54 A1   1350.  0.3177    10.1    98.0  50 A1   1290.
                -0.8620    74.3          54 A1   1358.
  55 B1   1375. -0.5741    33.0   100.7  53 B1   1334.
                -0.6549    42.9          60 B1   1622.
  56 B1   1422.  0.7777    60.5    98.2  56 B1   1482.
                 0.4081    16.7          62 B1   1641.
                 0.3400    11.6          64 B1   1777.
  57 A1   1444.  0.3268    10.7    98.7  54 A1   1358.
                -0.8740    76.4          55 A1   1471.
  58 B1   1456.  0.7568    57.3    99.1  57 B1   1508.
                -0.4444    19.8          64 B1   1777.
  59 A1   1462.  0.7015    49.2    98.5  58 A1   1527.
[...]
 nber times 1st assigned=          39           0
 nber times 1st assigned=          40           0
 nber times 1st assigned=          41           0
 nber times 1st assigned=          42           0
 nber times 1st assigned=          43           0
 nber times 1st assigned=          44           0
 nber times 1st assigned=          45           0
 nber times 1st assigned=          46           0
 nber times 1st assigned=          47           0
 nber times 1st assigned=          48           0
 nber times 1st assigned=          49           0
 nber times 1st assigned=          50           0
 nber times 1st assigned=          51           0
 nber times 1st assigned=          52           0
 nber times 1st assigned=          53           0
 nber times 1st assigned=          54           0
 nber times 1st assigned=          55           0
 nber times 1st assigned=          56           0
 nber times 1st assigned=          57           0
 nber times 1st assigned=          58           0
 nber times 1st assigned=          59           0
 nber times 1st assigned=          60           0
 nber times 1st assigned=          61           0
 nber times 1st assigned=          62           0
 nber times 1st assigned=          63           2
 nber times 1st assigned=          64           0
 nber times 1st assigned=          65           0
 nber times 1st assigned=          66           0
 nber times 1st assigned=          67           0
 nber times 1st assigned=          68           0
 nber times 1st assigned=          69           0
 nber times 1st assigned=          70           0
 nber times 1st assigned=          71           0
 nber times 1st assigned=          72           0
 Dushinsky matrix written to .out file
 modes represented=   65.0469878184933     

 Dushinsky matrix, ncs 1 in terms of ncs 2

   mode   freq    coeff     %      %tot     of    at

   7 A2     25. -0.9756    95.2    99.2   7 A2     62.
   8 B2     85.  0.9990    99.8    98.9   8 B2     85.
   9 A2    102.  0.9067    82.2    96.8   9 A2    100.
                -0.3521    12.4          12 A2    251.
  10 B2    152.  0.9979    99.6    97.0  10 B2    159.
  11 A1    243. -0.9977    99.5    98.4  11 A1    236.
  12 A2    259.  0.3466    12.0   101.9   9 A2    100.
                 0.9276    86.0          12 A2    251.
  13 B1    319. -0.9990    99.8    95.9  13 B1    314.
  14 A1    366. -0.9961    99.2    95.7  14 A1    373.
  15 B2    386. -0.8702    75.7    97.4  16 B2    389.
                -0.4844    23.5          18 B2    414.
  16 B1    389. -0.9962    99.2   104.9  15 B1    381.
  17 A1    401. -0.9920    98.4    97.6  17 A1    413.
  18 A2    431. -0.8839    78.1   101.1  20 A2    476.
                 0.4422    19.6          21 A2    524.
  19 B2    449.  0.4813    23.2    94.9  16 B2    389.
                -0.8585    73.7          18 B2    414.
  20 A1    463.  0.9966    99.3    99.3  19 A1    452.
  21 B2    556. -0.9421    88.8    97.0  22 B2    571.
  22 A2    566. -0.4253    18.1   100.2  20 A2    476.
                -0.8629    74.5          21 A2    524.
  23 B1    616.  0.6937    48.1   101.5  23 B1    584.
                 0.7282    53.0          25 B1    609.
  24 B1    631. -0.7116    50.6    96.6  23 B1    584.
                 0.6760    45.7          25 B1    609.
  25 B1    683. -0.9897    97.9    98.4  28 B1    650.
  26 A1    693.  0.9935    98.7    98.3  29 A1    672.
  27 A2    718.  0.3191    10.2    98.9  24 A2    586.
                -0.6749    45.5          27 A2    635.
                -0.5913    35.0          31 A2    709.
  28 B2    744.  0.5851    34.2    96.0  26 B2    611.
                 0.4347    18.9          30 B2    695.
                 0.5787    33.5          32 B2    719.
  29 B2    781.  0.6615    43.8    96.9  26 B2    611.
                -0.5533    30.6          30 B2    695.
                -0.4022    16.2          32 B2    719.
  30 A1    796.  0.9902    98.1    98.2  33 A1    751.
  31 A2    797.  0.6290    39.6    97.5  27 A2    635.
                -0.5128    26.3          31 A2    709.
                -0.3304    10.9          34 A2    755.
  32 A2    844.  0.4225    17.9    99.5  24 A2    586.
                 0.5859    34.3          31 A2    709.
                -0.6669    44.5          34 A2    755.
  33 B2    897.  0.6575    43.2    96.8  30 B2    695.
                -0.6165    38.0          32 B2    719.
                -0.3950    15.6          36 B2    842.
  34 A2    905.  0.6499    42.2    98.4  24 A2    586.
                 0.6052    36.6          34 A2    755.
                -0.4276    18.3          35 A2    840.
  35 B1    937.  0.7806    60.9   100.6  37 B1    850.
                -0.5398    29.1          39 B1    920.
  36 A2    982.  0.9440    89.1    96.1  40 A2    950.
  37 B2    988.  0.5415    29.3    96.4  36 B2    842.
                 0.7650    58.5          38 B2    871.
  38 B2   1016.  0.7125    50.8    96.9  36 B2    842.
                -0.5642    31.8          38 B2    871.
  39 A2   1016.  0.4206    17.7    97.2  24 A2    586.
                 0.8409    70.7          35 A2    840.
  40 A1   1022. -0.4890    23.9    97.7  42 A1   1011.
                -0.7480    55.9          43 A1   1024.
  41 B1   1022. -0.3752    14.1    98.4  37 B1    850.
                -0.7886    62.2          39 B1    920.
                -0.4273    18.3          41 B1   1001.
  42 B1   1072. -0.7835    61.4    98.1  41 B1   1001.
                 0.3609    13.0          44 B1   1060.
  43 A1   1080. -0.6981    48.7    98.8  42 A1   1011.
                -0.6283    39.5          45 A1   1072.
  44 A1   1114. -0.4839    23.4    97.4  42 A1   1011.
                 0.5962    35.5          43 A1   1024.
                 0.5990    35.9          45 A1   1072.
  45 B1   1140.  0.3717    13.8    98.6  41 B1   1001.
                 0.6685    44.7          44 B1   1060.
                -0.5761    33.2          46 B1   1084.
  46 B1   1186. -0.6166    38.0    96.7  44 B1   1060.
                -0.7517    56.5          46 B1   1084.
  47 A1   1194. -0.3709    13.8    96.8  45 A1   1072.
                 0.8949    80.1          47 A1   1090.
  48 B1   1239. -0.9423    88.8    99.9  48 B1   1158.
  49 A1   1249. -0.9191    84.5    98.1  49 A1   1189.
  50 A1   1290.  0.7610    57.9    99.6  51 A1   1254.
                 0.4809    23.1          53 A1   1316.
                 0.3177    10.1          54 A1   1350.
  51 B1   1302. -0.6912    47.8    98.1  50 B1   1236.
                 0.6628    43.9          52 B1   1297.
  52 A1   1312.  0.5350    28.6    98.8  51 A1   1254.
                -0.6783    46.0          53 A1   1316.
  53 B1   1334.  0.5993    35.9    99.7  50 B1   1236.
                 0.4763    22.7          52 B1   1297.
                -0.5741    33.0          55 B1   1375.
  54 A1   1358. -0.8620    74.3    98.8  54 A1   1350.
                 0.3268    10.7          57 A1   1444.
  55 A1   1471. -0.8740    76.4    97.6  57 A1   1444.
  56 B1   1482.  0.7777    60.5    97.3  56 B1   1422.
                -0.3879    15.0          60 B1   1479.
  57 B1   1508.  0.7568    57.3    98.4  58 B1   1456.
                 0.6140    37.7          60 B1   1479.
  58 A1   1527.  0.7015    49.2    98.2  59 A1   1462.
                -0.5228    27.3          61 A1   1499.
  59 A1   1602.  0.5518    30.4    98.7  59 A1   1462.
                 0.7708    59.4          61 A1   1499.
  60 B1   1622. -0.4441    19.7    99.3  52 B1   1297.
                -0.6549    42.9          55 B1   1375.
                 0.4120    17.0          63 B1   1536.
  61 A1   1634. -0.9672    93.5    99.4  64 A1   1577.
  62 B1   1641.  0.4081    16.7    99.6  56 B1   1422.
                 0.5077    25.8          60 B1   1479.
                -0.5852    34.2          63 B1   1536.
  63 A1   1752.  0.9335    87.1   100.0  62 A1   1528.
  64 B1   1777.  0.3400    11.6   100.4  56 B1   1422.
                -0.4444    19.8          58 B1   1456.
                 0.4014    16.1          60 B1   1479.
                 0.6731    45.3          63 B1   1536.
  65 B1   3170. -0.3580    12.8   100.0  65 B1   2583.
                -0.8785    77.2          67 B1   2778.
  66 A1   3172. -0.8802    77.5   100.0  66 A1   2741.
                 0.4200    17.6          68 A1   2830.
  67 B1   3185.  0.6207    38.5   100.0  65 B1   2583.
                -0.3762    14.1          67 B1   2778.
                -0.5537    30.7          69 B1   2964.
                -0.4031    16.2          71 B1   3090.
  68 A1   3187. -0.4239    18.0   100.0  66 A1   2741.
                -0.8077    65.2          68 A1   2830.
                -0.3953    15.6          72 A1   3096.
  69 B1   3198.  0.4177    17.4   100.0  65 B1   2583.
                 0.7405    54.8          69 B1   2964.
                -0.5033    25.3          71 B1   3090.
  70 A1   3202.  0.4052    16.4   100.0  68 A1   2830.
                -0.8991    80.8          72 A1   3096.
  71 B1   3202.  0.5472    29.9   100.0  65 B1   2583.
                 0.7529    56.7          71 B1   3090.
  72 A1   3213. -0.9649    93.1   100.0  70 A1   2983.
 nber times 1st assigned=           1           0
 nber times 1st assigned=           2           0
 nber times 1st assigned=           3           0
 nber times 1st assigned=           4           0
 nber times 1st assigned=           5           0
 nber times 1st assigned=           6           0
 nber times 1st assigned=           7           0
 nber times 1st assigned=           8           0
 nber times 1st assigned=           9           0
 nber times 1st assigned=          10           0
 nber times 1st assigned=          11           0
 nber times 1st assigned=          12           0
 nber times 1st assigned=          13           0
 nber times 1st assigned=          14           0
 nber times 1st assigned=          15           0
 nber times 1st assigned=          16           0
 nber times 1st assigned=          17           0
 nber times 1st assigned=          18           0
 nber times 1st assigned=          19           0
 nber times 1st assigned=          20           0
 nber times 1st assigned=          21           0
 nber times 1st assigned=          22           0
 nber times 1st assigned=          23           0
 nber times 1st assigned=          24           0
 nber times 1st assigned=          25           0
 nber times 1st assigned=          26           0
 nber times 1st assigned=          27           0
 nber times 1st assigned=          28           0
 nber times 1st assigned=          29           0
 nber times 1st assigned=          30           0
 nber times 1st assigned=          31           0
 nber times 1st assigned=          32           0
 nber times 1st assigned=          33           0
 nber times 1st assigned=          34           0
 nber times 1st assigned=          35           0
 nber times 1st assigned=          36           0
 nber times 1st assigned=          37           0
 nber times 1st assigned=          38           0
 nber times 1st assigned=          39           0
 nber times 1st assigned=          40           0
 nber times 1st assigned=          41           0
 nber times 1st assigned=          42           0
 nber times 1st assigned=          43           0
 nber times 1st assigned=          44           0
 nber times 1st assigned=          45           0
 nber times 1st assigned=          46           0
 nber times 1st assigned=          47           0
 nber times 1st assigned=          48           0
 nber times 1st assigned=          49           0
 nber times 1st assigned=          50           0
 nber times 1st assigned=          51           0
 nber times 1st assigned=          52           0
 nber times 1st assigned=          53           0
 nber times 1st assigned=          54           0
 nber times 1st assigned=          55           0
 nber times 1st assigned=          56           0
 nber times 1st assigned=          57           0
 nber times 1st assigned=          58           0
 nber times 1st assigned=          59           0
 nber times 1st assigned=          60           0
 nber times 1st assigned=          61           0
 nber times 1st assigned=          62           0
 nber times 1st assigned=          63           0
 nber times 1st assigned=          64           0
 nber times 1st assigned=          65           0
 nber times 1st assigned=          66           0
 nber times 1st assigned=          67           0
 nber times 1st assigned=          68           0
 nber times 1st assigned=          69           0
 nber times 1st assigned=          70           0
 nber times 1st assigned=          71           0
 nber times 1st assigned=          72           0
 modes represented=   65.0469878184933     
 p1=
    0.    0.    0.   -0.   -0.   -0.    0.   -0.    0.    0.    4.   -0.    0.   -3.   -0.   -0.   -1.    0.   -0.  -15.
    0.   -0.    0.    0.   -0.    1.   -0.    0.   -0.   -1.    0.    0.    0.   -0.   -0.    0.   -0.    0.    0.    8.
   -0.    0.    1.    1.    0.    0.   -2.   -0.    2.   -4.    0.    3.    0.    2.   -0.   -0.    0.   -2.    1.    0.
   -3.   -0.  -10.   -0.    0.   -1.   -0.   -2.   -0.    1.   -0.    1.
 p2=
   -0.    0.   -0.    0.    0.    0.    0.    0.   -0.   -0.    5.    0.   -0.   -3.    0.   -0.   -1.   -0.   15.    0.
   -0.    0.    0.    0.    0.   -0.   -0.    0.   -2.   -0.   -0.   -0.    2.    0.   -0.   -0.   -0.    0.    0.   -0.
   -0.    5.    5.   -0.   -3.   -0.    1.    0.    2.   -0.    0.    0.    3.    3.   -0.   -0.   -0.    0.    1.   -0.
    1.   11.   -0.   -3.   -0.   -1.   -0.   -2.    0.    1.    0.    0.

 Displacement: in terms of nc of 1 THEN of nc of 2

   1 B2  freq=    -0. Q=  0.000 lam=    -0.0 A1  freq=    -0. Q=  0.000 lam=    -0.0
   2 A1  freq=    -0. Q=  0.000 lam=    -0.0 B1  freq=    -0. Q=  0.000 lam=    -0.0
   3 B1  freq=     0. Q=  0.000 lam=     0.0 B2  freq=     0. Q=  0.000 lam=     0.0
   4 B1  freq=     0. Q= -0.000 lam=     0.0 B1  freq=     0. Q= -0.000 lam=     0.0
   5 A2  freq=     0. Q= -0.000 lam=     0.0 A2  freq=     0. Q= -0.000 lam=     0.0
   6 B2  freq=     0. Q= -0.000 lam=     0.0 B2  freq=     0. Q= -0.000 lam=     0.0
   7 A2  freq=    25. Q=  0.000 lam=     0.0 A2  freq=    62. Q=  0.000 lam=     0.0
   8 B2  freq=    85. Q= -0.000 lam=     0.0 B2  freq=    85. Q= -0.000 lam=     0.0
   9 A2  freq=   102. Q=  0.000 lam=     0.0 A2  freq=   100. Q=  0.000 lam=     0.0
  10 B2  freq=   152. Q=  0.000 lam=     0.0 B2  freq=   159. Q=  0.000 lam=     0.0
  11 A1  freq=   243. Q=  0.251 lam=     7.7 A1  freq=   236. Q=  0.284 lam=     9.5
  12 A2  freq=   259. Q= -0.000 lam=     0.0 A2  freq=   251. Q= -0.000 lam=     0.0
  13 B1  freq=   319. Q=  0.000 lam=     0.0 B1  freq=   314. Q=  0.000 lam=     0.0
  14 A1  freq=   366. Q= -0.222 lam=     9.0 A1  freq=   373. Q= -0.222 lam=     9.2
  15 B2  freq=   386. Q= -0.000 lam=     0.0 B1  freq=   381. Q= -0.000 lam=     0.0
  16 B1  freq=   389. Q= -0.000 lam=     0.0 B2  freq=   389. Q= -0.000 lam=     0.0
  17 A1  freq=   401. Q= -0.092 lam=     1.7 A1  freq=   413. Q= -0.099 lam=     2.0
  18 A2  freq=   431. Q=  0.000 lam=     0.0 B2  freq=   414. Q=  0.000 lam=     0.0
  19 B2  freq=   449. Q= -0.000 lam=     0.0 A1  freq=   452. Q= -1.278 lam=   368.7
  20 A1  freq=   463. Q= -1.291 lam=   385.8 A2  freq=   476. Q= -0.000 lam=     0.0
  21 B2  freq=   556. Q=  0.000 lam=     0.0 A2  freq=   524. Q=  0.000 lam=     0.0
  22 A2  freq=   566. Q= -0.000 lam=     0.0 B2  freq=   571. Q= -0.000 lam=     0.0
  23 B1  freq=   616. Q=  0.000 lam=     0.0 B1  freq=   584. Q=  0.000 lam=     0.0
  24 B1  freq=   631. Q=  0.000 lam=     0.0 A2  freq=   586. Q=  0.000 lam=     0.0
  25 B1  freq=   683. Q= -0.000 lam=     0.0 B1  freq=   609. Q= -0.000 lam=     0.0
  26 A1  freq=   693. Q=  0.119 lam=     4.9 B2  freq=   611. Q=  0.000 lam=     0.0
  27 A2  freq=   718. Q= -0.000 lam=     0.0 A2  freq=   635. Q= -0.000 lam=     0.0
  28 B2  freq=   744. Q=  0.000 lam=     0.0 B1  freq=   650. Q=  0.000 lam=     0.0
  29 B2  freq=   781. Q= -0.000 lam=     0.0 A1  freq=   672. Q= -0.167 lam=     9.4
  30 A1  freq=   796. Q= -0.110 lam=     4.9 B2  freq=   695. Q= -0.000 lam=     0.0
  31 A2  freq=   797. Q=  0.000 lam=     0.0 A2  freq=   709. Q=  0.000 lam=     0.0
  32 A2  freq=   844. Q=  0.000 lam=     0.0 B2  freq=   719. Q=  0.000 lam=     0.0
  33 B2  freq=   897. Q=  0.000 lam=     0.0 A1  freq=   751. Q=  0.167 lam=    10.4
  34 A2  freq=   905. Q= -0.000 lam=     0.0 A2  freq=   755. Q= -0.000 lam=     0.0
  35 B1  freq=   937. Q= -0.000 lam=     0.0 A2  freq=   840. Q= -0.000 lam=     0.0
  36 A2  freq=   982. Q=  0.000 lam=     0.0 B2  freq=   842. Q=  0.000 lam=     0.0
  37 B2  freq=   988. Q= -0.000 lam=     0.0 B1  freq=   850. Q= -0.000 lam=     0.0
  38 B2  freq=  1016. Q=  0.000 lam=     0.0 B2  freq=   871. Q=  0.000 lam=     0.0
  39 A2  freq=  1016. Q=  0.000 lam=     0.0 B1  freq=   920. Q=  0.000 lam=     0.0
  40 A1  freq=  1022. Q=  1.035 lam=   547.3 A2  freq=   950. Q=  0.000 lam=     0.0
  41 B1  freq=  1022. Q= -0.000 lam=     0.0 B1  freq=  1001. Q= -0.000 lam=     0.0
  42 B1  freq=  1072. Q=  0.000 lam=     0.0 A1  freq=  1011. Q=  0.597 lam=   180.2
  43 A1  freq=  1080. Q=  0.096 lam=     5.0 A1  freq=  1024. Q=  0.661 lam=   223.6
  44 A1  freq=  1114. Q=  0.171 lam=    16.2 B1  freq=  1060. Q=  0.000 lam=     0.0
  45 B1  freq=  1140. Q=  0.000 lam=     0.0 A1  freq=  1072. Q=  0.378 lam=    76.4
  46 B1  freq=  1186. Q=  0.000 lam=     0.0 B1  freq=  1084. Q=  0.000 lam=     0.0
  47 A1  freq=  1194. Q= -0.293 lam=    51.2 A1  freq=  1090. Q= -0.141 lam=    10.9
  48 B1  freq=  1239. Q= -0.000 lam=     0.0 B1  freq=  1158. Q= -0.000 lam=     0.0
  49 A1  freq=  1249. Q=  0.243 lam=    36.8 A1  freq=  1189. Q=  0.260 lam=    40.2
  50 A1  freq=  1290. Q= -0.586 lam=   221.8 B1  freq=  1236. Q= -0.000 lam=     0.0
  51 B1  freq=  1302. Q=  0.000 lam=     0.0 A1  freq=  1254. Q=  0.036 lam=     0.8
  52 A1  freq=  1312. Q=  0.428 lam=   120.3 B1  freq=  1297. Q=  0.000 lam=     0.0
  53 B1  freq=  1334. Q=  0.000 lam=     0.0 A1  freq=  1316. Q=  0.407 lam=   109.0
  54 A1  freq=  1358. Q=  0.326 lam=    72.0 A1  freq=  1350. Q=  0.387 lam=   101.3
  55 A1  freq=  1471. Q= -0.072 lam=     3.9 B1  freq=  1375. Q= -0.000 lam=     0.0
  56 B1  freq=  1482. Q= -0.000 lam=     0.0 B1  freq=  1422. Q= -0.000 lam=     0.0
  57 B1  freq=  1508. Q=  0.000 lam=     0.0 A1  freq=  1444. Q=  0.022 lam=     0.4
  58 A1  freq=  1527. Q= -0.374 lam=   106.7 B1  freq=  1456. Q= -0.000 lam=     0.0
  59 A1  freq=  1602. Q=  0.088 lam=     6.3 A1  freq=  1462. Q=  0.127 lam=    11.8
  60 B1  freq=  1622. Q=  0.000 lam=     0.0 B1  freq=  1479. Q=  0.000 lam=     0.0
  61 A1  freq=  1634. Q= -0.519 lam=   220.4 A1  freq=  1499. Q= -0.234 lam=    41.0
  62 B1  freq=  1641. Q= -0.000 lam=     0.0 A1  freq=  1528. Q= -1.659 lam=  2103.0
  63 A1  freq=  1752. Q= -1.656 lam=  2401.2 B1  freq=  1536. Q= -0.000 lam=     0.0
  64 B1  freq=  1777. Q= -0.000 lam=     0.0 A1  freq=  1577. Q= -0.532 lam=   223.1
  65 B1  freq=  3170. Q=  0.000 lam=     0.0 B1  freq=  2583. Q=  0.000 lam=     0.0
  66 A1  freq=  3172. Q= -0.138 lam=    30.2 A1  freq=  2741. Q= -0.307 lam=   128.8
  67 B1  freq=  3185. Q= -0.000 lam=     0.0 B1  freq=  2778. Q= -0.000 lam=     0.0
  68 A1  freq=  3187. Q= -0.368 lam=   216.2 A1  freq=  2830. Q= -0.328 lam=   152.5
  69 B1  freq=  3198. Q= -0.000 lam=     0.0 B1  freq=  2964. Q= -0.000 lam=     0.0
  70 A1  freq=  3202. Q=  0.197 lam=    62.1 A1  freq=  2983. Q=  0.158 lam=    37.3
  71 B1  freq=  3202. Q= -0.000 lam=     0.0 B1  freq=  3090. Q= -0.000 lam=     0.0
  72 A1  freq=  3213. Q=  0.279 lam=   124.8 A1  freq=  3096. Q=  0.088 lam=    12.1

 total reorg energy (cm**-1, kcal/mol)=     4656.     3861.     13.31     11.04
 Nber of molecules processed=           2
