 Enter ifcurve (0=recti, 1=orth curvi, 2=apprx curvi, -1 = skip
 And atom ordering flag, 0= never changes, 1= use the first order thenceforth,
  2= deduce it (does read on fail), 3= always read it
 Reading file: 
 ./Non-cov-phenyl-N_4_C0S0.log                                                  
                                          
  Entering Gaussian System, Link 0=g16                                          
  
 Gaussian format, type: g94, g98, g03= F F F
  #P Geom=AllCheck Guess=TCheck SCRF=Check GenChk RB3LYP/6-311G(d,p) Fre    
 energy type= B3LYP   
 Original G94 input coords:
  6  7.509288  0.000000  0.000000
  6  6.809850 -1.206604  0.000000
  6  5.419727 -1.209251  0.000000
  6  4.709536  0.000000  0.000000
  6  3.228565  0.000000  0.000000
  7  2.604518  1.191579  0.000000
  6  1.277144  1.183136  0.000000
  6  0.528509  0.000000  0.000000
  6 -0.944671  0.000000  0.000000
  7 -1.562840  1.192908  0.000000
  6 -2.891288  1.183842  0.000000
  6 -3.637798  0.000000  0.000000
  6 -5.114668  0.000000  0.000000
  7 -5.729531  1.192885  0.000000
  6 -7.061328  1.181152  0.000000
  6 -7.796308  0.000000  0.000000
  6 -7.061328 -1.181152  0.000000
  7 -5.729531 -1.192885  0.000000
  6 -2.891288 -1.183842  0.000000
  7 -1.562840 -1.192908  0.000000
  6  1.277144 -1.183136  0.000000
  7  2.604518 -1.191579  0.000000
  6  5.419727  1.209251  0.000000
  6  6.809850  1.206604  0.000000
  1  8.593312  0.000000  0.000000
  1  7.349563 -2.146519  0.000000
  1  4.864050 -2.137327  0.000000
  1  0.771269  2.142824  0.000000
  1 -3.397191  2.143157  0.000000
  1 -7.552272  2.150671  0.000000
  1 -8.879110  0.000000  0.000000
  1 -7.552272 -2.150671  0.000000
  1 -3.397191 -2.143157  0.000000
  1  0.771269 -2.142824  0.000000
  1  4.864050  2.137327  0.000000
  1  7.349563  2.146519  0.000000
 nber atoms=          36
 Original standard coords:
  6  0.000000  0.000000  7.683985
  6  0.000000  1.206604  6.984547
  6  0.000000  1.209251  5.594424
  6  0.000000  0.000000  4.884233
  6  0.000000  0.000000  3.403262
  7  0.000000 -1.191579  2.779215
  6  0.000000 -1.183136  1.451841
  6  0.000000  0.000000  0.703206
  6  0.000000  0.000000 -0.769974
  7  0.000000 -1.192908 -1.388143
  6  0.000000 -1.183842 -2.716591
  6  0.000000  0.000000 -3.463101
  6  0.000000  0.000000 -4.939971
  7  0.000000 -1.192885 -5.554834
  6  0.000000 -1.181152 -6.886631
  6  0.000000  0.000000 -7.621611
  6  0.000000  1.181152 -6.886631
  7  0.000000  1.192885 -5.554834
  6  0.000000  1.183842 -2.716591
  7  0.000000  1.192908 -1.388143
  6  0.000000  1.183136  1.451841
  7  0.000000  1.191579  2.779215
  6  0.000000 -1.209251  5.594424
  6  0.000000 -1.206604  6.984547
  1  0.000000  0.000000  8.768009
  1  0.000000  2.146519  7.524260
  1  0.000000  2.137327  5.038747
  1  0.000000 -2.142824  0.945966
  1  0.000000 -2.143157 -3.222494
  1  0.000000 -2.150671 -7.377575
  1  0.000000  0.000000 -8.704413
  1  0.000000  2.150671 -7.377575
  1  0.000000  2.143157 -3.222494
  1  0.000000  2.142824  0.945966
  1  0.000000 -2.137327  5.038747
  1  0.000000 -2.146519  7.524260
  SCF Done:  E(RB3LYP) =  -1021.90319853     A.U. after    1 cycles             
  
          23          40 "  -1021.90319853"
After scan for Atom:   Atom  AN      X      Y      Z        X      Y      Z        X      Y      Z   
After scan for Atom:   Atom  AN      X      Y      Z        X      Y      Z        X      Y      Z   
After scan for Atom:   Atom  AN      X      Y      Z        X      Y      Z        X      Y      Z   
After scan for Atom:   Atom  AN      X      Y      Z        X      Y      Z        X      Y      Z   
After scan for Atom:   Atom  AN      X      Y      Z        X      Y      Z        X      Y      Z   
After scan for Atom:   Atom  AN      X      Y      Z        X      Y      Z        X      Y      Z   
After scan for Atom:   Atom  AN      X      Y      Z        X      Y      Z        X      Y      Z   
After scan for Atom:   Atom  AN      X      Y      Z        X      Y      Z        X      Y      Z   
After scan for Atom:   Atom  AN      X      Y      Z        X      Y      Z        X      Y      Z   
After scan for Atom:   Atom  AN      X      Y      Z        X      Y      Z        X      Y      Z   
After scan for Atom:   Atom  AN      X      Y      Z        X      Y      Z        X      Y      Z   
After scan for Atom:   Atom  AN      X      Y      Z        X      Y      Z        X      Y      Z   
After scan for Atom:   Atom  AN      X      Y      Z        X      Y      Z        X      Y      Z   
After scan for Atom:   Atom  AN      X      Y      Z        X      Y      Z        X      Y      Z   
After scan for Atom:   Atom  AN      X      Y      Z        X      Y      Z        X      Y      Z   
After scan for Atom:   Atom  AN      X      Y      Z        X      Y      Z        X      Y      Z   
After scan for Atom:   Atom  AN      X      Y      Z        X      Y      Z        X      Y      Z   
After scan for Atom:   Atom  AN      X      Y      Z        X      Y      Z        X      Y      Z   
After scan for Atom:   Atom  AN      X      Y      Z        X      Y      Z        X      Y      Z   
After scan for Atom:   Atom  AN      X      Y      Z        X      Y      Z        X      Y      Z   
After scan for Atom:   Atom  AN      X      Y      Z        X      Y      Z        X      Y      Z   
After scan for Atom:   Atom  AN      X      Y      Z        X      Y      Z        X      Y      Z   
After scan for Atom:   Atom  AN      X      Y      Z        X      Y      Z        X      Y      Z   
After scan for Atom:   Atom  AN      X      Y      Z        X      Y      Z        X      Y      Z   
After scan for Atom:   Atom  AN      X      Y      Z        X      Y      Z        X      Y      Z   
After scan for Atom:   Atom  AN      X      Y      Z        X      Y      Z        X      Y      Z   
After scan for Atom:   Atom  AN      X      Y      Z        X      Y      Z        X      Y      Z   
After scan for Atom:   Atom  AN      X      Y      Z        X      Y      Z        X      Y      Z   
After scan for Atom:   Atom  AN      X      Y      Z        X      Y      Z        X      Y      Z   
After scan for Atom:   Atom  AN      X      Y      Z        X      Y      Z        X      Y      Z   
After scan for Atom:   Atom  AN      X      Y      Z        X      Y      Z        X      Y      Z   
After scan for Atom:   Atom  AN      X      Y      Z        X      Y      Z        X      Y      Z   
After scan for Atom:   Atom  AN      X      Y      Z        X      Y      Z        X      Y      Z   
After scan for Atom:   Atom  AN      X      Y      Z        X      Y      Z        X      Y      Z   
 g94    frequencies=
     0.0    0.0    0.0    0.0    0.0    0.0   20.2   28.6   50.2   54.3
    55.7   73.3  120.8  125.0  168.0  175.5  198.8  257.1  337.9  348.6
   387.4  405.3  409.5  414.3  417.3  433.4  458.1  476.5  514.8  517.4
   569.7  605.6  631.1  645.4  660.3  673.8  679.2  709.4  726.3  769.1
   797.1  822.2  827.3  838.2  844.5  857.8  867.1  961.4  995.3 1002.7
  1005.5 1006.6 1009.7 1014.4 1016.0 1017.2 1017.2 1020.1 1038.9 1044.9
  1047.8 1072.0 1082.7 1098.6 1109.6 1115.7 1134.9 1180.2 1194.9 1222.9
  1226.5 1243.6 1271.8 1285.0 1291.7 1336.4 1343.5 1346.3 1349.1 1353.1
  1398.6 1425.4 1429.4 1465.4 1468.5 1481.6 1497.9 1524.6 1555.2 1584.7
  1602.3 1605.9 1620.5 1623.9 1638.4 1647.7 3149.0 3151.4 3164.6 3176.1
  3178.1 3178.7 3182.4 3182.9 3188.0 3199.5 3210.4 3211.5
 g94    symmetries=
                                                B1     A2     B2     A2
      B1     A2     B1     B2     B1     A1     B2     B1     A1     B1
      B2     A2     A2     A2     A2     B1     B2     A1     B2     B1
      B1     B1     B2     B2     B2     B2     A1     B1     A1     B1
      A1     B1     B1     A1     B1     B1     A2     B1     B1     A2
      A2     B1     A1     B1     B1     A2     A1     A2     A1     A1
      A1     A1     A1     B2     A1     B2     A1     B2     A1     B2
      B2     B2     B2     B2     B2     B2     A1     A1     B2     A1
      B2     B2     A1     A1     B2     B2     A1     A1     B2     B2
      A1     B2     A1     B2     A1     A1     A1     B2     A1     B2
      B2     A1     B2     A1     A1     A1     B2     A1
 atomic masses:
 12.0000 12.0000 12.0000 12.0000 12.0000 14.0031 12.0000 12.0000 12.0000 14.0031
 12.0000 12.0000 12.0000 14.0031 12.0000 12.0000 12.0000 14.0031 12.0000 14.0031
 12.0000 14.0031 12.0000 12.0000  1.0078  1.0078  1.0078  1.0078  1.0078  1.0078
  1.0078  1.0078  1.0078  1.0078  1.0078  1.0078
 looking for force constants in 
 ./Non-cov-phenyl-N_4_C0S0.fchk                                                 
  
 Cartesian Force Constants                  R   N=        5886                  
  
 n3=         108        5886
 g94-fc frequencies=
    -2.3   -1.2   -0.7   -0.0    0.0    0.0   20.2   28.6   50.2   54.3
    55.7   73.3  120.8  125.0  168.0  175.5  198.8  257.1  337.9  348.6
   387.4  405.3  409.5  414.3  417.3  433.4  458.2  476.5  514.8  517.4
   569.7  605.7  631.1  645.4  660.3  673.9  679.2  709.4  726.3  769.2
   797.1  822.2  827.3  838.2  844.5  857.8  867.1  961.4  995.3 1002.7
  1005.6 1006.7 1009.7 1014.5 1016.0 1017.2 1017.2 1020.1 1039.0 1044.9
  1047.8 1072.1 1082.8 1098.6 1109.6 1115.8 1134.9 1180.2 1195.0 1222.9
  1226.5 1243.6 1271.8 1285.0 1291.8 1336.4 1343.5 1346.3 1349.1 1353.1
  1398.6 1425.4 1429.4 1465.4 1468.5 1481.7 1498.0 1524.6 1555.2 1584.8
  1602.3 1605.9 1620.6 1623.9 1638.4 1647.8 3149.1 3151.5 3164.6 3176.2
  3178.2 3178.8 3182.5 3183.0 3188.1 3199.6 3210.4 3211.5
 at 99999: n3=         108
 symm operator            1 :  T  nop=           1
 symm operator            2 :  F  nop=           1
 symm operator            3 :  F  nop=           1
 symm operator            4 :  F  nop=           1
 symm operator            5 :  F  nop=           1
 symm operator            6 :  T  nop=           2
 symm operator            7 :  T  nop=           3
 The point group of the molecule is C2V
 enforcing symm op           1  jsymt=          -1          -1           1
 enforcing symm op           6  jsymt=           1          -1           1
 enforcing symm op           7  jsymt=          -1           1           1
 cartesian coord symmetries:
 A1 :   36 A2 :   13 B1 :   23 B2 :   36
 Symmetry rotation matrix:
   1.00000   0.00000   0.00000
   0.00000   1.00000   0.00000
   0.00000   0.00000   1.00000

 Projecting out zero-frequency components
 generating redundant internal coords
         300        3600          36
 search for int coords
   1 str   2   1   1.395
   2 str   3   2   1.390
   3 str   4   3   1.402
   4 str   5   4   1.481
   5 str   6   5   1.345
   6 str   7   6   1.327
   7 str   8   7   1.400
   8 str   9   8   1.473
   9 str  10   9   1.344
  10 str  11  10   1.328
  11 str  12  11   1.400
  12 str  13  12   1.477
  13 str  14  13   1.342
  14 str  15  14   1.332
  15 str  16  15   1.391
  16 str  17  16   1.391
  17 str  18  13   1.342
  18 str  18  17   1.332
  19 str  19  12   1.400
  20 str  20   9   1.344
  21 str  20  19   1.328
  22 str  21   8   1.400
  23 str  22   5   1.345
  24 str  22  21   1.327
  25 str  23   4   1.402
  26 str  24   1   1.395
  27 str  24  23   1.390
  28 str  25   1   1.084
  29 str  26   2   1.084
  30 str  27   3   1.082
  31 str  28   7   1.085
  32 str  29  11   1.085
  33 str  30  15   1.087
  34 str  31  16   1.083
  35 str  32  17   1.087
  36 str  33  19   1.085
  37 str  34  21   1.085
  38 str  35  23   1.082
  39 str  36  24   1.084
 nber stretches=          39
  40 ben   1   2   3
  41 prop tor   1   2   3   4
  42 prop tor   1   2   3  27
  43 ben   1   2  26
  44 ben   1  24  23
  45 ben   1  24  36
  46 ben   2   1  24
  47 prop tor   2   1  24  23
  48 prop tor   2   1  24  36
  49 ben   2   1  25
  50 ben   2   3   4
  51 prop tor   2   3   4   5
  52 prop tor   2   3   4  23
  53 ben   2   3  27
  54 ben   3   2  26
  55 ben   3   4   5
  56 prop tor   3   4   5   6
  57 prop tor   3   4   5  22
  58 ben   3   4  23
  59 prop tor   3   4  23  24
  60 prop tor   3   4  23  35
  61 ben   4   3  27
  62 ben   4   5   6
  63 prop tor   4   5   6   7
  64 ben   4   5  22
  65 prop tor   4   5  22  21
  66 ben   4  23  24
  67 prop tor   4  23  24   1
  68 prop tor   4  23  24  36
  69 ben   4  23  35
  70 ben   5   4  23
  71 prop tor   5   4  23  24
  72 prop tor   5   4  23  35
  73 ben   5   6   7
  74 prop tor   5   6   7   8
  75 prop tor   5   6   7  28
  76 ben   5  22  21
  77 ben   6   5  22
  78 prop tor   6   5  22  21
  79 ben   6   7   8
  80 prop tor   6   7   8   9
  81 prop tor   6   7   8  21
  82 ben   6   7  28
  83 ben   7   8   9
  84 prop tor   7   8   9  10
  85 prop tor   7   8   9  20
  86 ben   7   8  21
  87 prop tor   7   8  21  22
  88 prop tor   7   8  21  34
  89 ben   8   7  28
  90 ben   8   9  10
  91 prop tor   8   9  10  11
  92 ben   8   9  20
  93 prop tor   8   9  20  19
  94 ben   8  21  22
  95 prop tor   8  21  22   5
  96 ben   8  21  34
  97 ben   9   8  21
  98 prop tor   9   8  21  22
  99 prop tor   9   8  21  34
 100 ben   9  10  11
 101 prop tor   9  10  11  12
 102 prop tor   9  10  11  29
 103 ben   9  20  19
 104 ben  10   9  20
 105 prop tor  10   9  20  19
 106 ben  10  11  12
 107 prop tor  10  11  12  13
 108 prop tor  10  11  12  19
 109 ben  10  11  29
 110 ben  11  12  13
 111 prop tor  11  12  13  14
 112 prop tor  11  12  13  18
 113 ben  11  12  19
 114 prop tor  11  12  19  20
 115 prop tor  11  12  19  33
 116 ben  12  11  29
 117 ben  12  13  14
 118 prop tor  12  13  14  15
 119 ben  12  13  18
 120 prop tor  12  13  18  17
 121 ben  12  19  20
 122 prop tor  12  19  20   9
 123 ben  12  19  33
 124 ben  13  12  19
 125 prop tor  13  12  19  20
 126 prop tor  13  12  19  33
 127 ben  13  14  15
 128 prop tor  13  14  15  16
 129 prop tor  13  14  15  30
 130 ben  13  18  17
 131 ben  14  13  18
 132 prop tor  14  13  18  17
 133 ben  14  15  16
 134 prop tor  14  15  16  17
 135 prop tor  14  15  16  31
 136 ben  14  15  30
 137 ben  15  16  17
 138 prop tor  15  16  17  18
 139 prop tor  15  16  17  32
 140 ben  15  16  31
 141 ben  16  15  30
 142 ben  16  17  18
 143 prop tor  16  17  18  13
 144 ben  16  17  32
 145 ben  17  16  31
 146 prop tor  18  13  14  15
 147 ben  18  17  32
 148 prop tor  19  12  13  14
 149 prop tor  19  12  13  18
 150 prop tor  20   9  10  11
 151 ben  20  19  33
 152 prop tor  21   8   9  10
 153 prop tor  21   8   9  20
 154 prop tor  22   5   6   7
 155 ben  22  21  34
 156 prop tor  23   4   5   6
 157 prop tor  23   4   5  22
 158 ben  23  24  36
 159 prop tor  24   1   2   3
 160 prop tor  24   1   2  26
 161 ben  24   1  25
 162 ben  24  23  35
 163 prop tor  25   1   2   3
 164 prop tor  25   1   2  26
 165 prop tor  25   1  24  23
 166 prop tor  25   1  24  36
 167 prop tor  26   2   3   4
 168 prop tor  26   2   3  27
 169 prop tor  27   3   4   5
 170 prop tor  27   3   4  23
 171 prop tor  28   7   8   9
 172 prop tor  28   7   8  21
 173 prop tor  29  11  12  13
 174 prop tor  29  11  12  19
 175 prop tor  30  15  16  17
 176 prop tor  30  15  16  31
 177 prop tor  31  16  17  18
 178 prop tor  31  16  17  32
 179 prop tor  32  17  18  13
 180 prop tor  33  19  20   9
 181 prop tor  34  21  22   5
 182 prop tor  35  23  24   1
 183 prop tor  35  23  24  36
 nber bend=              60
 nber lin bend=           0
 nber prop tor=          84
 nber impr tor=           0
 nber tot redund int=         183
 Eigenvalues of G in red int coords
    Gval -0.00000000 -0.00000000 -0.00000000 -0.00000000 -0.00000000 -0.00000000 -0.00000000 -0.00000000
    Gval -0.00000000 -0.00000000 -0.00000000 -0.00000000 -0.00000000 -0.00000000 -0.00000000 -0.00000000
    Gval -0.00000000 -0.00000000 -0.00000000 -0.00000000 -0.00000000 -0.00000000 -0.00000000 -0.00000000
    Gval -0.00000000 -0.00000000 -0.00000000 -0.00000000 -0.00000000 -0.00000000 -0.00000000 -0.00000000
    Gval -0.00000000 -0.00000000 -0.00000000 -0.00000000 -0.00000000 -0.00000000  0.00000000  0.00000000
    Gval  0.00000000  0.00000000  0.00000000  0.00000000  0.00000000  0.00000000  0.00000000  0.00000000
    Gval  0.00000000  0.00000000  0.00000000  0.00000000  0.00000000  0.00000000  0.00000000  0.00000000
    Gval  0.00000000  0.00000000  0.00000000  0.00000000  0.00000000  0.00000000  0.00000000  0.00000000
    Gval  0.00000000  0.00000000  0.00000000  0.00000000  0.00000000  0.00000000  0.00000000  0.00000000
    Gval  0.00000000  0.00000000  0.00000000  0.00000000  0.00000000  0.00000000  0.00000000  0.00000000
    Gval  0.00000000  0.00000050  0.00000161  0.00000204  0.00000297  0.00000772  0.00000874  0.00001194
    Gval  0.00001265  0.00001529  0.00001966  0.00002822  0.00002993  0.00004187  0.00004487  0.00004615
    Gval  0.00004645  0.00004720  0.00004811  0.00005505  0.00005513  0.00005862  0.00005891  0.00006574
    Gval  0.00006634  0.00007704  0.00008636  0.00008751  0.00010136  0.00010539  0.00010612  0.00011500
    Gval  0.00011671  0.00011744  0.00011896  0.00012172  0.00012665  0.00013105  0.00016982  0.00021132
    Gval  0.00021441  0.00024778  0.00026437  0.00026802  0.00028195  0.00029717  0.00031776  0.00034879
    Gval  0.00036086  0.00036451  0.00037903  0.00038912  0.00039455  0.00041230  0.00042897  0.00049812
    Gval  0.00051628  0.00055660  0.00058733  0.00059186  0.00059306  0.00059364  0.00059373  0.00060414
    Gval  0.00060460  0.00061858  0.00062135  0.00062466  0.00062630  0.00062705  0.00064167  0.00066062
    Gval  0.00071751  0.00088659  0.00104051  0.00104076  0.00106063  0.00110601  0.00110711  0.00111095
    Gval  0.00112965  0.00113028  0.00113107  0.00114107  0.00117294  0.00117412  0.00117414  0.00140169
    Gval  0.00143163  0.00144856  0.00151088  0.00159481  0.00185957  0.00225492  0.00225849  0.00226757
    Gval  0.00234112  0.00235011  0.00238834  0.00312539  0.00373097  0.00376974  0.00407740
  4.958028500365906E-007  4.958028500365906E-007
  1.605542461473829E-006  4.958028500365906E-007
  2.044880371360733E-006  4.958028500365906E-007
  2.970509106765269E-006  4.958028500365906E-007
  7.720070574616854E-006  4.958028500365906E-007
  8.738539320202835E-006  4.958028500365906E-007
  1.193878036842887E-005  4.958028500365906E-007
  1.265052877402458E-005  4.958028500365906E-007
  1.529155930552410E-005  4.958028500365906E-007
  1.966351263808605E-005  4.958028500365906E-007
  2.821826398834870E-005  4.958028500365906E-007
  2.992572909934434E-005  4.958028500365906E-007
  4.187167074041593E-005  4.958028500365906E-007
  4.487112019842927E-005  4.958028500365906E-007
  4.614875515375126E-005  4.958028500365906E-007
  4.645481875690772E-005  4.958028500365906E-007
  4.720165527026529E-005  4.958028500365906E-007
  4.811396234900833E-005  4.958028500365906E-007
  5.505407058418051E-005  4.958028500365906E-007
  5.513157845305219E-005  4.958028500365906E-007
  5.861875312749280E-005  4.958028500365906E-007
  5.891103585373939E-005  4.958028500365906E-007
  6.574403165949257E-005  4.958028500365906E-007
  6.633856638296185E-005  4.958028500365906E-007
  7.704329861231241E-005  4.958028500365906E-007
  8.635618693408296E-005  4.958028500365906E-007
  8.750573412796370E-005  4.958028500365906E-007
  1.013560356165634E-004  4.958028500365906E-007
  1.053903752950280E-004  4.958028500365906E-007
  1.061181501561979E-004  4.958028500365906E-007
  1.150028926117386E-004  4.958028500365906E-007
  1.167116770656372E-004  4.958028500365906E-007
  1.174430257244888E-004  4.958028500365906E-007
  1.189641530552674E-004  4.958028500365906E-007
  1.217189821643608E-004  4.958028500365906E-007
  1.266452298098586E-004  4.958028500365906E-007
  1.310548925724946E-004  4.958028500365906E-007
  1.698224113266861E-004  4.958028500365906E-007
  2.113199144773580E-004  4.958028500365906E-007
  2.144088322290642E-004  4.958028500365906E-007
  2.477843196340946E-004  4.958028500365906E-007
  2.643652452316550E-004  4.958028500365906E-007
  2.680161683609850E-004  4.958028500365906E-007
  2.819482238494672E-004  4.958028500365906E-007
  2.971709469374816E-004  4.958028500365906E-007
  3.177613924611427E-004  4.958028500365906E-007
  3.487939032815417E-004  4.958028500365906E-007
  3.608556681583943E-004  4.958028500365906E-007
  3.645097272194701E-004  4.958028500365906E-007
  3.790324737906919E-004  4.958028500365906E-007
  3.891227459339248E-004  4.958028500365906E-007
  3.945504338926054E-004  4.958028500365906E-007
  4.123031477426541E-004  4.958028500365906E-007
  4.289722700257062E-004  4.958028500365906E-007
  4.981196072744146E-004  4.958028500365906E-007
  5.162810355766216E-004  4.958028500365906E-007
  5.566029165343198E-004  4.958028500365906E-007
  5.873277918241310E-004  4.958028500365906E-007
  5.918555366731465E-004  4.958028500365906E-007
  5.930609382825542E-004  4.958028500365906E-007
  5.936438115638353E-004  4.958028500365906E-007
  5.937315648729931E-004  4.958028500365906E-007
  6.041354999714911E-004  4.958028500365906E-007
  6.045972098337659E-004  4.958028500365906E-007
  6.185815979742555E-004  4.958028500365906E-007
  6.213480897443076E-004  4.958028500365906E-007
  6.246630925437945E-004  4.958028500365906E-007
  6.263027115833577E-004  4.958028500365906E-007
  6.270490596669650E-004  4.958028500365906E-007
  6.416684100033263E-004  4.958028500365906E-007
  6.606175866865225E-004  4.958028500365906E-007
  7.175098138256119E-004  4.958028500365906E-007
  8.865869032063398E-004  4.958028500365906E-007
  1.040513368381417E-003  4.958028500365906E-007
  1.040764901227628E-003  4.958028500365906E-007
  1.060626911030209E-003  4.958028500365906E-007
  1.106011453019249E-003  4.958028500365906E-007
  1.107107094819719E-003  4.958028500365906E-007
  1.110950341621906E-003  4.958028500365906E-007
  1.129651947590059E-003  4.958028500365906E-007
  1.130284316592388E-003  4.958028500365906E-007
  1.131072963419557E-003  4.958028500365906E-007
  1.141073185355478E-003  4.958028500365906E-007
  1.172937710157148E-003  4.958028500365906E-007
  1.174121749437469E-003  4.958028500365906E-007
  1.174142630426641E-003  4.958028500365906E-007
  1.401685445794460E-003  4.958028500365906E-007
  1.431628779164963E-003  4.958028500365906E-007
  1.448556905969155E-003  4.958028500365906E-007
  1.510883764170646E-003  4.958028500365906E-007
  1.594814788834960E-003  4.958028500365906E-007
  1.859569281249397E-003  4.958028500365906E-007
  2.254922932062801E-003  4.958028500365906E-007
  2.258493218555370E-003  4.958028500365906E-007
  2.267567378991672E-003  4.958028500365906E-007
  2.341116492864658E-003  4.958028500365906E-007
  2.350109342538550E-003  4.958028500365906E-007
  2.388344904302200E-003  4.958028500365906E-007
  3.125391462170332E-003  4.958028500365906E-007
  3.730966367472582E-003  4.958028500365906E-007
  3.769737400485227E-003  4.958028500365906E-007
  4.077395287938632E-003  4.958028500365906E-007
 cut=1d-8, nber non-redundant internal coords=         102
 Check on Eigenvals of non-red overlap matrix:
  0.00000050  0.00000161  0.00000204  0.00000297  0.00000772  0.00000874  0.00001194  0.00001265
  0.00001529  0.00001966  0.00002822  0.00002993  0.00004187  0.00004487  0.00004615  0.00004645
  0.00004720  0.00004811  0.00005505  0.00005513  0.00005862  0.00005891  0.00006574  0.00006634
  0.00007704  0.00008636  0.00008751  0.00010136  0.00010539  0.00010612  0.00011500  0.00011671
  0.00011744  0.00011896  0.00012172  0.00012665  0.00013105  0.00016982  0.00021132  0.00021441
  0.00024778  0.00026437  0.00026802  0.00028195  0.00029717  0.00031776  0.00034879  0.00036086
  0.00036451  0.00037903  0.00038912  0.00039455  0.00041230  0.00042897  0.00049812  0.00051628
  0.00055660  0.00058733  0.00059186  0.00059306  0.00059364  0.00059373  0.00060414  0.00060460
  0.00061858  0.00062135  0.00062466  0.00062630  0.00062705  0.00064167  0.00066062  0.00071751
  0.00088659  0.00104051  0.00104076  0.00106063  0.00110601  0.00110711  0.00111095  0.00112965
  0.00113028  0.00113107  0.00114107  0.00117294  0.00117412  0.00117414  0.00140169  0.00143163
  0.00144856  0.00151088  0.00159481  0.00185957  0.00225492  0.00225849  0.00226757  0.00234112
  0.00235011  0.00238834  0.00312539  0.00373097  0.00376974  0.00407740
 Checking for correct frequencies
 recalc frequencies=
    -0.0   -0.0   -0.0   -0.0    0.0    0.0   20.2   28.6   50.2   54.3
    55.7   73.3  120.8  125.0  168.0  175.5  198.8  257.1  337.9  348.6
   387.4  405.3  409.5  414.3  417.3  433.4  458.2  476.5  514.8  517.4
   569.7  605.7  631.1  645.4  660.3  673.9  679.2  709.4  726.3  769.2
   797.1  822.2  827.3  838.2  844.5  857.8  867.1  961.4  995.3 1002.7
  1005.6 1006.7 1009.7 1014.5 1016.0 1017.2 1017.2 1020.1 1039.0 1044.9
  1047.8 1072.1 1082.8 1098.6 1109.6 1115.8 1134.9 1180.2 1195.0 1222.9
  1226.5 1243.6 1271.8 1285.0 1291.8 1336.4 1343.5 1346.3 1349.1 1353.1
  1398.6 1425.4 1429.4 1465.4 1468.5 1481.7 1498.0 1524.6 1555.2 1584.8
  1602.3 1605.9 1620.6 1623.9 1638.4 1647.8 3149.1 3151.5 3164.6 3176.2
  3178.2 3178.8 3182.5 3183.0 3188.1 3199.6 3210.4 3211.5
 recalc symmetries=
     A1     A2     B1     B2     B1     B2     B1     A2     B2     A2 
     B1     A2     B1     B2     B1     A1     B2     B1     A1     B1 
     B2     A2     A2     A2     A2     B1     B2     A1     B2     B1 
     B1     B1     B2     B2     B2     B2     A1     B1     A1     B1 
     A1     B1     B1     A1     B1     B1     A2     B1     B1     A2 
     A2     B1     A1     B1     B1     A2     A1     A2     A1     A1 
     A1     A1     A1     B2     A1     B2     A1     B2     A1     B2 
     B2     B2     B2     B2     B2     B2     A1     A1     B2     A1 
     B2     B2     A1     A1     B2     B2     A1     A1     B2     B2 
     A1     B2     A1     B2     A1     A1     A1     B2     A1     B2 
     B2     A1     B2     A1     A1     A1     B2     A1 
 recalc freqs check OK
 Zero-point lengths:
 10.0000 10.0000 10.0000 10.0000 10.0000 10.0000 55.2064 46.3667 34.9925 33.6282
 33.2101 28.9502 22.5522 22.1717 19.1285 18.7149 17.5822 15.4598 13.4874 13.2782
 12.5950 12.3142 12.2510 12.1794 12.1362 11.9080 11.5821 11.3572 10.9265 10.8984
 10.3869 10.0735  9.8683  9.7581  9.6477  9.5502  9.5126  9.3079  9.1987  8.9389
  8.7809  8.6456  8.6190  8.5629  8.5310  8.4646  8.4191  7.9953  7.8582  7.8292
  7.8179  7.8136  7.8019  7.7836  7.7775  7.7730  7.7730  7.7620  7.6912  7.6694
  7.6587  7.5716  7.5340  7.4796  7.4423  7.4218  7.3588  7.2163  7.1717  7.0892
  7.0789  7.0300  6.9516  6.9158  6.8977  6.7816  6.7635  6.7564  6.7495  6.7395
  6.6289  6.5664  6.5571  6.4761  6.4692  6.4405  6.4054  6.3491  6.2863  6.2275
  6.1933  6.1863  6.1583  6.1519  6.1247  6.1072  4.4178  4.4161  4.4069  4.3989
  4.3975  4.3971  4.3945  4.3942  4.3907  4.3828  4.3754  4.3746
 highest evec of mol 1
  0.0000  0.0000  0.0278
  0.0000  0.0465  0.0337
  0.0000  0.1701 -0.1004
  0.0000  0.0000 -0.0079
  0.0000  0.0000 -0.0020
  0.0000  0.0011 -0.0004
  0.0000  0.0017  0.0006
  0.0000  0.0000  0.0002
  0.0000  0.0000 -0.0002
  0.0000  0.0001  0.0001
  0.0000 -0.0002 -0.0002
  0.0000  0.0000  0.0001
  0.0000  0.0000 -0.0001
  0.0000  0.0000  0.0000
  0.0000 -0.0001 -0.0001
  0.0000  0.0000 -0.0002
  0.0000  0.0001 -0.0001
  0.0000 -0.0000  0.0000
  0.0000  0.0002 -0.0002
  0.0000 -0.0001  0.0001
  0.0000 -0.0017  0.0006
  0.0000 -0.0011 -0.0004
  0.0000 -0.1701 -0.1004
  0.0000 -0.0465  0.0337
  0.0000  0.0000 -0.0802
  0.0000 -0.1508 -0.0887
  0.0000 -0.5610  0.3296
  0.0000 -0.0046 -0.0023
  0.0000  0.0008  0.0004
  0.0000  0.0004  0.0002
  0.0000  0.0000  0.0007
  0.0000 -0.0004  0.0002
  0.0000 -0.0008  0.0004
  0.0000  0.0046 -0.0023
  0.0000  0.5610  0.3296
  0.0000  0.1508 -0.0887
 generating redundant internal coords
         300        3600          36
 Adding extra bonds for z output only
           6           6           6           6           6           7
           6           6           6           7           6           6
           6           7           6           6           6           7
           6           7           6           7           6           6
           1           1           1           1           1           1
           1           1           1           1           1           1
 search for int coords
   1 str   2   1   1.395
   2 str   3   2   1.390
   3 str   4   3   1.402
   4 str   5   4   1.481
   5 str   6   5   1.345
   6 str   7   6   1.327
   7 str   8   7   1.400
   8 str   9   8   1.473
   9 str  10   9   1.344
  10 str  11  10   1.328
  11 str  12  11   1.400
  12 str  13  12   1.477
  13 str  14  13   1.342
  14 str  15  14   1.332
  15 str  16  15   1.391
  16 str  17  16   1.391
  17 str  18  13   1.342
  18 str  18  17   1.332
  19 str  19  12   1.400
  20 str  20   9   1.344
  21 str  20  19   1.328
  22 str  21   8   1.400
  23 str  22   5   1.345
  24 str  22  21   1.327
  25 str  23   4   1.402
  26 str  24   1   1.395
  27 str  24  23   1.390
  28 str  25   1   1.084
  29 str  26   2   1.084
  30 str  27   3   1.082
  31 str  28   7   1.085
  32 str  29  11   1.085
  33 str  30  15   1.087
  34 str  31  16   1.083
  35 str  32  17   1.087
  36 str  33  19   1.085
  37 str  34  21   1.085
  38 str  35  23   1.082
  39 str  36  24   1.084
 nber stretches=          39
  40 ben   1   2   3
  41 prop tor   1   2   3   4
  42 prop tor   1   2   3  27
  43 ben   1   2  26
  44 ben   1  24  23
  45 ben   1  24  36
  46 ben   2   1  24
  47 prop tor   2   1  24  23
  48 prop tor   2   1  24  36
  49 ben   2   1  25
  50 ben   2   3   4
  51 prop tor   2   3   4   5
  52 prop tor   2   3   4  23
  53 ben   2   3  27
  54 ben   3   2  26
  55 ben   3   4   5
  56 prop tor   3   4   5   6
  57 prop tor   3   4   5  22
  58 ben   3   4  23
  59 prop tor   3   4  23  24
  60 prop tor   3   4  23  35
  61 ben   4   3  27
  62 ben   4   5   6
  63 prop tor   4   5   6   7
  64 ben   4   5  22
  65 prop tor   4   5  22  21
  66 ben   4  23  24
  67 prop tor   4  23  24   1
  68 prop tor   4  23  24  36
  69 ben   4  23  35
  70 ben   5   4  23
  71 prop tor   5   4  23  24
  72 prop tor   5   4  23  35
  73 ben   5   6   7
  74 prop tor   5   6   7   8
  75 prop tor   5   6   7  28
  76 ben   5  22  21
  77 ben   6   5  22
  78 prop tor   6   5  22  21
  79 ben   6   7   8
  80 prop tor   6   7   8   9
  81 prop tor   6   7   8  21
  82 ben   6   7  28
  83 ben   7   8   9
  84 prop tor   7   8   9  10
  85 prop tor   7   8   9  20
  86 ben   7   8  21
  87 prop tor   7   8  21  22
  88 prop tor   7   8  21  34
  89 ben   8   7  28
  90 ben   8   9  10
  91 prop tor   8   9  10  11
  92 ben   8   9  20
  93 prop tor   8   9  20  19
  94 ben   8  21  22
  95 prop tor   8  21  22   5
  96 ben   8  21  34
  97 ben   9   8  21
  98 prop tor   9   8  21  22
  99 prop tor   9   8  21  34
 100 ben   9  10  11
 101 prop tor   9  10  11  12
 102 prop tor   9  10  11  29
 103 ben   9  20  19
 104 ben  10   9  20
 105 prop tor  10   9  20  19
 106 ben  10  11  12
 107 prop tor  10  11  12  13
 108 prop tor  10  11  12  19
 109 ben  10  11  29
 110 ben  11  12  13
 111 prop tor  11  12  13  14
 112 prop tor  11  12  13  18
 113 ben  11  12  19
 114 prop tor  11  12  19  20
 115 prop tor  11  12  19  33
 116 ben  12  11  29
 117 ben  12  13  14
 118 prop tor  12  13  14  15
 119 ben  12  13  18
 120 prop tor  12  13  18  17
 121 ben  12  19  20
 122 prop tor  12  19  20   9
 123 ben  12  19  33
 124 ben  13  12  19
 125 prop tor  13  12  19  20
 126 prop tor  13  12  19  33
 127 ben  13  14  15
 128 prop tor  13  14  15  16
 129 prop tor  13  14  15  30
 130 ben  13  18  17
 131 ben  14  13  18
 132 prop tor  14  13  18  17
 133 ben  14  15  16
 134 prop tor  14  15  16  17
 135 prop tor  14  15  16  31
 136 ben  14  15  30
 137 ben  15  16  17
 138 prop tor  15  16  17  18
 139 prop tor  15  16  17  32
 140 ben  15  16  31
 141 ben  16  15  30
 142 ben  16  17  18
 143 prop tor  16  17  18  13
 144 ben  16  17  32
 145 ben  17  16  31
 146 prop tor  18  13  14  15
 147 ben  18  17  32
 148 prop tor  19  12  13  14
 149 prop tor  19  12  13  18
 150 prop tor  20   9  10  11
 151 ben  20  19  33
 152 prop tor  21   8   9  10
 153 prop tor  21   8   9  20
 154 prop tor  22   5   6   7
 155 ben  22  21  34
 156 prop tor  23   4   5   6
 157 prop tor  23   4   5  22
 158 ben  23  24  36
 159 prop tor  24   1   2   3
 160 prop tor  24   1   2  26
 161 ben  24   1  25
 162 ben  24  23  35
 163 prop tor  25   1   2   3
 164 prop tor  25   1   2  26
 165 prop tor  25   1  24  23
 166 prop tor  25   1  24  36
 167 prop tor  26   2   3   4
 168 prop tor  26   2   3  27
 169 prop tor  27   3   4   5
 170 prop tor  27   3   4  23
 171 prop tor  28   7   8   9
 172 prop tor  28   7   8  21
 173 prop tor  29  11  12  13
 174 prop tor  29  11  12  19
 175 prop tor  30  15  16  17
 176 prop tor  30  15  16  31
 177 prop tor  31  16  17  18
 178 prop tor  31  16  17  32
 179 prop tor  32  17  18  13
 180 prop tor  33  19  20   9
 181 prop tor  34  21  22   5
 182 prop tor  35  23  24   1
 183 prop tor  35  23  24  36
 nber bend=              60
 nber lin bend=           0
 nber prop tor=          84
 nber impr tor=           0
 nber tot redund int=         183
 Reading file: 
 ./Non-cov-phenyl-N_4_C-1S0.log                                                 
                                          
  Entering Gaussian System, Link 0=g16                                          
  
 Gaussian format, type: g94, g98, g03= F F F
  #P Geom=AllCheck Guess=TCheck SCRF=Check GenChk UB3LYP/6-311G(d,p) Fre    
 energy type= B3LYP   
 Original G94 input coords:
  6  7.532124  0.000000  0.000000
  6  6.823355 -1.203794  0.000000
  6  5.433962 -1.207342  0.000000
  6  4.708542  0.000000  0.000000
  6  3.238276  0.000000  0.000000
  7  2.603396  1.195976  0.000000
  6  1.282072  1.187948  0.000000
  6  0.509043  0.000000  0.000000
  6 -0.930406  0.000000  0.000000
  7 -1.575478  1.205998  0.000000
  6 -2.889659  1.191571  0.000000
  6 -3.663657  0.000000  0.000000
  6 -5.101111  0.000000  0.000000
  7 -5.747942  1.205589  0.000000
  6 -7.069158  1.180844  0.000000
  6 -7.818626  0.000000  0.000000
  6 -7.069158 -1.180844  0.000000
  7 -5.747942 -1.205589  0.000000
  6 -2.889659 -1.191571  0.000000
  7 -1.575478 -1.205998  0.000000
  6  1.282072 -1.187948  0.000000
  7  2.603396 -1.195976  0.000000
  6  5.433962  1.207342  0.000000
  6  6.823355  1.203794  0.000000
  1  8.616863  0.000000  0.000000
  1  7.360233 -2.147216  0.000000
  1  4.877037 -2.135209  0.000000
  1  0.774196  2.146881  0.000000
  1 -3.400009  2.150551  0.000000
  1 -7.566647  2.151571  0.000000
  1 -8.901764  0.000000  0.000000
  1 -7.566647 -2.151571  0.000000
  1 -3.400009 -2.150551  0.000000
  1  0.774196 -2.146881  0.000000
  1  4.877037  2.135209  0.000000
  1  7.360233  2.147216  0.000000
 nber atoms=          36
 Original standard coords:
  6  0.000000  0.000000  7.707826
  6  0.000000  1.203794  6.999057
  6  0.000000  1.207342  5.609664
  6  0.000000  0.000000  4.884243
  6  0.000000  0.000000  3.413977
  7  0.000000 -1.195976  2.779097
  6  0.000000 -1.187948  1.457773
  6  0.000000  0.000000  0.684745
  6  0.000000  0.000000 -0.754704
  7  0.000000 -1.205998 -1.399777
  6  0.000000 -1.191571 -2.713957
  6  0.000000  0.000000 -3.487955
  6  0.000000  0.000000 -4.925409
  7  0.000000 -1.205589 -5.572241
  6  0.000000 -1.180844 -6.893457
  6  0.000000  0.000000 -7.642925
  6  0.000000  1.180844 -6.893457
  7  0.000000  1.205589 -5.572241
  6  0.000000  1.191571 -2.713957
  7  0.000000  1.205998 -1.399777
  6  0.000000  1.187948  1.457773
  7  0.000000  1.195976  2.779097
  6  0.000000 -1.207342  5.609664
  6  0.000000 -1.203794  6.999057
  1  0.000000  0.000000  8.792564
  1  0.000000  2.147216  7.535935
  1  0.000000  2.135209  5.052738
  1  0.000000 -2.146881  0.949898
  1  0.000000 -2.150551 -3.224308
  1  0.000000 -2.151571 -7.390946
  1  0.000000  0.000000 -8.726062
  1  0.000000  2.151571 -7.390946
  1  0.000000  2.150551 -3.224308
  1  0.000000  2.146881  0.949898
  1  0.000000 -2.135209  5.052738
  1  0.000000 -2.147216  7.535935
  SCF Done:  E(UB3LYP) =  -1021.95456314     A.U. after    2 cycles             
  
          23          40 "  -1021.95456314"
After scan for Atom:   Atom  AN      X      Y      Z        X      Y      Z        X      Y      Z   
After scan for Atom:   Atom  AN      X      Y      Z        X      Y      Z        X      Y      Z   
After scan for Atom:   Atom  AN      X      Y      Z        X      Y      Z        X      Y      Z   
After scan for Atom:   Atom  AN      X      Y      Z        X      Y      Z        X      Y      Z   
After scan for Atom:   Atom  AN      X      Y      Z        X      Y      Z        X      Y      Z   
After scan for Atom:   Atom  AN      X      Y      Z        X      Y      Z        X      Y      Z   
After scan for Atom:   Atom  AN      X      Y      Z        X      Y      Z        X      Y      Z   
After scan for Atom:   Atom  AN      X      Y      Z        X      Y      Z        X      Y      Z   
After scan for Atom:   Atom  AN      X      Y      Z        X      Y      Z        X      Y      Z   
After scan for Atom:   Atom  AN      X      Y      Z        X      Y      Z        X      Y      Z   
After scan for Atom:   Atom  AN      X      Y      Z        X      Y      Z        X      Y      Z   
After scan for Atom:   Atom  AN      X      Y      Z        X      Y      Z        X      Y      Z   
After scan for Atom:   Atom  AN      X      Y      Z        X      Y      Z        X      Y      Z   
After scan for Atom:   Atom  AN      X      Y      Z        X      Y      Z        X      Y      Z   
After scan for Atom:   Atom  AN      X      Y      Z        X      Y      Z        X      Y      Z   
After scan for Atom:   Atom  AN      X      Y      Z        X      Y      Z        X      Y      Z   
After scan for Atom:   Atom  AN      X      Y      Z        X      Y      Z        X      Y      Z   
After scan for Atom:   Atom  AN      X      Y      Z        X      Y      Z        X      Y      Z   
After scan for Atom:   Atom  AN      X      Y      Z        X      Y      Z        X      Y      Z   
After scan for Atom:   Atom  AN      X      Y      Z        X      Y      Z        X      Y      Z   
After scan for Atom:   Atom  AN      X      Y      Z        X      Y      Z        X      Y      Z   
After scan for Atom:   Atom  AN      X      Y      Z        X      Y      Z        X      Y      Z   
After scan for Atom:   Atom  AN      X      Y      Z        X      Y      Z        X      Y      Z   
After scan for Atom:   Atom  AN      X      Y      Z        X      Y      Z        X      Y      Z   
After scan for Atom:   Atom  AN      X      Y      Z        X      Y      Z        X      Y      Z   
After scan for Atom:   Atom  AN      X      Y      Z        X      Y      Z        X      Y      Z   
After scan for Atom:   Atom  AN      X      Y      Z        X      Y      Z        X      Y      Z   
After scan for Atom:   Atom  AN      X      Y      Z        X      Y      Z        X      Y      Z   
After scan for Atom:   Atom  AN      X      Y      Z        X      Y      Z        X      Y      Z   
After scan for Atom:   Atom  AN      X      Y      Z        X      Y      Z        X      Y      Z   
After scan for Atom:   Atom  AN      X      Y      Z        X      Y      Z        X      Y      Z   
After scan for Atom:   Atom  AN      X      Y      Z        X      Y      Z        X      Y      Z   
After scan for Atom:   Atom  AN      X      Y      Z        X      Y      Z        X      Y      Z   
After scan for Atom:   Atom  AN      X      Y      Z        X      Y      Z        X      Y      Z   
 g94    frequencies=
     0.0    0.0    0.0    0.0    0.0    0.0   19.6   41.2   49.7   53.7
    75.0  107.1  112.7  123.6  158.2  175.9  196.2  242.0  321.0  338.3
   388.9  397.8  421.8  422.9  440.6  449.3  454.8  478.1  497.7  507.4
   541.0  571.3  631.7  643.5  658.5  662.7  672.0  706.5  709.2  751.4
   754.6  772.7  783.9  808.7  809.7  821.6  853.8  917.3  955.5  960.9
   970.1  977.3  983.8  987.1  987.2  989.0  990.4 1008.0 1016.9 1028.3
  1038.9 1049.3 1063.6 1085.5 1088.6 1089.5 1106.9 1168.5 1182.6 1187.7
  1212.4 1226.2 1281.2 1295.5 1326.3 1328.1 1342.2 1346.1 1350.9 1361.2
  1395.0 1409.3 1415.0 1451.5 1454.3 1473.4 1480.3 1486.5 1513.3 1514.1
  1518.3 1586.5 1601.4 1612.5 1627.5 1639.3 3091.7 3091.7 3141.5 3148.6
  3150.9 3151.5 3164.3 3166.3 3170.7 3183.0 3201.3 3202.6
 g94    symmetries=
                                                B1     A2     B2     B1
      A2     A2     B1     B2     B1     A1     B2     B1     B1     A1
      B2     B1     A2     A2     A2     A2     B2     A1     B1     B2
      B1     B1     B2     B2     B2     A1     B2     B1     A1     B1
      B1     A1     B1     B1     A1     B1     A2     B1     B1     B1
      B1     A1     A2     A2     A2     A2     B1     A1     A1     A1
      A1     A1     A1     A1     B2     B2     A1     B2     A1     B2
      B2     B2     B2     B2     B2     B2     A1     B2     A1     A1
      B2     B2     A1     A1     B2     B2     A1     B2     B2     A1
      B2     A1     B2     A1     A1     A1     A1     B2     A1     B2
      A1     B2     B2     A1     A1     A1     B2     A1
 atomic masses:
 12.0000 12.0000 12.0000 12.0000 12.0000 14.0031 12.0000 12.0000 12.0000 14.0031
 12.0000 12.0000 12.0000 14.0031 12.0000 12.0000 12.0000 14.0031 12.0000 14.0031
 12.0000 14.0031 12.0000 12.0000  1.0078  1.0078  1.0078  1.0078  1.0078  1.0078
  1.0078  1.0078  1.0078  1.0078  1.0078  1.0078
 looking for force constants in 
 ./Non-cov-phenyl-N_4_C-1S0.fchk                                                
  
 Cartesian Force Constants                  R   N=        5886                  
  
 n3=         108        5886
 g94-fc frequencies=
    -0.7   -0.4   -0.0   -0.0    0.0    3.0   19.6   41.3   49.7   53.7
    75.0  107.1  112.7  123.6  158.2  175.9  196.2  242.0  321.0  338.3
   388.9  397.8  421.8  422.9  440.7  449.3  454.8  478.2  497.8  507.4
   541.0  571.3  631.7  643.5  658.5  662.7  672.0  706.5  709.2  751.4
   754.6  772.7  784.0  808.8  809.7  821.6  853.8  917.3  955.5  960.9
   970.1  977.3  983.8  987.1  987.2  989.0  990.4 1008.0 1017.0 1028.4
  1039.0 1049.3 1063.7 1085.5 1088.7 1089.5 1106.9 1168.5 1182.6 1187.7
  1212.4 1226.3 1281.2 1295.6 1326.3 1328.1 1342.2 1346.1 1350.9 1361.2
  1395.1 1409.3 1415.0 1451.6 1454.3 1473.4 1480.4 1486.6 1513.3 1514.1
  1518.4 1586.5 1601.4 1612.6 1627.6 1639.4 3091.7 3091.8 3141.5 3148.6
  3151.0 3151.5 3164.4 3166.4 3170.8 3183.1 3201.4 3202.7
 at 99999: n3=         108
 symm operator            1 :  T  nop=           1
 symm operator            2 :  F  nop=           1
 symm operator            3 :  F  nop=           1
 symm operator            4 :  F  nop=           1
 symm operator            5 :  F  nop=           1
 symm operator            6 :  T  nop=           2
 symm operator            7 :  T  nop=           3
 The point group of the molecule is C2V
 enforcing symm op           1  jsymt=          -1          -1           1
 enforcing symm op           6  jsymt=           1          -1           1
 enforcing symm op           7  jsymt=          -1           1           1
 cartesian coord symmetries:
 A1 :   36 A2 :   13 B1 :   23 B2 :   36
 Symmetry rotation matrix:
   1.00000   0.00000   0.00000
   0.00000   1.00000   0.00000
   0.00000   0.00000   1.00000

 Projecting out zero-frequency components
 generating redundant internal coords
         300        3600          36
 search for int coords
   1 str   2   1   1.397
   2 str   3   2   1.389
   3 str   4   3   1.409
   4 str   5   4   1.470
   5 str   6   5   1.354
   6 str   7   6   1.321
   7 str   8   7   1.417
   8 str   9   8   1.439
   9 str  10   9   1.368
  10 str  11  10   1.314
  11 str  12  11   1.421
  12 str  13  12   1.437
  13 str  14  13   1.368
  14 str  15  14   1.321
  15 str  16  15   1.399
  16 str  17  16   1.399
  17 str  18  13   1.368
  18 str  18  17   1.321
  19 str  19  12   1.421
  20 str  20   9   1.368
  21 str  20  19   1.314
  22 str  21   8   1.417
  23 str  22   5   1.354
  24 str  22  21   1.321
  25 str  23   4   1.409
  26 str  24   1   1.397
  27 str  24  23   1.389
  28 str  25   1   1.085
  29 str  26   2   1.085
  30 str  27   3   1.082
  31 str  28   7   1.085
  32 str  29  11   1.086
  33 str  30  15   1.091
  34 str  31  16   1.083
  35 str  32  17   1.091
  36 str  33  19   1.086
  37 str  34  21   1.085
  38 str  35  23   1.082
  39 str  36  24   1.085
 nber stretches=          39
  40 ben   1   2   3
  41 prop tor   1   2   3   4
  42 prop tor   1   2   3  27
  43 ben   1   2  26
  44 ben   1  24  23
  45 ben   1  24  36
  46 ben   2   1  24
  47 prop tor   2   1  24  23
  48 prop tor   2   1  24  36
  49 ben   2   1  25
  50 ben   2   3   4
  51 prop tor   2   3   4   5
  52 prop tor   2   3   4  23
  53 ben   2   3  27
  54 ben   3   2  26
  55 ben   3   4   5
  56 prop tor   3   4   5   6
  57 prop tor   3   4   5  22
  58 ben   3   4  23
  59 prop tor   3   4  23  24
  60 prop tor   3   4  23  35
  61 ben   4   3  27
  62 ben   4   5   6
  63 prop tor   4   5   6   7
  64 ben   4   5  22
  65 prop tor   4   5  22  21
  66 ben   4  23  24
  67 prop tor   4  23  24   1
  68 prop tor   4  23  24  36
  69 ben   4  23  35
  70 ben   5   4  23
  71 prop tor   5   4  23  24
  72 prop tor   5   4  23  35
  73 ben   5   6   7
  74 prop tor   5   6   7   8
  75 prop tor   5   6   7  28
  76 ben   5  22  21
  77 ben   6   5  22
  78 prop tor   6   5  22  21
  79 ben   6   7   8
  80 prop tor   6   7   8   9
  81 prop tor   6   7   8  21
  82 ben   6   7  28
  83 ben   7   8   9
  84 prop tor   7   8   9  10
  85 prop tor   7   8   9  20
  86 ben   7   8  21
  87 prop tor   7   8  21  22
  88 prop tor   7   8  21  34
  89 ben   8   7  28
  90 ben   8   9  10
  91 prop tor   8   9  10  11
  92 ben   8   9  20
  93 prop tor   8   9  20  19
  94 ben   8  21  22
  95 prop tor   8  21  22   5
  96 ben   8  21  34
  97 ben   9   8  21
  98 prop tor   9   8  21  22
  99 prop tor   9   8  21  34
 100 ben   9  10  11
 101 prop tor   9  10  11  12
 102 prop tor   9  10  11  29
 103 ben   9  20  19
 104 ben  10   9  20
 105 prop tor  10   9  20  19
 106 ben  10  11  12
 107 prop tor  10  11  12  13
 108 prop tor  10  11  12  19
 109 ben  10  11  29
 110 ben  11  12  13
 111 prop tor  11  12  13  14
 112 prop tor  11  12  13  18
 113 ben  11  12  19
 114 prop tor  11  12  19  20
 115 prop tor  11  12  19  33
 116 ben  12  11  29
 117 ben  12  13  14
 118 prop tor  12  13  14  15
 119 ben  12  13  18
 120 prop tor  12  13  18  17
 121 ben  12  19  20
 122 prop tor  12  19  20   9
 123 ben  12  19  33
 124 ben  13  12  19
 125 prop tor  13  12  19  20
 126 prop tor  13  12  19  33
 127 ben  13  14  15
 128 prop tor  13  14  15  16
 129 prop tor  13  14  15  30
 130 ben  13  18  17
 131 ben  14  13  18
 132 prop tor  14  13  18  17
 133 ben  14  15  16
 134 prop tor  14  15  16  17
 135 prop tor  14  15  16  31
 136 ben  14  15  30
 137 ben  15  16  17
 138 prop tor  15  16  17  18
 139 prop tor  15  16  17  32
 140 ben  15  16  31
 141 ben  16  15  30
 142 ben  16  17  18
 143 prop tor  16  17  18  13
 144 ben  16  17  32
 145 ben  17  16  31
 146 prop tor  18  13  14  15
 147 ben  18  17  32
 148 prop tor  19  12  13  14
 149 prop tor  19  12  13  18
 150 prop tor  20   9  10  11
 151 ben  20  19  33
 152 prop tor  21   8   9  10
 153 prop tor  21   8   9  20
 154 prop tor  22   5   6   7
 155 ben  22  21  34
 156 prop tor  23   4   5   6
 157 prop tor  23   4   5  22
 158 ben  23  24  36
 159 prop tor  24   1   2   3
 160 prop tor  24   1   2  26
 161 ben  24   1  25
 162 ben  24  23  35
 163 prop tor  25   1   2   3
 164 prop tor  25   1   2  26
 165 prop tor  25   1  24  23
 166 prop tor  25   1  24  36
 167 prop tor  26   2   3   4
 168 prop tor  26   2   3  27
 169 prop tor  27   3   4   5
 170 prop tor  27   3   4  23
 171 prop tor  28   7   8   9
 172 prop tor  28   7   8  21
 173 prop tor  29  11  12  13
 174 prop tor  29  11  12  19
 175 prop tor  30  15  16  17
 176 prop tor  30  15  16  31
 177 prop tor  31  16  17  18
 178 prop tor  31  16  17  32
 179 prop tor  32  17  18  13
 180 prop tor  33  19  20   9
 181 prop tor  34  21  22   5
 182 prop tor  35  23  24   1
 183 prop tor  35  23  24  36
 nber bend=              60
 nber lin bend=           0
 nber prop tor=          84
 nber impr tor=           0
 nber tot redund int=         183
 Eigenvalues of G in red int coords
    Gval -0.00000000 -0.00000000 -0.00000000 -0.00000000 -0.00000000 -0.00000000 -0.00000000 -0.00000000
    Gval -0.00000000 -0.00000000 -0.00000000 -0.00000000 -0.00000000 -0.00000000 -0.00000000 -0.00000000
    Gval -0.00000000 -0.00000000 -0.00000000 -0.00000000 -0.00000000 -0.00000000 -0.00000000 -0.00000000
    Gval -0.00000000 -0.00000000 -0.00000000 -0.00000000 -0.00000000 -0.00000000 -0.00000000 -0.00000000
    Gval -0.00000000 -0.00000000 -0.00000000 -0.00000000 -0.00000000 -0.00000000 -0.00000000 -0.00000000
    Gval -0.00000000  0.00000000  0.00000000  0.00000000  0.00000000  0.00000000  0.00000000  0.00000000
    Gval  0.00000000  0.00000000  0.00000000  0.00000000  0.00000000  0.00000000  0.00000000  0.00000000
    Gval  0.00000000  0.00000000  0.00000000  0.00000000  0.00000000  0.00000000  0.00000000  0.00000000
    Gval  0.00000000  0.00000000  0.00000000  0.00000000  0.00000000  0.00000000  0.00000000  0.00000000
    Gval  0.00000000  0.00000000  0.00000000  0.00000000  0.00000000  0.00000000  0.00000000  0.00000000
    Gval  0.00000000  0.00000049  0.00000163  0.00000203  0.00000296  0.00000768  0.00000870  0.00001208
    Gval  0.00001267  0.00001520  0.00001980  0.00002816  0.00002981  0.00004191  0.00004494  0.00004629
    Gval  0.00004697  0.00004733  0.00004824  0.00005476  0.00005499  0.00005864  0.00005871  0.00006568
    Gval  0.00006625  0.00007699  0.00008559  0.00008776  0.00010173  0.00010650  0.00010655  0.00011481
    Gval  0.00011656  0.00011821  0.00011871  0.00012142  0.00012791  0.00013066  0.00017151  0.00021251
    Gval  0.00021621  0.00024889  0.00026232  0.00026903  0.00027578  0.00029189  0.00031310  0.00034363
    Gval  0.00036045  0.00036521  0.00037446  0.00038398  0.00040070  0.00041883  0.00043633  0.00051082
    Gval  0.00052816  0.00056863  0.00056995  0.00059307  0.00059360  0.00059370  0.00060374  0.00060432
    Gval  0.00060445  0.00061894  0.00062198  0.00062492  0.00062568  0.00062637  0.00064157  0.00066017
    Gval  0.00072044  0.00088348  0.00103837  0.00104145  0.00105606  0.00110242  0.00110495  0.00110758
    Gval  0.00111998  0.00112457  0.00112710  0.00113989  0.00117034  0.00117076  0.00117092  0.00139556
    Gval  0.00141933  0.00143424  0.00149680  0.00157789  0.00185906  0.00221973  0.00222349  0.00222864
    Gval  0.00232539  0.00234199  0.00238060  0.00312430  0.00372805  0.00374736  0.00407158
  4.935340271640620E-007  4.935340271640620E-007
  1.628701229193293E-006  4.935340271640620E-007
  2.031122087192658E-006  4.935340271640620E-007
  2.961424704712304E-006  4.935340271640620E-007
  7.675439840784491E-006  4.935340271640620E-007
  8.696373951103533E-006  4.935340271640620E-007
  1.208315750819020E-005  4.935340271640620E-007
  1.267233440158052E-005  4.935340271640620E-007
  1.519967136557859E-005  4.935340271640620E-007
  1.979864966290763E-005  4.935340271640620E-007
  2.815811666231635E-005  4.935340271640620E-007
  2.981024189593143E-005  4.935340271640620E-007
  4.190728099214859E-005  4.935340271640620E-007
  4.493830607047557E-005  4.935340271640620E-007
  4.629015752099138E-005  4.935340271640620E-007
  4.697229803472612E-005  4.935340271640620E-007
  4.732781356997135E-005  4.935340271640620E-007
  4.823587560054234E-005  4.935340271640620E-007
  5.475520431465453E-005  4.935340271640620E-007
  5.499201195525766E-005  4.935340271640620E-007
  5.863697299886971E-005  4.935340271640620E-007
  5.870985210821997E-005  4.935340271640620E-007
  6.568438154086943E-005  4.935340271640620E-007
  6.624637671698310E-005  4.935340271640620E-007
  7.698627690561885E-005  4.935340271640620E-007
  8.558767125879733E-005  4.935340271640620E-007
  8.776128423383818E-005  4.935340271640620E-007
  1.017344294654258E-004  4.935340271640620E-007
  1.064997064364168E-004  4.935340271640620E-007
  1.065499624219412E-004  4.935340271640620E-007
  1.148115689372168E-004  4.935340271640620E-007
  1.165643819562262E-004  4.935340271640620E-007
  1.182081199046567E-004  4.935340271640620E-007
  1.187118577886719E-004  4.935340271640620E-007
  1.214231375666105E-004  4.935340271640620E-007
  1.279079916923913E-004  4.935340271640620E-007
  1.306575934339238E-004  4.935340271640620E-007
  1.715070262778094E-004  4.935340271640620E-007
  2.125074707738435E-004  4.935340271640620E-007
  2.162077829834557E-004  4.935340271640620E-007
  2.488850714221288E-004  4.935340271640620E-007
  2.623151502075395E-004  4.935340271640620E-007
  2.690303827138157E-004  4.935340271640620E-007
  2.757813554323106E-004  4.935340271640620E-007
  2.918881597965188E-004  4.935340271640620E-007
  3.130962371814695E-004  4.935340271640620E-007
  3.436257717570871E-004  4.935340271640620E-007
  3.604457348187743E-004  4.935340271640620E-007
  3.652120582773449E-004  4.935340271640620E-007
  3.744562260280830E-004  4.935340271640620E-007
  3.839762209109710E-004  4.935340271640620E-007
  4.007013062003117E-004  4.935340271640620E-007
  4.188285623682833E-004  4.935340271640620E-007
  4.363288673166554E-004  4.935340271640620E-007
  5.108187273731331E-004  4.935340271640620E-007
  5.281647162459623E-004  4.935340271640620E-007
  5.686292906437892E-004  4.935340271640620E-007
  5.699505379112832E-004  4.935340271640620E-007
  5.930682067693359E-004  4.935340271640620E-007
  5.936005875119984E-004  4.935340271640620E-007
  5.937030525164902E-004  4.935340271640620E-007
  6.037409882292908E-004  4.935340271640620E-007
  6.043178726813147E-004  4.935340271640620E-007
  6.044473615185644E-004  4.935340271640620E-007
  6.189407338741627E-004  4.935340271640620E-007
  6.219831469676776E-004  4.935340271640620E-007
  6.249165127312161E-004  4.935340271640620E-007
  6.256804540491724E-004  4.935340271640620E-007
  6.263744775099632E-004  4.935340271640620E-007
  6.415683037550612E-004  4.935340271640620E-007
  6.601684685700481E-004  4.935340271640620E-007
  7.204354072861916E-004  4.935340271640620E-007
  8.834796489748300E-004  4.935340271640620E-007
  1.038365181663372E-003  4.935340271640620E-007
  1.041445011730269E-003  4.935340271640620E-007
  1.056063398567599E-003  4.935340271640620E-007
  1.102415132928075E-003  4.935340271640620E-007
  1.104946953694221E-003  4.935340271640620E-007
  1.107584701536049E-003  4.935340271640620E-007
  1.119976781431691E-003  4.935340271640620E-007
  1.124570029020054E-003  4.935340271640620E-007
  1.127099977455820E-003  4.935340271640620E-007
  1.139888020626636E-003  4.935340271640620E-007
  1.170336870027614E-003  4.935340271640620E-007
  1.170756587890720E-003  4.935340271640620E-007
  1.170920300133482E-003  4.935340271640620E-007
  1.395555559563521E-003  4.935340271640620E-007
  1.419325597604009E-003  4.935340271640620E-007
  1.434239244294056E-003  4.935340271640620E-007
  1.496795113480044E-003  4.935340271640620E-007
  1.577894762566125E-003  4.935340271640620E-007
  1.859058171631751E-003  4.935340271640620E-007
  2.219729366226472E-003  4.935340271640620E-007
  2.223491099585811E-003  4.935340271640620E-007
  2.228643123751644E-003  4.935340271640620E-007
  2.325393782876853E-003  4.935340271640620E-007
  2.341986148333260E-003  4.935340271640620E-007
  2.380602664162798E-003  4.935340271640620E-007
  3.124297233229823E-003  4.935340271640620E-007
  3.728051500986264E-003  4.935340271640620E-007
  3.747364335579915E-003  4.935340271640620E-007
  4.071576709454761E-003  4.935340271640620E-007
 cut=1d-8, nber non-redundant internal coords=         102
 Check on Eigenvals of non-red overlap matrix:
  0.00000049  0.00000163  0.00000203  0.00000296  0.00000768  0.00000870  0.00001208  0.00001267
  0.00001520  0.00001980  0.00002816  0.00002981  0.00004191  0.00004494  0.00004629  0.00004697
  0.00004733  0.00004824  0.00005476  0.00005499  0.00005864  0.00005871  0.00006568  0.00006625
  0.00007699  0.00008559  0.00008776  0.00010173  0.00010650  0.00010655  0.00011481  0.00011656
  0.00011821  0.00011871  0.00012142  0.00012791  0.00013066  0.00017151  0.00021251  0.00021621
  0.00024889  0.00026232  0.00026903  0.00027578  0.00029189  0.00031310  0.00034363  0.00036045
  0.00036521  0.00037446  0.00038398  0.00040070  0.00041883  0.00043633  0.00051082  0.00052816
  0.00056863  0.00056995  0.00059307  0.00059360  0.00059370  0.00060374  0.00060432  0.00060445
  0.00061894  0.00062198  0.00062492  0.00062568  0.00062637  0.00064157  0.00066017  0.00072044
  0.00088348  0.00103837  0.00104145  0.00105606  0.00110242  0.00110495  0.00110758  0.00111998
  0.00112457  0.00112710  0.00113989  0.00117034  0.00117076  0.00117092  0.00139556  0.00141933
  0.00143424  0.00149680  0.00157789  0.00185906  0.00221973  0.00222349  0.00222864  0.00232539
  0.00234199  0.00238060  0.00312430  0.00372805  0.00374736  0.00407158
 Checking for correct frequencies
 recalc frequencies=
    -0.0   -0.0   -0.0    0.0    0.0    0.0   19.6   41.2   49.7   53.7
    75.0  107.1  112.7  123.6  158.2  175.9  196.2  242.0  321.0  338.3
   388.9  397.8  421.8  422.9  440.7  449.3  454.8  478.2  497.8  507.4
   541.0  571.3  631.7  643.5  658.5  662.7  672.0  706.5  709.2  751.4
   754.6  772.7  784.0  808.8  809.7  821.6  853.8  917.3  955.5  960.9
   970.1  977.3  983.8  987.1  987.2  989.0  990.4 1008.0 1017.0 1028.4
  1039.0 1049.3 1063.7 1085.5 1088.7 1089.5 1106.9 1168.5 1182.6 1187.7
  1212.4 1226.3 1281.2 1295.6 1326.3 1328.1 1342.2 1346.1 1350.9 1361.2
  1395.1 1409.3 1415.0 1451.6 1454.3 1473.4 1480.4 1486.6 1513.3 1514.1
  1518.4 1586.5 1601.4 1612.6 1627.6 1639.4 3091.7 3091.8 3141.5 3148.6
  3151.0 3151.5 3164.4 3166.4 3170.8 3183.1 3201.4 3202.7
 recalc symmetries=
     A1     B1     B1     B2     A2     B2     B1     A2     B2     B1 
     A2     A2     B1     B2     B1     A1     B2     B1     B1     A1 
     B2     B1     A2     A2     A2     A2     B2     A1     B1     B2 
     B1     B1     B2     B2     B2     A1     B2     B1     A1     B1 
     B1     A1     B1     B1     A1     B1     A2     B1     B1     B1 
     B1     A1     A2     A2     A2     A2     B1     A1     A1     A1 
     A1     A1     A1     A1     B2     B2     A1     B2     A1     B2 
     B2     B2     B2     B2     B2     B2     A1     B2     A1     A1 
     B2     B2     A1     A1     B2     B2     A1     B2     B2     A1 
     B2     A1     B2     A1     A1     A1     A1     B2     A1     B2 
     A1     B2     B2     A1     A1     A1     B2     A1 
 recalc freqs check OK
 Zero-point lengths:
 10.0000 10.0000 10.0000 10.0000 10.0000 10.0000 55.9684 38.6174 35.1572 33.8278
 28.6311 23.9547 23.3492 22.2952 19.7114 18.6919 17.6984 15.9374 13.8372 13.4778
 12.5712 12.4291 12.0711 12.0548 11.8099 11.6951 11.6245 11.3373 11.1119 11.0059
 10.6586 10.3723  9.8636  9.7726  9.6610  9.6302  9.5634  9.3268  9.3089  9.0441
  9.0246  8.9185  8.8542  8.7174  8.7121  8.6489  8.4844  8.1853  8.0202  7.9975
  7.9594  7.9300  7.9040  7.8907  7.8902  7.8831  7.8775  7.8084  7.7740  7.7308
  7.6912  7.6533  7.6014  7.5244  7.5136  7.5107  7.4515  7.2523  7.2091  7.1935
  7.1199  7.0795  6.9260  6.8876  6.8072  6.8026  6.7669  6.7570  6.7449  6.7194
  6.6374  6.6037  6.5905  6.5070  6.5007  6.4585  6.4433  6.4299  6.3728  6.3711
  6.3622  6.2241  6.1951  6.1736  6.1451  6.1229  4.4586  4.4585  4.4231  4.4181
  4.4164  4.4161  4.4071  4.4057  4.4026  4.3941  4.3815  4.3807
 highest evec of mol 2
  0.0000  0.0000 -0.0221
  0.0000 -0.0355 -0.0279
  0.0000 -0.1719  0.1016
  0.0000  0.0000  0.0077
  0.0000  0.0000  0.0022
  0.0000 -0.0010  0.0005
  0.0000 -0.0011 -0.0006
  0.0000  0.0000  0.0001
  0.0000  0.0000 -0.0000
  0.0000  0.0000 -0.0000
  0.0000  0.0001  0.0001
  0.0000  0.0000 -0.0001
  0.0000  0.0000  0.0002
  0.0000 -0.0001 -0.0001
  0.0000  0.0001  0.0001
  0.0000  0.0000  0.0000
  0.0000 -0.0001  0.0001
  0.0000  0.0001 -0.0001
  0.0000 -0.0001  0.0001
  0.0000 -0.0000 -0.0000
  0.0000  0.0011 -0.0006
  0.0000  0.0010  0.0005
  0.0000  0.1719  0.1016
  0.0000  0.0355 -0.0279
  0.0000  0.0000  0.0630
  0.0000  0.1159  0.0682
  0.0000  0.5710 -0.3341
  0.0000  0.0030  0.0014
  0.0000 -0.0003 -0.0001
  0.0000 -0.0004 -0.0002
  0.0000  0.0000 -0.0003
  0.0000  0.0004 -0.0002
  0.0000  0.0003 -0.0001
  0.0000 -0.0030  0.0014
  0.0000 -0.5710 -0.3341
  0.0000 -0.1159  0.0682
 Enter nber and list of atoms to keep of mol #2
 keep list:          36           1           2           3           4
           5           6           7           8           9          10
          11          12          13          14          15          16
          17          18          19          20          21          22
          23          24          25          26          27          28
          29          30          31          32          33          34
          35          36
 reordering atoms
           1   7.74733036288192     
           2   7.03856136288192     
           3   5.64916836288192     
           4   4.92374736288192     
           5   3.45348136288192     
           6   2.81860136288192     
           7   1.49727736288192     
           8  0.724249362881919     
           9 -0.715199637118081     
          10  -1.36027263711808     
          11  -2.67445263711808     
          12  -3.44845063711808     
          13  -4.88590463711808     
          14  -5.53273663711808     
          15  -6.85395263711808     
          16  -7.60342063711808     
          17  -6.85395263711808     
          18  -5.53273663711808     
          19  -2.67445263711808     
          20  -1.36027263711808     
          21   1.49727736288192     
          22   2.81860136288192     
          23   5.64916836288192     
          24   7.03856136288192     
          25   8.83206836288192     
          26   7.57543936288192     
          27   5.09224236288192     
          28  0.989402362881919     
          29  -3.18480363711808     
          30  -7.35144163711808     
          31  -8.68655763711808     
          32  -7.35144163711808     
          33  -3.18480363711808     
          34  0.989402362881919     
          35   5.09224236288192     
          36   7.57543936288192     
           1           1
           2           2
           3           3
           4           4
           5           5
           6           6
           7           7
           8           8
           9           9
          10          10
          11          11
          12          12
          13          13
          14          14
          15          15
          16          16
          17          17
          18          18
          19          19
          20          20
          21          21
          22          22
          23          23
          24          24
          25          25
          26          26
          27          27
          28          28
          29          29
          30          30
          31          31
          32          32
          33          33
          34          34
          35          35
          36          36
 initial cartes coords mol 1
   6   0.00000   0.00000   7.72328
   6   0.00000  -1.20660   7.02384
   6   0.00000  -1.20925   5.63372
   6   0.00000   0.00000   4.92353
   6   0.00000   0.00000   3.44255
   7   0.00000   1.19158   2.81851
   6   0.00000   1.18314   1.49113
   6   0.00000   0.00000   0.74250
   6   0.00000   0.00000  -0.73068
   7   0.00000   1.19291  -1.34885
   6   0.00000   1.18384  -2.67730
   6   0.00000   0.00000  -3.42381
   6   0.00000   0.00000  -4.90068
   7   0.00000   1.19288  -5.51554
   6   0.00000   1.18115  -6.84734
   6   0.00000   0.00000  -7.58232
   6   0.00000  -1.18115  -6.84734
   7   0.00000  -1.19288  -5.51554
   6   0.00000  -1.18384  -2.67730
   7   0.00000  -1.19291  -1.34885
   6   0.00000  -1.18314   1.49113
   7   0.00000  -1.19158   2.81851
   6   0.00000   1.20925   5.63372
   6   0.00000   1.20660   7.02384
   1   0.00000   0.00000   8.80730
   1   0.00000  -2.14652   7.56355
   1   0.00000  -2.13733   5.07804
   1   0.00000   2.14282   0.98526
   1   0.00000   2.14316  -3.18320
   1   0.00000   2.15067  -7.33828
   1   0.00000   0.00000  -8.66512
   1   0.00000  -2.15067  -7.33828
   1   0.00000  -2.14316  -3.18320
   1   0.00000  -2.14282   0.98526
   1   0.00000   2.13733   5.07804
   1   0.00000   2.14652   7.56355
 initial cartes coords mol 2
   6   0.00000  -0.00000   7.74733
   6   0.00000  -1.20379   7.03856
   6   0.00000  -1.20734   5.64917
   6   0.00000  -0.00000   4.92375
   6   0.00000  -0.00000   3.45348
   7   0.00000   1.19598   2.81860
   6   0.00000   1.18795   1.49728
   6   0.00000  -0.00000   0.72425
   6   0.00000  -0.00000  -0.71520
   7   0.00000   1.20600  -1.36027
   6   0.00000   1.19157  -2.67445
   6   0.00000  -0.00000  -3.44845
   6   0.00000  -0.00000  -4.88590
   7   0.00000   1.20559  -5.53274
   6   0.00000   1.18084  -6.85395
   6   0.00000  -0.00000  -7.60342
   6   0.00000  -1.18084  -6.85395
   7   0.00000  -1.20559  -5.53274
   6   0.00000  -1.19157  -2.67445
   7   0.00000  -1.20600  -1.36027
   6   0.00000  -1.18795   1.49728
   7   0.00000  -1.19598   2.81860
   6   0.00000   1.20734   5.64917
   6   0.00000   1.20379   7.03856
   1   0.00000  -0.00000   8.83207
   1   0.00000  -2.14722   7.57544
   1   0.00000  -2.13521   5.09224
   1   0.00000   2.14688   0.98940
   1   0.00000   2.15055  -3.18480
   1   0.00000   2.15157  -7.35144
   1   0.00000  -0.00000  -8.68656
   1   0.00000  -2.15157  -7.35144
   1   0.00000  -2.15055  -3.18480
   1   0.00000  -2.14688   0.98940
   1   0.00000   2.13521   5.09224
   1   0.00000   2.14722   7.57544
 loop 1 0
 mod cartes coords mol 2
   6   0.00000  -0.00000   7.74733
   6   0.00000  -1.20379   7.03856
   6   0.00000  -1.20734   5.64917
   6   0.00000  -0.00000   4.92375
   6   0.00000  -0.00000   3.45348
   7   0.00000   1.19598   2.81860
   6   0.00000   1.18795   1.49728
   6   0.00000  -0.00000   0.72425
   6   0.00000  -0.00000  -0.71520
   7   0.00000   1.20600  -1.36027
   6   0.00000   1.19157  -2.67445
   6   0.00000  -0.00000  -3.44845
   6   0.00000  -0.00000  -4.88590
   7   0.00000   1.20559  -5.53274
   6   0.00000   1.18084  -6.85395
   6   0.00000  -0.00000  -7.60342
   6   0.00000  -1.18084  -6.85395
   7   0.00000  -1.20559  -5.53274
   6   0.00000  -1.19157  -2.67445
   7   0.00000  -1.20600  -1.36027
   6   0.00000  -1.18795   1.49728
   7   0.00000  -1.19598   2.81860
   6   0.00000   1.20734   5.64917
   6   0.00000   1.20379   7.03856
   1   0.00000  -0.00000   8.83207
   1   0.00000  -2.14722   7.57544
   1   0.00000  -2.13521   5.09224
   1   0.00000   2.14688   0.98940
   1   0.00000   2.15055  -3.18480
   1   0.00000   2.15157  -7.35144
   1   0.00000  -0.00000  -8.68656
   1   0.00000  -2.15157  -7.35144
   1   0.00000  -2.15055  -3.18480
   1   0.00000  -2.14688   0.98940
   1   0.00000   2.13521   5.09224
   1   0.00000   2.14722   7.57544
 read in order, maxerr=  0.02 for atom  25
 final axis swaps:           1           1           1
 final xyz swap pattern=           1
 reorder list:
   1   2   3   4   5   6   7   8   9  10  11  12  13  14  15  16  17  18  19  20
  21  22  23  24  25  26  27  28  29  30  31  32  33  34  35  36
 axis signs=           1           1           1
  6     0.000000 -0.000000  7.747330     0.000000  0.000000  7.723277
  6     0.000000 -1.203794  7.038561     0.000000 -1.206604  7.023839
  6     0.000000 -1.207342  5.649168     0.000000 -1.209251  5.633716
  6     0.000000 -0.000000  4.923747     0.000000  0.000000  4.923525
  6     0.000000 -0.000000  3.453481     0.000000  0.000000  3.442554
  7     0.000000  1.195976  2.818601     0.000000  1.191579  2.818507
  6     0.000000  1.187948  1.497277     0.000000  1.183136  1.491133
  6     0.000000 -0.000000  0.724249     0.000000  0.000000  0.742498
  6     0.000000 -0.000000 -0.715200     0.000000  0.000000 -0.730682
  7     0.000000  1.205998 -1.360273     0.000000  1.192908 -1.348851
  6     0.000000  1.191571 -2.674453     0.000000  1.183842 -2.677299
  6     0.000000 -0.000000 -3.448451     0.000000  0.000000 -3.423809
  6     0.000000 -0.000000 -4.885905     0.000000  0.000000 -4.900679
  7     0.000000  1.205589 -5.532737     0.000000  1.192885 -5.515542
  6     0.000000  1.180844 -6.853953     0.000000  1.181152 -6.847339
  6     0.000000 -0.000000 -7.603421     0.000000  0.000000 -7.582319
  6     0.000000 -1.180844 -6.853953     0.000000 -1.181152 -6.847339
  7     0.000000 -1.205589 -5.532737     0.000000 -1.192885 -5.515542
  6     0.000000 -1.191571 -2.674453     0.000000 -1.183842 -2.677299
  7     0.000000 -1.205998 -1.360273     0.000000 -1.192908 -1.348851
  6     0.000000 -1.187948  1.497277     0.000000 -1.183136  1.491133
  7     0.000000 -1.195976  2.818601     0.000000 -1.191579  2.818507
  6     0.000000  1.207342  5.649168     0.000000  1.209251  5.633716
  6     0.000000  1.203794  7.038561     0.000000  1.206604  7.023839
  1     0.000000 -0.000000  8.832068     0.000000  0.000000  8.807301
  1     0.000000 -2.147216  7.575439     0.000000 -2.146519  7.563552
  1     0.000000 -2.135209  5.092242     0.000000 -2.137327  5.078039
  1     0.000000  2.146881  0.989402     0.000000  2.142824  0.985258
  1     0.000000  2.150551 -3.184804     0.000000  2.143157 -3.183202
  1     0.000000  2.151571 -7.351442     0.000000  2.150671 -7.338283
  1     0.000000 -0.000000 -8.686558     0.000000  0.000000 -8.665121
  1     0.000000 -2.151571 -7.351442     0.000000 -2.150671 -7.338283
  1     0.000000 -2.150551 -3.184804     0.000000 -2.143157 -3.183202
  1     0.000000 -2.146881  0.989402     0.000000 -2.142824  0.985258
  1     0.000000  2.135209  5.092242     0.000000  2.137327  5.078039
  1     0.000000  2.147216  7.575439     0.000000  2.146519  7.563552
 generating redundant internal coords
         300        3600          36
 Adding extra bonds for z output only
           6           6           6           6           6           7
           6           6           6           7           6           6
           6           7           6           6           6           7
           6           7           6           7           6           6
           1           1           1           1           1           1
           1           1           1           1           1           1
 search for int coords
   1 str   2   1   1.397
   2 str   3   2   1.389
   3 str   4   3   1.409
   4 str   5   4   1.470
   5 str   6   5   1.354
   6 str   7   6   1.321
   7 str   8   7   1.417
   8 str   9   8   1.439
   9 str  10   9   1.368
  10 str  11  10   1.314
  11 str  12  11   1.421
  12 str  13  12   1.437
  13 str  14  13   1.368
  14 str  15  14   1.321
  15 str  16  15   1.399
  16 str  17  16   1.399
  17 str  18  13   1.368
  18 str  18  17   1.321
  19 str  19  12   1.421
  20 str  20   9   1.368
  21 str  20  19   1.314
  22 str  21   8   1.417
  23 str  22   5   1.354
  24 str  22  21   1.321
  25 str  23   4   1.409
  26 str  24   1   1.397
  27 str  24  23   1.389
  28 str  25   1   1.085
  29 str  26   2   1.085
  30 str  27   3   1.082
  31 str  28   7   1.085
  32 str  29  11   1.086
  33 str  30  15   1.091
  34 str  31  16   1.083
  35 str  32  17   1.091
  36 str  33  19   1.086
  37 str  34  21   1.085
  38 str  35  23   1.082
  39 str  36  24   1.085
 nber stretches=          39
  40 ben   1   2   3
  41 prop tor   1   2   3   4
  42 prop tor   1   2   3  27
  43 ben   1   2  26
  44 ben   1  24  23
  45 ben   1  24  36
  46 ben   2   1  24
  47 prop tor   2   1  24  23
  48 prop tor   2   1  24  36
  49 ben   2   1  25
  50 ben   2   3   4
  51 prop tor   2   3   4   5
  52 prop tor   2   3   4  23
  53 ben   2   3  27
  54 ben   3   2  26
  55 ben   3   4   5
  56 prop tor   3   4   5   6
  57 prop tor   3   4   5  22
  58 ben   3   4  23
  59 prop tor   3   4  23  24
  60 prop tor   3   4  23  35
  61 ben   4   3  27
  62 ben   4   5   6
  63 prop tor   4   5   6   7
  64 ben   4   5  22
  65 prop tor   4   5  22  21
  66 ben   4  23  24
  67 prop tor   4  23  24   1
  68 prop tor   4  23  24  36
  69 ben   4  23  35
  70 ben   5   4  23
  71 prop tor   5   4  23  24
  72 prop tor   5   4  23  35
  73 ben   5   6   7
  74 prop tor   5   6   7   8
  75 prop tor   5   6   7  28
  76 ben   5  22  21
  77 ben   6   5  22
  78 prop tor   6   5  22  21
  79 ben   6   7   8
  80 prop tor   6   7   8   9
  81 prop tor   6   7   8  21
  82 ben   6   7  28
  83 ben   7   8   9
  84 prop tor   7   8   9  10
  85 prop tor   7   8   9  20
  86 ben   7   8  21
  87 prop tor   7   8  21  22
  88 prop tor   7   8  21  34
  89 ben   8   7  28
  90 ben   8   9  10
  91 prop tor   8   9  10  11
  92 ben   8   9  20
  93 prop tor   8   9  20  19
  94 ben   8  21  22
  95 prop tor   8  21  22   5
  96 ben   8  21  34
  97 ben   9   8  21
  98 prop tor   9   8  21  22
  99 prop tor   9   8  21  34
 100 ben   9  10  11
 101 prop tor   9  10  11  12
 102 prop tor   9  10  11  29
 103 ben   9  20  19
 104 ben  10   9  20
 105 prop tor  10   9  20  19
 106 ben  10  11  12
 107 prop tor  10  11  12  13
 108 prop tor  10  11  12  19
 109 ben  10  11  29
 110 ben  11  12  13
 111 prop tor  11  12  13  14
 112 prop tor  11  12  13  18
 113 ben  11  12  19
 114 prop tor  11  12  19  20
 115 prop tor  11  12  19  33
 116 ben  12  11  29
 117 ben  12  13  14
 118 prop tor  12  13  14  15
 119 ben  12  13  18
 120 prop tor  12  13  18  17
 121 ben  12  19  20
 122 prop tor  12  19  20   9
 123 ben  12  19  33
 124 ben  13  12  19
 125 prop tor  13  12  19  20
 126 prop tor  13  12  19  33
 127 ben  13  14  15
 128 prop tor  13  14  15  16
 129 prop tor  13  14  15  30
 130 ben  13  18  17
 131 ben  14  13  18
 132 prop tor  14  13  18  17
 133 ben  14  15  16
 134 prop tor  14  15  16  17
 135 prop tor  14  15  16  31
 136 ben  14  15  30
 137 ben  15  16  17
 138 prop tor  15  16  17  18
 139 prop tor  15  16  17  32
 140 ben  15  16  31
 141 ben  16  15  30
 142 ben  16  17  18
 143 prop tor  16  17  18  13
 144 ben  16  17  32
 145 ben  17  16  31
 146 prop tor  18  13  14  15
 147 ben  18  17  32
 148 prop tor  19  12  13  14
 149 prop tor  19  12  13  18
 150 prop tor  20   9  10  11
 151 ben  20  19  33
 152 prop tor  21   8   9  10
 153 prop tor  21   8   9  20
 154 prop tor  22   5   6   7
 155 ben  22  21  34
 156 prop tor  23   4   5   6
 157 prop tor  23   4   5  22
 158 ben  23  24  36
 159 prop tor  24   1   2   3
 160 prop tor  24   1   2  26
 161 ben  24   1  25
 162 ben  24  23  35
 163 prop tor  25   1   2   3
 164 prop tor  25   1   2  26
 165 prop tor  25   1  24  23
 166 prop tor  25   1  24  36
 167 prop tor  26   2   3   4
 168 prop tor  26   2   3  27
 169 prop tor  27   3   4   5
 170 prop tor  27   3   4  23
 171 prop tor  28   7   8   9
 172 prop tor  28   7   8  21
 173 prop tor  29  11  12  13
 174 prop tor  29  11  12  19
 175 prop tor  30  15  16  17
 176 prop tor  30  15  16  31
 177 prop tor  31  16  17  18
 178 prop tor  31  16  17  32
 179 prop tor  32  17  18  13
 180 prop tor  33  19  20   9
 181 prop tor  34  21  22   5
 182 prop tor  35  23  24   1
 183 prop tor  35  23  24  36
 nber bend=              60
 nber lin bend=           0
 nber prop tor=          84
 nber impr tor=           0
 nber tot redund int=         183
 generating redundant internal coords
         300        3600          36
 search for int coords
   1 str   2   1   1.395
   2 str   3   2   1.390
   3 str   4   3   1.402
   4 str   5   4   1.481
   5 str   6   5   1.345
   6 str   7   6   1.327
   7 str   8   7   1.400
   8 str   9   8   1.473
   9 str  10   9   1.344
  10 str  11  10   1.328
  11 str  12  11   1.400
  12 str  13  12   1.477
  13 str  14  13   1.342
  14 str  15  14   1.332
  15 str  16  15   1.391
  16 str  17  16   1.391
  17 str  18  13   1.342
  18 str  18  17   1.332
  19 str  19  12   1.400
  20 str  20   9   1.344
  21 str  20  19   1.328
  22 str  21   8   1.400
  23 str  22   5   1.345
  24 str  22  21   1.327
  25 str  23   4   1.402
  26 str  24   1   1.395
  27 str  24  23   1.390
  28 str  25   1   1.084
  29 str  26   2   1.084
  30 str  27   3   1.082
  31 str  28   7   1.085
  32 str  29  11   1.085
  33 str  30  15   1.087
  34 str  31  16   1.083
  35 str  32  17   1.087
  36 str  33  19   1.085
  37 str  34  21   1.085
  38 str  35  23   1.082
  39 str  36  24   1.084
 nber stretches=          39
  40 ben   1   2   3
  41 prop tor   1   2   3   4
  42 prop tor   1   2   3  27
  43 ben   1   2  26
  44 ben   1  24  23
  45 ben   1  24  36
  46 ben   2   1  24
  47 prop tor   2   1  24  23
  48 prop tor   2   1  24  36
  49 ben   2   1  25
  50 ben   2   3   4
  51 prop tor   2   3   4   5
  52 prop tor   2   3   4  23
  53 ben   2   3  27
  54 ben   3   2  26
  55 ben   3   4   5
  56 prop tor   3   4   5   6
  57 prop tor   3   4   5  22
  58 ben   3   4  23
  59 prop tor   3   4  23  24
  60 prop tor   3   4  23  35
  61 ben   4   3  27
  62 ben   4   5   6
  63 prop tor   4   5   6   7
  64 ben   4   5  22
  65 prop tor   4   5  22  21
  66 ben   4  23  24
  67 prop tor   4  23  24   1
  68 prop tor   4  23  24  36
  69 ben   4  23  35
  70 ben   5   4  23
  71 prop tor   5   4  23  24
  72 prop tor   5   4  23  35
  73 ben   5   6   7
  74 prop tor   5   6   7   8
  75 prop tor   5   6   7  28
  76 ben   5  22  21
  77 ben   6   5  22
  78 prop tor   6   5  22  21
  79 ben   6   7   8
  80 prop tor   6   7   8   9
  81 prop tor   6   7   8  21
  82 ben   6   7  28
  83 ben   7   8   9
  84 prop tor   7   8   9  10
  85 prop tor   7   8   9  20
  86 ben   7   8  21
  87 prop tor   7   8  21  22
  88 prop tor   7   8  21  34
  89 ben   8   7  28
  90 ben   8   9  10
  91 prop tor   8   9  10  11
  92 ben   8   9  20
  93 prop tor   8   9  20  19
  94 ben   8  21  22
  95 prop tor   8  21  22   5
  96 ben   8  21  34
  97 ben   9   8  21
  98 prop tor   9   8  21  22
  99 prop tor   9   8  21  34
 100 ben   9  10  11
 101 prop tor   9  10  11  12
 102 prop tor   9  10  11  29
 103 ben   9  20  19
 104 ben  10   9  20
 105 prop tor  10   9  20  19
 106 ben  10  11  12
 107 prop tor  10  11  12  13
 108 prop tor  10  11  12  19
 109 ben  10  11  29
 110 ben  11  12  13
 111 prop tor  11  12  13  14
 112 prop tor  11  12  13  18
 113 ben  11  12  19
 114 prop tor  11  12  19  20
 115 prop tor  11  12  19  33
 116 ben  12  11  29
 117 ben  12  13  14
 118 prop tor  12  13  14  15
 119 ben  12  13  18
 120 prop tor  12  13  18  17
 121 ben  12  19  20
 122 prop tor  12  19  20   9
 123 ben  12  19  33
 124 ben  13  12  19
 125 prop tor  13  12  19  20
 126 prop tor  13  12  19  33
 127 ben  13  14  15
 128 prop tor  13  14  15  16
 129 prop tor  13  14  15  30
 130 ben  13  18  17
 131 ben  14  13  18
 132 prop tor  14  13  18  17
 133 ben  14  15  16
 134 prop tor  14  15  16  17
 135 prop tor  14  15  16  31
 136 ben  14  15  30
 137 ben  15  16  17
 138 prop tor  15  16  17  18
 139 prop tor  15  16  17  32
 140 ben  15  16  31
 141 ben  16  15  30
 142 ben  16  17  18
 143 prop tor  16  17  18  13
 144 ben  16  17  32
 145 ben  17  16  31
 146 prop tor  18  13  14  15
 147 ben  18  17  32
 148 prop tor  19  12  13  14
 149 prop tor  19  12  13  18
 150 prop tor  20   9  10  11
 151 ben  20  19  33
 152 prop tor  21   8   9  10
 153 prop tor  21   8   9  20
 154 prop tor  22   5   6   7
 155 ben  22  21  34
 156 prop tor  23   4   5   6
[...]
  67 A1   1135.  0.9671    93.5    99.7  67 A1   1107.
  68 B2   1180. -0.9981    99.6    99.8  68 B2   1168.
  69 A1   1195.  0.9962    99.2   100.0  69 A1   1183.
  70 B2   1223.  0.8132    66.1    99.6  70 B2   1188.
                -0.4177    17.4          72 B2   1226.
  71 B2   1226.  0.5811    33.8   100.1  72 B2   1226.
                 0.6613    43.7          73 B2   1281.
  72 B2   1244. -0.4706    22.1    99.7  70 B2   1188.
                -0.5979    35.8          71 B2   1212.
                 0.3885    15.1          73 B2   1281.
  73 B2   1272.  0.4801    23.0    99.8  72 B2   1226.
                -0.8395    70.5          74 B2   1296.
  74 B2   1285. -0.3691    13.6    99.7  71 B2   1212.
                 0.3515    12.4          72 B2   1226.
                -0.3265    10.7          73 B2   1281.
                 0.6274    39.4          75 B2   1326.
  75 B2   1292.  0.5415    29.3    99.5  71 B2   1212.
                 0.4638    21.5          73 B2   1281.
                 0.5818    33.8          75 B2   1326.
  76 B2   1336.  0.9689    93.9    99.9  76 B2   1328.
  77 A1   1344. -0.9027    81.5    99.9  79 A1   1351.
                 0.3458    12.0          80 A1   1361.
  78 A1   1346.  0.5019    25.2    99.7  77 A1   1342.
                -0.8044    64.7          80 A1   1361.
  79 B2   1349.  0.9855    97.1    99.9  78 B2   1346.
  80 A1   1353.  0.7186    51.6    99.8  77 A1   1342.
                 0.4816    23.2          84 A1   1452.
  81 B2   1399. -0.3246    10.5    99.2  75 B2   1326.
                 0.8374    70.1          82 B2   1409.
  82 B2   1425.  0.7070    50.0    99.4  81 B2   1395.
                 0.5426    29.4          85 B2   1454.
                -0.3279    10.8          88 B2   1487.
  83 A1   1429. -0.9473    89.7    99.8  83 A1   1415.
  84 A1   1465.  0.3486    12.1    99.7  77 A1   1342.
                -0.8187    67.0          84 A1   1452.
  85 B2   1469.  0.5501    30.3    99.5  85 B2   1454.
                -0.6725    45.2          86 B2   1473.
                 0.3289    10.8          88 B2   1487.
  86 B2   1482. -0.4680    21.9    99.8  85 B2   1454.
                -0.6630    44.0          86 B2   1473.
                -0.5091    25.9          88 B2   1487.
  87 A1   1498.  0.9530    90.8    99.5  87 A1   1480.
  88 A1   1525. -0.9665    93.4    99.8  90 A1   1514.
  89 B2   1555.  0.4974    24.7    99.6  81 B2   1395.
                -0.3666    13.4          85 B2   1454.
                 0.6260    39.2          88 B2   1487.
  90 B2   1585.  0.3467    12.0    99.8  82 B2   1409.
                -0.7483    56.0          89 B2   1513.
                 0.4484    20.1          91 B2   1518.
  91 A1   1602. -0.9008    81.1    99.9  94 A1   1613.
  92 B2   1606. -0.5551    30.8    99.8  89 B2   1513.
                -0.7967    63.5          91 B2   1518.
  93 A1   1621. -0.8711    75.9   100.1  92 A1   1586.
                 0.3534    12.5          95 A1   1628.
  94 B2   1624.  0.9902    98.1    99.7  93 B2   1601.
  95 A1   1638. -0.3483    12.1   100.1  94 A1   1613.
                 0.8685    75.4          95 A1   1628.
  96 A1   1648. -0.9727    94.6   100.1  96 A1   1639.
  97 A1   3149.  0.9971    99.4   100.0  97 A1   3092.
  98 B2   3151.  0.9999   100.0   100.0  98 B2   3092.
  99 A1   3165. -0.9906    98.1   100.0  99 A1   3141.
 100 B2   3176. -0.9969    99.4   100.0 102 B2   3151.
 101 B2   3178.  0.9863    97.3   100.0 103 B2   3164.
 102 A1   3179.  0.9909    98.2   100.0 104 A1   3166.
 103 B2   3182. -0.9882    97.7   100.0 100 B2   3149.
 104 A1   3183.  0.9915    98.3   100.0 101 A1   3151.
 105 A1   3188. -0.9892    97.8   100.0 105 A1   3171.
 106 A1   3200.  0.9972    99.4   100.0 106 A1   3183.
 107 B2   3210.  0.9989    99.8   100.0 107 B2   3201.
 108 A1   3211. -0.9979    99.6   100.0 108 A1   3203.
 nber times 1st assigned=           1           0
 nber times 1st assigned=           2           0
 nber times 1st assigned=           3           0
 nber times 1st assigned=           4           0
 nber times 1st assigned=           5           0
 nber times 1st assigned=           6           0
 nber times 1st assigned=           7           0
 nber times 1st assigned=           8           0
 nber times 1st assigned=           9           0
 nber times 1st assigned=          10           0
 nber times 1st assigned=          11           0
 nber times 1st assigned=          12           0
 nber times 1st assigned=          13           0
 nber times 1st assigned=          14           0
 nber times 1st assigned=          15           0
 nber times 1st assigned=          16           0
 nber times 1st assigned=          17           0
 nber times 1st assigned=          18           0
 nber times 1st assigned=          19           0
 nber times 1st assigned=          20           0
 nber times 1st assigned=          21           0
 nber times 1st assigned=          22           0
 nber times 1st assigned=          23           0
 nber times 1st assigned=          24           0
 nber times 1st assigned=          25           0
 nber times 1st assigned=          26           0
 nber times 1st assigned=          27           0
 nber times 1st assigned=          28           0
 nber times 1st assigned=          29           0
 nber times 1st assigned=          30           0
 nber times 1st assigned=          31           0
 nber times 1st assigned=          32           0
 nber times 1st assigned=          33           0
 nber times 1st assigned=          34           0
 nber times 1st assigned=          35           0
 nber times 1st assigned=          36           0
 nber times 1st assigned=          37           0
 nber times 1st assigned=          38           0
 nber times 1st assigned=          39           0
 nber times 1st assigned=          40           0
 nber times 1st assigned=          41           0
 nber times 1st assigned=          42           0
 nber times 1st assigned=          43           0
 nber times 1st assigned=          44           0
 nber times 1st assigned=          45           0
 nber times 1st assigned=          46           0
 nber times 1st assigned=          47           0
 nber times 1st assigned=          48           0
 nber times 1st assigned=          49           0
 nber times 1st assigned=          50           0
 nber times 1st assigned=          51           0
 nber times 1st assigned=          52           0
 nber times 1st assigned=          53           0
 nber times 1st assigned=          54           0
 nber times 1st assigned=          55           0
 nber times 1st assigned=          56           0
 nber times 1st assigned=          57           0
 nber times 1st assigned=          58           0
 nber times 1st assigned=          59           0
 nber times 1st assigned=          60           0
 nber times 1st assigned=          61           0
 nber times 1st assigned=          62           0
 nber times 1st assigned=          63           0
 nber times 1st assigned=          64           0
 nber times 1st assigned=          65           0
 nber times 1st assigned=          66           0
 nber times 1st assigned=          67           0
 nber times 1st assigned=          68           0
 nber times 1st assigned=          69           0
 nber times 1st assigned=          70           0
 nber times 1st assigned=          71           0
 nber times 1st assigned=          72           0
 nber times 1st assigned=          73           0
 nber times 1st assigned=          74           0
 nber times 1st assigned=          75           0
 nber times 1st assigned=          76           0
 nber times 1st assigned=          77           0
 nber times 1st assigned=          78           0
 nber times 1st assigned=          79           0
 nber times 1st assigned=          80           0
 nber times 1st assigned=          81           0
 nber times 1st assigned=          82           0
 nber times 1st assigned=          83           0
 nber times 1st assigned=          84           0
 nber times 1st assigned=          85           0
 nber times 1st assigned=          86           0
 nber times 1st assigned=          87           0
 nber times 1st assigned=          88           0
 nber times 1st assigned=          89           0
 nber times 1st assigned=          90           0
 nber times 1st assigned=          91           0
 nber times 1st assigned=          92           0
 nber times 1st assigned=          93           0
 nber times 1st assigned=          94           0
 nber times 1st assigned=          95           0
 nber times 1st assigned=          96           0
 nber times 1st assigned=          97           0
 nber times 1st assigned=          98           0
 nber times 1st assigned=          99           0
 nber times 1st assigned=         100           0
 nber times 1st assigned=         101           0
 nber times 1st assigned=         102           0
 nber times 1st assigned=         103           0
 nber times 1st assigned=         104           0
 nber times 1st assigned=         105           0
 nber times 1st assigned=         106           0
 nber times 1st assigned=         107           0
 nber times 1st assigned=         108           0
 modes represented=   101.978120220757     
 p1=
   -0.   -0.    0.    0.    0.    0.    0.    0.    0.   -0.    0.   -0.    0.   -0.   -0.   -7.   -0.    0.    2.   -0.
    0.   -0.   -0.   -0.   -0.    0.   -0.    2.    0.   -0.    0.    0.    0.    0.   -0.   -0.   -0.   -0.    1.    0.
   -1.    0.    0.   -2.   -0.   -0.   -0.   -0.   -0.    0.    0.   -0.   -2.    0.    0.   -0.   -1.    0.   -1.   -1.
   -1.   -0.   -1.   -0.    0.    0.    1.    0.    0.    0.   -0.    0.    0.    0.    0.    0.    0.   -2.   -0.    4.
   -0.    0.   -3.   -2.    0.    0.   -1.   -1.   -0.   -0.    5.    0.    1.   -0.    1.    0.   -0.    0.   -0.    0.
   -0.   -0.   -0.    0.   -0.    0.    0.   -0.
 p2=
   -0.    0.    0.   -0.   -0.   -0.   -0.    0.    0.   -0.    0.    0.   -0.   -0.    0.    7.   -0.   -0.    0.   -1.
    0.   -0.    0.   -0.    0.    0.    0.   -2.   -0.    0.    0.   -0.    0.    0.   -0.    0.    0.   -0.    1.   -0.
    0.   -2.    0.   -0.   -2.   -0.    0.    0.   -0.    0.    0.    2.    0.   -0.   -0.    0.   -0.   -1.   -2.   -0.
   -0.    0.    1.   -0.   -0.   -0.   -1.    0.   -0.    0.    0.   -0.   -0.   -0.   -0.   -0.   -2.    0.   -1.   -3.
   -0.    0.   -2.   -4.    0.   -0.   -0.   -0.   -0.   -1.   -0.    2.   -0.    4.    1.    1.    0.    0.   -0.    0.
   -0.    0.    0.    0.   -0.   -0.   -0.   -0.

 Displacement: in terms of nc of 1 THEN of nc of 2

   1 A1  freq=    -0. Q= -0.000 lam=    -0.0 A1  freq=    -0. Q= -0.000 lam=    -0.0
   2 A2  freq=    -0. Q= -0.000 lam=    -0.0 B1  freq=    -0. Q= -0.000 lam=    -0.0
   3 B1  freq=    -0. Q=  0.000 lam=    -0.0 B1  freq=    -0. Q=  0.000 lam=    -0.0
   4 B2  freq=    -0. Q=  0.000 lam=    -0.0 B2  freq=     0. Q=  0.000 lam=     0.0
   5 B1  freq=     0. Q=  0.000 lam=     0.0 A2  freq=     0. Q=  0.000 lam=     0.0
   6 B2  freq=     0. Q=  0.000 lam=     0.0 B2  freq=     0. Q=  0.000 lam=     0.0
   7 B1  freq=    20. Q=  0.000 lam=     0.0 B1  freq=    20. Q=  0.000 lam=     0.0
   8 A2  freq=    29. Q=  0.000 lam=     0.0 A2  freq=    41. Q=  0.000 lam=     0.0
   9 B2  freq=    50. Q=  0.000 lam=     0.0 B2  freq=    50. Q=  0.000 lam=     0.0
  10 A2  freq=    54. Q= -0.000 lam=     0.0 B1  freq=    54. Q= -0.000 lam=     0.0
  11 B1  freq=    56. Q=  0.000 lam=     0.0 A2  freq=    75. Q=  0.000 lam=     0.0
  12 A2  freq=    73. Q= -0.000 lam=     0.0 A2  freq=   107. Q= -0.000 lam=     0.0
  13 B1  freq=   121. Q=  0.000 lam=     0.0 B1  freq=   113. Q=  0.000 lam=     0.0
  14 B2  freq=   125. Q= -0.000 lam=     0.0 B2  freq=   124. Q= -0.000 lam=     0.0
  15 B1  freq=   168. Q= -0.000 lam=     0.0 B1  freq=   158. Q= -0.000 lam=     0.0
  16 A1  freq=   175. Q= -0.362 lam=    11.5 A1  freq=   176. Q= -0.389 lam=    13.3
  17 B2  freq=   199. Q= -0.000 lam=     0.0 B2  freq=   196. Q= -0.000 lam=     0.0
  18 B1  freq=   257. Q=  0.000 lam=     0.0 B1  freq=   242. Q=  0.000 lam=     0.0
  19 A1  freq=   338. Q=  0.121 lam=     2.5 B1  freq=   321. Q=  0.000 lam=     0.0
  20 B1  freq=   349. Q= -0.000 lam=     0.0 A1  freq=   338. Q= -0.111 lam=     2.1
  21 B2  freq=   387. Q=  0.000 lam=     0.0 B2  freq=   389. Q=  0.000 lam=     0.0
  22 A2  freq=   405. Q= -0.000 lam=     0.0 B1  freq=   398. Q= -0.000 lam=     0.0
  23 A2  freq=   409. Q= -0.000 lam=     0.0 A2  freq=   422. Q= -0.000 lam=     0.0
  24 A2  freq=   414. Q= -0.000 lam=     0.0 A2  freq=   423. Q= -0.000 lam=     0.0
  25 A2  freq=   417. Q= -0.000 lam=     0.0 A2  freq=   441. Q= -0.000 lam=     0.0
  26 B1  freq=   433. Q=  0.000 lam=     0.0 A2  freq=   449. Q=  0.000 lam=     0.0
  27 B2  freq=   458. Q= -0.000 lam=     0.0 B2  freq=   455. Q= -0.000 lam=     0.0
  28 A1  freq=   476. Q=  0.142 lam=     4.8 A1  freq=   478. Q=  0.145 lam=     5.0
  29 B2  freq=   515. Q=  0.000 lam=     0.0 B1  freq=   498. Q=  0.000 lam=     0.0
  30 B1  freq=   517. Q= -0.000 lam=     0.0 B2  freq=   507. Q= -0.000 lam=     0.0
  31 B1  freq=   570. Q=  0.000 lam=     0.0 B1  freq=   541. Q=  0.000 lam=     0.0
  32 B1  freq=   606. Q=  0.000 lam=     0.0 B1  freq=   571. Q=  0.000 lam=     0.0
  33 B2  freq=   631. Q=  0.000 lam=     0.0 B2  freq=   632. Q=  0.000 lam=     0.0
  34 B2  freq=   645. Q=  0.000 lam=     0.0 B2  freq=   644. Q=  0.000 lam=     0.0
  35 B2  freq=   660. Q= -0.000 lam=     0.0 B2  freq=   658. Q= -0.000 lam=     0.0
  36 B2  freq=   674. Q= -0.000 lam=     0.0 A1  freq=   663. Q= -0.013 lam=     0.1
  37 A1  freq=   679. Q= -0.050 lam=     0.9 B2  freq=   672. Q= -0.000 lam=     0.0
  38 B1  freq=   709. Q= -0.000 lam=     0.0 B1  freq=   707. Q= -0.000 lam=     0.0
  39 A1  freq=   726. Q=  0.114 lam=     4.8 A1  freq=   709. Q=  0.121 lam=     5.2
  40 B1  freq=   769. Q=  0.000 lam=     0.0 B1  freq=   751. Q=  0.000 lam=     0.0
  41 A1  freq=   797. Q= -0.112 lam=     5.0 B1  freq=   755. Q= -0.000 lam=     0.0
  42 B1  freq=   822. Q=  0.000 lam=     0.0 A1  freq=   773. Q=  0.194 lam=    14.5
  43 B1  freq=   827. Q=  0.000 lam=     0.0 B1  freq=   784. Q=  0.000 lam=     0.0
  44 A1  freq=   838. Q= -0.271 lam=    30.7 B1  freq=   809. Q= -0.000 lam=     0.0
  45 B1  freq=   844. Q= -0.000 lam=     0.0 A1  freq=   810. Q= -0.278 lam=    31.2
  46 B1  freq=   858. Q= -0.000 lam=     0.0 B1  freq=   822. Q= -0.000 lam=     0.0
  47 A2  freq=   867. Q= -0.000 lam=     0.0 A2  freq=   854. Q= -0.000 lam=     0.0
  48 B1  freq=   961. Q= -0.000 lam=     0.0 B1  freq=   917. Q= -0.000 lam=     0.0
  49 B1  freq=   995. Q= -0.000 lam=     0.0 B1  freq=   955. Q= -0.000 lam=     0.0
  50 A2  freq=  1003. Q=  0.000 lam=     0.0 B1  freq=   961. Q=  0.000 lam=     0.0
  51 A2  freq=  1006. Q=  0.000 lam=     0.0 B1  freq=   970. Q=  0.000 lam=     0.0
  52 B1  freq=  1007. Q= -0.000 lam=     0.0 A1  freq=   977. Q= -0.242 lam=    28.7
  53 A1  freq=  1010. Q= -0.300 lam=    45.4 A2  freq=   984. Q= -0.000 lam=     0.0
  54 B1  freq=  1014. Q=  0.000 lam=     0.0 A2  freq=   987. Q=  0.000 lam=     0.0
  55 B1  freq=  1016. Q=  0.000 lam=     0.0 A2  freq=   987. Q=  0.000 lam=     0.0
  56 A2  freq=  1017. Q= -0.000 lam=     0.0 A2  freq=   989. Q= -0.000 lam=     0.0
  57 A1  freq=  1017. Q= -0.073 lam=     2.7 B1  freq=   990. Q= -0.000 lam=     0.0
  58 A2  freq=  1020. Q=  0.000 lam=     0.0 A1  freq=  1008. Q=  0.066 lam=     2.2
  59 A1  freq=  1039. Q= -0.117 lam=     7.1 A1  freq=  1017. Q= -0.212 lam=    22.9
  60 A1  freq=  1045. Q= -0.105 lam=     5.8 A1  freq=  1028. Q= -0.003 lam=     0.0
  61 A1  freq=  1048. Q= -0.083 lam=     3.6 A1  freq=  1039. Q= -0.012 lam=     0.1
  62 A1  freq=  1072. Q= -0.012 lam=     0.1 A1  freq=  1049. Q= -0.050 lam=     1.3
  63 A1  freq=  1083. Q= -0.075 lam=     3.0 A1  freq=  1064. Q= -0.093 lam=     4.6
  64 B2  freq=  1099. Q= -0.000 lam=     0.0 A1  freq=  1086. Q= -0.056 lam=     1.7
  65 A1  freq=  1110. Q=  0.028 lam=     0.4 B2  freq=  1089. Q=  0.000 lam=     0.0
  66 B2  freq=  1116. Q=  0.000 lam=     0.0 B2  freq=  1089. Q=  0.000 lam=     0.0
  67 A1  freq=  1135. Q=  0.119 lam=     8.0 A1  freq=  1107. Q=  0.081 lam=     3.7
  68 B2  freq=  1180. Q=  0.000 lam=     0.0 B2  freq=  1168. Q=  0.000 lam=     0.0
  69 A1  freq=  1195. Q=  0.021 lam=     0.3 A1  freq=  1183. Q=  0.025 lam=     0.4
  70 B2  freq=  1223. Q=  0.000 lam=     0.0 B2  freq=  1188. Q=  0.000 lam=     0.0
  71 B2  freq=  1226. Q= -0.000 lam=     0.0 B2  freq=  1212. Q= -0.000 lam=     0.0
  72 B2  freq=  1244. Q=  0.000 lam=     0.0 B2  freq=  1226. Q=  0.000 lam=     0.0
  73 B2  freq=  1272. Q=  0.000 lam=     0.0 B2  freq=  1281. Q=  0.000 lam=     0.0
  74 B2  freq=  1285. Q=  0.000 lam=     0.0 B2  freq=  1296. Q=  0.000 lam=     0.0
  75 B2  freq=  1292. Q=  0.000 lam=     0.0 B2  freq=  1326. Q=  0.000 lam=     0.0
  76 B2  freq=  1336. Q=  0.000 lam=     0.0 B2  freq=  1328. Q=  0.000 lam=     0.0
  77 A1  freq=  1344. Q=  0.042 lam=     1.2 A1  freq=  1342. Q=  0.233 lam=    36.3
  78 A1  freq=  1346. Q= -0.261 lam=    45.9 B2  freq=  1346. Q= -0.000 lam=     0.0
  79 B2  freq=  1349. Q= -0.000 lam=     0.0 A1  freq=  1351. Q= -0.158 lam=    16.9
  80 A1  freq=  1353. Q=  0.527 lam=   188.2 A1  freq=  1361. Q=  0.399 lam=   108.5
  81 B2  freq=  1399. Q= -0.000 lam=     0.0 B2  freq=  1395. Q= -0.000 lam=     0.0
  82 B2  freq=  1425. Q=  0.000 lam=     0.0 B2  freq=  1409. Q=  0.000 lam=     0.0
  83 A1  freq=  1429. Q= -0.528 lam=   199.2 A1  freq=  1415. Q= -0.292 lam=    60.3
  84 A1  freq=  1465. Q= -0.357 lam=    93.3 A1  freq=  1452. Q= -0.571 lam=   236.5
  85 B2  freq=  1469. Q=  0.000 lam=     0.0 B2  freq=  1454. Q=  0.000 lam=     0.0
  86 B2  freq=  1482. Q=  0.000 lam=     0.0 B2  freq=  1473. Q=  0.000 lam=     0.0
  87 A1  freq=  1498. Q= -0.089 lam=     5.9 A1  freq=  1480. Q= -0.027 lam=     0.5
  88 A1  freq=  1525. Q= -0.099 lam=     7.5 B2  freq=  1487. Q= -0.000 lam=     0.0
  89 B2  freq=  1555. Q= -0.000 lam=     0.0 B2  freq=  1513. Q= -0.000 lam=     0.0
  90 B2  freq=  1585. Q= -0.000 lam=     0.0 A1  freq=  1514. Q= -0.191 lam=    27.7
  91 A1  freq=  1602. Q=  0.769 lam=   473.5 B2  freq=  1518. Q=  0.000 lam=     0.0
  92 B2  freq=  1606. Q=  0.000 lam=     0.0 A1  freq=  1586. Q=  0.285 lam=    64.6
  93 A1  freq=  1621. Q=  0.108 lam=     9.4 B2  freq=  1601. Q=  0.000 lam=     0.0
  94 B2  freq=  1624. Q= -0.000 lam=     0.0 A1  freq=  1613. Q= -0.698 lam=   393.2
  95 A1  freq=  1638. Q=  0.093 lam=     7.0 A1  freq=  1628. Q=  0.179 lam=    26.1
  96 A1  freq=  1648. Q=  0.081 lam=     5.4 A1  freq=  1639. Q=  0.193 lam=    30.5
  97 A1  freq=  3149. Q= -0.041 lam=     2.7 A1  freq=  3092. Q= -0.036 lam=     2.0
  98 B2  freq=  3151. Q=  0.000 lam=     0.0 B2  freq=  3092. Q=  0.000 lam=     0.0
  99 A1  freq=  3165. Q= -0.011 lam=     0.2 A1  freq=  3141. Q= -0.013 lam=     0.3
 100 B2  freq=  3176. Q=  0.000 lam=     0.0 B2  freq=  3149. Q=  0.000 lam=     0.0
 101 B2  freq=  3178. Q= -0.000 lam=     0.0 A1  freq=  3151. Q= -0.007 lam=     0.1
 102 A1  freq=  3179. Q= -0.006 lam=     0.1 B2  freq=  3151. Q= -0.000 lam=     0.0
 103 B2  freq=  3182. Q= -0.000 lam=     0.0 B2  freq=  3164. Q= -0.000 lam=     0.0
 104 A1  freq=  3183. Q=  0.009 lam=     0.1 A1  freq=  3166. Q=  0.007 lam=     0.1
 105 A1  freq=  3188. Q= -0.018 lam=     0.5 A1  freq=  3171. Q= -0.016 lam=     0.4
 106 A1  freq=  3200. Q=  0.007 lam=     0.1 A1  freq=  3183. Q=  0.003 lam=     0.0
 107 B2  freq=  3210. Q=  0.000 lam=     0.0 B2  freq=  3201. Q=  0.000 lam=     0.0
 108 A1  freq=  3211. Q= -0.009 lam=     0.1 A1  freq=  3203. Q= -0.007 lam=     0.1

 total reorg energy (cm**-1, kcal/mol)=     1177.     1141.      3.36      3.26
 Nber of molecules processed=           2
