 Enter ifcurve (0=recti, 1=orth curvi, 2=apprx curvi, -1 = skip
 And atom ordering flag, 0= never changes, 1= use the first order thenceforth,
  2= deduce it (does read on fail), 3= always read it
 Reading file: 
 ./Cyclopentadiene_0_C0S0.log                                                   
                                          
  Entering Gaussian System, Link 0=g16                                          
  
 Gaussian format, type: g94, g98, g03= F F F
  #P Geom=AllCheck Guess=TCheck SCRF=Check GenChk RB3LYP/6-311G(d,p) Fre    
 energy type= B3LYP   
 Original G94 input coords:
  6  0.959130  0.000000  0.000000
  6  0.156965  1.177013  0.000000
  6 -1.156580  0.704225  0.000000
  6 -1.156580 -0.704225  0.000000
  6  0.156965 -1.177013  0.000000
  1  2.044528  0.457186  0.000000
  1  2.044528 -0.457186  0.000000
  1  0.504121  2.197411  0.000000
  1 -2.028599  1.342767  0.000000
  1 -2.028599 -1.342767  0.000000
  1  0.504121 -2.197411  0.000000
 nber atoms=          11
 Original standard coords:
  6  0.000000  0.000000  1.103589
  6  0.000000  1.177013  0.301424
  6  0.000000  0.704225 -1.012122
  6  0.000000 -0.704225 -1.012122
  6  0.000000 -1.177013  0.301424
  1  0.000000  0.457186  2.188986
  1  0.000000 -0.457186  2.188986
  1  0.000000  2.197411  0.648580
  1  0.000000  1.342767 -1.884141
  1  0.000000 -1.342767 -1.884141
  1  0.000000 -2.197411  0.648580
  SCF Done:  E(RB3LYP) =  -193.998584606     A.U. after    1 cycles             
  
          23          40 "  -193.998584606"
After scan for Atom:   Atom  AN      X      Y      Z        X      Y      Z        X      Y      Z   
After scan for Atom:   Atom  AN      X      Y      Z        X      Y      Z        X      Y      Z   
After scan for Atom:   Atom  AN      X      Y      Z        X      Y      Z        X      Y      Z   
After scan for Atom:   Atom  AN      X      Y      Z        X      Y      Z        X      Y      Z   
After scan for Atom:   Atom  AN      X      Y      Z        X      Y      Z        X      Y      Z   
After scan for Atom:   Atom  AN      X      Y      Z        X      Y      Z        X      Y      Z   
After scan for Atom:   Atom  AN      X      Y      Z        X      Y      Z        X      Y      Z   
After scan for Atom:   Atom  AN      X      Y      Z        X      Y      Z        X      Y      Z   
After scan for Atom:   Atom  AN      X      Y      Z        X      Y      Z        X      Y      Z   
 g94    frequencies=
     0.0    0.0    0.0    0.0    0.0    0.0-1927.3 -494.9  578.6  587.4
   592.1  627.2  680.1  767.8  782.6  853.2  864.2 1013.6 1078.0 1080.2
  1135.3 1222.1 1296.0 1322.5 1422.1 1469.4 1504.6 2563.2 2942.5 3203.7
  3219.5 3246.2 3249.5
 g94    symmetries=
                                                A2     B1     B1     B2
      A2     A2     B1     B1     A1     A2     B2     A1     B2     A1
      A1     B2     B2     A1     A1     B2     A1     B2     A1     B2
      A1     B2     A1
 atomic masses:
 12.0000 12.0000 12.0000 12.0000 12.0000  1.0078  1.0078  1.0078  1.0078  1.0078
  1.0078
 looking for force constants in 
 ./Cyclopentadiene_0_C0S0.fchk                                                  
  
 Cartesian Force Constants                  R   N=         561                  
  
 n3=          33         561
 g94-fc frequencies=
 -1927.3 -494.9   -8.4   -7.4   -4.4   -0.0    0.0    0.0  578.6  587.4
   592.2  627.2  680.2  767.9  782.6  853.2  864.3 1013.6 1078.0 1080.3
  1135.3 1222.2 1296.0 1322.6 1422.1 1469.5 1504.6 2563.3 2942.5 3203.7
  3219.6 3246.3 3249.5
 at 99999: n3=          33
 symm operator            1 :  T  nop=           1
 symm operator            2 :  F  nop=           1
 symm operator            3 :  F  nop=           1
 symm operator            4 :  F  nop=           1
 symm operator            5 :  F  nop=           1
 symm operator            6 :  T  nop=           2
 symm operator            7 :  T  nop=           3
 The point group of the molecule is C2V
 enforcing symm op           1  jsymt=          -1          -1           1
 enforcing symm op           6  jsymt=           1          -1           1
 enforcing symm op           7  jsymt=          -1           1           1
 cartesian coord symmetries:
 A1 :   11 A2 :    5 B1 :    6 B2 :   11
 Symmetry rotation matrix:
   1.00000   0.00000   0.00000
   0.00000   1.00000   0.00000
   0.00000   0.00000   1.00000

 Projecting out zero-frequency components
 generating redundant internal coords
         300        3600          11
 search for int coords
   1 str   2   1   1.424
   2 str   3   2   1.396
   3 str   4   3   1.408
   4 str   5   1   1.424
   5 str   5   4   1.396
   6 str   6   1   1.178
   7 str   7   1   1.178
   8 str   7   6   0.914
   9 str   8   2   1.078
  10 str   9   3   1.081
  11 str  10   4   1.081
  12 str  11   5   1.078
 nber stretches=          12
  13 ben   1   2   3
  14 prop tor   1   2   3   4
  15 prop tor   1   2   3   9
  16 ben   1   2   8
  17 ben   1   5   4
  18 ben   1   5  11
  19 ben   1   6   7
  20 ben   1   7   6
  21 ben   2   1   5
  22 prop tor   2   1   5   4
  23 prop tor   2   1   5  11
  24 ben   2   1   6
  25 prop tor   2   1   6   7
  26 ben   2   1   7
  27 prop tor   2   1   7   6
  28 ben   2   3   4
  29 prop tor   2   3   4   5
  30 prop tor   2   3   4  10
  31 ben   2   3   9
  32 ben   3   2   8
  33 ben   3   4   5
  34 prop tor   3   4   5   1
  35 prop tor   3   4   5  11
  36 ben   3   4  10
  37 ben   4   3   9
  38 ben   4   5  11
  39 prop tor   5   1   2   3
  40 prop tor   5   1   2   8
  41 ben   5   1   6
  42 prop tor   5   1   6   7
  43 ben   5   1   7
  44 prop tor   5   1   7   6
  45 ben   5   4  10
  46 prop tor   6   1   2   3
  47 prop tor   6   1   2   8
  48 prop tor   6   1   5   4
  49 prop tor   6   1   5  11
  50 ben   6   1   7
  51 prop tor   7   1   2   3
  52 prop tor   7   1   2   8
  53 prop tor   7   1   5   4
  54 prop tor   7   1   5  11
  55 prop tor   8   2   3   4
  56 prop tor   8   2   3   9
  57 prop tor   9   3   4   5
  58 prop tor   9   3   4  10
  59 prop tor  10   4   5   1
  60 prop tor  10   4   5  11
 nber bend=              20
 nber lin bend=           0
 nber prop tor=          28
 nber impr tor=           0
 nber tot redund int=          60
 Eigenvalues of G in red int coords
    Gval -0.00000000 -0.00000000 -0.00000000 -0.00000000 -0.00000000 -0.00000000 -0.00000000 -0.00000000
    Gval -0.00000000 -0.00000000 -0.00000000 -0.00000000 -0.00000000 -0.00000000 -0.00000000 -0.00000000
    Gval -0.00000000 -0.00000000  0.00000000  0.00000000  0.00000000  0.00000000  0.00000000  0.00000000
    Gval  0.00000000  0.00000000  0.00000000  0.00000000  0.00000000  0.00000000  0.00000000  0.00000000
    Gval  0.00000000  0.00005688  0.00007480  0.00007747  0.00012299  0.00013750  0.00028013  0.00029920
    Gval  0.00057692  0.00059141  0.00059478  0.00060074  0.00061322  0.00062484  0.00077266  0.00103755
    Gval  0.00107073  0.00118867  0.00120733  0.00122253  0.00180740  0.00283950  0.00298291  0.00368739
    Gval  0.00376164  0.00527884  0.00820035  0.01164216
  5.688438622082891E-005  5.688438622082891E-005
  7.479860546819619E-005  5.688438622082891E-005
  7.747010245550974E-005  5.688438622082891E-005
  1.229860738726115E-004  5.688438622082891E-005
  1.375004817126067E-004  5.688438622082891E-005
  2.801314639559124E-004  5.688438622082891E-005
  2.991952117156686E-004  5.688438622082891E-005
  5.769226225991616E-004  5.688438622082891E-005
  5.914129439525017E-004  5.688438622082891E-005
  5.947759262229457E-004  5.688438622082891E-005
  6.007356577278051E-004  5.688438622082891E-005
  6.132217988895968E-004  5.688438622082891E-005
  6.248363343843341E-004  5.688438622082891E-005
  7.726563260648080E-004  5.688438622082891E-005
  1.037551623350875E-003  5.688438622082891E-005
  1.070725754689033E-003  5.688438622082891E-005
  1.188665348820206E-003  5.688438622082891E-005
  1.207332488801415E-003  5.688438622082891E-005
  1.222527302684795E-003  5.688438622082891E-005
  1.807396922577564E-003  5.688438622082891E-005
  2.839495502396247E-003  5.688438622082891E-005
  2.982914814696955E-003  5.688438622082891E-005
  3.687394380676974E-003  5.688438622082891E-005
  3.761640297538007E-003  5.688438622082891E-005
  5.278839436986056E-003  5.688438622082891E-005
  8.200346845554389E-003  5.688438622082891E-005
  1.164215814775577E-002  5.688438622082891E-005
 cut=1d-8, nber non-redundant internal coords=          27
 Check on Eigenvals of non-red overlap matrix:
  0.00005688  0.00007480  0.00007747  0.00012299  0.00013750  0.00028013  0.00029920  0.00057692
  0.00059141  0.00059478  0.00060074  0.00061322  0.00062484  0.00077266  0.00103755  0.00107073
  0.00118867  0.00120733  0.00122253  0.00180740  0.00283950  0.00298291  0.00368739  0.00376164
  0.00527884  0.00820035  0.01164216
 Checking for correct frequencies
 recalc frequencies=
 -1927.3 -494.9   -0.0   -0.0   -0.0   -0.0    0.0    0.0  578.6  587.4
   592.2  627.2  680.2  767.9  782.6  853.2  864.3 1013.6 1078.0 1080.3
  1135.3 1222.2 1296.0 1322.6 1422.1 1469.5 1504.6 2563.3 2942.5 3203.7
  3219.6 3246.3 3249.5
 recalc symmetries=
     A2     B1     A1     B1     B1     B2     A2     B2     B1     B2 
     A2     A2     B1     B1     A1     A2     B2     A1     B2     A1 
     A1     B2     B2     A1     A1     B2     A1     B2     A1     B2 
     A1     B2     A1 
 recalc freqs check OK
 Zero-point lengths:
  5.6470 11.1439 10.0000 10.0000 10.0000 10.0000 10.0000 10.0000 10.3061 10.2289
 10.1877  9.8989  9.5059  8.9466  8.8618  8.4872  8.4328  7.7869  7.5505  7.5428
  7.3576  7.0914  6.8863  6.8169  6.5740  6.4672  6.3911  4.8966  4.5702  4.3799
  4.3691  4.3511  4.3490
 highest evec of mol 1
  0.0000  0.0000  0.0177
  0.0000  0.1893  0.0660
  0.0000  0.0440 -0.0637
  0.0000 -0.0440 -0.0637
  0.0000 -0.1893  0.0660
  0.0000 -0.0218 -0.0113
  0.0000  0.0218 -0.0113
  0.0000 -0.6019 -0.2054
  0.0000 -0.1297  0.1783
  0.0000  0.1297  0.1783
  0.0000  0.6019 -0.2054
 generating redundant internal coords
         300        3600          11
 Adding extra bonds for z output only
           6           6           6           6           6           1
           1           1           1           1           1
 search for int coords
   1 str   2   1   1.424
   2 str   3   2   1.396
   3 str   4   3   1.408
   4 str   5   1   1.424
   5 str   5   4   1.396
   6 str   6   1   1.178
   7 str   7   1   1.178
   8 str   7   6   0.914
   9 str   8   2   1.078
  10 str   9   3   1.081
  11 str  10   4   1.081
  12 str  11   5   1.078
 nber stretches=          12
  13 ben   1   2   3
  14 prop tor   1   2   3   4
  15 prop tor   1   2   3   9
  16 ben   1   2   8
  17 ben   1   5   4
  18 ben   1   5  11
  19 ben   1   6   7
  20 ben   1   7   6
  21 ben   2   1   5
  22 prop tor   2   1   5   4
  23 prop tor   2   1   5  11
  24 ben   2   1   6
  25 prop tor   2   1   6   7
  26 ben   2   1   7
  27 prop tor   2   1   7   6
  28 ben   2   3   4
  29 prop tor   2   3   4   5
  30 prop tor   2   3   4  10
  31 ben   2   3   9
  32 ben   3   2   8
  33 ben   3   4   5
  34 prop tor   3   4   5   1
  35 prop tor   3   4   5  11
  36 ben   3   4  10
  37 ben   4   3   9
  38 ben   4   5  11
  39 prop tor   5   1   2   3
  40 prop tor   5   1   2   8
  41 ben   5   1   6
  42 prop tor   5   1   6   7
  43 ben   5   1   7
  44 prop tor   5   1   7   6
  45 ben   5   4  10
  46 prop tor   6   1   2   3
  47 prop tor   6   1   2   8
  48 prop tor   6   1   5   4
  49 prop tor   6   1   5  11
  50 ben   6   1   7
  51 prop tor   7   1   2   3
  52 prop tor   7   1   2   8
  53 prop tor   7   1   5   4
  54 prop tor   7   1   5  11
  55 prop tor   8   2   3   4
  56 prop tor   8   2   3   9
  57 prop tor   9   3   4   5
  58 prop tor   9   3   4  10
  59 prop tor  10   4   5   1
  60 prop tor  10   4   5  11
 nber bend=              20
 nber lin bend=           0
 nber prop tor=          28
 nber impr tor=           0
 nber tot redund int=          60
 Reading file: 
 ./Cyclopentadiene_0_C-1S0.log                                                  
                                          
  Entering Gaussian System, Link 0=g16                                          
  
 Gaussian format, type: g94, g98, g03= F F F
  #P Geom=AllCheck Guess=TCheck SCRF=Check GenChk UB3LYP/6-311G(d,p) Fre    
 energy type= B3LYP   
 Original G94 input coords:
  6  1.057042  0.000000  0.000000
  6  0.143761  1.138228  0.000000
  6 -1.185488  0.705872  0.000000
  6 -1.185488 -0.705872  0.000000
  6  0.143761 -1.138228  0.000000
  1  2.085156  0.762763  0.000000
  1  2.085156 -0.762763  0.000000
  1  0.487874  2.168127  0.000000
  1 -2.059825  1.351357  0.000000
  1 -2.059825 -1.351357  0.000000
  1  0.487874 -2.168127  0.000000
 nber atoms=          11
 Original standard coords:
  6  0.000000  0.000000  1.199599
  6  0.000000  1.138228  0.286318
  6  0.000000  0.705872 -1.042930
  6  0.000000 -0.705872 -1.042930
  6  0.000000 -1.138228  0.286318
  1  0.000000  0.762763  2.227714
  1  0.000000 -0.762763  2.227714
  1  0.000000  2.168127  0.630432
  1  0.000000  1.351357 -1.917268
  1  0.000000 -1.351357 -1.917268
  1  0.000000 -2.168127  0.630432
  SCF Done:  E(UB3LYP) =  -193.998049488     A.U. after    1 cycles             
  
          23          40 "  -193.998049488"
After scan for Atom:   Atom  AN      X      Y      Z        X      Y      Z        X      Y      Z   
After scan for Atom:   Atom  AN      X      Y      Z        X      Y      Z        X      Y      Z   
After scan for Atom:   Atom  AN      X      Y      Z        X      Y      Z        X      Y      Z   
After scan for Atom:   Atom  AN      X      Y      Z        X      Y      Z        X      Y      Z   
After scan for Atom:   Atom  AN      X      Y      Z        X      Y      Z        X      Y      Z   
After scan for Atom:   Atom  AN      X      Y      Z        X      Y      Z        X      Y      Z   
After scan for Atom:   Atom  AN      X      Y      Z        X      Y      Z        X      Y      Z   
After scan for Atom:   Atom  AN      X      Y      Z        X      Y      Z        X      Y      Z   
After scan for Atom:   Atom  AN      X      Y      Z        X      Y      Z        X      Y      Z   
 g94    frequencies=
     0.0    0.0    0.0    0.0    0.0    0.0-2108.7-1080.7  456.4  589.3
   608.8  621.2  648.2  741.6  770.1  788.8  837.3  965.8  978.1 1068.4
  1076.7 1106.9 1108.5 1268.5 1302.6 1425.8 1465.2 1477.6 1883.5 3106.6
  3123.6 3139.5 3154.4
 g94    symmetries=
                                                B2     A2     B1     B1
      A2     A2     B1     B1     A2     A1     B2     B2     A1     A1
      B2     B2     A1     B2     A1     A1     B2     A1     A1     B2
      A1     B2     A1
 atomic masses:
 12.0000 12.0000 12.0000 12.0000 12.0000  1.0078  1.0078  1.0078  1.0078  1.0078
  1.0078
 looking for force constants in 
 ./Cyclopentadiene_0_C-1S0.fchk                                                 
  
 Cartesian Force Constants                  R   N=         561                  
  
 n3=          33         561
 g94-fc frequencies=
 -2108.7-1080.7   -3.8    0.0    0.0    0.0    1.1    1.7  456.4  589.3
   608.9  621.2  648.2  741.6  770.1  788.9  837.3  965.9  978.2 1068.4
  1076.7 1106.9 1108.5 1268.6 1302.6 1425.8 1465.2 1477.7 1883.6 3106.7
  3123.7 3139.6 3154.4
 at 99999: n3=          33
 symm operator            1 :  T  nop=           1
 symm operator            2 :  F  nop=           1
 symm operator            3 :  F  nop=           1
 symm operator            4 :  F  nop=           1
 symm operator            5 :  F  nop=           1
 symm operator            6 :  T  nop=           2
 symm operator            7 :  T  nop=           3
 The point group of the molecule is C2V
 enforcing symm op           1  jsymt=          -1          -1           1
 enforcing symm op           6  jsymt=           1          -1           1
 enforcing symm op           7  jsymt=          -1           1           1
 cartesian coord symmetries:
 A1 :   11 A2 :    5 B1 :    6 B2 :   11
 Symmetry rotation matrix:
   1.00000   0.00000   0.00000
   0.00000   1.00000   0.00000
   0.00000   0.00000   1.00000

 Projecting out zero-frequency components
 generating redundant internal coords
         300        3600          11
 search for int coords
   1 str   2   1   1.459
   2 str   3   2   1.398
   3 str   4   3   1.412
   4 str   5   1   1.459
   5 str   5   4   1.398
   6 str   6   1   1.280
   7 str   7   1   1.280
   8 str   8   2   1.086
   9 str   9   3   1.087
  10 str  10   4   1.087
  11 str  11   5   1.086
 nber stretches=          11
  12 ben   1   2   3
  13 prop tor   1   2   3   4
  14 prop tor   1   2   3   9
  15 ben   1   2   8
  16 ben   1   5   4
  17 ben   1   5  11
  18 ben   2   1   5
  19 prop tor   2   1   5   4
  20 prop tor   2   1   5  11
  21 ben   2   1   6
  22 ben   2   1   7
  23 ben   2   3   4
  24 prop tor   2   3   4   5
  25 prop tor   2   3   4  10
  26 ben   2   3   9
  27 ben   3   2   8
  28 ben   3   4   5
  29 prop tor   3   4   5   1
  30 prop tor   3   4   5  11
  31 ben   3   4  10
  32 ben   4   3   9
  33 ben   4   5  11
  34 prop tor   5   1   2   3
  35 prop tor   5   1   2   8
  36 ben   5   1   6
  37 ben   5   1   7
  38 ben   5   4  10
  39 prop tor   6   1   2   3
  40 prop tor   6   1   2   8
  41 prop tor   6   1   5   4
  42 prop tor   6   1   5  11
  43 ben   6   1   7
  44 prop tor   7   1   2   3
  45 prop tor   7   1   2   8
  46 prop tor   7   1   5   4
  47 prop tor   7   1   5  11
  48 prop tor   8   2   3   4
  49 prop tor   8   2   3   9
  50 prop tor   9   3   4   5
  51 prop tor   9   3   4  10
  52 prop tor  10   4   5   1
  53 prop tor  10   4   5  11
 nber bend=              18
 nber lin bend=           0
 nber prop tor=          24
 nber impr tor=           0
 nber tot redund int=          53
 Eigenvalues of G in red int coords
    Gval -0.00000000 -0.00000000 -0.00000000 -0.00000000 -0.00000000 -0.00000000 -0.00000000 -0.00000000
    Gval -0.00000000 -0.00000000 -0.00000000 -0.00000000 -0.00000000 -0.00000000  0.00000000  0.00000000
    Gval  0.00000000  0.00000000  0.00000000  0.00000000  0.00000000  0.00000000  0.00000000  0.00000000
    Gval  0.00000000  0.00000000  0.00005676  0.00007413  0.00007782  0.00011990  0.00013653  0.00027782
    Gval  0.00028894  0.00055691  0.00057155  0.00057497  0.00059131  0.00059460  0.00059860  0.00062238
    Gval  0.00063471  0.00094392  0.00104956  0.00114134  0.00117289  0.00119775  0.00143577  0.00184876
    Gval  0.00329118  0.00397137  0.00489023  0.01214822  0.01887068
  5.675745991437618E-005  5.675745991437618E-005
  7.413252261659074E-005  5.675745991437618E-005
  7.782405197041840E-005  5.675745991437618E-005
  1.199038593717764E-004  5.675745991437618E-005
  1.365336060741970E-004  5.675745991437618E-005
  2.778184268233531E-004  5.675745991437618E-005
  2.889420398942652E-004  5.675745991437618E-005
  5.569126526616635E-004  5.675745991437618E-005
  5.715516290297130E-004  5.675745991437618E-005
  5.749657686605545E-004  5.675745991437618E-005
  5.913121232953080E-004  5.675745991437618E-005
  5.945974513706070E-004  5.675745991437618E-005
  5.985977072362709E-004  5.675745991437618E-005
  6.223781772349483E-004  5.675745991437618E-005
  6.347118810539763E-004  5.675745991437618E-005
  9.439166242915779E-004  5.675745991437618E-005
  1.049563800776792E-003  5.675745991437618E-005
  1.141340421145914E-003  5.675745991437618E-005
  1.172889012696871E-003  5.675745991437618E-005
  1.197752913502935E-003  5.675745991437618E-005
  1.435765982376935E-003  5.675745991437618E-005
  1.848763636744370E-003  5.675745991437618E-005
  3.291181350827521E-003  5.675745991437618E-005
  3.971371405577669E-003  5.675745991437618E-005
  4.890228986988657E-003  5.675745991437618E-005
  1.214822305074375E-002  5.675745991437618E-005
  1.887068317334093E-002  5.675745991437618E-005
 cut=1d-8, nber non-redundant internal coords=          27
 Check on Eigenvals of non-red overlap matrix:
  0.00005676  0.00007413  0.00007782  0.00011990  0.00013653  0.00027782  0.00028894  0.00055691
  0.00057155  0.00057497  0.00059131  0.00059460  0.00059860  0.00062238  0.00063471  0.00094392
  0.00104956  0.00114134  0.00117289  0.00119775  0.00143577  0.00184876  0.00329118  0.00397137
  0.00489023  0.01214822  0.01887068
 Checking for correct frequencies
 recalc frequencies=
 -2108.7-1080.7   -0.0   -0.0    0.0    0.0    0.0    0.0  456.4  589.3
   608.9  621.2  648.2  741.6  770.1  788.9  837.3  965.9  978.2 1068.4
  1076.7 1106.9 1108.5 1268.6 1302.6 1425.8 1465.2 1477.7 1883.6 3106.7
  3123.7 3139.6 3154.4
 recalc symmetries=
     B2     A2     B2     A2     B2     B1     B1     A1     B1     B1 
     A2     A2     B1     B1     A2     A1     B2     B2     A1     A1 
     B2     B2     A1     B2     A1     A1     B2     A1     A1     B2 
     A1     B2     A1 
 recalc freqs check OK
 Zero-point lengths:
  5.3986  7.5411 10.0000 10.0000 10.0000 10.0000 10.0000 10.0000 11.6048 10.2122
 10.0471  9.9467  9.7371  9.1037  8.9337  8.8267  8.5674  7.9770  7.9266  7.5845
  7.5553  7.4514  7.4461  6.9605  6.8690  6.5654  6.4766  6.4492  5.7122  4.4478
  4.4357  4.4245  4.4140
 highest evec of mol 2
  0.0000  0.0000  0.0116
  0.0000  0.1349  0.0543
  0.0000  0.0968 -0.1300
  0.0000 -0.0968 -0.1300
  0.0000 -0.1349  0.0543
  0.0000 -0.0020 -0.0058
  0.0000  0.0020 -0.0058
  0.0000 -0.4300 -0.1508
  0.0000 -0.2943  0.3978
  0.0000  0.2943  0.3978
  0.0000  0.4300 -0.1508
 Enter nber and list of atoms to keep of mol #2
 keep list:          11           1           2           3           4
           5           6           7           8           9          10
          11
 reordering atoms
           1   1.26232400000000     
           2  0.349043000000000     
           3 -0.980205000000000     
           4 -0.980205000000000     
           5  0.349043000000000     
           6   2.29043900000000     
           7   2.29043900000000     
           8  0.693157000000000     
           9  -1.85454300000000     
          10  -1.85454300000000     
          11  0.693157000000000     
           1           1
           2           2
           3           3
           4           4
           5           5
           6           6
           7           7
           8           8
           9           9
          10          10
          11          11
 initial cartes coords mol 1
   6   0.00000   0.00000   1.16715
   6   0.00000   1.17701   0.36499
   6   0.00000   0.70422  -0.94856
   6   0.00000  -0.70422  -0.94856
   6   0.00000  -1.17701   0.36499
   1   0.00000   0.45719   2.25255
   1   0.00000  -0.45719   2.25255
   1   0.00000   2.19741   0.71214
   1   0.00000   1.34277  -1.82058
   1   0.00000  -1.34277  -1.82058
   1   0.00000  -2.19741   0.71214
 initial cartes coords mol 2
   6   0.00000   0.00000   1.26232
   6   0.00000   1.13823   0.34904
   6   0.00000   0.70587  -0.98020
   6   0.00000  -0.70587  -0.98020
   6   0.00000  -1.13823   0.34904
   1   0.00000   0.76276   2.29044
   1   0.00000  -0.76276   2.29044
   1   0.00000   2.16813   0.69316
   1   0.00000   1.35136  -1.85454
   1   0.00000  -1.35136  -1.85454
   1   0.00000  -2.16813   0.69316
 loop 1 0
 mod cartes coords mol 2
   6   0.00000   0.00000   1.26232
   6   0.00000   1.13823   0.34904
   6   0.00000   0.70587  -0.98020
   6   0.00000  -0.70587  -0.98020
   6   0.00000  -1.13823   0.34904
   1   0.00000   0.76276   2.29044
   1   0.00000  -0.76276   2.29044
   1   0.00000   2.16813   0.69316
   1   0.00000   1.35136  -1.85454
   1   0.00000  -1.35136  -1.85454
   1   0.00000  -2.16813   0.69316
 read in order, maxerr=  0.31 for atom   6
 loop 1 1
 mod cartes coords mol 2
   6   0.00000   0.00000   1.26232
   6   0.00000   1.13823   0.34904
   6   0.00000   0.70587  -0.98020
   6   0.00000  -0.70587  -0.98020
   6   0.00000  -1.13823   0.34904
   1   0.00000   0.76276   2.29044
   1   0.00000  -0.76276   2.29044
   1   0.00000   2.16813   0.69316
   1   0.00000   1.35136  -1.85454
   1   0.00000  -1.35136  -1.85454
   1   0.00000  -2.16813   0.69316
 read in order, maxerr=  0.31 for atom   6
 loop 1 2
 mod cartes coords mol 2
   6   0.00000   0.00000   1.26232
   6   0.00000  -1.13823   0.34904
   6   0.00000  -0.70587  -0.98020
   6   0.00000   0.70587  -0.98020
   6   0.00000   1.13823   0.34904
   1   0.00000  -0.76276   2.29044
   1   0.00000   0.76276   2.29044
   1   0.00000  -2.16813   0.69316
   1   0.00000  -1.35136  -1.85454
   1   0.00000   1.35136  -1.85454
   1   0.00000   2.16813   0.69316
 read in order, maxerr=  4.37 for atom   8
 loop 1 3
 mod cartes coords mol 2
   6   0.00000   0.00000   1.26232
   6   0.00000  -1.13823   0.34904
   6   0.00000  -0.70587  -0.98020
   6   0.00000   0.70587  -0.98020
   6   0.00000   1.13823   0.34904
   1   0.00000  -0.76276   2.29044
   1   0.00000   0.76276   2.29044
   1   0.00000  -2.16813   0.69316
   1   0.00000  -1.35136  -1.85454
   1   0.00000   1.35136  -1.85454
   1   0.00000   2.16813   0.69316
 read in order, maxerr=  4.37 for atom   8
 loop 1 4
 mod cartes coords mol 2
   6   0.00000   0.00000  -1.26232
   6   0.00000   1.13823  -0.34904
   6   0.00000   0.70587   0.98020
   6   0.00000  -0.70587   0.98020
   6   0.00000  -1.13823  -0.34904
   1   0.00000   0.76276  -2.29044
   1   0.00000  -0.76276  -2.29044
   1   0.00000   2.16813  -0.69316
   1   0.00000   1.35136   1.85454
   1   0.00000  -1.35136   1.85454
   1   0.00000  -2.16813  -0.69316
 read in order, maxerr=  4.55 for atom   6
 loop 1 5
 mod cartes coords mol 2
   6   0.00000   0.00000  -1.26232
   6   0.00000   1.13823  -0.34904
   6   0.00000   0.70587   0.98020
   6   0.00000  -0.70587   0.98020
   6   0.00000  -1.13823  -0.34904
   1   0.00000   0.76276  -2.29044
   1   0.00000  -0.76276  -2.29044
   1   0.00000   2.16813  -0.69316
   1   0.00000   1.35136   1.85454
   1   0.00000  -1.35136   1.85454
   1   0.00000  -2.16813  -0.69316
 read in order, maxerr=  4.55 for atom   6
 loop 1 6
 mod cartes coords mol 2
   6   0.00000   0.00000  -1.26232
   6   0.00000  -1.13823  -0.34904
   6   0.00000  -0.70587   0.98020
   6   0.00000   0.70587   0.98020
   6   0.00000   1.13823  -0.34904
   1   0.00000  -0.76276  -2.29044
   1   0.00000   0.76276  -2.29044
   1   0.00000  -2.16813  -0.69316
   1   0.00000  -1.35136   1.85454
   1   0.00000   1.35136   1.85454
   1   0.00000   2.16813  -0.69316
 read in order, maxerr=  4.70 for atom   6
 loop 1 7
 mod cartes coords mol 2
   6   0.00000   0.00000  -1.26232
   6   0.00000  -1.13823  -0.34904
   6   0.00000  -0.70587   0.98020
   6   0.00000   0.70587   0.98020
   6   0.00000   1.13823  -0.34904
   1   0.00000  -0.76276  -2.29044
   1   0.00000   0.76276  -2.29044
   1   0.00000  -2.16813  -0.69316
   1   0.00000  -1.35136   1.85454
   1   0.00000   1.35136   1.85454
   1   0.00000   2.16813  -0.69316
 read in order, maxerr=  4.70 for atom   6
 loop 2 0
 mod cartes coords mol 2
   6   0.00000   1.26232   0.00000
   6   0.00000   0.34904   1.13823
   6   0.00000  -0.98020   0.70587
   6   0.00000  -0.98020  -0.70587
   6   0.00000   0.34904  -1.13823
   1   0.00000   2.29044   0.76276
   1   0.00000   2.29044  -0.76276
   1   0.00000   0.69316   2.16813
   1   0.00000  -1.85454   1.35136
   1   0.00000  -1.85454  -1.35136
   1   0.00000   0.69316  -2.16813
 read in order, maxerr=  4.50 for atom   9
 loop 2 1
 mod cartes coords mol 2
   6   0.00000   1.26232   0.00000
   6   0.00000   0.34904   1.13823
   6   0.00000  -0.98020   0.70587
   6   0.00000  -0.98020  -0.70587
   6   0.00000   0.34904  -1.13823
   1   0.00000   2.29044   0.76276
   1   0.00000   2.29044  -0.76276
   1   0.00000   0.69316   2.16813
   1   0.00000  -1.85454   1.35136
   1   0.00000  -1.85454  -1.35136
   1   0.00000   0.69316  -2.16813
 read in order, maxerr=  4.50 for atom   9
 loop 2 2
 mod cartes coords mol 2
   6   0.00000   1.26232   0.00000
   6   0.00000   0.34904  -1.13823
   6   0.00000  -0.98020  -0.70587
   6   0.00000  -0.98020   0.70587
   6   0.00000   0.34904   1.13823
   1   0.00000   2.29044  -0.76276
   1   0.00000   2.29044   0.76276
   1   0.00000   0.69316  -2.16813
   1   0.00000  -1.85454  -1.35136
   1   0.00000  -1.85454   1.35136
   1   0.00000   0.69316   2.16813
 read in order, maxerr=  3.53 for atom   6
 loop 2 3
 mod cartes coords mol 2
   6   0.00000   1.26232   0.00000
   6   0.00000   0.34904  -1.13823
   6   0.00000  -0.98020  -0.70587
   6   0.00000  -0.98020   0.70587
   6   0.00000   0.34904   1.13823
   1   0.00000   2.29044  -0.76276
   1   0.00000   2.29044   0.76276
   1   0.00000   0.69316  -2.16813
   1   0.00000  -1.85454  -1.35136
   1   0.00000  -1.85454   1.35136
   1   0.00000   0.69316   2.16813
 read in order, maxerr=  3.53 for atom   6
 loop 2 4
 mod cartes coords mol 2
   6   0.00000  -1.26232   0.00000
   6   0.00000  -0.34904   1.13823
   6   0.00000   0.98020   0.70587
   6   0.00000   0.98020  -0.70587
   6   0.00000  -0.34904  -1.13823
   1   0.00000  -2.29044   0.76276
   1   0.00000  -2.29044  -0.76276
   1   0.00000  -0.69316   2.16813
   1   0.00000   1.85454   1.35136
   1   0.00000   1.85454  -1.35136
   1   0.00000  -0.69316  -2.16813
 read in order, maxerr=  3.53 for atom   7
 loop 2 5
 mod cartes coords mol 2
   6   0.00000  -1.26232   0.00000
   6   0.00000  -0.34904   1.13823
   6   0.00000   0.98020   0.70587
   6   0.00000   0.98020  -0.70587
   6   0.00000  -0.34904  -1.13823
   1   0.00000  -2.29044   0.76276
   1   0.00000  -2.29044  -0.76276
   1   0.00000  -0.69316   2.16813
   1   0.00000   1.85454   1.35136
   1   0.00000   1.85454  -1.35136
   1   0.00000  -0.69316  -2.16813
 read in order, maxerr=  3.53 for atom   7
 loop 2 6
 mod cartes coords mol 2
   6   0.00000  -1.26232   0.00000
   6   0.00000  -0.34904  -1.13823
   6   0.00000   0.98020  -0.70587
   6   0.00000   0.98020   0.70587
   6   0.00000  -0.34904   1.13823
   1   0.00000  -2.29044  -0.76276
   1   0.00000  -2.29044   0.76276
   1   0.00000  -0.69316  -2.16813
   1   0.00000   1.85454  -1.35136
   1   0.00000   1.85454   1.35136
   1   0.00000  -0.69316   2.16813
 read in order, maxerr=  4.50 for atom  10
 loop 2 7
 mod cartes coords mol 2
   6   0.00000  -1.26232   0.00000
   6   0.00000  -0.34904  -1.13823
   6   0.00000   0.98020  -0.70587
   6   0.00000   0.98020   0.70587
   6   0.00000  -0.34904   1.13823
   1   0.00000  -2.29044  -0.76276
   1   0.00000  -2.29044   0.76276
   1   0.00000  -0.69316  -2.16813
   1   0.00000   1.85454  -1.35136
   1   0.00000   1.85454   1.35136
   1   0.00000  -0.69316   2.16813
 read in order, maxerr=  4.50 for atom  10
 loop 3 0
 mod cartes coords mol 2
   6   0.00000   0.00000   1.26232
   6   1.13823   0.00000   0.34904
   6   0.70587   0.00000  -0.98020
   6  -0.70587   0.00000  -0.98020
   6  -1.13823   0.00000   0.34904
   1   0.76276   0.00000   2.29044
   1  -0.76276   0.00000   2.29044
   1   2.16813   0.00000   0.69316
   1   1.35136   0.00000  -1.85454
   1  -1.35136   0.00000  -1.85454
   1  -2.16813   0.00000   0.69316
 read in order, maxerr=  3.09 for atom   8
 loop 3 1
 mod cartes coords mol 2
   6   0.00000   0.00000   1.26232
   6   1.13823   0.00000   0.34904
   6   0.70587   0.00000  -0.98020
   6  -0.70587   0.00000  -0.98020
   6  -1.13823   0.00000   0.34904
   1   0.76276   0.00000   2.29044
   1  -0.76276   0.00000   2.29044
   1   2.16813   0.00000   0.69316
   1   1.35136   0.00000  -1.85454
   1  -1.35136   0.00000  -1.85454
   1  -2.16813   0.00000   0.69316
 read in order, maxerr=  3.09 for atom   8
 loop 3 2
 mod cartes coords mol 2
   6   0.00000   0.00000   1.26232
   6  -1.13823   0.00000   0.34904
   6  -0.70587   0.00000  -0.98020
   6   0.70587   0.00000  -0.98020
   6   1.13823   0.00000   0.34904
   1  -0.76276   0.00000   2.29044
   1   0.76276   0.00000   2.29044
   1  -2.16813   0.00000   0.69316
   1  -1.35136   0.00000  -1.85454
   1   1.35136   0.00000  -1.85454
   1   2.16813   0.00000   0.69316
 read in order, maxerr=  3.09 for atom   8
 loop 3 3
 mod cartes coords mol 2
   6   0.00000   0.00000   1.26232
   6  -1.13823   0.00000   0.34904
   6  -0.70587   0.00000  -0.98020
   6   0.70587   0.00000  -0.98020
   6   1.13823   0.00000   0.34904
   1  -0.76276   0.00000   2.29044
   1   0.76276   0.00000   2.29044
   1  -2.16813   0.00000   0.69316
   1  -1.35136   0.00000  -1.85454
   1   1.35136   0.00000  -1.85454
   1   2.16813   0.00000   0.69316
 read in order, maxerr=  3.09 for atom   8
 loop 3 4
 mod cartes coords mol 2
   6   0.00000   0.00000  -1.26232
   6   1.13823   0.00000  -0.34904
   6   0.70587   0.00000   0.98020
   6  -0.70587   0.00000   0.98020
   6  -1.13823   0.00000  -0.34904
   1   0.76276   0.00000  -2.29044
   1  -0.76276   0.00000  -2.29044
   1   2.16813   0.00000  -0.69316
   1   1.35136   0.00000   1.85454
   1  -1.35136   0.00000   1.85454
   1  -2.16813   0.00000  -0.69316
 read in order, maxerr=  4.63 for atom   6
 loop 3 5
 mod cartes coords mol 2
   6   0.00000   0.00000  -1.26232
   6   1.13823   0.00000  -0.34904
   6   0.70587   0.00000   0.98020
   6  -0.70587   0.00000   0.98020
   6  -1.13823   0.00000  -0.34904
   1   0.76276   0.00000  -2.29044
   1  -0.76276   0.00000  -2.29044
   1   2.16813   0.00000  -0.69316
   1   1.35136   0.00000   1.85454
   1  -1.35136   0.00000   1.85454
   1  -2.16813   0.00000  -0.69316
 read in order, maxerr=  4.63 for atom   6
 loop 3 6
 mod cartes coords mol 2
   6   0.00000   0.00000  -1.26232
   6  -1.13823   0.00000  -0.34904
   6  -0.70587   0.00000   0.98020
   6   0.70587   0.00000   0.98020
   6   1.13823   0.00000  -0.34904
   1  -0.76276   0.00000  -2.29044
   1   0.76276   0.00000  -2.29044
   1  -2.16813   0.00000  -0.69316
   1  -1.35136   0.00000   1.85454
   1   1.35136   0.00000   1.85454
   1   2.16813   0.00000  -0.69316
 read in order, maxerr=  4.63 for atom   6
 loop 3 7
 mod cartes coords mol 2
   6   0.00000   0.00000  -1.26232
   6  -1.13823   0.00000  -0.34904
   6  -0.70587   0.00000   0.98020
   6   0.70587   0.00000   0.98020
   6   1.13823   0.00000  -0.34904
   1  -0.76276   0.00000  -2.29044
   1   0.76276   0.00000  -2.29044
   1  -2.16813   0.00000  -0.69316
   1  -1.35136   0.00000   1.85454
   1   1.35136   0.00000   1.85454
   1   2.16813   0.00000  -0.69316
 read in order, maxerr=  4.63 for atom   6
 loop 4 0
 mod cartes coords mol 2
   6   1.26232   0.00000   0.00000
   6   0.34904   0.00000   1.13823
   6  -0.98020   0.00000   0.70587
   6  -0.98020   0.00000  -0.70587
   6   0.34904   0.00000  -1.13823
   1   2.29044   0.00000   0.76276
   1   2.29044   0.00000  -0.76276
   1   0.69316   0.00000   2.16813
   1  -1.85454   0.00000   1.35136
   1  -1.85454   0.00000  -1.35136
   1   0.69316   0.00000  -2.16813
 read in order, maxerr=  3.91 for atom   9
 loop 4 1
 mod cartes coords mol 2
   6   1.26232   0.00000   0.00000
   6   0.34904   0.00000   1.13823
   6  -0.98020   0.00000   0.70587
   6  -0.98020   0.00000  -0.70587
   6   0.34904   0.00000  -1.13823
   1   2.29044   0.00000   0.76276
   1   2.29044   0.00000  -0.76276
   1   0.69316   0.00000   2.16813
   1  -1.85454   0.00000   1.35136
   1  -1.85454   0.00000  -1.35136
   1   0.69316   0.00000  -2.16813
 read in order, maxerr=  3.91 for atom   9
 loop 4 2
 mod cartes coords mol 2
   6   1.26232   0.00000   0.00000
   6   0.34904   0.00000  -1.13823
   6  -0.98020   0.00000  -0.70587
   6  -0.98020   0.00000   0.70587
   6   0.34904   0.00000   1.13823
   1   2.29044   0.00000  -0.76276
   1   2.29044   0.00000   0.76276
   1   0.69316   0.00000  -2.16813
   1  -1.85454   0.00000  -1.35136
   1  -1.85454   0.00000   1.35136
   1   0.69316   0.00000   2.16813
 read in order, maxerr=  3.91 for atom  10
 loop 4 3
 mod cartes coords mol 2
   6   1.26232   0.00000   0.00000
   6   0.34904   0.00000  -1.13823
   6  -0.98020   0.00000  -0.70587
   6  -0.98020   0.00000   0.70587
   6   0.34904   0.00000   1.13823
   1   2.29044   0.00000  -0.76276
   1   2.29044   0.00000   0.76276
   1   0.69316   0.00000  -2.16813
   1  -1.85454   0.00000  -1.35136
   1  -1.85454   0.00000   1.35136
   1   0.69316   0.00000   2.16813
 read in order, maxerr=  3.91 for atom  10
 loop 4 4
 mod cartes coords mol 2
   6  -1.26232   0.00000   0.00000
   6  -0.34904   0.00000   1.13823
   6   0.98020   0.00000   0.70587
   6   0.98020   0.00000  -0.70587
   6  -0.34904   0.00000  -1.13823
   1  -2.29044   0.00000   0.76276
   1  -2.29044   0.00000  -0.76276
   1  -0.69316   0.00000   2.16813
   1   1.85454   0.00000   1.35136
   1   1.85454   0.00000  -1.35136
   1  -0.69316   0.00000  -2.16813
 read in order, maxerr=  3.91 for atom   9
 loop 4 5
 mod cartes coords mol 2
   6  -1.26232   0.00000   0.00000
   6  -0.34904   0.00000   1.13823
   6   0.98020   0.00000   0.70587
   6   0.98020   0.00000  -0.70587
   6  -0.34904   0.00000  -1.13823
   1  -2.29044   0.00000   0.76276
   1  -2.29044   0.00000  -0.76276
   1  -0.69316   0.00000   2.16813
   1   1.85454   0.00000   1.35136
   1   1.85454   0.00000  -1.35136
   1  -0.69316   0.00000  -2.16813
 read in order, maxerr=  3.91 for atom   9
 loop 4 6
 mod cartes coords mol 2
   6  -1.26232   0.00000   0.00000
   6  -0.34904   0.00000  -1.13823
   6   0.98020   0.00000  -0.70587
   6   0.98020   0.00000   0.70587
   6  -0.34904   0.00000   1.13823
   1  -2.29044   0.00000  -0.76276
   1  -2.29044   0.00000   0.76276
   1  -0.69316   0.00000  -2.16813
   1   1.85454   0.00000  -1.35136
   1   1.85454   0.00000   1.35136
   1  -0.69316   0.00000   2.16813
 read in order, maxerr=  3.91 for atom  10
 loop 4 7
 mod cartes coords mol 2
   6  -1.26232   0.00000   0.00000
   6  -0.34904   0.00000  -1.13823
   6   0.98020   0.00000  -0.70587
   6   0.98020   0.00000   0.70587
   6  -0.34904   0.00000   1.13823
   1  -2.29044   0.00000  -0.76276
   1  -2.29044   0.00000   0.76276
   1  -0.69316   0.00000  -2.16813
   1   1.85454   0.00000  -1.35136
   1   1.85454   0.00000   1.35136
   1  -0.69316   0.00000   2.16813
 read in order, maxerr=  3.91 for atom  10
 loop 5 0
 mod cartes coords mol 2
   6   0.00000   1.26232   0.00000
   6   1.13823   0.34904   0.00000
   6   0.70587  -0.98020   0.00000
   6  -0.70587  -0.98020   0.00000
   6  -1.13823   0.34904   0.00000
   1   0.76276   2.29044   0.00000
   1  -0.76276   2.29044   0.00000
   1   2.16813   0.69316   0.00000
   1   1.35136  -1.85454   0.00000
   1  -1.35136  -1.85454   0.00000
   1  -2.16813   0.69316   0.00000
 read in order, maxerr=  3.92 for atom   9
 loop 5 1
 mod cartes coords mol 2
   6   0.00000   1.26232   0.00000
   6   1.13823   0.34904   0.00000
   6   0.70587  -0.98020   0.00000
   6  -0.70587  -0.98020   0.00000
   6  -1.13823   0.34904   0.00000
   1   0.76276   2.29044   0.00000
   1  -0.76276   2.29044   0.00000
   1   2.16813   0.69316   0.00000
   1   1.35136  -1.85454   0.00000
   1  -1.35136  -1.85454   0.00000
   1  -2.16813   0.69316   0.00000
 read in order, maxerr=  3.92 for atom   9
 loop 5 2
 mod cartes coords mol 2
   6   0.00000   1.26232   0.00000
   6  -1.13823   0.34904   0.00000
   6  -0.70587  -0.98020   0.00000
   6   0.70587  -0.98020   0.00000
   6   1.13823   0.34904   0.00000
   1  -0.76276   2.29044   0.00000
   1   0.76276   2.29044   0.00000
   1  -2.16813   0.69316   0.00000
   1  -1.35136  -1.85454   0.00000
   1   1.35136  -1.85454   0.00000
   1   2.16813   0.69316   0.00000
 read in order, maxerr=  3.92 for atom   9
 loop 5 3
 mod cartes coords mol 2
   6   0.00000   1.26232   0.00000
   6  -1.13823   0.34904   0.00000
   6  -0.70587  -0.98020   0.00000
   6   0.70587  -0.98020   0.00000
   6   1.13823   0.34904   0.00000
   1  -0.76276   2.29044   0.00000
   1   0.76276   2.29044   0.00000
   1  -2.16813   0.69316   0.00000
   1  -1.35136  -1.85454   0.00000
   1   1.35136  -1.85454   0.00000
   1   2.16813   0.69316   0.00000
 read in order, maxerr=  3.92 for atom   9
 loop 5 4
 mod cartes coords mol 2
   6   0.00000  -1.26232   0.00000
   6   1.13823  -0.34904   0.00000
   6   0.70587   0.98020   0.00000
   6  -0.70587   0.98020   0.00000
   6  -1.13823  -0.34904   0.00000
   1   0.76276  -2.29044   0.00000
   1  -0.76276  -2.29044   0.00000
   1   2.16813  -0.69316   0.00000
   1   1.35136   1.85454   0.00000
   1  -1.35136   1.85454   0.00000
   1  -2.16813  -0.69316   0.00000
 read in order, maxerr=  3.92 for atom  10
 loop 5 5
 mod cartes coords mol 2
   6   0.00000  -1.26232   0.00000
   6   1.13823  -0.34904   0.00000
   6   0.70587   0.98020   0.00000
   6  -0.70587   0.98020   0.00000
   6  -1.13823  -0.34904   0.00000
   1   0.76276  -2.29044   0.00000
   1  -0.76276  -2.29044   0.00000
   1   2.16813  -0.69316   0.00000
   1   1.35136   1.85454   0.00000
   1  -1.35136   1.85454   0.00000
   1  -2.16813  -0.69316   0.00000
 read in order, maxerr=  3.92 for atom  10
 loop 5 6
 mod cartes coords mol 2
   6   0.00000  -1.26232   0.00000
   6  -1.13823  -0.34904   0.00000
   6  -0.70587   0.98020   0.00000
   6   0.70587   0.98020   0.00000
   6   1.13823  -0.34904   0.00000
   1  -0.76276  -2.29044   0.00000
   1   0.76276  -2.29044   0.00000
   1  -2.16813  -0.69316   0.00000
   1  -1.35136   1.85454   0.00000
   1   1.35136   1.85454   0.00000
   1   2.16813  -0.69316   0.00000
 read in order, maxerr=  3.92 for atom  10
 loop 5 7
 mod cartes coords mol 2
   6   0.00000  -1.26232   0.00000
   6  -1.13823  -0.34904   0.00000
   6  -0.70587   0.98020   0.00000
   6   0.70587   0.98020   0.00000
   6   1.13823  -0.34904   0.00000
   1  -0.76276  -2.29044   0.00000
   1   0.76276  -2.29044   0.00000
   1  -2.16813  -0.69316   0.00000
   1  -1.35136   1.85454   0.00000
   1   1.35136   1.85454   0.00000
   1   2.16813  -0.69316   0.00000
 read in order, maxerr=  3.92 for atom  10
 loop 6 0
 mod cartes coords mol 2
   6   1.26232   0.00000   0.00000
   6   0.34904   1.13823   0.00000
   6  -0.98020   0.70587   0.00000
   6  -0.98020  -0.70587   0.00000
   6   0.34904  -1.13823   0.00000
   1   2.29044   0.76276   0.00000
   1   2.29044  -0.76276   0.00000
   1   0.69316   2.16813   0.00000
   1  -1.85454   1.35136   0.00000
   1  -1.85454  -1.35136   0.00000
   1   0.69316  -2.16813   0.00000
 read in order, maxerr=  3.23 for atom   6
 loop 6 1
 mod cartes coords mol 2
   6   1.26232   0.00000   0.00000
   6   0.34904   1.13823   0.00000
   6  -0.98020   0.70587   0.00000
   6  -0.98020  -0.70587   0.00000
   6   0.34904  -1.13823   0.00000
   1   2.29044   0.76276   0.00000
   1   2.29044  -0.76276   0.00000
   1   0.69316   2.16813   0.00000
   1  -1.85454   1.35136   0.00000
   1  -1.85454  -1.35136   0.00000
   1   0.69316  -2.16813   0.00000
 read in order, maxerr=  3.23 for atom   6
 loop 6 2
 mod cartes coords mol 2
   6   1.26232   0.00000   0.00000
   6   0.34904  -1.13823   0.00000
   6  -0.98020  -0.70587   0.00000
   6  -0.98020   0.70587   0.00000
   6   0.34904   1.13823   0.00000
   1   2.29044  -0.76276   0.00000
   1   2.29044   0.76276   0.00000
   1   0.69316  -2.16813   0.00000
   1  -1.85454  -1.35136   0.00000
   1  -1.85454   1.35136   0.00000
   1   0.69316   2.16813   0.00000
 read in order, maxerr=  4.48 for atom   8
 loop 6 3
 mod cartes coords mol 2
   6   1.26232   0.00000   0.00000
   6   0.34904  -1.13823   0.00000
   6  -0.98020  -0.70587   0.00000
   6  -0.98020   0.70587   0.00000
   6   0.34904   1.13823   0.00000
   1   2.29044  -0.76276   0.00000
   1   2.29044   0.76276   0.00000
   1   0.69316  -2.16813   0.00000
   1  -1.85454  -1.35136   0.00000
   1  -1.85454   1.35136   0.00000
   1   0.69316   2.16813   0.00000
 read in order, maxerr=  4.48 for atom   8
 loop 6 4
 mod cartes coords mol 2
   6  -1.26232   0.00000   0.00000
   6  -0.34904   1.13823   0.00000
   6   0.98020   0.70587   0.00000
   6   0.98020  -0.70587   0.00000
   6  -0.34904  -1.13823   0.00000
   1  -2.29044   0.76276   0.00000
   1  -2.29044  -0.76276   0.00000
   1  -0.69316   2.16813   0.00000
   1   1.85454   1.35136   0.00000
   1   1.85454  -1.35136   0.00000
   1  -0.69316  -2.16813   0.00000
 read in order, maxerr=  3.23 for atom   6
 loop 6 5
 mod cartes coords mol 2
   6  -1.26232   0.00000   0.00000
   6  -0.34904   1.13823   0.00000
   6   0.98020   0.70587   0.00000
   6   0.98020  -0.70587   0.00000
   6  -0.34904  -1.13823   0.00000
   1  -2.29044   0.76276   0.00000
   1  -2.29044  -0.76276   0.00000
   1  -0.69316   2.16813   0.00000
   1   1.85454   1.35136   0.00000
   1   1.85454  -1.35136   0.00000
   1  -0.69316  -2.16813   0.00000
 read in order, maxerr=  3.23 for atom   6
 loop 6 6
 mod cartes coords mol 2
   6  -1.26232   0.00000   0.00000
   6  -0.34904  -1.13823   0.00000
   6   0.98020  -0.70587   0.00000
   6   0.98020   0.70587   0.00000
   6  -0.34904   1.13823   0.00000
   1  -2.29044  -0.76276   0.00000
   1  -2.29044   0.76276   0.00000
   1  -0.69316  -2.16813   0.00000
   1   1.85454  -1.35136   0.00000
   1   1.85454   1.35136   0.00000
   1  -0.69316   2.16813   0.00000
 read in order, maxerr=  4.48 for atom   8
 loop 6 7
 mod cartes coords mol 2
   6  -1.26232   0.00000   0.00000
   6  -0.34904  -1.13823   0.00000
   6   0.98020  -0.70587   0.00000
   6   0.98020   0.70587   0.00000
   6  -0.34904   1.13823   0.00000
   1  -2.29044  -0.76276   0.00000
   1  -2.29044   0.76276   0.00000
   1  -0.69316  -2.16813   0.00000
   1   1.85454  -1.35136   0.00000
   1   1.85454   1.35136   0.00000
   1  -0.69316   2.16813   0.00000
 read in order, maxerr=  4.48 for atom   8
 settling for map=           0  swap=           1  maxerr=
  0.307917320525429     
 loop 1 0
 mod cartes coords mol 2
   6   0.00000   0.00000   1.26232
   6   0.00000   1.13823   0.34904
   6   0.00000   0.70587  -0.98020
   6   0.00000  -0.70587  -0.98020
   6   0.00000  -1.13823   0.34904
   1   0.00000   0.76276   2.29044
   1   0.00000  -0.76276   2.29044
   1   0.00000   2.16813   0.69316
   1   0.00000   1.35136  -1.85454
   1   0.00000  -1.35136  -1.85454
   1   0.00000  -2.16813   0.69316
 read in order, maxerr=  0.31 for atom   6
 final axis swaps:           1           1           1
 final xyz swap pattern=           1
 reorder list:
   1   2   3   4   5   6   7   8   9  10  11
 axis signs=           1           1           1
  6     0.000000  0.000000  1.262324     0.000000  0.000000  1.167150
  6     0.000000  1.138228  0.349043     0.000000  1.177013  0.364985
  6     0.000000  0.705872 -0.980205     0.000000  0.704225 -0.948561
  6     0.000000 -0.705872 -0.980205     0.000000 -0.704225 -0.948561
  6     0.000000 -1.138228  0.349043     0.000000 -1.177013  0.364985
  1     0.000000  0.762763  2.290439     0.000000  0.457186  2.252547
  1     0.000000 -0.762763  2.290439     0.000000 -0.457186  2.252547
  1     0.000000  2.168127  0.693157     0.000000  2.197411  0.712141
  1     0.000000  1.351357 -1.854543     0.000000  1.342767 -1.820580
  1     0.000000 -1.351357 -1.854543     0.000000 -1.342767 -1.820580
  1     0.000000 -2.168127  0.693157     0.000000 -2.197411  0.712141
 generating redundant internal coords
         300        3600          11
 Adding extra bonds for z output only
           6           6           6           6           6           1
           1           1           1           1           1
 search for int coords
   1 str   2   1   1.459
   2 str   3   2   1.398
   3 str   4   3   1.412
   4 str   5   1   1.459
   5 str   5   4   1.398
   6 str   6   1   1.280
   7 str   7   1   1.280
   8 str   8   2   1.086
   9 str   9   3   1.087
  10 str  10   4   1.087
  11 str  11   5   1.086
 nber stretches=          11
  12 ben   1   2   3
  13 prop tor   1   2   3   4
  14 prop tor   1   2   3   9
  15 ben   1   2   8
  16 ben   1   5   4
  17 ben   1   5  11
  18 ben   2   1   5
  19 prop tor   2   1   5   4
  20 prop tor   2   1   5  11
  21 ben   2   1   6
  22 ben   2   1   7
  23 ben   2   3   4
  24 prop tor   2   3   4   5
  25 prop tor   2   3   4  10
  26 ben   2   3   9
  27 ben   3   2   8
  28 ben   3   4   5
  29 prop tor   3   4   5   1
  30 prop tor   3   4   5  11
  31 ben   3   4  10
  32 ben   4   3   9
  33 ben   4   5  11
  34 prop tor   5   1   2   3
  35 prop tor   5   1   2   8
  36 ben   5   1   6
  37 ben   5   1   7
  38 ben   5   4  10
  39 prop tor   6   1   2   3
  40 prop tor   6   1   2   8
  41 prop tor   6   1   5   4
  42 prop tor   6   1   5  11
  43 ben   6   1   7
  44 prop tor   7   1   2   3
  45 prop tor   7   1   2   8
  46 prop tor   7   1   5   4
  47 prop tor   7   1   5  11
  48 prop tor   8   2   3   4
  49 prop tor   8   2   3   9
  50 prop tor   9   3   4   5
  51 prop tor   9   3   4  10
  52 prop tor  10   4   5   1
  53 prop tor  10   4   5  11
 nber bend=              18
 nber lin bend=           0
 nber prop tor=          24
 nber impr tor=           0
 nber tot redund int=          53
 generating redundant internal coords
         300        3600          11
 search for int coords
   1 str   2   1   1.424
   2 str   3   2   1.396
   3 str   4   3   1.408
   4 str   5   1   1.424
   5 str   5   4   1.396
   6 str   6   1   1.178
   7 str   7   1   1.178
   8 str   7   6   0.914
   9 str   8   2   1.078
  10 str   9   3   1.081
  11 str  10   4   1.081
  12 str  11   5   1.078
 nber stretches=          12
  13 ben   1   2   3
  14 prop tor   1   2   3   4
  15 prop tor   1   2   3   9
  16 ben   1   2   8
  17 ben   1   5   4
  18 ben   1   5  11
  19 ben   1   6   7
  20 ben   1   7   6
  21 ben   2   1   5
  22 prop tor   2   1   5   4
  23 prop tor   2   1   5  11
  24 ben   2   1   6
  25 prop tor   2   1   6   7
  26 ben   2   1   7
  27 prop tor   2   1   7   6
  28 ben   2   3   4
  29 prop tor   2   3   4   5
  30 prop tor   2   3   4  10
  31 ben   2   3   9
  32 ben   3   2   8
  33 ben   3   4   5
  34 prop tor   3   4   5   1
  35 prop tor   3   4   5  11
  36 ben   3   4  10
  37 ben   4   3   9
  38 ben   4   5  11
  39 prop tor   5   1   2   3
  40 prop tor   5   1   2   8
  41 ben   5   1   6
  42 prop tor   5   1   6   7
  43 ben   5   1   7
  44 prop tor   5   1   7   6
  45 ben   5   4  10
  46 prop tor   6   1   2   3
  47 prop tor   6   1   2   8
  48 prop tor   6   1   5   4
  49 prop tor   6   1   5  11
  50 ben   6   1   7
  51 prop tor   7   1   2   3
  52 prop tor   7   1   2   8
  53 prop tor   7   1   5   4
  54 prop tor   7   1   5  11
  55 prop tor   8   2   3   4
  56 prop tor   8   2   3   9
  57 prop tor   9   3   4   5
  58 prop tor   9   3   4  10
  59 prop tor  10   4   5   1
  60 prop tor  10   4   5  11
 nber bend=              20
 nber lin bend=           0
 nber prop tor=          28
 nber impr tor=           0
 nber tot redund int=          60
 Eigenvalues of G in red int coords
    Gval -0.00000000 -0.00000000 -0.00000000 -0.00000000 -0.00000000 -0.00000000 -0.00000000 -0.00000000
    Gval -0.00000000 -0.00000000 -0.00000000 -0.00000000 -0.00000000 -0.00000000 -0.00000000 -0.00000000
    Gval -0.00000000 -0.00000000 -0.00000000  0.00000000  0.00000000  0.00000000  0.00000000  0.00000000
    Gval  0.00000000  0.00000000  0.00000000  0.00000000  0.00000000  0.00000000  0.00000000  0.00000000
    Gval  0.00000000  0.00005688  0.00007480  0.00007747  0.00012299  0.00013750  0.00028013  0.00029920
    Gval  0.00057692  0.00059141  0.00059478  0.00060074  0.00061322  0.00062484  0.00077266  0.00103755
    Gval  0.00107073  0.00118867  0.00120733  0.00122253  0.00180740  0.00283950  0.00298291  0.00368739
    Gval  0.00376164  0.00527884  0.00820035  0.01164216
  5.688438622082818E-005  5.688438622082818E-005
  7.479860546819598E-005  5.688438622082818E-005
  7.747010245550917E-005  5.688438622082818E-005
  1.229860738726114E-004  5.688438622082818E-005
  1.375004817126076E-004  5.688438622082818E-005
  2.801314639559125E-004  5.688438622082818E-005
  2.991952117156674E-004  5.688438622082818E-005
  5.769226225991616E-004  5.688438622082818E-005
  5.914129439525014E-004  5.688438622082818E-005
  5.947759262229460E-004  5.688438622082818E-005
  6.007356577278050E-004  5.688438622082818E-005
  6.132217988895969E-004  5.688438622082818E-005
  6.248363343843351E-004  5.688438622082818E-005
  7.726563260648078E-004  5.688438622082818E-005
  1.037551623350874E-003  5.688438622082818E-005
  1.070725754689034E-003  5.688438622082818E-005
  1.188665348820208E-003  5.688438622082818E-005
  1.207332488801416E-003  5.688438622082818E-005
  1.222527302684796E-003  5.688438622082818E-005
  1.807396922577563E-003  5.688438622082818E-005
  2.839495502396242E-003  5.688438622082818E-005
  2.982914814696954E-003  5.688438622082818E-005
  3.687394380676971E-003  5.688438622082818E-005
  3.761640297538002E-003  5.688438622082818E-005
  5.278839436986052E-003  5.688438622082818E-005
  8.200346845554381E-003  5.688438622082818E-005
  1.164215814775578E-002  5.688438622082818E-005
 cut=1d-8, nber non-redundant internal coords=          27
 Check on Eigenvals of non-red overlap matrix:
  0.00005688  0.00007480  0.00007747  0.00012299  0.00013750  0.00028013  0.00029920  0.00057692
  0.00059141  0.00059478  0.00060074  0.00061322  0.00062484  0.00077266  0.00103755  0.00107073
  0.00118867  0.00120733  0.00122253  0.00180740  0.00283950  0.00298291  0.00368739  0.00376164
  0.00527884  0.00820035  0.01164216
 generating redundant internal coords
         300        3600          11
 search for int coords
   1 str   2   1   1.459
   2 str   3   2   1.398
   3 str   4   3   1.412
   4 str   5   1   1.459
   5 str   5   4   1.398
   6 str   6   1   1.280
   7 str   7   1   1.280
   8 str   8   2   1.086
   9 str   9   3   1.087
  10 str  10   4   1.087
  11 str  11   5   1.086
 nber stretches=          11
  12 ben   1   2   3
  13 prop tor   1   2   3   4
  14 prop tor   1   2   3   9
  15 ben   1   2   8
  16 ben   1   5   4
  17 ben   1   5  11
  18 ben   2   1   5
  19 prop tor   2   1   5   4
  20 prop tor   2   1   5  11
  21 ben   2   1   6
  22 ben   2   1   7
  23 ben   2   3   4
  24 prop tor   2   3   4   5
  25 prop tor   2   3   4  10
  26 ben   2   3   9
  27 ben   3   2   8
  28 ben   3   4   5
  29 prop tor   3   4   5   1
  30 prop tor   3   4   5  11
  31 ben   3   4  10
  32 ben   4   3   9
  33 ben   4   5  11
  34 prop tor   5   1   2   3
  35 prop tor   5   1   2   8
  36 ben   5   1   6
  37 ben   5   1   7
  38 ben   5   4  10
  39 prop tor   6   1   2   3
  40 prop tor   6   1   2   8
  41 prop tor   6   1   5   4
  42 prop tor   6   1   5  11
  43 ben   6   1   7
  44 prop tor   7   1   2   3
  45 prop tor   7   1   2   8
  46 prop tor   7   1   5   4
  47 prop tor   7   1   5  11
  48 prop tor   8   2   3   4
  49 prop tor   8   2   3   9
  50 prop tor   9   3   4   5
  51 prop tor   9   3   4  10
  52 prop tor  10   4   5   1
  53 prop tor  10   4   5  11
 nber bend=              18
 nber lin bend=           0
 nber prop tor=          24
 nber impr tor=           0
 nber tot redund int=          53
 Eigenvalues of G in red int coords
    Gval -0.00000000 -0.00000000 -0.00000000 -0.00000000 -0.00000000 -0.00000000 -0.00000000 -0.00000000
    Gval -0.00000000 -0.00000000 -0.00000000 -0.00000000 -0.00000000 -0.00000000  0.00000000  0.00000000
    Gval  0.00000000  0.00000000  0.00000000  0.00000000  0.00000000  0.00000000  0.00000000  0.00000000
    Gval  0.00000000  0.00000000  0.00005676  0.00007413  0.00007782  0.00011990  0.00013653  0.00027782
    Gval  0.00028894  0.00055691  0.00057155  0.00057497  0.00059131  0.00059460  0.00059860  0.00062238
    Gval  0.00063471  0.00094392  0.00104956  0.00114134  0.00117289  0.00119775  0.00143577  0.00184876
    Gval  0.00329118  0.00397137  0.00489023  0.01214822  0.01887068
  5.675745991437618E-005  5.675745991437618E-005
  7.413252261659074E-005  5.675745991437618E-005
  7.782405197041840E-005  5.675745991437618E-005
  1.199038593717764E-004  5.675745991437618E-005
  1.365336060741970E-004  5.675745991437618E-005
  2.778184268233531E-004  5.675745991437618E-005
  2.889420398942652E-004  5.675745991437618E-005
  5.569126526616635E-004  5.675745991437618E-005
  5.715516290297130E-004  5.675745991437618E-005
  5.749657686605545E-004  5.675745991437618E-005
  5.913121232953080E-004  5.675745991437618E-005
  5.945974513706070E-004  5.675745991437618E-005
  5.985977072362709E-004  5.675745991437618E-005
  6.223781772349483E-004  5.675745991437618E-005
  6.347118810539763E-004  5.675745991437618E-005
  9.439166242915779E-004  5.675745991437618E-005
  1.049563800776792E-003  5.675745991437618E-005
  1.141340421145914E-003  5.675745991437618E-005
  1.172889012696871E-003  5.675745991437618E-005
  1.197752913502935E-003  5.675745991437618E-005
  1.435765982376935E-003  5.675745991437618E-005
  1.848763636744370E-003  5.675745991437618E-005
  3.291181350827521E-003  5.675745991437618E-005
  3.971371405577669E-003  5.675745991437618E-005
  4.890228986988657E-003  5.675745991437618E-005
  1.214822305074375E-002  5.675745991437618E-005
  1.887068317334093E-002  5.675745991437618E-005
 cut=1d-8, nber non-redundant internal coords=          27
 Check on Eigenvals of non-red overlap matrix:
  0.00005676  0.00007413  0.00007782  0.00011990  0.00013653  0.00027782  0.00028894  0.00055691
  0.00057155  0.00057497  0.00059131  0.00059460  0.00059860  0.00062238  0.00063471  0.00094392
  0.00104956  0.00114134  0.00117289  0.00119775  0.00143577  0.00184876  0.00329118  0.00397137
  0.00489023  0.01214822  0.01887068
 int defn changed for coord           8
           7           6           0           0
           8           2           0           0
