 Enter ifcurve (0=recti, 1=orth curvi, 2=apprx curvi, -1 = skip
 And atom ordering flag, 0= never changes, 1= use the first order thenceforth,
  2= deduce it (does read on fail), 3= always read it
 Reading file: 
 ./Benzene_Conj_3_C0S0.log                                                      
                                          
  Entering Gaussian System, Link 0=g16                                          
  
 Gaussian format, type: g94, g98, g03= F F F
  #P Geom=AllCheck Guess=TCheck SCRF=Check GenChk RB3LYP/6-311G(d,p) Fre    
 energy type= B3LYP   
 Original G94 input coords:
  6  3.706285 -1.407130  0.000000
  6  2.446171 -0.724861  0.000000
  6  1.233638 -1.404427  0.000000
  6  0.000000 -0.725013  0.000000
  6 -1.233638 -1.404427  0.000000
  6 -2.446171 -0.724861  0.000000
  6 -3.706285 -1.407130  0.000000
  6 -4.880778 -0.714616  0.000000
  6 -4.880778  0.714616  0.000000
  6 -3.706285  1.407130  0.000000
  6 -2.446171  0.724861  0.000000
  6 -1.233638  1.404427  0.000000
  6  0.000000  0.725013  0.000000
  6  1.233638  1.404427  0.000000
  6  2.446171  0.724861  0.000000
  6  3.706285  1.407130  0.000000
  6  4.880778  0.714616  0.000000
  6  4.880778 -0.714616  0.000000
  1  3.706104 -2.492156  0.000000
  1  1.234076 -2.490157  0.000000
  1 -1.234076 -2.490157  0.000000
  1 -3.706104 -2.492156  0.000000
  1 -5.826294 -1.245181  0.000000
  1 -5.826294  1.245181  0.000000
  1 -3.706104  2.492156  0.000000
  1 -1.234076  2.490157  0.000000
  1  1.234076  2.490157  0.000000
  1  3.706104  2.492156  0.000000
  1  5.826294  1.245181  0.000000
  1  5.826294 -1.245181  0.000000
 nber atoms=          30
 Original standard coords:
  6  0.000000  3.706285  1.407130
  6  0.000000  2.446171  0.724861
  6  0.000000  1.233638  1.404427
  6  0.000000  0.000000  0.725013
  6  0.000000 -1.233638  1.404427
  6  0.000000 -2.446171  0.724861
  6  0.000000 -3.706285  1.407130
  6  0.000000 -4.880778  0.714616
  6  0.000000 -4.880778 -0.714616
  6  0.000000 -3.706285 -1.407130
  6  0.000000 -2.446171 -0.724861
  6  0.000000 -1.233638 -1.404427
  6  0.000000  0.000000 -0.725013
  6  0.000000  1.233638 -1.404427
  6  0.000000  2.446171 -0.724861
  6  0.000000  3.706285 -1.407130
  6  0.000000  4.880778 -0.714616
  6  0.000000  4.880778  0.714616
  1  0.000000  3.706104  2.492156
  1  0.000000  1.234076  2.490157
  1  0.000000 -1.234076  2.490157
  1  0.000000 -3.706104  2.492156
  1  0.000000 -5.826294  1.245181
  1  0.000000 -5.826294 -1.245181
  1  0.000000 -3.706104 -2.492156
  1  0.000000 -1.234076 -2.490157
  1  0.000000  1.234076 -2.490157
  1  0.000000  3.706104 -2.492156
  1  0.000000  5.826294 -1.245181
  1  0.000000  5.826294  1.245181
  SCF Done:  E(RB3LYP) =  -693.322889370     A.U. after    1 cycles             
  
          23          40 "  -693.322889370"
After scan for Atom:   Atom  AN      X      Y      Z        X      Y      Z        X      Y      Z   
After scan for Atom:   Atom  AN      X      Y      Z        X      Y      Z        X      Y      Z   
After scan for Atom:   Atom  AN      X      Y      Z        X      Y      Z        X      Y      Z   
After scan for Atom:   Atom  AN      X      Y      Z        X      Y      Z        X      Y      Z   
After scan for Atom:   Atom  AN      X      Y      Z        X      Y      Z        X      Y      Z   
After scan for Atom:   Atom  AN      X      Y      Z        X      Y      Z        X      Y      Z   
After scan for Atom:   Atom  AN      X      Y      Z        X      Y      Z        X      Y      Z   
After scan for Atom:   Atom  AN      X      Y      Z        X      Y      Z        X      Y      Z   
After scan for Atom:   Atom  AN      X      Y      Z        X      Y      Z        X      Y      Z   
After scan for Atom:   Atom  AN      X      Y      Z        X      Y      Z        X      Y      Z   
After scan for Atom:   Atom  AN      X      Y      Z        X      Y      Z        X      Y      Z   
After scan for Atom:   Atom  AN      X      Y      Z        X      Y      Z        X      Y      Z   
After scan for Atom:   Atom  AN      X      Y      Z        X      Y      Z        X      Y      Z   
After scan for Atom:   Atom  AN      X      Y      Z        X      Y      Z        X      Y      Z   
After scan for Atom:   Atom  AN      X      Y      Z        X      Y      Z        X      Y      Z   
After scan for Atom:   Atom  AN      X      Y      Z        X      Y      Z        X      Y      Z   
After scan for Atom:   Atom  AN      X      Y      Z        X      Y      Z        X      Y      Z   
After scan for Atom:   Atom  AN      X      Y      Z        X      Y      Z        X      Y      Z   
After scan for Atom:   Atom  AN      X      Y      Z        X      Y      Z        X      Y      Z   
After scan for Atom:   Atom  AN      X      Y      Z        X      Y      Z        X      Y      Z   
After scan for Atom:   Atom  AN      X      Y      Z        X      Y      Z        X      Y      Z   
After scan for Atom:   Atom  AN      X      Y      Z        X      Y      Z        X      Y      Z   
After scan for Atom:   Atom  AN      X      Y      Z        X      Y      Z        X      Y      Z   
After scan for Atom:   Atom  AN      X      Y      Z        X      Y      Z        X      Y      Z   
After scan for Atom:   Atom  AN      X      Y      Z        X      Y      Z        X      Y      Z   
After scan for Atom:   Atom  AN      X      Y      Z        X      Y      Z        X      Y      Z   
After scan for Atom:   Atom  AN      X      Y      Z        X      Y      Z        X      Y      Z   
After scan for Atom:   Atom  AN      X      Y      Z        X      Y      Z        X      Y      Z   
 g94    frequencies=
     0.0    0.0    0.0    0.0    0.0    0.0   55.0   89.3  149.3  163.0
   191.2  270.8  304.9  317.7  317.8  382.0  448.2  472.3  476.4  482.1
   505.1  519.3  562.6  567.2  618.3  634.6  645.0  733.8  744.2  757.3
   757.4  762.8  768.7  777.3  788.1  841.5  853.0  862.0  867.7  889.8
   910.6  913.7  914.8  945.2  971.0  972.5  995.3  995.5 1020.5 1022.5
  1147.3 1149.7 1151.5 1186.0 1189.1 1204.3 1223.3 1224.2 1291.2 1298.9
  1315.5 1318.2 1359.7 1368.2 1411.8 1417.8 1424.1 1432.4 1479.6 1481.6
  1501.5 1557.5 1578.1 1583.5 1608.9 1648.6 1663.0 1677.2 3153.4 3155.2
  3155.7 3157.4 3158.6 3158.6 3162.1 3163.2 3175.0 3175.1 3186.9 3187.2
 g94    symmetries=
                                                B3     AU     B1     B1
      B2     B3     B3     AU     AG     B1     B1     B3     B1     B3
      B3     B2     B2     AU     B1     AG     B2     B2     B1     B2
      B3     AG     AU     B2     B3     AU     B2     B1     AG     AU
      B3     B3     B2     B1     B1     B3     AU     B2     B2     AG
      B2     B1     B3     AG     B2     B3     B1     AG     B3     B1
      B1     B2     B3     B2     AG     B1     AG     B2     AG     B3
      B2     AG     AG     B2     B1     B3     B3     B1     B3     B2
      B1     B3     AG     B1     B2     AG     B3     B1     B2     AG
 atomic masses:
 12.0000 12.0000 12.0000 12.0000 12.0000 12.0000 12.0000 12.0000 12.0000 12.0000
 12.0000 12.0000 12.0000 12.0000 12.0000 12.0000 12.0000 12.0000  1.0078  1.0078
  1.0078  1.0078  1.0078  1.0078  1.0078  1.0078  1.0078  1.0078  1.0078  1.0078
 looking for force constants in 
 ./Benzene_Conj_3_C0S0.fchk                                                     
  
 Cartesian Force Constants                  R   N=        4095                  
  
 n3=          90        4095
 g94-fc frequencies=
    -6.3   -4.4   -3.4   -0.0   -0.0    0.0   55.0   89.4  149.3  163.0
   191.2  270.8  304.9  317.7  317.8  382.0  448.2  472.3  476.4  482.2
   505.1  519.3  562.7  567.2  618.3  634.6  645.0  733.8  744.2  757.3
   757.4  762.8  768.7  777.3  788.2  841.5  853.0  862.0  867.8  889.9
   910.6  913.7  914.8  945.3  971.1  972.5  995.4  995.5 1020.5 1022.5
  1147.4 1149.7 1151.6 1186.0 1189.1 1204.4 1223.4 1224.3 1291.2 1298.9
  1315.6 1318.3 1359.7 1368.2 1411.9 1417.9 1424.2 1432.4 1479.6 1481.7
  1501.5 1557.6 1578.1 1583.5 1608.9 1648.7 1663.1 1677.3 3153.5 3155.3
  3155.8 3157.4 3158.6 3158.7 3162.2 3163.3 3175.1 3175.2 3187.0 3187.2
 at 99999: n3=          90
 symm operator            1 :  T  nop=           1
 symm operator            2 :  T  nop=           2
 symm operator            3 :  T  nop=           3
 symm operator            4 :  T  nop=           4
 symm operator            5 :  T  nop=           5
 symm operator            6 :  T  nop=           6
 symm operator            7 :  T  nop=           7
 The point group of the molecule is D2H
 enforcing symm op           1  jsymt=          -1          -1           1
 enforcing symm op           2  jsymt=          -1           1          -1
 enforcing symm op           3  jsymt=           1          -1          -1
 enforcing symm op           4  jsymt=          -1          -1          -1
 enforcing symm op           5  jsymt=           1           1          -1
 enforcing symm op           6  jsymt=           1          -1           1
 enforcing symm op           7  jsymt=          -1           1           1
 cartesian coord symmetries:
 Ag :   15 Au :    7 B1g:    7 B1u:   15 B2g:    8 B2u:   15 B3g:   15 B3u:    8
 Symmetry rotation matrix:
   1.00000   0.00000   0.00000
   0.00000   1.00000   0.00000
   0.00000   0.00000   1.00000

 Projecting out zero-frequency components
 generating redundant internal coords
         300        3600          30
 search for int coords
   1 str   2   1   1.433
   2 str   3   2   1.390
   3 str   4   3   1.408
   4 str   5   4   1.408
   5 str   6   5   1.390
   6 str   7   6   1.433
   7 str   8   7   1.363
   8 str   9   8   1.429
   9 str  10   9   1.363
  10 str  11   6   1.450
  11 str  11  10   1.433
  12 str  12  11   1.390
  13 str  13   4   1.450
  14 str  13  12   1.408
  15 str  14  13   1.408
  16 str  15   2   1.450
  17 str  15  14   1.390
  18 str  16  15   1.433
  19 str  17  16   1.363
  20 str  18   1   1.363
  21 str  18  17   1.429
  22 str  19   1   1.085
  23 str  20   3   1.086
  24 str  21   5   1.086
  25 str  22   7   1.085
  26 str  23   8   1.084
  27 str  24   9   1.084
  28 str  25  10   1.085
  29 str  26  12   1.086
  30 str  27  14   1.086
  31 str  28  16   1.085
  32 str  29  17   1.084
  33 str  30  18   1.084
 nber stretches=          33
  34 ben   1   2   3
  35 prop tor   1   2   3   4
  36 prop tor   1   2   3  20
  37 ben   1   2  15
  38 prop tor   1   2  15  14
  39 prop tor   1   2  15  16
  40 ben   1  18  17
  41 ben   1  18  30
  42 ben   2   1  18
  43 prop tor   2   1  18  17
  44 prop tor   2   1  18  30
  45 ben   2   1  19
  46 ben   2   3   4
  47 prop tor   2   3   4   5
  48 prop tor   2   3   4  13
  49 ben   2   3  20
  50 ben   2  15  14
  51 ben   2  15  16
  52 prop tor   2  15  16  17
  53 prop tor   2  15  16  28
  54 ben   3   2  15
  55 prop tor   3   2  15  14
  56 prop tor   3   2  15  16
  57 ben   3   4   5
  58 prop tor   3   4   5   6
  59 prop tor   3   4   5  21
  60 ben   3   4  13
  61 prop tor   3   4  13  12
  62 prop tor   3   4  13  14
  63 ben   4   3  20
  64 ben   4   5   6
  65 prop tor   4   5   6   7
  66 prop tor   4   5   6  11
  67 ben   4   5  21
  68 ben   4  13  12
  69 ben   4  13  14
  70 prop tor   4  13  14  15
  71 prop tor   4  13  14  27
  72 ben   5   4  13
  73 prop tor   5   4  13  12
  74 prop tor   5   4  13  14
  75 ben   5   6   7
  76 prop tor   5   6   7   8
  77 prop tor   5   6   7  22
  78 ben   5   6  11
  79 prop tor   5   6  11  10
  80 prop tor   5   6  11  12
  81 ben   6   5  21
  82 ben   6   7   8
  83 prop tor   6   7   8   9
  84 prop tor   6   7   8  23
  85 ben   6   7  22
  86 ben   6  11  10
  87 ben   6  11  12
  88 prop tor   6  11  12  13
  89 prop tor   6  11  12  26
  90 ben   7   6  11
  91 prop tor   7   6  11  10
  92 prop tor   7   6  11  12
  93 ben   7   8   9
  94 prop tor   7   8   9  10
  95 prop tor   7   8   9  24
  96 ben   7   8  23
  97 ben   8   7  22
  98 ben   8   9  10
  99 prop tor   8   9  10  11
 100 prop tor   8   9  10  25
 101 ben   8   9  24
 102 ben   9   8  23
 103 ben   9  10  11
 104 prop tor   9  10  11   6
 105 prop tor   9  10  11  12
 106 ben   9  10  25
 107 ben  10   9  24
 108 ben  10  11  12
 109 prop tor  10  11  12  13
 110 prop tor  10  11  12  26
 111 prop tor  11   6   7   8
 112 prop tor  11   6   7  22
 113 ben  11  10  25
 114 ben  11  12  13
 115 prop tor  11  12  13   4
 116 prop tor  11  12  13  14
 117 ben  11  12  26
 118 ben  12  13  14
 119 prop tor  12  13  14  15
 120 prop tor  12  13  14  27
 121 prop tor  13   4   5   6
 122 prop tor  13   4   5  21
 123 ben  13  12  26
 124 ben  13  14  15
 125 prop tor  13  14  15   2
 126 prop tor  13  14  15  16
 127 ben  13  14  27
 128 ben  14  15  16
 129 prop tor  14  15  16  17
 130 prop tor  14  15  16  28
 131 prop tor  15   2   3   4
 132 prop tor  15   2   3  20
 133 ben  15  14  27
 134 ben  15  16  17
 135 prop tor  15  16  17  18
 136 prop tor  15  16  17  29
 137 ben  15  16  28
 138 ben  16  17  18
 139 prop tor  16  17  18   1
 140 prop tor  16  17  18  30
 141 ben  16  17  29
 142 ben  17  16  28
 143 ben  17  18  30
 144 prop tor  18   1   2   3
 145 prop tor  18   1   2  15
 146 ben  18   1  19
 147 ben  18  17  29
 148 prop tor  19   1   2   3
 149 prop tor  19   1   2  15
 150 prop tor  19   1  18  17
 151 prop tor  19   1  18  30
 152 prop tor  20   3   4   5
 153 prop tor  20   3   4  13
 154 prop tor  21   5   6   7
 155 prop tor  21   5   6  11
 156 prop tor  22   7   8   9
 157 prop tor  22   7   8  23
 158 prop tor  23   8   9  10
 159 prop tor  23   8   9  24
 160 prop tor  24   9  10  11
 161 prop tor  24   9  10  25
 162 prop tor  25  10  11   6
 163 prop tor  25  10  11  12
 164 prop tor  26  12  13   4
 165 prop tor  26  12  13  14
 166 prop tor  27  14  15   2
 167 prop tor  27  14  15  16
 168 prop tor  28  16  17  18
 169 prop tor  28  16  17  29
 170 prop tor  29  17  18   1
 171 prop tor  29  17  18  30
 nber bend=              54
 nber lin bend=           0
 nber prop tor=          84
 nber impr tor=           0
 nber tot redund int=         171
 Eigenvalues of G in red int coords
    Gval -0.00000000 -0.00000000 -0.00000000 -0.00000000 -0.00000000 -0.00000000 -0.00000000 -0.00000000
    Gval -0.00000000 -0.00000000 -0.00000000 -0.00000000 -0.00000000 -0.00000000 -0.00000000 -0.00000000
    Gval -0.00000000 -0.00000000 -0.00000000 -0.00000000 -0.00000000 -0.00000000 -0.00000000 -0.00000000
    Gval -0.00000000 -0.00000000 -0.00000000 -0.00000000 -0.00000000 -0.00000000 -0.00000000 -0.00000000
    Gval -0.00000000 -0.00000000 -0.00000000 -0.00000000 -0.00000000 -0.00000000 -0.00000000 -0.00000000
    Gval -0.00000000 -0.00000000 -0.00000000 -0.00000000 -0.00000000 -0.00000000 -0.00000000 -0.00000000
    Gval -0.00000000  0.00000000  0.00000000  0.00000000  0.00000000  0.00000000  0.00000000  0.00000000
    Gval  0.00000000  0.00000000  0.00000000  0.00000000  0.00000000  0.00000000  0.00000000  0.00000000
    Gval  0.00000000  0.00000000  0.00000000  0.00000000  0.00000000  0.00000000  0.00000000  0.00000000
    Gval  0.00000000  0.00000000  0.00000000  0.00000000  0.00000000  0.00000000  0.00000000  0.00000000
    Gval  0.00000000  0.00000000  0.00000000  0.00000000  0.00000000  0.00000000  0.00000000  0.00000375
    Gval  0.00000606  0.00001330  0.00001763  0.00002275  0.00003491  0.00003954  0.00004139  0.00004287
    Gval  0.00004573  0.00004929  0.00006125  0.00006270  0.00006726  0.00007186  0.00008167  0.00009168
    Gval  0.00009981  0.00010282  0.00010294  0.00011888  0.00013061  0.00013982  0.00015864  0.00017170
    Gval  0.00017316  0.00020376  0.00023244  0.00028382  0.00029100  0.00029531  0.00033056  0.00037679
    Gval  0.00038123  0.00038747  0.00039687  0.00041378  0.00041601  0.00043293  0.00048298  0.00059310
    Gval  0.00059311  0.00059683  0.00059690  0.00060835  0.00061326  0.00062210  0.00062690  0.00063674
    Gval  0.00064832  0.00065596  0.00065826  0.00072031  0.00078675  0.00079180  0.00088722  0.00100133
    Gval  0.00105037  0.00105090  0.00111189  0.00111198  0.00111294  0.00112122  0.00112653  0.00112678
    Gval  0.00116172  0.00116178  0.00117003  0.00117003  0.00165712  0.00177076  0.00177086  0.00188184
    Gval  0.00200410  0.00255825  0.00259519  0.00285901  0.00297542  0.00321678  0.00330012  0.00354792
    Gval  0.00359240  0.00400193  0.00400385
  3.747674412625572E-006  3.747674412625572E-006
  6.057600306710884E-006  3.747674412625572E-006
  1.329834434078295E-005  3.747674412625572E-006
  1.762900189550031E-005  3.747674412625572E-006
  2.274569402763681E-005  3.747674412625572E-006
  3.490728544774432E-005  3.747674412625572E-006
  3.953638590630448E-005  3.747674412625572E-006
  4.138659248603317E-005  3.747674412625572E-006
  4.286511398977358E-005  3.747674412625572E-006
  4.572923477283099E-005  3.747674412625572E-006
  4.929084997457548E-005  3.747674412625572E-006
  6.125243532926147E-005  3.747674412625572E-006
  6.270105003670316E-005  3.747674412625572E-006
  6.726074543949212E-005  3.747674412625572E-006
  7.186065209690458E-005  3.747674412625572E-006
  8.166704532747667E-005  3.747674412625572E-006
  9.168057513039256E-005  3.747674412625572E-006
  9.980585807087149E-005  3.747674412625572E-006
  1.028190072630510E-004  3.747674412625572E-006
  1.029360281867943E-004  3.747674412625572E-006
  1.188835455566111E-004  3.747674412625572E-006
  1.306118772313308E-004  3.747674412625572E-006
  1.398217002544585E-004  3.747674412625572E-006
  1.586394938089029E-004  3.747674412625572E-006
  1.716995943901278E-004  3.747674412625572E-006
  1.731591086460345E-004  3.747674412625572E-006
  2.037648087114415E-004  3.747674412625572E-006
  2.324366160970782E-004  3.747674412625572E-006
  2.838151550539664E-004  3.747674412625572E-006
  2.910015107434058E-004  3.747674412625572E-006
  2.953108312698832E-004  3.747674412625572E-006
  3.305580565396013E-004  3.747674412625572E-006
  3.767944582691261E-004  3.747674412625572E-006
  3.812288868691334E-004  3.747674412625572E-006
  3.874654098791016E-004  3.747674412625572E-006
  3.968693876867405E-004  3.747674412625572E-006
  4.137777293865773E-004  3.747674412625572E-006
  4.160134062723807E-004  3.747674412625572E-006
  4.329287241797022E-004  3.747674412625572E-006
  4.829819631730000E-004  3.747674412625572E-006
  5.930968706268707E-004  3.747674412625572E-006
  5.931072281310756E-004  3.747674412625572E-006
  5.968300009915549E-004  3.747674412625572E-006
  5.968950187835243E-004  3.747674412625572E-006
  6.083522326756753E-004  3.747674412625572E-006
  6.132576671206606E-004  3.747674412625572E-006
  6.220955118806826E-004  3.747674412625572E-006
  6.268954732658920E-004  3.747674412625572E-006
  6.367399221378039E-004  3.747674412625572E-006
  6.483229976180866E-004  3.747674412625572E-006
  6.559567143460628E-004  3.747674412625572E-006
  6.582647869847401E-004  3.747674412625572E-006
  7.203077916206651E-004  3.747674412625572E-006
  7.867504770650474E-004  3.747674412625572E-006
  7.918024649408379E-004  3.747674412625572E-006
  8.872159271175619E-004  3.747674412625572E-006
  1.001325314422607E-003  3.747674412625572E-006
  1.050373472145779E-003  3.747674412625572E-006
  1.050904291224843E-003  3.747674412625572E-006
  1.111886892503904E-003  3.747674412625572E-006
  1.111983795771421E-003  3.747674412625572E-006
  1.112940996097746E-003  3.747674412625572E-006
  1.121221236702196E-003  3.747674412625572E-006
  1.126526483533067E-003  3.747674412625572E-006
  1.126782623920673E-003  3.747674412625572E-006
  1.161723433485111E-003  3.747674412625572E-006
  1.161775745562835E-003  3.747674412625572E-006
  1.170031879225752E-003  3.747674412625572E-006
  1.170031938408418E-003  3.747674412625572E-006
  1.657115101066898E-003  3.747674412625572E-006
  1.770758791403803E-003  3.747674412625572E-006
  1.770855593054598E-003  3.747674412625572E-006
  1.881840559692859E-003  3.747674412625572E-006
  2.004104706769413E-003  3.747674412625572E-006
  2.558253111923142E-003  3.747674412625572E-006
  2.595187490112763E-003  3.747674412625572E-006
  2.859013760619385E-003  3.747674412625572E-006
  2.975415825190231E-003  3.747674412625572E-006
  3.216777258340179E-003  3.747674412625572E-006
  3.300124863107293E-003  3.747674412625572E-006
  3.547921746059054E-003  3.747674412625572E-006
  3.592399135326534E-003  3.747674412625572E-006
  4.001927081016397E-003  3.747674412625572E-006
  4.003854276531506E-003  3.747674412625572E-006
 cut=1d-8, nber non-redundant internal coords=          84
 Check on Eigenvals of non-red overlap matrix:
  0.00000375  0.00000606  0.00001330  0.00001763  0.00002275  0.00003491  0.00003954  0.00004139
  0.00004287  0.00004573  0.00004929  0.00006125  0.00006270  0.00006726  0.00007186  0.00008167
  0.00009168  0.00009981  0.00010282  0.00010294  0.00011888  0.00013061  0.00013982  0.00015864
  0.00017170  0.00017316  0.00020376  0.00023244  0.00028382  0.00029100  0.00029531  0.00033056
  0.00037679  0.00038123  0.00038747  0.00039687  0.00041378  0.00041601  0.00043293  0.00048298
  0.00059310  0.00059311  0.00059683  0.00059690  0.00060835  0.00061326  0.00062210  0.00062690
  0.00063674  0.00064832  0.00065596  0.00065826  0.00072031  0.00078675  0.00079180  0.00088722
  0.00100133  0.00105037  0.00105090  0.00111189  0.00111198  0.00111294  0.00112122  0.00112653
  0.00112678  0.00116172  0.00116178  0.00117003  0.00117003  0.00165712  0.00177076  0.00177086
  0.00188184  0.00200410  0.00255825  0.00259519  0.00285901  0.00297542  0.00321678  0.00330012
  0.00354792  0.00359240  0.00400193  0.00400385
 Checking for correct frequencies
 recalc frequencies=
    -0.0   -0.0   -0.0   -0.0   -0.0    0.0   55.0   89.4  149.3  163.0
   191.2  270.8  304.9  317.7  317.8  382.0  448.2  472.3  476.4  482.2
   505.1  519.3  562.7  567.2  618.3  634.6  645.0  733.8  744.2  757.3
   757.4  762.8  768.7  777.3  788.2  841.5  853.0  862.0  867.8  889.9
   910.6  913.7  914.8  945.3  971.1  972.5  995.4  995.5 1020.5 1022.5
  1147.4 1149.7 1151.6 1186.0 1189.1 1204.4 1223.4 1224.3 1291.2 1298.9
  1315.6 1318.3 1359.7 1368.2 1411.9 1417.9 1424.2 1432.4 1479.6 1481.7
  1501.5 1557.6 1578.1 1583.5 1608.9 1648.7 1663.1 1677.3 3153.5 3155.3
  3155.8 3157.4 3158.6 3158.7 3162.2 3163.3 3175.1 3175.2 3187.0 3187.2
 recalc symmetries=
     B3g    B2g    B2u    B1g    B3u    B1u    B3u    Au     B1g    B1u
     B2g    B3u    B3g    Au     Ag     B1g    B1u    B3u    B1g    B3u
     B3g    B2g    B2u    Au     B1u    Ag     B2u    B2g    B1g    B2u
     B3u    Ag     Au     B2g    B3g    Au     B2g    B1g    Ag     Au 
     B3g    B3u    B2g    B1u    B1g    B3u    Au     B2g    B2u    Ag 
     B2u    B1u    B3g    Ag     B2u    B3g    B1u    Ag     B3g    B1u
     B1u    B2u    B3g    B2u    Ag     B1u    Ag     B2u    Ag     B3g
     B2u    Ag     Ag     B2u    B1u    B3g    B3g    B1u    B3g    B2u
     B1u    B3g    Ag     B1u    B2u    Ag     B3g    B1u    B2u    Ag 
 recalc freqs check OK
 Zero-point lengths:
 10.0000 10.0000 10.0000 10.0000 10.0000 10.0000 33.4183 26.2266 20.2896 19.4165
 17.9269 15.0649 14.1965 13.9080 13.9055 12.6849 11.7103 11.4072 11.3582 11.2902
 11.0307 10.8788 10.4514 10.4092  9.9698  9.8411  9.7614  9.1518  9.0878  9.0088
  9.0081  8.9759  8.9416  8.8920  8.8306  8.5459  8.4884  8.4440  8.4158  8.3106
  8.2153  8.2013  8.1964  8.0634  7.9556  7.9498  7.8579  7.8571  7.7606  7.7529
  7.3189  7.3114  7.3056  7.1987  7.1893  7.1436  7.0879  7.0853  6.8992  6.8787
  6.8350  6.8280  6.7231  6.7022  6.5978  6.5838  6.5693  6.5503  6.4450  6.4405
  6.3978  6.2816  6.2406  6.2299  6.1805  6.1056  6.0792  6.0533  4.4147  4.4134
  4.4131  4.4119  4.4111  4.4111  4.4086  4.4078  4.3997  4.3996  4.3914  4.3913
 highest evec of mol 1
  0.0000  0.0067 -0.0644
  0.0000  0.0026  0.0003
  0.0000 -0.0001 -0.0066
  0.0000  0.0000  0.0003
  0.0000  0.0001 -0.0066
  0.0000 -0.0026  0.0003
  0.0000 -0.0067 -0.0644
  0.0000  0.1175 -0.0651
  0.0000  0.1175  0.0651
  0.0000 -0.0067  0.0644
  0.0000 -0.0026 -0.0003
  0.0000  0.0001  0.0066
  0.0000  0.0000 -0.0003
  0.0000 -0.0001  0.0066
  0.0000  0.0026 -0.0003
  0.0000  0.0067  0.0644
  0.0000 -0.1175  0.0651
  0.0000 -0.1175 -0.0651
  0.0000 -0.0017  0.2007
  0.0000 -0.0006  0.0217
  0.0000  0.0006  0.0217
  0.0000  0.0017  0.2007
  0.0000 -0.3766  0.2125
  0.0000 -0.3766 -0.2125
  0.0000  0.0017 -0.2007
  0.0000  0.0006 -0.0217
  0.0000 -0.0006 -0.0217
  0.0000 -0.0017 -0.2007
  0.0000  0.3766 -0.2125
  0.0000  0.3766  0.2125
 generating redundant internal coords
         300        3600          30
 Adding extra bonds for z output only
           6           6           6           6           6           6
           6           6           6           6           6           6
           6           6           6           6           6           6
           1           1           1           1           1           1
           1           1           1           1           1           1
 search for int coords
   1 str   2   1   1.433
   2 str   3   2   1.390
   3 str   4   3   1.408
   4 str   5   4   1.408
   5 str   6   5   1.390
   6 str   7   6   1.433
   7 str   8   7   1.363
   8 str   9   8   1.429
   9 str  10   9   1.363
  10 str  11   6   1.450
  11 str  11  10   1.433
  12 str  12  11   1.390
  13 str  13   4   1.450
  14 str  13  12   1.408
  15 str  14  13   1.408
  16 str  15   2   1.450
  17 str  15  14   1.390
  18 str  16  15   1.433
  19 str  17  16   1.363
  20 str  18   1   1.363
  21 str  18  17   1.429
  22 str  19   1   1.085
  23 str  20   3   1.086
  24 str  21   5   1.086
  25 str  22   7   1.085
  26 str  23   8   1.084
  27 str  24   9   1.084
  28 str  25  10   1.085
  29 str  26  12   1.086
  30 str  27  14   1.086
  31 str  28  16   1.085
  32 str  29  17   1.084
  33 str  30  18   1.084
 nber stretches=          33
  34 ben   1   2   3
  35 prop tor   1   2   3   4
  36 prop tor   1   2   3  20
  37 ben   1   2  15
  38 prop tor   1   2  15  14
  39 prop tor   1   2  15  16
  40 ben   1  18  17
  41 ben   1  18  30
  42 ben   2   1  18
  43 prop tor   2   1  18  17
  44 prop tor   2   1  18  30
  45 ben   2   1  19
  46 ben   2   3   4
  47 prop tor   2   3   4   5
  48 prop tor   2   3   4  13
  49 ben   2   3  20
  50 ben   2  15  14
  51 ben   2  15  16
  52 prop tor   2  15  16  17
  53 prop tor   2  15  16  28
  54 ben   3   2  15
  55 prop tor   3   2  15  14
  56 prop tor   3   2  15  16
  57 ben   3   4   5
  58 prop tor   3   4   5   6
  59 prop tor   3   4   5  21
  60 ben   3   4  13
  61 prop tor   3   4  13  12
  62 prop tor   3   4  13  14
  63 ben   4   3  20
  64 ben   4   5   6
  65 prop tor   4   5   6   7
  66 prop tor   4   5   6  11
  67 ben   4   5  21
  68 ben   4  13  12
  69 ben   4  13  14
  70 prop tor   4  13  14  15
  71 prop tor   4  13  14  27
  72 ben   5   4  13
  73 prop tor   5   4  13  12
  74 prop tor   5   4  13  14
  75 ben   5   6   7
  76 prop tor   5   6   7   8
  77 prop tor   5   6   7  22
  78 ben   5   6  11
  79 prop tor   5   6  11  10
  80 prop tor   5   6  11  12
  81 ben   6   5  21
  82 ben   6   7   8
  83 prop tor   6   7   8   9
  84 prop tor   6   7   8  23
  85 ben   6   7  22
  86 ben   6  11  10
  87 ben   6  11  12
  88 prop tor   6  11  12  13
  89 prop tor   6  11  12  26
  90 ben   7   6  11
  91 prop tor   7   6  11  10
  92 prop tor   7   6  11  12
  93 ben   7   8   9
  94 prop tor   7   8   9  10
  95 prop tor   7   8   9  24
  96 ben   7   8  23
  97 ben   8   7  22
  98 ben   8   9  10
  99 prop tor   8   9  10  11
 100 prop tor   8   9  10  25
 101 ben   8   9  24
 102 ben   9   8  23
 103 ben   9  10  11
 104 prop tor   9  10  11   6
 105 prop tor   9  10  11  12
 106 ben   9  10  25
 107 ben  10   9  24
 108 ben  10  11  12
 109 prop tor  10  11  12  13
 110 prop tor  10  11  12  26
 111 prop tor  11   6   7   8
 112 prop tor  11   6   7  22
 113 ben  11  10  25
 114 ben  11  12  13
 115 prop tor  11  12  13   4
 116 prop tor  11  12  13  14
 117 ben  11  12  26
 118 ben  12  13  14
 119 prop tor  12  13  14  15
 120 prop tor  12  13  14  27
 121 prop tor  13   4   5   6
 122 prop tor  13   4   5  21
 123 ben  13  12  26
 124 ben  13  14  15
 125 prop tor  13  14  15   2
 126 prop tor  13  14  15  16
 127 ben  13  14  27
 128 ben  14  15  16
 129 prop tor  14  15  16  17
 130 prop tor  14  15  16  28
 131 prop tor  15   2   3   4
 132 prop tor  15   2   3  20
 133 ben  15  14  27
 134 ben  15  16  17
 135 prop tor  15  16  17  18
 136 prop tor  15  16  17  29
 137 ben  15  16  28
 138 ben  16  17  18
 139 prop tor  16  17  18   1
 140 prop tor  16  17  18  30
 141 ben  16  17  29
 142 ben  17  16  28
 143 ben  17  18  30
 144 prop tor  18   1   2   3
 145 prop tor  18   1   2  15
 146 ben  18   1  19
 147 ben  18  17  29
 148 prop tor  19   1   2   3
 149 prop tor  19   1   2  15
 150 prop tor  19   1  18  17
 151 prop tor  19   1  18  30
 152 prop tor  20   3   4   5
 153 prop tor  20   3   4  13
 154 prop tor  21   5   6   7
 155 prop tor  21   5   6  11
 156 prop tor  22   7   8   9
 157 prop tor  22   7   8  23
 158 prop tor  23   8   9  10
 159 prop tor  23   8   9  24
 160 prop tor  24   9  10  11
 161 prop tor  24   9  10  25
 162 prop tor  25  10  11   6
 163 prop tor  25  10  11  12
 164 prop tor  26  12  13   4
 165 prop tor  26  12  13  14
 166 prop tor  27  14  15   2
 167 prop tor  27  14  15  16
 168 prop tor  28  16  17  18
 169 prop tor  28  16  17  29
 170 prop tor  29  17  18   1
 171 prop tor  29  17  18  30
 nber bend=              54
 nber lin bend=           0
 nber prop tor=          84
 nber impr tor=           0
 nber tot redund int=         171
 Reading file: 
 ./Benzene_Conj_3_C1S0.log                                                      
                                          
  Entering Gaussian System, Link 0=g16                                          
  
 Gaussian format, type: g94, g98, g03= F F F
  #P Geom=AllCheck Guess=TCheck SCRF=Check GenChk UB3LYP/6-311G(d,p) Fre    
 energy type= B3LYP   
 Original G94 input coords:
  6  3.693654 -1.407320  0.000000
  6  2.453799 -0.721473  0.000000
  6  1.227251 -1.406516  0.000000
  6  0.000000 -0.724615  0.000000
  6 -1.227251 -1.406516  0.000000
  6 -2.453799 -0.721473  0.000000
  6 -3.693654 -1.407320  0.000000
  6 -4.880904 -0.705912  0.000000
  6 -4.880904  0.705912  0.000000
  6 -3.693654  1.407320  0.000000
  6 -2.453799  0.721473  0.000000
  6 -1.227251  1.406516  0.000000
  6  0.000000  0.724615  0.000000
  6  1.227251  1.406516  0.000000
  6  2.453799  0.721473  0.000000
  6  3.693654  1.407320  0.000000
  6  4.880904  0.705912  0.000000
  6  4.880904 -0.705912  0.000000
  1  3.698116 -2.491279  0.000000
  1  1.229424 -2.491569  0.000000
  1 -1.229424 -2.491569  0.000000
  1 -3.698116 -2.491279  0.000000
  1 -5.823536 -1.239431  0.000000
  1 -5.823536  1.239431  0.000000
  1 -3.698116  2.491279  0.000000
  1 -1.229424  2.491569  0.000000
  1  1.229424  2.491569  0.000000
  1  3.698116  2.491279  0.000000
  1  5.823536  1.239431  0.000000
  1  5.823536 -1.239431  0.000000
 nber atoms=          30
 Original standard coords:
  6  0.000000  3.693654  1.407320
  6  0.000000  2.453799  0.721473
  6  0.000000  1.227251  1.406516
  6  0.000000  0.000000  0.724615
  6  0.000000 -1.227251  1.406516
  6  0.000000 -2.453799  0.721473
  6  0.000000 -3.693654  1.407320
  6  0.000000 -4.880904  0.705912
  6  0.000000 -4.880904 -0.705912
  6  0.000000 -3.693654 -1.407320
  6  0.000000 -2.453799 -0.721473
  6  0.000000 -1.227251 -1.406516
  6  0.000000  0.000000 -0.724615
  6  0.000000  1.227251 -1.406516
  6  0.000000  2.453799 -0.721473
  6  0.000000  3.693654 -1.407320
  6  0.000000  4.880904 -0.705912
  6  0.000000  4.880904  0.705912
  1  0.000000  3.698116  2.491279
  1  0.000000  1.229424  2.491569
  1  0.000000 -1.229424  2.491569
  1  0.000000 -3.698116  2.491279
  1  0.000000 -5.823536  1.239431
  1  0.000000 -5.823536 -1.239431
  1  0.000000 -3.698116 -2.491279
  1  0.000000 -1.229424 -2.491569
  1  0.000000  1.229424 -2.491569
  1  0.000000  3.698116 -2.491279
  1  0.000000  5.823536 -1.239431
  1  0.000000  5.823536  1.239431
  SCF Done:  E(UB3LYP) =  -693.083743597     A.U. after    1 cycles             
  
          23          40 "  -693.083743597"
After scan for Atom:   Atom  AN      X      Y      Z        X      Y      Z        X      Y      Z   
After scan for Atom:   Atom  AN      X      Y      Z        X      Y      Z        X      Y      Z   
After scan for Atom:   Atom  AN      X      Y      Z        X      Y      Z        X      Y      Z   
After scan for Atom:   Atom  AN      X      Y      Z        X      Y      Z        X      Y      Z   
After scan for Atom:   Atom  AN      X      Y      Z        X      Y      Z        X      Y      Z   
After scan for Atom:   Atom  AN      X      Y      Z        X      Y      Z        X      Y      Z   
After scan for Atom:   Atom  AN      X      Y      Z        X      Y      Z        X      Y      Z   
After scan for Atom:   Atom  AN      X      Y      Z        X      Y      Z        X      Y      Z   
After scan for Atom:   Atom  AN      X      Y      Z        X      Y      Z        X      Y      Z   
After scan for Atom:   Atom  AN      X      Y      Z        X      Y      Z        X      Y      Z   
After scan for Atom:   Atom  AN      X      Y      Z        X      Y      Z        X      Y      Z   
After scan for Atom:   Atom  AN      X      Y      Z        X      Y      Z        X      Y      Z   
After scan for Atom:   Atom  AN      X      Y      Z        X      Y      Z        X      Y      Z   
After scan for Atom:   Atom  AN      X      Y      Z        X      Y      Z        X      Y      Z   
After scan for Atom:   Atom  AN      X      Y      Z        X      Y      Z        X      Y      Z   
After scan for Atom:   Atom  AN      X      Y      Z        X      Y      Z        X      Y      Z   
After scan for Atom:   Atom  AN      X      Y      Z        X      Y      Z        X      Y      Z   
After scan for Atom:   Atom  AN      X      Y      Z        X      Y      Z        X      Y      Z   
After scan for Atom:   Atom  AN      X      Y      Z        X      Y      Z        X      Y      Z   
After scan for Atom:   Atom  AN      X      Y      Z        X      Y      Z        X      Y      Z   
After scan for Atom:   Atom  AN      X      Y      Z        X      Y      Z        X      Y      Z   
After scan for Atom:   Atom  AN      X      Y      Z        X      Y      Z        X      Y      Z   
After scan for Atom:   Atom  AN      X      Y      Z        X      Y      Z        X      Y      Z   
After scan for Atom:   Atom  AN      X      Y      Z        X      Y      Z        X      Y      Z   
After scan for Atom:   Atom  AN      X      Y      Z        X      Y      Z        X      Y      Z   
After scan for Atom:   Atom  AN      X      Y      Z        X      Y      Z        X      Y      Z   
After scan for Atom:   Atom  AN      X      Y      Z        X      Y      Z        X      Y      Z   
After scan for Atom:   Atom  AN      X      Y      Z        X      Y      Z        X      Y      Z   
 g94    frequencies=
     0.0    0.0    0.0    0.0    0.0    0.0   52.4   88.5  142.3  162.0
   191.6  257.5  303.8  316.3  323.7  385.2  445.0  446.1  461.9  475.1
   492.6  502.6  550.7  558.3  621.6  629.7  633.9  715.7  757.5  762.7
   764.2  766.8  768.2  771.2  793.8  865.1  876.1  882.1  899.0  907.7
   915.8  943.6  944.6  947.5  995.3  997.1 1026.7 1026.8 1044.8 1045.2
  1148.9 1150.7 1183.8 1199.3 1201.8 1203.8 1236.3 1238.9 1297.8 1306.4
  1309.6 1318.7 1349.7 1386.9 1406.6 1426.0 1428.0 1432.1 1481.0 1484.2
  1512.6 1545.9 1562.7 1568.9 1573.4 1585.0 1629.1 1632.8 3174.1 3176.0
  3176.7 3178.5 3181.7 3181.7 3184.8 3185.1 3196.4 3196.4 3206.4 3206.5
 g94    symmetries=
                                                B3     AU     B1     B1
      B2     B3     B3     AG     AU     B1     B3     B1     B3     B1
      B3     B2     AU     B2     B1     AG     B2     B2     AU     AG
      B2     B2     B1     B3     B3     AU     AG     B2     B1     B3
      AU     B1     B2     B3     B1     B3     AU     B2     AG     B2
      B1     B3     B2     AG     B3     B2     B1     AG     B3     B1
      B2     B1     B3     B2     AG     AG     B2     B1     AG     B3
      B2     AG     B3     B2     B1     AG     B3     B1     B3     B2
      B1     AG     B3     B1     B2     AG     B3     B1     B2     AG
 atomic masses:
 12.0000 12.0000 12.0000 12.0000 12.0000 12.0000 12.0000 12.0000 12.0000 12.0000
 12.0000 12.0000 12.0000 12.0000 12.0000 12.0000 12.0000 12.0000  1.0078  1.0078
  1.0078  1.0078  1.0078  1.0078  1.0078  1.0078  1.0078  1.0078  1.0078  1.0078
 looking for force constants in 
 ./Benzene_Conj_3_C1S0.fchk                                                     
  
 Cartesian Force Constants                  R   N=        4095                  
  
 n3=          90        4095
 g94-fc frequencies=
    -3.5   -3.0   -0.0    0.0    0.0    3.0   52.4   88.5  142.4  162.0
   191.6  257.5  303.8  316.3  323.7  385.2  445.0  446.1  461.9  475.1
   492.6  502.6  550.7  558.4  621.6  629.7  633.9  715.7  757.5  762.7
   764.2  766.8  768.3  771.3  793.8  865.1  876.1  882.1  899.0  907.7
   915.8  943.6  944.6  947.5  995.4  997.1 1026.7 1026.8 1044.9 1045.2
  1149.0 1150.7 1183.8 1199.3 1201.8 1203.8 1236.4 1238.9 1297.8 1306.4
  1309.6 1318.8 1349.7 1387.0 1406.6 1426.0 1428.1 1432.1 1481.1 1484.2
  1512.6 1545.9 1562.7 1568.9 1573.4 1585.0 1629.1 1632.8 3174.1 3176.1
  3176.8 3178.6 3181.7 3181.8 3184.9 3185.2 3196.5 3196.5 3206.5 3206.5
 at 99999: n3=          90
 symm operator            1 :  T  nop=           1
 symm operator            2 :  T  nop=           2
 symm operator            3 :  T  nop=           3
 symm operator            4 :  T  nop=           4
 symm operator            5 :  T  nop=           5
 symm operator            6 :  T  nop=           6
 symm operator            7 :  T  nop=           7
 The point group of the molecule is D2H
 enforcing symm op           1  jsymt=          -1          -1           1
 enforcing symm op           2  jsymt=          -1           1          -1
 enforcing symm op           3  jsymt=           1          -1          -1
 enforcing symm op           4  jsymt=          -1          -1          -1
 enforcing symm op           5  jsymt=           1           1          -1
 enforcing symm op           6  jsymt=           1          -1           1
 enforcing symm op           7  jsymt=          -1           1           1
 cartesian coord symmetries:
 Ag :   15 Au :    7 B1g:    7 B1u:   15 B2g:    8 B2u:   15 B3g:   15 B3u:    8
 Symmetry rotation matrix:
   1.00000   0.00000   0.00000
   0.00000   1.00000   0.00000
   0.00000   0.00000   1.00000

 Projecting out zero-frequency components
 generating redundant internal coords
         300        3600          30
 search for int coords
   1 str   2   1   1.417
   2 str   3   2   1.405
   3 str   4   3   1.404
   4 str   5   4   1.404
   5 str   6   5   1.405
   6 str   7   6   1.417
   7 str   8   7   1.379
   8 str   9   8   1.412
   9 str  10   9   1.379
  10 str  11   6   1.443
  11 str  11  10   1.417
  12 str  12  11   1.405
  13 str  13   4   1.449
  14 str  13  12   1.404
  15 str  14  13   1.404
  16 str  15   2   1.443
  17 str  15  14   1.405
  18 str  16  15   1.417
  19 str  17  16   1.379
  20 str  18   1   1.379
  21 str  18  17   1.412
  22 str  19   1   1.084
  23 str  20   3   1.085
  24 str  21   5   1.085
  25 str  22   7   1.084
  26 str  23   8   1.083
  27 str  24   9   1.083
  28 str  25  10   1.084
  29 str  26  12   1.085
  30 str  27  14   1.085
  31 str  28  16   1.084
  32 str  29  17   1.083
  33 str  30  18   1.083
 nber stretches=          33
  34 ben   1   2   3
  35 prop tor   1   2   3   4
  36 prop tor   1   2   3  20
  37 ben   1   2  15
  38 prop tor   1   2  15  14
  39 prop tor   1   2  15  16
  40 ben   1  18  17
  41 ben   1  18  30
  42 ben   2   1  18
  43 prop tor   2   1  18  17
  44 prop tor   2   1  18  30
  45 ben   2   1  19
  46 ben   2   3   4
  47 prop tor   2   3   4   5
  48 prop tor   2   3   4  13
  49 ben   2   3  20
  50 ben   2  15  14
  51 ben   2  15  16
  52 prop tor   2  15  16  17
  53 prop tor   2  15  16  28
  54 ben   3   2  15
  55 prop tor   3   2  15  14
  56 prop tor   3   2  15  16
  57 ben   3   4   5
  58 prop tor   3   4   5   6
  59 prop tor   3   4   5  21
  60 ben   3   4  13
  61 prop tor   3   4  13  12
  62 prop tor   3   4  13  14
  63 ben   4   3  20
  64 ben   4   5   6
  65 prop tor   4   5   6   7
  66 prop tor   4   5   6  11
  67 ben   4   5  21
  68 ben   4  13  12
  69 ben   4  13  14
  70 prop tor   4  13  14  15
  71 prop tor   4  13  14  27
  72 ben   5   4  13
  73 prop tor   5   4  13  12
  74 prop tor   5   4  13  14
  75 ben   5   6   7
  76 prop tor   5   6   7   8
  77 prop tor   5   6   7  22
  78 ben   5   6  11
  79 prop tor   5   6  11  10
  80 prop tor   5   6  11  12
  81 ben   6   5  21
  82 ben   6   7   8
  83 prop tor   6   7   8   9
  84 prop tor   6   7   8  23
  85 ben   6   7  22
  86 ben   6  11  10
  87 ben   6  11  12
  88 prop tor   6  11  12  13
  89 prop tor   6  11  12  26
  90 ben   7   6  11
  91 prop tor   7   6  11  10
  92 prop tor   7   6  11  12
  93 ben   7   8   9
  94 prop tor   7   8   9  10
  95 prop tor   7   8   9  24
  96 ben   7   8  23
  97 ben   8   7  22
  98 ben   8   9  10
  99 prop tor   8   9  10  11
 100 prop tor   8   9  10  25
 101 ben   8   9  24
 102 ben   9   8  23
 103 ben   9  10  11
 104 prop tor   9  10  11   6
 105 prop tor   9  10  11  12
 106 ben   9  10  25
 107 ben  10   9  24
 108 ben  10  11  12
 109 prop tor  10  11  12  13
 110 prop tor  10  11  12  26
 111 prop tor  11   6   7   8
 112 prop tor  11   6   7  22
 113 ben  11  10  25
 114 ben  11  12  13
 115 prop tor  11  12  13   4
 116 prop tor  11  12  13  14
 117 ben  11  12  26
 118 ben  12  13  14
 119 prop tor  12  13  14  15
 120 prop tor  12  13  14  27
 121 prop tor  13   4   5   6
 122 prop tor  13   4   5  21
 123 ben  13  12  26
 124 ben  13  14  15
 125 prop tor  13  14  15   2
 126 prop tor  13  14  15  16
 127 ben  13  14  27
 128 ben  14  15  16
 129 prop tor  14  15  16  17
 130 prop tor  14  15  16  28
 131 prop tor  15   2   3   4
 132 prop tor  15   2   3  20
 133 ben  15  14  27
 134 ben  15  16  17
 135 prop tor  15  16  17  18
 136 prop tor  15  16  17  29
 137 ben  15  16  28
 138 ben  16  17  18
 139 prop tor  16  17  18   1
 140 prop tor  16  17  18  30
 141 ben  16  17  29
 142 ben  17  16  28
 143 ben  17  18  30
 144 prop tor  18   1   2   3
 145 prop tor  18   1   2  15
 146 ben  18   1  19
 147 ben  18  17  29
 148 prop tor  19   1   2   3
 149 prop tor  19   1   2  15
 150 prop tor  19   1  18  17
 151 prop tor  19   1  18  30
 152 prop tor  20   3   4   5
 153 prop tor  20   3   4  13
 154 prop tor  21   5   6   7
 155 prop tor  21   5   6  11
 156 prop tor  22   7   8   9
 157 prop tor  22   7   8  23
 158 prop tor  23   8   9  10
 159 prop tor  23   8   9  24
 160 prop tor  24   9  10  11
 161 prop tor  24   9  10  25
 162 prop tor  25  10  11   6
 163 prop tor  25  10  11  12
 164 prop tor  26  12  13   4
 165 prop tor  26  12  13  14
 166 prop tor  27  14  15   2
 167 prop tor  27  14  15  16
 168 prop tor  28  16  17  18
 169 prop tor  28  16  17  29
 170 prop tor  29  17  18   1
 171 prop tor  29  17  18  30
 nber bend=              54
 nber lin bend=           0
 nber prop tor=          84
 nber impr tor=           0
 nber tot redund int=         171
 Eigenvalues of G in red int coords
    Gval -0.00000000 -0.00000000 -0.00000000 -0.00000000 -0.00000000 -0.00000000 -0.00000000 -0.00000000
    Gval -0.00000000 -0.00000000 -0.00000000 -0.00000000 -0.00000000 -0.00000000 -0.00000000 -0.00000000
    Gval -0.00000000 -0.00000000 -0.00000000 -0.00000000 -0.00000000 -0.00000000 -0.00000000 -0.00000000
    Gval -0.00000000 -0.00000000 -0.00000000 -0.00000000 -0.00000000 -0.00000000 -0.00000000 -0.00000000
    Gval -0.00000000 -0.00000000 -0.00000000 -0.00000000 -0.00000000 -0.00000000 -0.00000000 -0.00000000
    Gval -0.00000000 -0.00000000 -0.00000000  0.00000000  0.00000000  0.00000000  0.00000000  0.00000000
    Gval  0.00000000  0.00000000  0.00000000  0.00000000  0.00000000  0.00000000  0.00000000  0.00000000
    Gval  0.00000000  0.00000000  0.00000000  0.00000000  0.00000000  0.00000000  0.00000000  0.00000000
    Gval  0.00000000  0.00000000  0.00000000  0.00000000  0.00000000  0.00000000  0.00000000  0.00000000
    Gval  0.00000000  0.00000000  0.00000000  0.00000000  0.00000000  0.00000000  0.00000000  0.00000000
    Gval  0.00000000  0.00000000  0.00000000  0.00000000  0.00000000  0.00000000  0.00000000  0.00000376
    Gval  0.00000607  0.00001320  0.00001764  0.00002279  0.00003493  0.00003952  0.00004133  0.00004327
    Gval  0.00004572  0.00004938  0.00006108  0.00006277  0.00006755  0.00007179  0.00008158  0.00009069
    Gval  0.00009940  0.00010296  0.00010298  0.00011854  0.00013015  0.00013961  0.00015764  0.00017308
    Gval  0.00017441  0.00020234  0.00023307  0.00028233  0.00028444  0.00029608  0.00032962  0.00037603
    Gval  0.00038342  0.00039060  0.00040166  0.00041386  0.00041499  0.00043190  0.00047651  0.00059311
    Gval  0.00059312  0.00059694  0.00059701  0.00060823  0.00061328  0.00062165  0.00062664  0.00063621
    Gval  0.00064758  0.00065613  0.00065822  0.00071805  0.00078215  0.00079256  0.00088020  0.00099181
    Gval  0.00105317  0.00105370  0.00111247  0.00111553  0.00111716  0.00112286  0.00112739  0.00112782
    Gval  0.00116184  0.00116190  0.00117198  0.00117198  0.00166973  0.00177870  0.00177880  0.00189324
    Gval  0.00201473  0.00257714  0.00261705  0.00285873  0.00297720  0.00321794  0.00329888  0.00355331
    Gval  0.00359703  0.00401026  0.00401212
  3.762047410687734E-006  3.762047410687734E-006
  6.068917388423518E-006  3.762047410687734E-006
  1.320418328519668E-005  3.762047410687734E-006
  1.764493345222015E-005  3.762047410687734E-006
  2.278513925192327E-005  3.762047410687734E-006
  3.493055445858829E-005  3.762047410687734E-006
  3.951793713721909E-005  3.762047410687734E-006
  4.132634311997760E-005  3.762047410687734E-006
  4.326967042670759E-005  3.762047410687734E-006
  4.571601524413123E-005  3.762047410687734E-006
  4.938015943047700E-005  3.762047410687734E-006
  6.108445525424356E-005  3.762047410687734E-006
  6.277145285933139E-005  3.762047410687734E-006
  6.754687844247071E-005  3.762047410687734E-006
  7.178944820578673E-005  3.762047410687734E-006
  8.158323909209274E-005  3.762047410687734E-006
  9.069480879964736E-005  3.762047410687734E-006
  9.940340502935715E-005  3.762047410687734E-006
  1.029606819796592E-004  3.762047410687734E-006
  1.029842103920356E-004  3.762047410687734E-006
  1.185371866225246E-004  3.762047410687734E-006
  1.301509178663551E-004  3.762047410687734E-006
  1.396082828693411E-004  3.762047410687734E-006
  1.576362151421368E-004  3.762047410687734E-006
  1.730824419122983E-004  3.762047410687734E-006
  1.744068349259132E-004  3.762047410687734E-006
  2.023418346037996E-004  3.762047410687734E-006
  2.330654461826771E-004  3.762047410687734E-006
  2.823251908608253E-004  3.762047410687734E-006
  2.844440066257375E-004  3.762047410687734E-006
  2.960818957530491E-004  3.762047410687734E-006
  3.296190131669108E-004  3.762047410687734E-006
  3.760345479887356E-004  3.762047410687734E-006
  3.834225773449392E-004  3.762047410687734E-006
  3.905956230861198E-004  3.762047410687734E-006
  4.016639442843591E-004  3.762047410687734E-006
  4.138570950999256E-004  3.762047410687734E-006
  4.149928116792212E-004  3.762047410687734E-006
  4.319015800629017E-004  3.762047410687734E-006
  4.765096507045245E-004  3.762047410687734E-006
  5.931068920385547E-004  3.762047410687734E-006
  5.931172869559927E-004  3.762047410687734E-006
  5.969393782597521E-004  3.762047410687734E-006
  5.970058222864984E-004  3.762047410687734E-006
  6.082275034648044E-004  3.762047410687734E-006
  6.132755425284087E-004  3.762047410687734E-006
  6.216515300778225E-004  3.762047410687734E-006
  6.266401960927011E-004  3.762047410687734E-006
  6.362124436320856E-004  3.762047410687734E-006
  6.475833684904356E-004  3.762047410687734E-006
  6.561330224309048E-004  3.762047410687734E-006
  6.582179891703266E-004  3.762047410687734E-006
  7.180456444964004E-004  3.762047410687734E-006
  7.821478160787568E-004  3.762047410687734E-006
  7.925558600613786E-004  3.762047410687734E-006
  8.802034000735101E-004  3.762047410687734E-006
  9.918089692177539E-004  3.762047410687734E-006
  1.053166813505943E-003  3.762047410687734E-006
  1.053700462655478E-003  3.762047410687734E-006
  1.112467536835739E-003  3.762047410687734E-006
  1.115530214246116E-003  3.762047410687734E-006
  1.117156911578076E-003  3.762047410687734E-006
  1.122857026697114E-003  3.762047410687734E-006
  1.127389130594725E-003  3.762047410687734E-006
  1.127815725100360E-003  3.762047410687734E-006
  1.161840056514405E-003  3.762047410687734E-006
  1.161900720503543E-003  3.762047410687734E-006
  1.171975223571700E-003  3.762047410687734E-006
  1.171975300038446E-003  3.762047410687734E-006
  1.669733818833947E-003  3.762047410687734E-006
  1.778695445308747E-003  3.762047410687734E-006
  1.778797234488519E-003  3.762047410687734E-006
  1.893235906703668E-003  3.762047410687734E-006
  2.014728889772469E-003  3.762047410687734E-006
  2.577144846649104E-003  3.762047410687734E-006
  2.617046036573189E-003  3.762047410687734E-006
  2.858733452012337E-003  3.762047410687734E-006
  2.977197281673999E-003  3.762047410687734E-006
  3.217940852033397E-003  3.762047410687734E-006
  3.298882699435635E-003  3.762047410687734E-006
  3.553314950528333E-003  3.762047410687734E-006
  3.597030973026286E-003  3.762047410687734E-006
  4.010260365029046E-003  3.762047410687734E-006
  4.012119081819049E-003  3.762047410687734E-006
 cut=1d-8, nber non-redundant internal coords=          84
 Check on Eigenvals of non-red overlap matrix:
  0.00000376  0.00000607  0.00001320  0.00001764  0.00002279  0.00003493  0.00003952  0.00004133
  0.00004327  0.00004572  0.00004938  0.00006108  0.00006277  0.00006755  0.00007179  0.00008158
  0.00009069  0.00009940  0.00010296  0.00010298  0.00011854  0.00013015  0.00013961  0.00015764
  0.00017308  0.00017441  0.00020234  0.00023307  0.00028233  0.00028444  0.00029608  0.00032962
  0.00037603  0.00038342  0.00039060  0.00040166  0.00041386  0.00041499  0.00043190  0.00047651
  0.00059311  0.00059312  0.00059694  0.00059701  0.00060823  0.00061328  0.00062165  0.00062664
  0.00063621  0.00064758  0.00065613  0.00065822  0.00071805  0.00078215  0.00079256  0.00088020
  0.00099181  0.00105317  0.00105370  0.00111247  0.00111553  0.00111716  0.00112286  0.00112739
  0.00112782  0.00116184  0.00116190  0.00117198  0.00117198  0.00166973  0.00177870  0.00177880
  0.00189324  0.00201473  0.00257714  0.00261705  0.00285873  0.00297720  0.00321794  0.00329888
  0.00355331  0.00359703  0.00401026  0.00401212
 Checking for correct frequencies
 recalc frequencies=
    -0.0    0.0    0.0    0.0    0.0    0.0   52.4   88.5  142.4  162.0
   191.6  257.5  303.8  316.3  323.7  385.2  445.0  446.1  461.9  475.1
   492.6  502.6  550.7  558.4  621.6  629.7  633.9  715.7  757.5  762.7
   764.2  766.8  768.3  771.3  793.8  865.1  876.1  882.1  899.0  907.7
   915.8  943.6  944.6  947.5  995.4  997.1 1026.7 1026.8 1044.9 1045.2
  1149.0 1150.7 1183.8 1199.3 1201.8 1203.8 1236.4 1238.9 1297.8 1306.4
  1309.6 1318.8 1349.7 1387.0 1406.6 1426.0 1428.1 1432.1 1481.1 1484.2
  1512.6 1545.9 1562.7 1568.9 1573.4 1585.0 1629.1 1632.8 3174.1 3176.1
  3176.8 3178.6 3181.7 3181.8 3184.9 3185.2 3196.5 3196.5 3206.5 3206.5
 recalc symmetries=
     B3u    B1g    B2g    B3g    B2u    B1u    B3u    Au     B1g    B1u
     B2g    B3u    B3g    Ag     Au     B1g    B3u    B1u    B3u    B1g
     B3g    B2g    Au     B2u    B1u    Ag     B2u    B2g    Au     Ag 
     B2g    B2u    B1g    B3u    B3g    Au     Ag     B2g    B1g    B3g
     Au     B1u    B2g    B3u    B1g    B3u    Au     B2g    Ag     B2u
     B1u    B3g    B2u    Ag     B3g    B2u    B1u    Ag     B3g    B1u
     B2u    B1u    B3g    B2u    Ag     Ag     B2u    B1u    Ag     B3g
     B2u    Ag     B3g    B2u    B1u    Ag     B3g    B1u    B3g    B2u
     B1u    Ag     B3g    B1u    B2u    Ag     B3g    B1u    B2u    Ag 
 recalc freqs check OK
 Zero-point lengths:
 10.0000 10.0000 10.0000 10.0000 10.0000 10.0000 34.2335 26.3480 20.7785 19.4795
 17.9085 15.4496 14.2232 13.9400 13.7786 12.6309 11.7526 11.7370 11.5348 11.3738
 11.1703 11.0582 10.5641 10.4916  9.9437  9.8790  9.8464  9.2665  9.0076  8.9769
  8.9679  8.9528  8.9442  8.9268  8.7993  8.4289  8.3757  8.3470  8.2682  8.2284
  8.1922  8.0706  8.0662  8.0540  7.8579  7.8510  7.7369  7.7367  7.6695  7.6682
  7.3138  7.3083  7.2054  7.1585  7.1513  7.1452  7.0506  7.0433  6.8816  6.8588
  6.8505  6.8267  6.7481  6.6567  6.6101  6.5650  6.5602  6.5509  6.4418  6.4350
  6.3743  6.3053  6.2712  6.2588  6.2499  6.2270  6.1421  6.1352  4.4003  4.3990
  4.3985  4.3972  4.3951  4.3950  4.3929  4.3927  4.3849  4.3849  4.3781  4.3780
 highest evec of mol 2
  0.0000  0.0059 -0.0524
  0.0000  0.0024  0.0006
  0.0000  0.0000 -0.0025
  0.0000  0.0000  0.0002
  0.0000 -0.0000 -0.0025
  0.0000 -0.0024  0.0006
  0.0000 -0.0059 -0.0524
  0.0000  0.1209 -0.0701
  0.0000  0.1209  0.0701
  0.0000 -0.0059  0.0524
  0.0000 -0.0024 -0.0006
  0.0000 -0.0000  0.0025
  0.0000  0.0000 -0.0002
  0.0000  0.0000  0.0025
  0.0000  0.0024 -0.0006
  0.0000  0.0059  0.0524
  0.0000 -0.1209  0.0701
  0.0000 -0.1209 -0.0701
  0.0000 -0.0011  0.1616
  0.0000 -0.0004  0.0080
  0.0000  0.0004  0.0080
  0.0000  0.0011  0.1616
  0.0000 -0.3902  0.2220
  0.0000 -0.3902 -0.2220
  0.0000  0.0011 -0.1616
  0.0000  0.0004 -0.0080
  0.0000 -0.0004 -0.0080
  0.0000 -0.0011 -0.1616
  0.0000  0.3902 -0.2220
  0.0000  0.3902  0.2220
 Enter nber and list of atoms to keep of mol #2
 keep list:          30           1           2           3           4
           5           6           7           8           9          10
          11          12          13          14          15          16
          17          18          19          20          21          22
          23          24          25          26          27          28
          29          30
 reordering atoms
           1  -3.69365400000000     
           2  -2.45379900000000     
           3  -1.22725100000000     
           4 -1.315819881037222E-016
           5   1.22725100000000     
           6   2.45379900000000     
           7   3.69365400000000     
           8   4.88090400000000     
           9   4.88090400000000     
          10   3.69365400000000     
          11   2.45379900000000     
          12   1.22725100000000     
          13 -1.315819881037222E-016
          14  -1.22725100000000     
          15  -2.45379900000000     
          16  -3.69365400000000     
          17  -4.88090400000000     
          18  -4.88090400000000     
          19  -3.69811600000000     
          20  -1.22942400000000     
          21   1.22942400000000     
          22   3.69811600000000     
          23   5.82353600000000     
          24   5.82353600000000     
          25   3.69811600000000     
          26   1.22942400000000     
          27  -1.22942400000000     
          28  -3.69811600000000     
          29  -5.82353600000000     
          30  -5.82353600000000     
           1           1
           2           2
           3           3
           4           4
           5           5
           6           6
           7           7
           8           8
           9           9
          10          10
          11          11
          12          12
          13          13
          14          14
          15          15
          16          16
          17          17
          18          18
          19          19
          20          20
          21          21
          22          22
          23          23
          24          24
          25          25
          26          26
          27          27
          28          28
          29          29
          30          30
 initial cartes coords mol 1
   6   0.00000   1.40713   3.70628
   6   0.00000   0.72486   2.44617
   6   0.00000   1.40443   1.23364
   6   0.00000   0.72501   0.00000
   6   0.00000   1.40443  -1.23364
   6   0.00000   0.72486  -2.44617
   6   0.00000   1.40713  -3.70628
   6   0.00000   0.71462  -4.88078
   6   0.00000  -0.71462  -4.88078
   6   0.00000  -1.40713  -3.70628
   6   0.00000  -0.72486  -2.44617
   6   0.00000  -1.40443  -1.23364
   6   0.00000  -0.72501   0.00000
   6   0.00000  -1.40443   1.23364
   6   0.00000  -0.72486   2.44617
   6   0.00000  -1.40713   3.70628
   6   0.00000  -0.71462   4.88078
   6   0.00000   0.71462   4.88078
   1   0.00000   2.49216   3.70610
   1   0.00000   2.49016   1.23408
   1   0.00000   2.49016  -1.23408
   1   0.00000   2.49216  -3.70610
   1   0.00000   1.24518  -5.82629
   1   0.00000  -1.24518  -5.82629
   1   0.00000  -2.49216  -3.70610
   1   0.00000  -2.49016  -1.23408
   1   0.00000  -2.49016   1.23408
   1   0.00000  -2.49216   3.70610
   1   0.00000  -1.24518   5.82629
   1   0.00000   1.24518   5.82629
 initial cartes coords mol 2
   6   0.00000   1.40732  -3.69365
   6   0.00000   0.72147  -2.45380
   6   0.00000   1.40652  -1.22725
   6   0.00000   0.72462  -0.00000
   6   0.00000   1.40652   1.22725
   6   0.00000   0.72147   2.45380
   6   0.00000   1.40732   3.69365
   6   0.00000   0.70591   4.88090
   6   0.00000  -0.70591   4.88090
   6   0.00000  -1.40732   3.69365
   6   0.00000  -0.72147   2.45380
   6   0.00000  -1.40652   1.22725
   6   0.00000  -0.72462  -0.00000
   6   0.00000  -1.40652  -1.22725
   6   0.00000  -0.72147  -2.45380
   6   0.00000  -1.40732  -3.69365
   6   0.00000  -0.70591  -4.88090
   6   0.00000   0.70591  -4.88090
   1   0.00000   2.49128  -3.69812
   1   0.00000   2.49157  -1.22942
   1   0.00000   2.49157   1.22942
   1   0.00000   2.49128   3.69812
   1   0.00000   1.23943   5.82354
   1   0.00000  -1.23943   5.82354
   1   0.00000  -2.49128   3.69812
   1   0.00000  -2.49157   1.22942
   1   0.00000  -2.49157  -1.22942
   1   0.00000  -2.49128  -3.69812
   1   0.00000  -1.23943  -5.82354
   1   0.00000   1.23943  -5.82354
 loop 1 0
 mod cartes coords mol 2
   6   0.00000   1.40732  -3.69365
   6   0.00000   0.72147  -2.45380
   6   0.00000   1.40652  -1.22725
   6   0.00000   0.72462  -0.00000
   6   0.00000   1.40652   1.22725
   6   0.00000   0.72147   2.45380
   6   0.00000   1.40732   3.69365
   6   0.00000   0.70591   4.88090
   6   0.00000  -0.70591   4.88090
   6   0.00000  -1.40732   3.69365
   6   0.00000  -0.72147   2.45380
   6   0.00000  -1.40652   1.22725
   6   0.00000  -0.72462  -0.00000
   6   0.00000  -1.40652  -1.22725
   6   0.00000  -0.72147  -2.45380
   6   0.00000  -1.40732  -3.69365
   6   0.00000  -0.70591  -4.88090
   6   0.00000   0.70591  -4.88090
   1   0.00000   2.49128  -3.69812
   1   0.00000   2.49157  -1.22942
   1   0.00000   2.49157   1.22942
   1   0.00000   2.49128   3.69812
   1   0.00000   1.23943   5.82354
   1   0.00000  -1.23943   5.82354
   1   0.00000  -2.49128   3.69812
   1   0.00000  -2.49157   1.22942
   1   0.00000  -2.49157  -1.22942
   1   0.00000  -2.49128  -3.69812
   1   0.00000  -1.23943  -5.82354
   1   0.00000   1.23943  -5.82354
 read in order, maxerr= 11.65 for atom  23
 loop 1 1
 mod cartes coords mol 2
   6   0.00000   1.40732  -3.69365
   6   0.00000   0.72147  -2.45380
   6   0.00000   1.40652  -1.22725
   6   0.00000   0.72462  -0.00000
   6   0.00000   1.40652   1.22725
   6   0.00000   0.72147   2.45380
   6   0.00000   1.40732   3.69365
   6   0.00000   0.70591   4.88090
   6   0.00000  -0.70591   4.88090
   6   0.00000  -1.40732   3.69365
   6   0.00000  -0.72147   2.45380
   6   0.00000  -1.40652   1.22725
   6   0.00000  -0.72462  -0.00000
   6   0.00000  -1.40652  -1.22725
   6   0.00000  -0.72147  -2.45380
   6   0.00000  -1.40732  -3.69365
   6   0.00000  -0.70591  -4.88090
   6   0.00000   0.70591  -4.88090
   1   0.00000   2.49128  -3.69812
   1   0.00000   2.49157  -1.22942
   1   0.00000   2.49157   1.22942
   1   0.00000   2.49128   3.69812
   1   0.00000   1.23943   5.82354
   1   0.00000  -1.23943   5.82354
   1   0.00000  -2.49128   3.69812
   1   0.00000  -2.49157   1.22942
   1   0.00000  -2.49157  -1.22942
   1   0.00000  -2.49128  -3.69812
   1   0.00000  -1.23943  -5.82354
   1   0.00000   1.23943  -5.82354
 read in order, maxerr= 11.65 for atom  23
 loop 1 2
 mod cartes coords mol 2
   6   0.00000  -1.40732  -3.69365
   6   0.00000  -0.72147  -2.45380
   6   0.00000  -1.40652  -1.22725
   6   0.00000  -0.72462  -0.00000
   6   0.00000  -1.40652   1.22725
   6   0.00000  -0.72147   2.45380
   6   0.00000  -1.40732   3.69365
   6   0.00000  -0.70591   4.88090
   6   0.00000   0.70591   4.88090
   6   0.00000   1.40732   3.69365
   6   0.00000   0.72147   2.45380
   6   0.00000   1.40652   1.22725
   6   0.00000   0.72462  -0.00000
   6   0.00000   1.40652  -1.22725
   6   0.00000   0.72147  -2.45380
   6   0.00000   1.40732  -3.69365
   6   0.00000   0.70591  -4.88090
   6   0.00000  -0.70591  -4.88090
   1   0.00000  -2.49128  -3.69812
   1   0.00000  -2.49157  -1.22942
   1   0.00000  -2.49157   1.22942
   1   0.00000  -2.49128   3.69812
   1   0.00000  -1.23943   5.82354
   1   0.00000   1.23943   5.82354
   1   0.00000   2.49128   3.69812
   1   0.00000   2.49157   1.22942
   1   0.00000   2.49157  -1.22942
   1   0.00000   2.49128  -3.69812
   1   0.00000   1.23943  -5.82354
   1   0.00000  -1.23943  -5.82354
 read in order, maxerr= 11.91 for atom  23
 loop 1 3
 mod cartes coords mol 2
   6   0.00000  -1.40732  -3.69365
   6   0.00000  -0.72147  -2.45380
   6   0.00000  -1.40652  -1.22725
   6   0.00000  -0.72462  -0.00000
   6   0.00000  -1.40652   1.22725
   6   0.00000  -0.72147   2.45380
   6   0.00000  -1.40732   3.69365
   6   0.00000  -0.70591   4.88090
   6   0.00000   0.70591   4.88090
   6   0.00000   1.40732   3.69365
   6   0.00000   0.72147   2.45380
   6   0.00000   1.40652   1.22725
   6   0.00000   0.72462  -0.00000
   6   0.00000   1.40652  -1.22725
   6   0.00000   0.72147  -2.45380
   6   0.00000   1.40732  -3.69365
   6   0.00000   0.70591  -4.88090
   6   0.00000  -0.70591  -4.88090
   1   0.00000  -2.49128  -3.69812
   1   0.00000  -2.49157  -1.22942
   1   0.00000  -2.49157   1.22942
   1   0.00000  -2.49128   3.69812
   1   0.00000  -1.23943   5.82354
   1   0.00000   1.23943   5.82354
   1   0.00000   2.49128   3.69812
   1   0.00000   2.49157   1.22942
   1   0.00000   2.49157  -1.22942
   1   0.00000   2.49128  -3.69812
   1   0.00000   1.23943  -5.82354
   1   0.00000  -1.23943  -5.82354
 read in order, maxerr= 11.91 for atom  23
 loop 1 4
 mod cartes coords mol 2
   6   0.00000   1.40732   3.69365
   6   0.00000   0.72147   2.45380
   6   0.00000   1.40652   1.22725
   6   0.00000   0.72462   0.00000
   6   0.00000   1.40652  -1.22725
   6   0.00000   0.72147  -2.45380
   6   0.00000   1.40732  -3.69365
   6   0.00000   0.70591  -4.88090
   6   0.00000  -0.70591  -4.88090
   6   0.00000  -1.40732  -3.69365
   6   0.00000  -0.72147  -2.45380
   6   0.00000  -1.40652  -1.22725
   6   0.00000  -0.72462   0.00000
   6   0.00000  -1.40652   1.22725
   6   0.00000  -0.72147   2.45380
   6   0.00000  -1.40732   3.69365
   6   0.00000  -0.70591   4.88090
   6   0.00000   0.70591   4.88090
   1   0.00000   2.49128   3.69812
   1   0.00000   2.49157   1.22942
   1   0.00000   2.49157  -1.22942
   1   0.00000   2.49128  -3.69812
   1   0.00000   1.23943  -5.82354
   1   0.00000  -1.23943  -5.82354
   1   0.00000  -2.49128  -3.69812
   1   0.00000  -2.49157  -1.22942
   1   0.00000  -2.49157   1.22942
   1   0.00000  -2.49128   3.69812
   1   0.00000  -1.23943   5.82354
   1   0.00000   1.23943   5.82354
 read in order, maxerr=  0.01 for atom   1
 final axis swaps:           1           1          -1
 final xyz swap pattern=           1
 reorder list:
   1   2   3   4   5   6   7   8   9  10  11  12  13  14  15  16  17  18  19  20
  21  22  23  24  25  26  27  28  29  30
 axis signs=           1           1          -1
  6     0.000000  1.407320  3.693654     0.000000  1.407130  3.706285
  6     0.000000  0.721473  2.453799     0.000000  0.724861  2.446171
  6     0.000000  1.406516  1.227251     0.000000  1.404427  1.233638
  6     0.000000  0.724615  0.000000     0.000000  0.725013  0.000000
  6     0.000000  1.406516 -1.227251     0.000000  1.404427 -1.233638
  6     0.000000  0.721473 -2.453799     0.000000  0.724861 -2.446171
  6     0.000000  1.407320 -3.693654     0.000000  1.407130 -3.706285
  6     0.000000  0.705912 -4.880904     0.000000  0.714616 -4.880778
  6     0.000000 -0.705912 -4.880904     0.000000 -0.714616 -4.880778
  6     0.000000 -1.407320 -3.693654     0.000000 -1.407130 -3.706285
  6     0.000000 -0.721473 -2.453799     0.000000 -0.724861 -2.446171
  6     0.000000 -1.406516 -1.227251     0.000000 -1.404427 -1.233638
  6     0.000000 -0.724615  0.000000     0.000000 -0.725013  0.000000
  6     0.000000 -1.406516  1.227251     0.000000 -1.404427  1.233638
  6     0.000000 -0.721473  2.453799     0.000000 -0.724861  2.446171
  6     0.000000 -1.407320  3.693654     0.000000 -1.407130  3.706285
  6     0.000000 -0.705912  4.880904     0.000000 -0.714616  4.880778
  6     0.000000  0.705912  4.880904     0.000000  0.714616  4.880778
  1     0.000000  2.491279  3.698116     0.000000  2.492156  3.706104
  1     0.000000  2.491569  1.229424     0.000000  2.490157  1.234076
  1     0.000000  2.491569 -1.229424     0.000000  2.490157 -1.234076
  1     0.000000  2.491279 -3.698116     0.000000  2.492156 -3.706104
  1     0.000000  1.239431 -5.823536     0.000000  1.245181 -5.826294
  1     0.000000 -1.239431 -5.823536     0.000000 -1.245181 -5.826294
  1     0.000000 -2.491279 -3.698116     0.000000 -2.492156 -3.706104
  1     0.000000 -2.491569 -1.229424     0.000000 -2.490157 -1.234076
  1     0.000000 -2.491569  1.229424     0.000000 -2.490157  1.234076
  1     0.000000 -2.491279  3.698116     0.000000 -2.492156  3.706104
  1     0.000000 -1.239431  5.823536     0.000000 -1.245181  5.826294
  1     0.000000  1.239431  5.823536     0.000000  1.245181  5.826294
 generating redundant internal coords
         300        3600          30
 Adding extra bonds for z output only
           6           6           6           6           6           6
           6           6           6           6           6           6
           6           6           6           6           6           6
           1           1           1           1           1           1
           1           1           1           1           1           1
 search for int coords
   1 str   2   1   1.417
   2 str   3   2   1.405
   3 str   4   3   1.404
   4 str   5   4   1.404
   5 str   6   5   1.405
   6 str   7   6   1.417
   7 str   8   7   1.379
   8 str   9   8   1.412
   9 str  10   9   1.379
  10 str  11   6   1.443
  11 str  11  10   1.417
  12 str  12  11   1.405
  13 str  13   4   1.449
  14 str  13  12   1.404
  15 str  14  13   1.404
  16 str  15   2   1.443
  17 str  15  14   1.405
  18 str  16  15   1.417
  19 str  17  16   1.379
  20 str  18   1   1.379
  21 str  18  17   1.412
  22 str  19   1   1.084
  23 str  20   3   1.085
  24 str  21   5   1.085
  25 str  22   7   1.084
  26 str  23   8   1.083
  27 str  24   9   1.083
  28 str  25  10   1.084
  29 str  26  12   1.085
  30 str  27  14   1.085
  31 str  28  16   1.084
  32 str  29  17   1.083
  33 str  30  18   1.083
 nber stretches=          33
  34 ben   1   2   3
  35 prop tor   1   2   3   4
  36 prop tor   1   2   3  20
  37 ben   1   2  15
  38 prop tor   1   2  15  14
  39 prop tor   1   2  15  16
  40 ben   1  18  17
  41 ben   1  18  30
  42 ben   2   1  18
  43 prop tor   2   1  18  17
  44 prop tor   2   1  18  30
  45 ben   2   1  19
  46 ben   2   3   4
  47 prop tor   2   3   4   5
  48 prop tor   2   3   4  13
  49 ben   2   3  20
  50 ben   2  15  14
  51 ben   2  15  16
  52 prop tor   2  15  16  17
  53 prop tor   2  15  16  28
  54 ben   3   2  15
  55 prop tor   3   2  15  14
  56 prop tor   3   2  15  16
  57 ben   3   4   5
  58 prop tor   3   4   5   6
  59 prop tor   3   4   5  21
  60 ben   3   4  13
  61 prop tor   3   4  13  12
  62 prop tor   3   4  13  14
  63 ben   4   3  20
  64 ben   4   5   6
  65 prop tor   4   5   6   7
  66 prop tor   4   5   6  11
  67 ben   4   5  21
  68 ben   4  13  12
  69 ben   4  13  14
  70 prop tor   4  13  14  15
  71 prop tor   4  13  14  27
  72 ben   5   4  13
  73 prop tor   5   4  13  12
  74 prop tor   5   4  13  14
  75 ben   5   6   7
  76 prop tor   5   6   7   8
  77 prop tor   5   6   7  22
  78 ben   5   6  11
  79 prop tor   5   6  11  10
  80 prop tor   5   6  11  12
  81 ben   6   5  21
  82 ben   6   7   8
  83 prop tor   6   7   8   9
  84 prop tor   6   7   8  23
  85 ben   6   7  22
  86 ben   6  11  10
  87 ben   6  11  12
  88 prop tor   6  11  12  13
  89 prop tor   6  11  12  26
  90 ben   7   6  11
  91 prop tor   7   6  11  10
  92 prop tor   7   6  11  12
  93 ben   7   8   9
  94 prop tor   7   8   9  10
  95 prop tor   7   8   9  24
  96 ben   7   8  23
  97 ben   8   7  22
  98 ben   8   9  10
  99 prop tor   8   9  10  11
 100 prop tor   8   9  10  25
 101 ben   8   9  24
 102 ben   9   8  23
 103 ben   9  10  11
 104 prop tor   9  10  11   6
 105 prop tor   9  10  11  12
 106 ben   9  10  25
 107 ben  10   9  24
 108 ben  10  11  12
 109 prop tor  10  11  12  13
 110 prop tor  10  11  12  26
 111 prop tor  11   6   7   8
 112 prop tor  11   6   7  22
 113 ben  11  10  25
 114 ben  11  12  13
 115 prop tor  11  12  13   4
 116 prop tor  11  12  13  14
 117 ben  11  12  26
 118 ben  12  13  14
 119 prop tor  12  13  14  15
 120 prop tor  12  13  14  27
 121 prop tor  13   4   5   6
 122 prop tor  13   4   5  21
 123 ben  13  12  26
 124 ben  13  14  15
 125 prop tor  13  14  15   2
 126 prop tor  13  14  15  16
 127 ben  13  14  27
 128 ben  14  15  16
 129 prop tor  14  15  16  17
 130 prop tor  14  15  16  28
 131 prop tor  15   2   3   4
 132 prop tor  15   2   3  20
 133 ben  15  14  27
 134 ben  15  16  17
 135 prop tor  15  16  17  18
 136 prop tor  15  16  17  29
 137 ben  15  16  28
 138 ben  16  17  18
 139 prop tor  16  17  18   1
 140 prop tor  16  17  18  30
 141 ben  16  17  29
 142 ben  17  16  28
 143 ben  17  18  30
 144 prop tor  18   1   2   3
 145 prop tor  18   1   2  15
 146 ben  18   1  19
 147 ben  18  17  29
 148 prop tor  19   1   2   3
 149 prop tor  19   1   2  15
 150 prop tor  19   1  18  17
 151 prop tor  19   1  18  30
 152 prop tor  20   3   4   5
 153 prop tor  20   3   4  13
 154 prop tor  21   5   6   7
 155 prop tor  21   5   6  11
 156 prop tor  22   7   8   9
 157 prop tor  22   7   8  23
 158 prop tor  23   8   9  10
 159 prop tor  23   8   9  24
 160 prop tor  24   9  10  11
 161 prop tor  24   9  10  25
 162 prop tor  25  10  11   6
 163 prop tor  25  10  11  12
 164 prop tor  26  12  13   4
 165 prop tor  26  12  13  14
 166 prop tor  27  14  15   2
 167 prop tor  27  14  15  16
 168 prop tor  28  16  17  18
 169 prop tor  28  16  17  29
 170 prop tor  29  17  18   1
 171 prop tor  29  17  18  30
 nber bend=              54
 nber lin bend=           0
 nber prop tor=          84
 nber impr tor=           0
 nber tot redund int=         171
 generating redundant internal coords
         300        3600          30
 search for int coords
   1 str   2   1   1.433
   2 str   3   2   1.390
   3 str   4   3   1.408
   4 str   5   4   1.408
   5 str   6   5   1.390
   6 str   7   6   1.433
   7 str   8   7   1.363
   8 str   9   8   1.429
   9 str  10   9   1.363
  10 str  11   6   1.450
  11 str  11  10   1.433
  12 str  12  11   1.390
  13 str  13   4   1.450
  14 str  13  12   1.408
  15 str  14  13   1.408
  16 str  15   2   1.450
  17 str  15  14   1.390
  18 str  16  15   1.433
  19 str  17  16   1.363
  20 str  18   1   1.363
  21 str  18  17   1.429
  22 str  19   1   1.085
  23 str  20   3   1.086
  24 str  21   5   1.086
  25 str  22   7   1.085
  26 str  23   8   1.084
  27 str  24   9   1.084
  28 str  25  10   1.085
  29 str  26  12   1.086
  30 str  27  14   1.086
  31 str  28  16   1.085
  32 str  29  17   1.084
  33 str  30  18   1.084
 nber stretches=          33
  34 ben   1   2   3
  35 prop tor   1   2   3   4
  36 prop tor   1   2   3  20
  37 ben   1   2  15
  38 prop tor   1   2  15  14
  39 prop tor   1   2  15  16
  40 ben   1  18  17
  41 ben   1  18  30
  42 ben   2   1  18
  43 prop tor   2   1  18  17
  44 prop tor   2   1  18  30
  45 ben   2   1  19
  46 ben   2   3   4
  47 prop tor   2   3   4   5
  48 prop tor   2   3   4  13
  49 ben   2   3  20
  50 ben   2  15  14
  51 ben   2  15  16
  52 prop tor   2  15  16  17
  53 prop tor   2  15  16  28
  54 ben   3   2  15
  55 prop tor   3   2  15  14
  56 prop tor   3   2  15  16
  57 ben   3   4   5
  58 prop tor   3   4   5   6
  59 prop tor   3   4   5  21
  60 ben   3   4  13
  61 prop tor   3   4  13  12
  62 prop tor   3   4  13  14
  63 ben   4   3  20
  64 ben   4   5   6
  65 prop tor   4   5   6   7
  66 prop tor   4   5   6  11
  67 ben   4   5  21
  68 ben   4  13  12
  69 ben   4  13  14
  70 prop tor   4  13  14  15
  71 prop tor   4  13  14  27
  72 ben   5   4  13
  73 prop tor   5   4  13  12
  74 prop tor   5   4  13  14
  75 ben   5   6   7
  76 prop tor   5   6   7   8
  77 prop tor   5   6   7  22
  78 ben   5   6  11
  79 prop tor   5   6  11  10
  80 prop tor   5   6  11  12
  81 ben   6   5  21
  82 ben   6   7   8
  83 prop tor   6   7   8   9
  84 prop tor   6   7   8  23
  85 ben   6   7  22
  86 ben   6  11  10
  87 ben   6  11  12
  88 prop tor   6  11  12  13
  89 prop tor   6  11  12  26
  90 ben   7   6  11
  91 prop tor   7   6  11  10
  92 prop tor   7   6  11  12
  93 ben   7   8   9
  94 prop tor   7   8   9  10
  95 prop tor   7   8   9  24
  96 ben   7   8  23
  97 ben   8   7  22
  98 ben   8   9  10
  99 prop tor   8   9  10  11
 100 prop tor   8   9  10  25
 101 ben   8   9  24
 102 ben   9   8  23
 103 ben   9  10  11
 104 prop tor   9  10  11   6
 105 prop tor   9  10  11  12
 106 ben   9  10  25
 107 ben  10   9  24
 108 ben  10  11  12
 109 prop tor  10  11  12  13
 110 prop tor  10  11  12  26
 111 prop tor  11   6   7   8
 112 prop tor  11   6   7  22
 113 ben  11  10  25
 114 ben  11  12  13
 115 prop tor  11  12  13   4
 116 prop tor  11  12  13  14
 117 ben  11  12  26
 118 ben  12  13  14
 119 prop tor  12  13  14  15
 120 prop tor  12  13  14  27
 121 prop tor  13   4   5   6
 122 prop tor  13   4   5  21
 123 ben  13  12  26
 124 ben  13  14  15
 125 prop tor  13  14  15   2
 126 prop tor  13  14  15  16
 127 ben  13  14  27
 128 ben  14  15  16
 129 prop tor  14  15  16  17
 130 prop tor  14  15  16  28
 131 prop tor  15   2   3   4
 132 prop tor  15   2   3  20
 133 ben  15  14  27
 134 ben  15  16  17
 135 prop tor  15  16  17  18
 136 prop tor  15  16  17  29
 137 ben  15  16  28
 138 ben  16  17  18
 139 prop tor  16  17  18   1
 140 prop tor  16  17  18  30
 141 ben  16  17  29
 142 ben  17  16  28
 143 ben  17  18  30
 144 prop tor  18   1   2   3
 145 prop tor  18   1   2  15
 146 ben  18   1  19
 147 ben  18  17  29
 148 prop tor  19   1   2   3
 149 prop tor  19   1   2  15
 150 prop tor  19   1  18  17
 151 prop tor  19   1  18  30
 152 prop tor  20   3   4   5
 153 prop tor  20   3   4  13
 154 prop tor  21   5   6   7
 155 prop tor  21   5   6  11
 156 prop tor  22   7   8   9
 157 prop tor  22   7   8  23
 158 prop tor  23   8   9  10
 159 prop tor  23   8   9  24
 160 prop tor  24   9  10  11
 161 prop tor  24   9  10  25
 162 prop tor  25  10  11   6
 163 prop tor  25  10  11  12
 164 prop tor  26  12  13   4
 165 prop tor  26  12  13  14
 166 prop tor  27  14  15   2
 167 prop tor  27  14  15  16
 168 prop tor  28  16  17  18
 169 prop tor  28  16  17  29
 170 prop tor  29  17  18   1
 171 prop tor  29  17  18  30
 nber bend=              54
 nber lin bend=           0
 nber prop tor=          84
 nber impr tor=           0
 nber tot redund int=         171
 Eigenvalues of G in red int coords
    Gval -0.00000000 -0.00000000 -0.00000000 -0.00000000 -0.00000000 -0.00000000 -0.00000000 -0.00000000
    Gval -0.00000000 -0.00000000 -0.00000000 -0.00000000 -0.00000000 -0.00000000 -0.00000000 -0.00000000
    Gval -0.00000000 -0.00000000 -0.00000000 -0.00000000 -0.00000000 -0.00000000 -0.00000000 -0.00000000
    Gval -0.00000000 -0.00000000 -0.00000000 -0.00000000 -0.00000000 -0.00000000 -0.00000000 -0.00000000
    Gval -0.00000000 -0.00000000 -0.00000000 -0.00000000 -0.00000000 -0.00000000 -0.00000000 -0.00000000
    Gval -0.00000000 -0.00000000 -0.00000000 -0.00000000 -0.00000000 -0.00000000 -0.00000000 -0.00000000
    Gval -0.00000000 -0.00000000  0.00000000  0.00000000  0.00000000  0.00000000  0.00000000  0.00000000
    Gval  0.00000000  0.00000000  0.00000000  0.00000000  0.00000000  0.00000000  0.00000000  0.00000000
    Gval  0.00000000  0.00000000  0.00000000  0.00000000  0.00000000  0.00000000  0.00000000  0.00000000
    Gval  0.00000000  0.00000000  0.00000000  0.00000000  0.00000000  0.00000000  0.00000000  0.00000000
    Gval  0.00000000  0.00000000  0.00000000  0.00000000  0.00000000  0.00000000  0.00000000  0.00000375
    Gval  0.00000606  0.00001330  0.00001763  0.00002275  0.00003491  0.00003954  0.00004139  0.00004287
    Gval  0.00004573  0.00004929  0.00006125  0.00006270  0.00006726  0.00007186  0.00008167  0.00009168
    Gval  0.00009981  0.00010282  0.00010294  0.00011888  0.00013061  0.00013982  0.00015864  0.00017170
    Gval  0.00017316  0.00020376  0.00023244  0.00028382  0.00029100  0.00029531  0.00033056  0.00037679
    Gval  0.00038123  0.00038747  0.00039687  0.00041378  0.00041601  0.00043293  0.00048298  0.00059310
    Gval  0.00059311  0.00059683  0.00059690  0.00060835  0.00061326  0.00062210  0.00062690  0.00063674
    Gval  0.00064832  0.00065596  0.00065826  0.00072031  0.00078675  0.00079180  0.00088722  0.00100133
    Gval  0.00105037  0.00105090  0.00111189  0.00111198  0.00111294  0.00112122  0.00112653  0.00112678
    Gval  0.00116172  0.00116178  0.00117003  0.00117003  0.00165712  0.00177076  0.00177086  0.00188184
    Gval  0.00200410  0.00255825  0.00259519  0.00285901  0.00297542  0.00321678  0.00330012  0.00354792
    Gval  0.00359240  0.00400193  0.00400385
  3.747674412625633E-006  3.747674412625633E-006
  6.057600306710902E-006  3.747674412625633E-006
  1.329834434078353E-005  3.747674412625633E-006
  1.762900189550020E-005  3.747674412625633E-006
  2.274569402763657E-005  3.747674412625633E-006
  3.490728544774420E-005  3.747674412625633E-006
  3.953638590630453E-005  3.747674412625633E-006
  4.138659248603308E-005  3.747674412625633E-006
  4.286511398977406E-005  3.747674412625633E-006
  4.572923477283114E-005  3.747674412625633E-006
  4.929084997457537E-005  3.747674412625633E-006
  6.125243532926156E-005  3.747674412625633E-006
  6.270105003670307E-005  3.747674412625633E-006
  6.726074543949228E-005  3.747674412625633E-006
  7.186065209690446E-005  3.747674412625633E-006
  8.166704532747662E-005  3.747674412625633E-006
  9.168057513039272E-005  3.747674412625633E-006
  9.980585807087146E-005  3.747674412625633E-006
  1.028190072630511E-004  3.747674412625633E-006
  1.029360281867943E-004  3.747674412625633E-006
  1.188835455566111E-004  3.747674412625633E-006
  1.306118772313309E-004  3.747674412625633E-006
  1.398217002544588E-004  3.747674412625633E-006
  1.586394938089029E-004  3.747674412625633E-006
[...]
 nber times 1st assigned=          76           0
 nber times 1st assigned=          77           0
 nber times 1st assigned=          78           0
 nber times 1st assigned=          79           0
 nber times 1st assigned=          80           0
 nber times 1st assigned=          81           0
 nber times 1st assigned=          82           0
 nber times 1st assigned=          83           0
 nber times 1st assigned=          84           0
 nber times 1st assigned=          85           0
 nber times 1st assigned=          86           0
 nber times 1st assigned=          87           0
 nber times 1st assigned=          88           0
 nber times 1st assigned=          89           0
 nber times 1st assigned=          90           0
 Dushinsky matrix written to .out file
 modes represented=   84.0243496900467     

 Dushinsky matrix, ncs 1 in terms of ncs 2

   mode   freq    coeff     %      %tot     of    at

   7 B3u    55.  1.0000   100.0    99.4   7 B3u    52.
   8 Au     89.  0.9999   100.0   101.1   8 Au     89.
   9 B1g   149.  0.9999   100.0    98.8   9 B1g   142.
  10 B1u   163.  1.0000   100.0   100.6  10 B1u   162.
  11 B2g   191. -0.9989    99.8   100.9  11 B2g   192.
  12 B3u   271.  0.9978    99.6    97.1  12 B3u   257.
  13 B3g   305. -0.9997    99.9    99.9  13 B3g   304.
  14 Au    318.  0.9978    99.6   101.2  15 Au    324.
  15 Ag    318. -0.9999   100.0    99.8  14 Ag    316.
  16 B1g   382.  0.9935    98.7    98.8  16 B1g   385.
  17 B1u   448. -0.9999   100.0    99.1  18 B1u   446.
  18 B3u   472.  0.8707    75.8    99.7  17 B3u   445.
                 0.4880    23.8          19 B3u   462.
  19 B1g   476.  0.9946    98.9    99.7  20 B1g   475.
  20 B3u   482.  0.4902    24.0   100.1  17 B3u   445.
                -0.8653    74.9          19 B3u   462.
  21 B3g   505.  0.9985    99.7   101.3  21 B3g   493.
  22 B2g   519. -0.9952    99.0    99.3  22 B2g   503.
  23 B2u   563. -0.9990    99.8    99.6  24 B2u   558.
  24 Au    567. -0.9943    98.9    99.0  23 Au    551.
  25 B1u   618. -0.9996    99.9   101.3  25 B1u   622.
  26 Ag    635. -0.9993    99.9    99.6  26 Ag    630.
  27 B2u   645.  0.9985    99.7    99.7  27 B2u   634.
  28 B2g   734. -0.9919    98.4   100.6  28 B2g   716.
  29 B1g   744. -0.9921    98.4   100.6  33 B1g   768.
  30 B2u   757. -0.9969    99.4    99.9  32 B2u   767.
  31 B3u   757. -0.9943    98.9   100.6  34 B3u   771.
  32 Ag    763.  0.9989    99.8    99.5  30 Ag    763.
  33 Au    769.  0.9884    97.7   100.6  29 Au    757.
  34 B2g   777.  0.9841    96.8   100.5  31 B2g   764.
  35 B3g   788. -0.9989    99.8   100.2  35 B3g   794.
  36 Au    842.  0.9675    93.6   100.8  36 Au    865.
  37 B2g   853.  0.9792    95.9   101.0  38 B2g   882.
  38 B1g   862.  0.9926    98.5    99.9  39 B1g   899.
  39 Ag    868.  0.9987    99.7    99.8  37 Ag    876.
  40 Au    890. -0.9742    94.9   100.1  41 Au    916.
  41 B3g   911.  0.9993    99.9    99.8  40 B3g   908.
  42 B3u   914. -0.9974    99.5    99.9  44 B3u   947.
  43 B2g   915. -0.9902    98.0   100.0  43 B2g   945.
  44 B1u   945.  0.9996    99.9   100.1  42 B1u   944.
  45 B1g   971.  0.9989    99.8    99.9  45 B1g   995.
  46 B3u   972.  0.9977    99.5    99.9  46 B3u   997.
  47 Au    995.  0.9847    97.0   100.2  47 Au   1027.
  48 B2g   996. -0.9851    97.0   100.2  48 B2g  1027.
  49 B2u  1020. -0.9892    97.9   100.0  50 B2u  1045.
  50 Ag   1022.  0.9944    98.9   100.1  49 Ag   1045.
  51 B2u  1147. -0.9166    84.0    99.9  53 B2u  1184.
                -0.3412    11.6          56 B2u  1204.
  52 B1u  1150. -0.9868    97.4   100.2  51 B1u  1149.
  53 B3g  1152.  0.9825    96.5   100.0  52 B3g  1151.
  54 Ag   1186. -0.9942    98.8   100.2  54 Ag   1199.
  55 B2u  1189. -0.3448    11.9   100.2  53 B2u  1184.
                 0.9296    86.4          56 B2u  1204.
  56 B3g  1204. -0.9756    95.2   100.0  55 B3g  1202.
  57 B1u  1223.  0.9774    95.5   100.1  57 B1u  1236.
  58 Ag   1224.  0.9914    98.3   100.1  58 Ag   1239.
  59 B3g  1291.  0.9696    94.0   100.0  59 B3g  1298.
  60 B1u  1299.  0.8813    77.7   100.3  60 B1u  1306.
                -0.4679    21.9          62 B1u  1319.
  61 B1u  1316.  0.4509    20.3    99.9  60 B1u  1306.
                 0.8750    76.6          62 B1u  1319.
  62 B2u  1318.  0.9681    93.7   100.0  61 B2u  1310.
  63 B3g  1360. -0.9704    94.2   100.0  63 B3g  1350.
  64 B2u  1368. -0.9563    91.4   100.3  67 B2u  1428.
  65 Ag   1412.  0.9631    92.8   100.2  66 Ag   1426.
  66 B1u  1418. -0.9949    99.0    99.9  68 B1u  1432.
  67 Ag   1424. -0.8731    76.2    99.8  65 Ag   1407.
                 0.3717    13.8          69 Ag   1481.
  68 B2u  1432.  0.9225    85.1    99.9  64 B2u  1387.
  69 Ag   1480.  0.8727    76.2    99.9  69 Ag   1481.
                -0.3371    11.4          72 Ag   1546.
  70 B3g  1482. -0.9818    96.4   100.2  70 B3g  1484.
  71 B2u  1501.  0.9191    84.5    99.8  71 B2u  1513.
                 0.3743    14.0          74 B2u  1569.
  72 Ag   1558. -0.9068    82.2   100.0  72 Ag   1546.
  73 Ag   1578.  0.9670    93.5   100.4  76 Ag   1585.
  74 B2u  1584. -0.3177    10.1   100.1  64 B2u  1387.
                -0.3366    11.3          71 B2u  1513.
                 0.8835    78.1          74 B2u  1569.
  75 B1u  1609.  0.9945    98.9   100.3  75 B1u  1573.
  76 B3g  1649. -0.8834    78.0   100.0  73 B3g  1563.
                -0.4497    20.2          77 B3g  1629.
  77 B3g  1663.  0.4485    20.1   100.3  73 B3g  1563.
                -0.8843    78.2          77 B3g  1629.
  78 B1u  1677.  0.9925    98.5   100.2  78 B1u  1633.
  79 B3g  3153.  0.9790    95.9   100.0  79 B3g  3174.
  80 B2u  3155.  0.9933    98.7   100.0  80 B2u  3176.
  81 B1u  3156.  0.7801    60.9   100.0  81 B1u  3177.
                -0.6194    38.4          84 B1u  3182.
  82 B3g  3157.  0.9703    94.1   100.0  83 B3g  3182.
  83 Ag   3159.  0.9401    88.4   100.0  82 Ag   3179.
                -0.3400    11.6          86 Ag   3185.
  84 B1u  3159. -0.6256    39.1   100.0  81 B1u  3177.
                -0.7729    59.7          84 B1u  3182.
  85 B2u  3162.  0.9899    98.0   100.0  85 B2u  3185.
  86 Ag   3163.  0.3408    11.6   100.0  82 Ag   3179.
                 0.9358    87.6          86 Ag   3185.
  87 B3g  3175.  0.9910    98.2   100.0  87 B3g  3196.
  88 B1u  3175.  0.9905    98.1   100.0  88 B1u  3196.
  89 B2u  3187.  0.9965    99.3   100.0  89 B2u  3206.
  90 Ag   3187.  0.9956    99.1   100.0  90 Ag   3206.
 nber times 1st assigned=           1           0
 nber times 1st assigned=           2           0
 nber times 1st assigned=           3           0
 nber times 1st assigned=           4           0
 nber times 1st assigned=           5           0
 nber times 1st assigned=           6           0
 nber times 1st assigned=           7           0
 nber times 1st assigned=           8           0
 nber times 1st assigned=           9           0
 nber times 1st assigned=          10           0
 nber times 1st assigned=          11           0
 nber times 1st assigned=          12           0
 nber times 1st assigned=          13           0
 nber times 1st assigned=          14           0
 nber times 1st assigned=          15           0
 nber times 1st assigned=          16           0
 nber times 1st assigned=          17           0
 nber times 1st assigned=          18           0
 nber times 1st assigned=          19           0
 nber times 1st assigned=          20           0
 nber times 1st assigned=          21           0
 nber times 1st assigned=          22           0
 nber times 1st assigned=          23           0
 nber times 1st assigned=          24           0
 nber times 1st assigned=          25           0
 nber times 1st assigned=          26           0
 nber times 1st assigned=          27           0
 nber times 1st assigned=          28           0
 nber times 1st assigned=          29           0
 nber times 1st assigned=          30           0
 nber times 1st assigned=          31           0
 nber times 1st assigned=          32           0
 nber times 1st assigned=          33           0
 nber times 1st assigned=          34           0
 nber times 1st assigned=          35           0
 nber times 1st assigned=          36           0
 nber times 1st assigned=          37           0
 nber times 1st assigned=          38           0
 nber times 1st assigned=          39           0
 nber times 1st assigned=          40           0
 nber times 1st assigned=          41           0
 nber times 1st assigned=          42           0
 nber times 1st assigned=          43           0
 nber times 1st assigned=          44           0
 nber times 1st assigned=          45           0
 nber times 1st assigned=          46           0
 nber times 1st assigned=          47           0
 nber times 1st assigned=          48           0
 nber times 1st assigned=          49           0
 nber times 1st assigned=          50           0
 nber times 1st assigned=          51           0
 nber times 1st assigned=          52           0
 nber times 1st assigned=          53           0
 nber times 1st assigned=          54           0
 nber times 1st assigned=          55           0
 nber times 1st assigned=          56           0
 nber times 1st assigned=          57           0
 nber times 1st assigned=          58           0
 nber times 1st assigned=          59           0
 nber times 1st assigned=          60           0
 nber times 1st assigned=          61           0
 nber times 1st assigned=          62           0
 nber times 1st assigned=          63           0
 nber times 1st assigned=          64           0
 nber times 1st assigned=          65           0
 nber times 1st assigned=          66           0
 nber times 1st assigned=          67           0
 nber times 1st assigned=          68           0
 nber times 1st assigned=          69           0
 nber times 1st assigned=          70           0
 nber times 1st assigned=          71           0
 nber times 1st assigned=          72           0
 nber times 1st assigned=          73           0
 nber times 1st assigned=          74           0
 nber times 1st assigned=          75           0
 nber times 1st assigned=          76           0
 nber times 1st assigned=          77           0
 nber times 1st assigned=          78           0
 nber times 1st assigned=          79           0
 nber times 1st assigned=          80           0
 nber times 1st assigned=          81           0
 nber times 1st assigned=          82           0
 nber times 1st assigned=          83           0
 nber times 1st assigned=          84           0
 nber times 1st assigned=          85           0
 nber times 1st assigned=          86           0
 nber times 1st assigned=          87           0
 nber times 1st assigned=          88           0
 nber times 1st assigned=          89           0
 nber times 1st assigned=          90           0
 modes represented=   84.0243496900467     
 p1=
   -0.    0.    0.    0.   -0.   -0.    0.   -0.   -0.   -0.   -0.   -0.    0.    0.   -2.    0.    0.    0.    0.    0.
    0.    0.    0.   -0.    0.   -0.   -0.    0.   -0.   -0.    0.   -1.    0.    0.    0.   -0.    0.    0.   -1.   -0.
   -0.   -0.    0.   -0.   -0.    0.    0.   -0.    0.    1.    0.    0.    0.   -1.   -0.   -0.    0.   -2.    0.    0.
    0.    0.   -0.    0.    2.    0.    2.   -0.   -1.    0.    0.   -1.   -3.    0.   -0.    0.   -0.    0.    0.    0.
    0.   -0.    0.    0.    0.    0.    0.    0.    0.   -0.
 p2=
    0.    0.    0.   -0.    0.    0.   -0.    0.    0.   -0.   -0.    0.    0.   -2.   -0.   -0.   -0.    0.    0.   -0.
    0.    0.   -0.    0.   -0.   -0.    0.   -0.   -0.    0.   -0.   -0.   -0.    0.   -0.    0.    0.   -0.   -0.    0.
   -0.    0.    0.   -0.    0.   -0.   -0.    0.   -1.   -0.   -0.    0.    0.   -2.   -0.    0.    0.    2.   -0.   -0.
   -0.    0.    0.    0.    1.   -3.    0.   -0.    0.   -0.   -0.   -2.    0.   -0.    0.    2.    0.   -0.    0.   -0.
    0.   -0.    0.    0.   -0.   -0.   -0.    0.   -0.    0.

 Displacement: in terms of nc of 1 THEN of nc of 2

   1 B3g freq=    -0. Q= -0.000 lam=    -0.0 B3u freq=    -0. Q= -0.000 lam=    -0.0
   2 B2g freq=    -0. Q=  0.000 lam=    -0.0 B1g freq=     0. Q=  0.000 lam=     0.0
   3 B2u freq=    -0. Q=  0.000 lam=    -0.0 B2g freq=     0. Q=  0.000 lam=     0.0
   4 B1g freq=    -0. Q=  0.000 lam=    -0.0 B3g freq=     0. Q=  0.000 lam=     0.0
   5 B3u freq=    -0. Q= -0.000 lam=    -0.0 B2u freq=     0. Q= -0.000 lam=     0.0
   6 B1u freq=     0. Q= -0.000 lam=     0.0 B1u freq=     0. Q= -0.000 lam=     0.0
   7 B3u freq=    55. Q=  0.000 lam=     0.0 B3u freq=    52. Q=  0.000 lam=     0.0
   8 Au  freq=    89. Q= -0.000 lam=     0.0 Au  freq=    89. Q= -0.000 lam=     0.0
   9 B1g freq=   149. Q= -0.000 lam=     0.0 B1g freq=   142. Q= -0.000 lam=     0.0
  10 B1u freq=   163. Q= -0.000 lam=     0.0 B1u freq=   162. Q= -0.000 lam=     0.0
  11 B2g freq=   191. Q= -0.000 lam=     0.0 B2g freq=   192. Q= -0.000 lam=     0.0
  12 B3u freq=   271. Q= -0.000 lam=     0.0 B3u freq=   257. Q= -0.000 lam=     0.0
  13 B3g freq=   305. Q=  0.000 lam=     0.0 B3g freq=   304. Q=  0.000 lam=     0.0
  14 Au  freq=   318. Q=  0.000 lam=     0.0 Ag  freq=   316. Q=  0.129 lam=     2.6
  15 Ag  freq=   318. Q= -0.134 lam=     2.8 Au  freq=   324. Q= -0.000 lam=     0.0
  16 B1g freq=   382. Q=  0.000 lam=     0.0 B1g freq=   385. Q=  0.000 lam=     0.0
  17 B1u freq=   448. Q=  0.000 lam=     0.0 B3u freq=   445. Q=  0.000 lam=     0.0
  18 B3u freq=   472. Q=  0.000 lam=     0.0 B1u freq=   446. Q=  0.000 lam=     0.0
  19 B1g freq=   476. Q=  0.000 lam=     0.0 B3u freq=   462. Q=  0.000 lam=     0.0
  20 B3u freq=   482. Q=  0.000 lam=     0.0 B1g freq=   475. Q=  0.000 lam=     0.0
  21 B3g freq=   505. Q=  0.000 lam=     0.0 B3g freq=   493. Q=  0.000 lam=     0.0
  22 B2g freq=   519. Q=  0.000 lam=     0.0 B2g freq=   503. Q=  0.000 lam=     0.0
  23 B2u freq=   563. Q=  0.000 lam=     0.0 Au  freq=   551. Q=  0.000 lam=     0.0
  24 Au  freq=   567. Q= -0.000 lam=     0.0 B2u freq=   558. Q= -0.000 lam=     0.0
  25 B1u freq=   618. Q=  0.000 lam=     0.0 B1u freq=   622. Q=  0.000 lam=     0.0
  26 Ag  freq=   635. Q= -0.010 lam=     0.0 Ag  freq=   630. Q= -0.008 lam=     0.0
  27 B2u freq=   645. Q= -0.000 lam=     0.0 B2u freq=   634. Q= -0.000 lam=     0.0
  28 B2g freq=   734. Q=  0.000 lam=     0.0 B2g freq=   716. Q=  0.000 lam=     0.0
  29 B1g freq=   744. Q= -0.000 lam=     0.0 Au  freq=   757. Q= -0.000 lam=     0.0
  30 B2u freq=   757. Q= -0.000 lam=     0.0 Ag  freq=   763. Q= -0.053 lam=     1.1
  31 B3u freq=   757. Q=  0.000 lam=     0.0 B2g freq=   764. Q=  0.000 lam=     0.0
  32 Ag  freq=   763. Q= -0.062 lam=     1.5 B2u freq=   767. Q= -0.000 lam=     0.0
  33 Au  freq=   769. Q=  0.000 lam=     0.0 B1g freq=   768. Q=  0.000 lam=     0.0
  34 B2g freq=   777. Q=  0.000 lam=     0.0 B3u freq=   771. Q=  0.000 lam=     0.0
  35 B3g freq=   788. Q=  0.000 lam=     0.0 B3g freq=   794. Q=  0.000 lam=     0.0
  36 Au  freq=   842. Q= -0.000 lam=     0.0 Au  freq=   865. Q= -0.000 lam=     0.0
  37 B2g freq=   853. Q=  0.000 lam=     0.0 Ag  freq=   876. Q=  0.047 lam=     1.0
  38 B1g freq=   862. Q=  0.000 lam=     0.0 B2g freq=   882. Q=  0.000 lam=     0.0
  39 Ag  freq=   868. Q= -0.068 lam=     2.0 B1g freq=   899. Q= -0.000 lam=     0.0
  40 Au  freq=   890. Q= -0.000 lam=     0.0 B3g freq=   908. Q= -0.000 lam=     0.0
  41 B3g freq=   911. Q= -0.000 lam=     0.0 Au  freq=   916. Q= -0.000 lam=     0.0
  42 B3u freq=   914. Q= -0.000 lam=     0.0 B1u freq=   944. Q= -0.000 lam=     0.0
  43 B2g freq=   915. Q=  0.000 lam=     0.0 B2g freq=   945. Q=  0.000 lam=     0.0
  44 B1u freq=   945. Q= -0.000 lam=     0.0 B3u freq=   947. Q= -0.000 lam=     0.0
  45 B1g freq=   971. Q= -0.000 lam=     0.0 B1g freq=   995. Q= -0.000 lam=     0.0
  46 B3u freq=   972. Q=  0.000 lam=     0.0 B3u freq=   997. Q=  0.000 lam=     0.0
  47 Au  freq=   995. Q=  0.000 lam=     0.0 Au  freq=  1027. Q=  0.000 lam=     0.0
  48 B2g freq=   996. Q= -0.000 lam=     0.0 B2g freq=  1027. Q= -0.000 lam=     0.0
  49 B2u freq=  1020. Q=  0.000 lam=     0.0 Ag  freq=  1045. Q=  0.068 lam=     2.4
  50 Ag  freq=  1022. Q=  0.109 lam=     6.1 B2u freq=  1045. Q=  0.000 lam=     0.0
  51 B2u freq=  1147. Q=  0.000 lam=     0.0 B1u freq=  1149. Q=  0.000 lam=     0.0
  52 B1u freq=  1150. Q=  0.000 lam=     0.0 B3g freq=  1151. Q=  0.000 lam=     0.0
  53 B3g freq=  1152. Q=  0.000 lam=     0.0 B2u freq=  1184. Q=  0.000 lam=     0.0
  54 Ag  freq=  1186. Q= -0.168 lam=    16.8 Ag  freq=  1199. Q= -0.212 lam=    26.9
  55 B2u freq=  1189. Q= -0.000 lam=     0.0 B3g freq=  1202. Q= -0.000 lam=     0.0
  56 B3g freq=  1204. Q= -0.000 lam=     0.0 B2u freq=  1204. Q= -0.000 lam=     0.0
  57 B1u freq=  1223. Q=  0.000 lam=     0.0 B1u freq=  1236. Q=  0.000 lam=     0.0
  58 Ag  freq=  1224. Q= -0.317 lam=    61.5 Ag  freq=  1239. Q= -0.311 lam=    59.9
  59 B3g freq=  1291. Q=  0.000 lam=     0.0 B3g freq=  1298. Q=  0.000 lam=     0.0
  60 B1u freq=  1299. Q=  0.000 lam=     0.0 B1u freq=  1306. Q=  0.000 lam=     0.0
  61 B1u freq=  1316. Q=  0.000 lam=     0.0 B2u freq=  1310. Q=  0.000 lam=     0.0
  62 B2u freq=  1318. Q=  0.000 lam=     0.0 B1u freq=  1319. Q=  0.000 lam=     0.0
  63 B3g freq=  1360. Q= -0.000 lam=     0.0 B3g freq=  1350. Q= -0.000 lam=     0.0
  64 B2u freq=  1368. Q=  0.000 lam=     0.0 B2u freq=  1387. Q=  0.000 lam=     0.0
  65 Ag  freq=  1412. Q=  0.350 lam=    86.6 Ag  freq=  1407. Q=  0.221 lam=    34.3
  66 B1u freq=  1418. Q=  0.000 lam=     0.0 Ag  freq=  1426. Q=  0.450 lam=   144.3
  67 Ag  freq=  1424. Q=  0.267 lam=    50.9 B2u freq=  1428. Q=  0.000 lam=     0.0
  68 B2u freq=  1432. Q= -0.000 lam=     0.0 B1u freq=  1432. Q= -0.000 lam=     0.0
  69 Ag  freq=  1480. Q= -0.119 lam=    10.5 Ag  freq=  1481. Q= -0.013 lam=     0.1
  70 B3g freq=  1482. Q=  0.000 lam=     0.0 B3g freq=  1484. Q=  0.000 lam=     0.0
  71 B2u freq=  1501. Q=  0.000 lam=     0.0 B2u freq=  1513. Q=  0.000 lam=     0.0
  72 Ag  freq=  1558. Q= -0.209 lam=    34.1 Ag  freq=  1546. Q= -0.308 lam=    73.6
  73 Ag  freq=  1578. Q= -0.494 lam=   192.8 B3g freq=  1563. Q= -0.000 lam=     0.0
  74 B2u freq=  1584. Q=  0.000 lam=     0.0 B2u freq=  1569. Q=  0.000 lam=     0.0
  75 B1u freq=  1609. Q= -0.000 lam=     0.0 B1u freq=  1573. Q= -0.000 lam=     0.0
  76 B3g freq=  1649. Q=  0.000 lam=     0.0 Ag  freq=  1585. Q=  0.391 lam=   121.1
  77 B3g freq=  1663. Q= -0.000 lam=     0.0 B3g freq=  1629. Q= -0.000 lam=     0.0
  78 B1u freq=  1677. Q=  0.000 lam=     0.0 B1u freq=  1633. Q=  0.000 lam=     0.0
  79 B3g freq=  3153. Q=  0.000 lam=     0.0 B3g freq=  3174. Q=  0.000 lam=     0.0
  80 B2u freq=  3155. Q=  0.000 lam=     0.0 B2u freq=  3176. Q=  0.000 lam=     0.0
  81 B1u freq=  3156. Q=  0.000 lam=     0.0 B1u freq=  3177. Q=  0.000 lam=     0.0
  82 B3g freq=  3157. Q= -0.000 lam=     0.0 Ag  freq=  3179. Q= -0.014 lam=     0.3
  83 Ag  freq=  3159. Q=  0.008 lam=     0.1 B3g freq=  3182. Q=  0.000 lam=     0.0
  84 B1u freq=  3159. Q=  0.000 lam=     0.0 B1u freq=  3182. Q=  0.000 lam=     0.0
  85 B2u freq=  3162. Q=  0.000 lam=     0.0 B2u freq=  3185. Q=  0.000 lam=     0.0
  86 Ag  freq=  3163. Q=  0.015 lam=     0.4 Ag  freq=  3185. Q=  0.015 lam=     0.3
  87 B3g freq=  3175. Q=  0.000 lam=     0.0 B3g freq=  3196. Q=  0.000 lam=     0.0
  88 B1u freq=  3175. Q=  0.000 lam=     0.0 B1u freq=  3196. Q=  0.000 lam=     0.0
  89 B2u freq=  3187. Q=  0.000 lam=     0.0 B2u freq=  3206. Q=  0.000 lam=     0.0
  90 Ag  freq=  3187. Q= -0.031 lam=     1.5 Ag  freq=  3206. Q= -0.026 lam=     1.1

 total reorg energy (cm**-1, kcal/mol)=      468.      469.      1.34      1.34
 Nber of molecules processed=           2
