 Enter ifcurve (0=recti, 1=orth curvi, 2=apprx curvi, -1 = skip
 And atom ordering flag, 0= never changes, 1= use the first order thenceforth,
  2= deduce it (does read on fail), 3= always read it
 Reading file: 
 ./PDI_0_C0S1.log                                                               
                                          
  Entering Gaussian System, Link 0=g16                                          
  
 Gaussian format, type: g94, g98, g03= F F F
  #P Geom=AllCheck Guess=TCheck SCRF=Check GenChk RB3LYP TD(FC,Read)/6-3    
 energy type= TD      
 Original G94 input coords:
  6  1.005637  0.241714  0.098414
  6  2.509993 -0.045104  0.143676
  6  3.096443 -0.011307  1.558695
  7  2.852608 -1.318678 -0.567075
  6  2.359097 -2.531747 -0.072261
  8  1.655199 -2.575663  0.926048
  6  2.723172 -3.763117 -0.805894
  6  2.248023 -4.995832 -0.342025
  6  2.570129 -6.163187 -1.003547
  6  3.387427 -6.161092 -2.168043
  6  3.732192 -7.372517 -2.868648
  6  3.275526 -8.648492 -2.438624
  6  3.611572 -9.802274 -3.116285
  6  4.419325 -9.745169 -4.256673
  6  4.760876-10.998757 -4.959216
  8  4.379729-12.100903 -4.606687
  7  5.568548-10.844136 -6.082752
  1  5.811285-11.695850 -6.575454
  6  6.084336 -9.664485 -6.613815
  8  6.783116 -9.678570 -7.611699
  6  5.718520 -8.435825 -5.880851
  6  6.190908 -7.202227 -6.340651
  6  5.866060 -6.037090 -5.677068
  6  5.048283 -6.045515 -4.514082
  6  4.702760 -4.834569 -3.813151
  6  5.155692 -3.554697 -4.238037
  6  4.817461 -2.403063 -3.557235
  6  4.009126 -2.464791 -2.415309
  6  3.666587 -1.212222 -1.710346
  8  4.075031 -0.131495 -2.106503
  6  3.536548 -3.712122 -1.957026
  6  3.878303 -4.912046 -2.651657
  6  4.557871 -7.297184 -4.031613
  6  4.900306 -8.498697 -4.726566
  1  0.823322  1.244319  0.494790
  1  0.440470 -0.475341  0.692395
  1  0.638363  0.218918 -0.930858
  1  3.016863  0.711592 -0.450991
  1  2.616702 -0.739552  2.211336
  1  2.948596  0.986534  1.980608
  1  4.171572 -0.207296  1.536510
  1  1.625942 -5.004680  0.543616
  1  2.185404 -7.096036 -0.616700
  1  2.649730 -8.729769 -1.561404
  1  3.261375-10.771670 -2.784805
  1  6.814069 -7.190258 -7.225967
  1  6.248642 -5.101950 -6.060358
  1  5.781231 -3.468070 -5.115022
  1  5.166038 -1.432942 -3.886920
 nber atoms=          49
  Total Energy, E(TD-HF/TD-DFT) =  -1449.32260599                               
  
          32          49 "  -1449.32260599"
After scan for Atom:   Atom  AN      X      Y      Z        X      Y      Z        X      Y      Z   
After scan for Atom:   Atom  AN      X      Y      Z        X      Y      Z        X      Y      Z   
After scan for Atom:   Atom  AN      X      Y      Z        X      Y      Z        X      Y      Z   
After scan for Atom:   Atom  AN      X      Y      Z        X      Y      Z        X      Y      Z   
After scan for Atom:   Atom  AN      X      Y      Z        X      Y      Z        X      Y      Z   
After scan for Atom:   Atom  AN      X      Y      Z        X      Y      Z        X      Y      Z   
After scan for Atom:   Atom  AN      X      Y      Z        X      Y      Z        X      Y      Z   
After scan for Atom:   Atom  AN      X      Y      Z        X      Y      Z        X      Y      Z   
After scan for Atom:   Atom  AN      X      Y      Z        X      Y      Z        X      Y      Z   
After scan for Atom:   Atom  AN      X      Y      Z        X      Y      Z        X      Y      Z   
After scan for Atom:   Atom  AN      X      Y      Z        X      Y      Z        X      Y      Z   
After scan for Atom:   Atom  AN      X      Y      Z        X      Y      Z        X      Y      Z   
After scan for Atom:   Atom  AN      X      Y      Z        X      Y      Z        X      Y      Z   
After scan for Atom:   Atom  AN      X      Y      Z        X      Y      Z        X      Y      Z   
After scan for Atom:   Atom  AN      X      Y      Z        X      Y      Z        X      Y      Z   
After scan for Atom:   Atom  AN      X      Y      Z        X      Y      Z        X      Y      Z   
After scan for Atom:   Atom  AN      X      Y      Z        X      Y      Z        X      Y      Z   
After scan for Atom:   Atom  AN      X      Y      Z        X      Y      Z        X      Y      Z   
After scan for Atom:   Atom  AN      X      Y      Z        X      Y      Z        X      Y      Z   
After scan for Atom:   Atom  AN      X      Y      Z        X      Y      Z        X      Y      Z   
After scan for Atom:   Atom  AN      X      Y      Z        X      Y      Z        X      Y      Z   
After scan for Atom:   Atom  AN      X      Y      Z        X      Y      Z        X      Y      Z   
After scan for Atom:   Atom  AN      X      Y      Z        X      Y      Z        X      Y      Z   
After scan for Atom:   Atom  AN      X      Y      Z        X      Y      Z        X      Y      Z   
After scan for Atom:   Atom  AN      X      Y      Z        X      Y      Z        X      Y      Z   
After scan for Atom:   Atom  AN      X      Y      Z        X      Y      Z        X      Y      Z   
After scan for Atom:   Atom  AN      X      Y      Z        X      Y      Z        X      Y      Z   
After scan for Atom:   Atom  AN      X      Y      Z        X      Y      Z        X      Y      Z   
After scan for Atom:   Atom  AN      X      Y      Z        X      Y      Z        X      Y      Z   
After scan for Atom:   Atom  AN      X      Y      Z        X      Y      Z        X      Y      Z   
After scan for Atom:   Atom  AN      X      Y      Z        X      Y      Z        X      Y      Z   
After scan for Atom:   Atom  AN      X      Y      Z        X      Y      Z        X      Y      Z   
After scan for Atom:   Atom  AN      X      Y      Z        X      Y      Z        X      Y      Z   
After scan for Atom:   Atom  AN      X      Y      Z        X      Y      Z        X      Y      Z   
After scan for Atom:   Atom  AN      X      Y      Z        X      Y      Z        X      Y      Z   
After scan for Atom:   Atom  AN      X      Y      Z        X      Y      Z        X      Y      Z   
After scan for Atom:   Atom  AN      X      Y      Z        X      Y      Z        X      Y      Z   
After scan for Atom:   Atom  AN      X      Y      Z        X      Y      Z        X      Y      Z   
After scan for Atom:   Atom  AN      X      Y      Z        X      Y      Z        X      Y      Z   
After scan for Atom:   Atom  AN      X      Y      Z        X      Y      Z        X      Y      Z   
After scan for Atom:   Atom  AN      X      Y      Z        X      Y      Z        X      Y      Z   
After scan for Atom:   Atom  AN      X      Y      Z        X      Y      Z        X      Y      Z   
After scan for Atom:   Atom  AN      X      Y      Z        X      Y      Z        X      Y      Z   
After scan for Atom:   Atom  AN      X      Y      Z        X      Y      Z        X      Y      Z   
After scan for Atom:   Atom  AN      X      Y      Z        X      Y      Z        X      Y      Z   
After scan for Atom:   Atom  AN      X      Y      Z        X      Y      Z        X      Y      Z   
After scan for Atom:   Atom  AN      X      Y      Z        X      Y      Z        X      Y      Z   
 g94    frequencies=
     0.0    0.0    0.0    0.0    0.0    0.0   25.3   28.9   53.7   57.1
    79.4   91.1   97.9  110.4  147.4  167.7  185.7  190.5  200.8  208.0
   212.8  234.8  235.8  257.3  278.2  291.0  302.6  325.4  348.9  376.9
   389.2  417.9  423.3  433.1  436.3  439.1  447.0  474.9  483.1  487.9
   494.2  506.9  514.2  545.4  560.4  573.1  576.4  605.7  612.4  626.2
   652.8  655.8  675.5  689.5  690.1  712.4  728.7  736.8  754.3  761.0
   764.2  770.2  778.0  802.2  813.9  815.1  821.4  831.3  833.6  845.1
   862.6  913.2  926.6  945.3  956.6  974.5  974.6  976.3  987.6  988.2
  1053.1 1083.3 1093.6 1121.4 1152.1 1155.4 1159.6 1175.9 1185.9 1196.0
  1200.0 1205.8 1224.1 1232.6 1243.1 1263.8 1296.3 1311.4 1318.4 1349.2
  1355.8 1363.8 1382.1 1382.2 1392.3 1400.2 1401.0 1413.1 1416.3 1430.2
  1439.6 1441.3 1460.5 1467.1 1484.9 1489.6 1497.6 1505.2 1512.3 1522.5
  1547.0 1556.9 1568.1 1578.7 1597.7 1598.3 1622.3 1685.6 1725.0 1742.8
  1744.8 3034.3 3038.4 3092.2 3095.4 3112.5 3132.5 3142.9 3197.5 3197.8
  3203.5 3203.7 3212.4 3212.5 3224.6 3224.9 3580.1
 g94    symmetries=
                                                 A      A      A      A
       A      A      A      A      A      A      A      A      A      A
       A      A      A      A      A      A      A      A      A      A
       A      A      A      A      A      A      A      A      A      A
       A      A      A      A      A      A      A      A      A      A
       A      A      A      A      A      A      A      A      A      A
       A      A      A      A      A      A      A      A      A      A
       A      A      A      A      A      A      A      A      A      A
       A      A      A      A      A      A      A      A      A      A
       A      A      A      A      A      A      A      A      A      A
       A      A      A      A      A      A      A      A      A      A
       A      A      A      A      A      A      A      A      A      A
       A      A      A      A      A      A      A      A      A      A
       A      A      A      A      A      A      A      A      A      A
       A      A      A      A      A      A      A
 atomic masses:
 12.0000 12.0000 12.0000 14.0031 12.0000 15.9949 12.0000 12.0000 12.0000 12.0000
 12.0000 12.0000 12.0000 12.0000 12.0000 15.9949 14.0031  1.0078 12.0000 15.9949
 12.0000 12.0000 12.0000 12.0000 12.0000 12.0000 12.0000 12.0000 12.0000 15.9949
 12.0000 12.0000 12.0000 12.0000  1.0078  1.0078  1.0078  1.0078  1.0078  1.0078
  1.0078  1.0078  1.0078  1.0078  1.0078  1.0078  1.0078  1.0078  1.0078
 looking for force constants in 
 ./PDI_0_C0S1.fchk                                                              
  
 Cartesian Force Constants                  R   N=       10878                  
  
 n3=         147       10878
 g94-fc frequencies=
    -2.3   -0.0    0.0    0.0    1.0    2.5   25.4   28.9   53.7   57.1
    79.4   91.1   97.9  110.4  147.4  167.7  185.7  190.5  200.8  208.0
   212.8  234.8  235.8  257.3  278.2  291.0  302.6  325.4  348.9  376.9
   389.2  417.9  423.3  433.1  436.3  439.1  447.0  474.9  483.1  487.9
   494.2  507.0  514.2  545.4  560.4  573.1  576.4  605.8  612.4  626.2
   652.8  655.8  675.6  689.5  690.1  712.4  728.8  736.8  754.4  761.1
   764.2  770.2  778.0  802.2  813.9  815.1  821.4  831.3  833.6  845.1
   862.6  913.2  926.6  945.3  956.6  974.5  974.7  976.3  987.6  988.3
  1053.1 1083.4 1093.6 1121.5 1152.2 1155.5 1159.7 1175.9 1186.0 1196.0
  1200.0 1205.8 1224.2 1232.6 1243.1 1263.8 1296.3 1311.4 1318.4 1349.2
  1355.9 1363.9 1382.1 1382.3 1392.4 1400.3 1401.1 1413.1 1416.4 1430.2
  1439.6 1441.3 1460.5 1467.1 1484.9 1489.7 1497.6 1505.2 1512.4 1522.5
  1547.1 1556.9 1568.1 1578.8 1597.8 1598.4 1622.3 1685.6 1725.1 1742.9
  1744.9 3034.3 3038.4 3092.3 3095.5 3112.5 3132.6 3142.9 3197.5 3197.9
  3203.6 3203.8 3212.5 3212.6 3224.6 3224.9 3580.1
 at 99999: n3=         147
 symm operator            1 :  F  nop=           0
 symm operator            2 :  F  nop=           0
 symm operator            3 :  F  nop=           0
 symm operator            4 :  F  nop=           0
 symm operator            5 :  F  nop=           0
 symm operator            6 :  F  nop=           0
 symm operator            7 :  F  nop=           0
 The point group of the molecule is  C1
 Symmetry rotation matrix:
   1.00000   0.00000   0.00000
   0.00000   1.00000   0.00000
   0.00000   0.00000   1.00000

 Projecting out zero-frequency components
 generating redundant internal coords
         300        3600          49
 search for int coords
   1 str   2   1   1.532
   2 str   3   2   1.532
   3 str   4   2   1.498
   4 str   5   4   1.400
   5 str   6   5   1.222
   6 str   7   5   1.479
   7 str   8   7   1.400
   8 str   9   8   1.380
   9 str  10   9   1.423
  10 str  11  10   1.441
  11 str  12  11   1.422
  12 str  13  12   1.380
  13 str  14  13   1.399
  14 str  15  14   1.477
  15 str  16  15   1.218
  16 str  17  15   1.392
  17 str  18  16   2.468
  18 str  18  17   1.013
  19 str  19  17   1.393
  20 str  20  18   2.467
  21 str  20  19   1.218
  22 str  21  19   1.477
  23 str  22  21   1.399
  24 str  23  22   1.380
  25 str  24  23   1.422
  26 str  25  24   1.441
  27 str  26  25   1.423
  28 str  27  26   1.380
  29 str  28  27   1.400
  30 str  29   4   1.407
  31 str  29  28   1.478
  32 str  30  29   1.221
  33 str  31   7   1.410
  34 str  31  28   1.410
  35 str  32  10   1.427
  36 str  32  25   1.426
  37 str  32  31   1.428
  38 str  33  11   1.428
  39 str  33  24   1.428
  40 str  34  14   1.416
  41 str  34  21   1.416
  42 str  34  33   1.430
  43 str  35   1   1.093
  44 str  36   1   1.089
  45 str  37   1   1.093
  46 str  38   2   1.088
  47 str  39   3   1.089
  48 str  40   3   1.093
  49 str  41   3   1.093
  50 str  42   8   1.082
  51 str  43   9   1.081
  52 str  44  12   1.081
  53 str  45  13   1.083
  54 str  46  22   1.083
  55 str  47  23   1.081
  56 str  48  26   1.081
  57 str  49  27   1.082
 nber stretches=          57
  58 ben   1   2   3
  59 prop tor   1   2   3  39
  60 prop tor   1   2   3  40
  61 prop tor   1   2   3  41
  62 ben   1   2   4
  63 prop tor   1   2   4   5
  64 prop tor   1   2   4  29
  65 ben   1   2  38
  66 ben   2   1  35
  67 ben   2   1  36
  68 ben   2   1  37
  69 ben   2   3  39
  70 ben   2   3  40
  71 ben   2   3  41
  72 ben   2   4   5
  73 prop tor   2   4   5   6
  74 prop tor   2   4   5   7
  75 ben   2   4  29
  76 prop tor   2   4  29  28
  77 prop tor   2   4  29  30
  78 ben   3   2   4
  79 prop tor   3   2   4   5
  80 prop tor   3   2   4  29
  81 ben   3   2  38
  82 prop tor   4   2   3  39
  83 prop tor   4   2   3  40
  84 prop tor   4   2   3  41
  85 ben   4   2  38
  86 ben   4   5   6
  87 ben   4   5   7
  88 prop tor   4   5   7   8
  89 prop tor   4   5   7  31
  90 ben   4  29  28
  91 ben   4  29  30
  92 ben   5   4  29
  93 prop tor   5   4  29  28
  94 prop tor   5   4  29  30
  95 ben   5   7   8
  96 prop tor   5   7   8   9
  97 prop tor   5   7   8  42
  98 ben   5   7  31
  99 prop tor   5   7  31  28
 100 prop tor   5   7  31  32
 101 ben   6   5   7
 102 prop tor   6   5   7   8
 103 prop tor   6   5   7  31
 104 ben   7   8   9
 105 prop tor   7   8   9  10
 106 prop tor   7   8   9  43
 107 ben   7   8  42
 108 ben   7  31  28
 109 ben   7  31  32
 110 prop tor   7  31  32  10
 111 prop tor   7  31  32  25
 112 ben   8   7  31
 113 prop tor   8   7  31  28
 114 prop tor   8   7  31  32
 115 ben   8   9  10
 116 prop tor   8   9  10  11
 117 prop tor   8   9  10  32
 118 ben   8   9  43
 119 ben   9   8  42
 120 ben   9  10  11
 121 prop tor   9  10  11  12
 122 prop tor   9  10  11  33
 123 ben   9  10  32
 124 prop tor   9  10  32  25
 125 prop tor   9  10  32  31
 126 ben  10   9  43
 127 ben  10  11  12
 128 prop tor  10  11  12  13
 129 prop tor  10  11  12  44
 130 ben  10  11  33
 131 prop tor  10  11  33  24
 132 prop tor  10  11  33  34
 133 ben  10  32  25
 134 ben  10  32  31
 135 ben  11  10  32
 136 prop tor  11  10  32  25
 137 prop tor  11  10  32  31
 138 ben  11  12  13
 139 prop tor  11  12  13  14
 140 prop tor  11  12  13  45
 141 ben  11  12  44
 142 ben  11  33  24
 143 ben  11  33  34
 144 prop tor  11  33  34  14
 145 prop tor  11  33  34  21
 146 ben  12  11  33
 147 prop tor  12  11  33  24
 148 prop tor  12  11  33  34
 149 ben  12  13  14
 150 prop tor  12  13  14  15
 151 prop tor  12  13  14  34
 152 ben  12  13  45
 153 ben  13  12  44
 154 ben  13  14  15
 155 prop tor  13  14  15  16
 156 prop tor  13  14  15  17
 157 ben  13  14  34
 158 prop tor  13  14  34  21
 159 prop tor  13  14  34  33
 160 ben  14  13  45
 161 ben  14  15  16
 162 prop tor  14  15  16  18
 163 ben  14  15  17
 164 prop tor  14  15  17  18
 165 prop tor  14  15  17  19
 166 ben  14  34  21
 167 ben  14  34  33
 168 ben  15  14  34
 169 prop tor  15  14  34  21
 170 prop tor  15  14  34  33
 171 ben  15  16  18
 172 prop tor  15  16  18  17
 173 prop tor  15  16  18  20
 174 ben  15  17  18
 175 prop tor  15  17  18  16
 176 prop tor  15  17  18  20
 177 ben  15  17  19
 178 prop tor  15  17  19  20
 179 prop tor  15  17  19  21
 180 ben  16  15  17
 181 prop tor  16  15  17  18
 182 prop tor  16  15  17  19
 183 ben  16  18  17
 184 ben  16  18  20
 185 prop tor  16  18  20  19
 186 prop tor  17  15  16  18
 187 ben  17  18  20
 188 prop tor  17  18  20  19
 189 ben  17  19  20
 190 prop tor  17  19  20  18
 191 ben  17  19  21
 192 prop tor  17  19  21  22
 193 prop tor  17  19  21  34
 194 ben  18  17  19
 195 prop tor  18  17  19  20
 196 prop tor  18  17  19  21
 197 ben  18  20  19
 198 prop tor  19  17  18  16
 199 prop tor  19  17  18  20
 200 ben  19  21  22
 201 prop tor  19  21  22  23
 202 prop tor  19  21  22  46
 203 ben  19  21  34
 204 prop tor  19  21  34  14
 205 prop tor  19  21  34  33
 206 ben  20  19  21
 207 prop tor  20  19  21  22
 208 prop tor  20  19  21  34
 209 prop tor  21  19  20  18
 210 ben  21  22  23
 211 prop tor  21  22  23  24
 212 prop tor  21  22  23  47
 213 ben  21  22  46
 214 ben  21  34  33
 215 ben  22  21  34
 216 prop tor  22  21  34  14
 217 prop tor  22  21  34  33
 218 ben  22  23  24
 219 prop tor  22  23  24  25
 220 prop tor  22  23  24  33
 221 ben  22  23  47
 222 ben  23  22  46
 223 ben  23  24  25
 224 prop tor  23  24  25  26
 225 prop tor  23  24  25  32
 226 ben  23  24  33
 227 prop tor  23  24  33  11
 228 prop tor  23  24  33  34
 229 ben  24  23  47
 230 ben  24  25  26
 231 prop tor  24  25  26  27
 232 prop tor  24  25  26  48
 233 ben  24  25  32
 234 prop tor  24  25  32  10
 235 prop tor  24  25  32  31
 236 ben  24  33  34
 237 prop tor  24  33  34  14
 238 prop tor  24  33  34  21
 239 ben  25  24  33
 240 prop tor  25  24  33  11
 241 prop tor  25  24  33  34
 242 ben  25  26  27
 243 prop tor  25  26  27  28
 244 prop tor  25  26  27  49
 245 ben  25  26  48
 246 ben  25  32  31
 247 ben  26  25  32
 248 prop tor  26  25  32  10
 249 prop tor  26  25  32  31
 250 ben  26  27  28
 251 prop tor  26  27  28  29
 252 prop tor  26  27  28  31
 253 ben  26  27  49
 254 ben  27  26  48
 255 ben  27  28  29
 256 prop tor  27  28  29   4
 257 prop tor  27  28  29  30
 258 ben  27  28  31
 259 prop tor  27  28  31   7
 260 prop tor  27  28  31  32
 261 ben  28  27  49
 262 ben  28  29  30
 263 ben  28  31  32
 264 prop tor  28  31  32  10
 265 prop tor  28  31  32  25
 266 prop tor  29   4   5   6
 267 prop tor  29   4   5   7
 268 ben  29  28  31
 269 prop tor  29  28  31   7
 270 prop tor  29  28  31  32
 271 prop tor  31   7   8   9
 272 prop tor  31   7   8  42
 273 prop tor  31  28  29   4
 274 prop tor  31  28  29  30
 275 prop tor  32  10  11  12
 276 prop tor  32  10  11  33
 277 prop tor  32  25  26  27
 278 prop tor  32  25  26  48
 279 prop tor  33  11  12  13
 280 prop tor  33  11  12  44
 281 prop tor  33  24  25  26
 282 prop tor  33  24  25  32
 283 prop tor  34  14  15  16
 284 prop tor  34  14  15  17
 285 prop tor  34  21  22  23
 286 prop tor  34  21  22  46
 287 prop tor  35   1   2   3
 288 prop tor  35   1   2   4
 289 prop tor  35   1   2  38
 290 ben  35   1  36
 291 ben  35   1  37
 292 prop tor  36   1   2   3
 293 prop tor  36   1   2   4
 294 prop tor  36   1   2  38
 295 ben  36   1  37
 296 prop tor  37   1   2   3
 297 prop tor  37   1   2   4
 298 prop tor  37   1   2  38
 299 prop tor  38   2   3  39
 300 prop tor  38   2   3  40
 301 prop tor  38   2   3  41
 302 prop tor  38   2   4   5
 303 prop tor  38   2   4  29
 304 ben  39   3  40
 305 ben  39   3  41
 306 ben  40   3  41
 307 prop tor  42   8   9  10
 308 prop tor  42   8   9  43
 309 prop tor  43   9  10  11
 310 prop tor  43   9  10  32
 311 prop tor  44  12  13  14
 312 prop tor  44  12  13  45
 313 prop tor  45  13  14  15
 314 prop tor  45  13  14  34
 315 prop tor  46  22  23  24
 316 prop tor  46  22  23  47
 317 prop tor  47  23  24  25
 318 prop tor  47  23  24  33
 319 prop tor  48  26  27  28
 320 prop tor  48  26  27  49
 321 prop tor  49  27  28  29
 322 prop tor  49  27  28  31
 nber bend=             101
 nber lin bend=           0
 nber prop tor=         164
 nber impr tor=           0
 nber tot redund int=         322
 Eigenvalues of G in red int coords
    Gval -0.00000000 -0.00000000 -0.00000000 -0.00000000 -0.00000000 -0.00000000 -0.00000000 -0.00000000
    Gval -0.00000000 -0.00000000 -0.00000000 -0.00000000 -0.00000000 -0.00000000 -0.00000000 -0.00000000
    Gval -0.00000000 -0.00000000 -0.00000000 -0.00000000 -0.00000000 -0.00000000 -0.00000000 -0.00000000
    Gval -0.00000000 -0.00000000 -0.00000000 -0.00000000 -0.00000000 -0.00000000 -0.00000000 -0.00000000
    Gval -0.00000000 -0.00000000 -0.00000000 -0.00000000 -0.00000000 -0.00000000 -0.00000000 -0.00000000
    Gval -0.00000000 -0.00000000 -0.00000000 -0.00000000 -0.00000000 -0.00000000 -0.00000000 -0.00000000
    Gval -0.00000000 -0.00000000 -0.00000000 -0.00000000 -0.00000000 -0.00000000 -0.00000000 -0.00000000
    Gval -0.00000000 -0.00000000 -0.00000000 -0.00000000 -0.00000000 -0.00000000 -0.00000000 -0.00000000
    Gval -0.00000000 -0.00000000 -0.00000000 -0.00000000 -0.00000000 -0.00000000 -0.00000000 -0.00000000
    Gval -0.00000000 -0.00000000 -0.00000000 -0.00000000 -0.00000000 -0.00000000 -0.00000000 -0.00000000
    Gval -0.00000000 -0.00000000 -0.00000000 -0.00000000 -0.00000000 -0.00000000 -0.00000000 -0.00000000
    Gval -0.00000000  0.00000000  0.00000000  0.00000000  0.00000000  0.00000000  0.00000000  0.00000000
    Gval  0.00000000  0.00000000  0.00000000  0.00000000  0.00000000  0.00000000  0.00000000  0.00000000
    Gval  0.00000000  0.00000000  0.00000000  0.00000000  0.00000000  0.00000000  0.00000000  0.00000000
    Gval  0.00000000  0.00000000  0.00000000  0.00000000  0.00000000  0.00000000  0.00000000  0.00000000
    Gval  0.00000000  0.00000000  0.00000000  0.00000000  0.00000000  0.00000000  0.00000000  0.00000000
    Gval  0.00000000  0.00000000  0.00000000  0.00000000  0.00000000  0.00000000  0.00000000  0.00000000
    Gval  0.00000000  0.00000000  0.00000000  0.00000000  0.00000000  0.00000000  0.00000000  0.00000000
    Gval  0.00000000  0.00000000  0.00000000  0.00000000  0.00000000  0.00000000  0.00000000  0.00000000
    Gval  0.00000000  0.00000000  0.00000000  0.00000000  0.00000000  0.00000000  0.00000000  0.00000000
    Gval  0.00000000  0.00000000  0.00000000  0.00000000  0.00000000  0.00000000  0.00000000  0.00000000
    Gval  0.00000000  0.00000000  0.00000000  0.00000000  0.00000000  0.00000000  0.00000000  0.00000000
    Gval  0.00000000  0.00000000  0.00000000  0.00000000  0.00000000  0.00000136  0.00000297  0.00000342
    Gval  0.00000534  0.00000881  0.00001050  0.00001119  0.00001437  0.00001511  0.00001577  0.00001779
    Gval  0.00001834  0.00002137  0.00002301  0.00002419  0.00002609  0.00002890  0.00003047  0.00003593
    Gval  0.00003994  0.00004473  0.00005041  0.00005230  0.00005418  0.00005472  0.00005747  0.00005905
    Gval  0.00006392  0.00006925  0.00007267  0.00007525  0.00008134  0.00008258  0.00008561  0.00008740
    Gval  0.00008916  0.00009271  0.00009792  0.00009906  0.00011922  0.00012616  0.00012829  0.00013670
    Gval  0.00013962  0.00013998  0.00014109  0.00016038  0.00016314  0.00016768  0.00018180  0.00018644
    Gval  0.00021080  0.00022479  0.00022623  0.00023324  0.00024875  0.00028024  0.00028936  0.00029403
    Gval  0.00030950  0.00034561  0.00037150  0.00038098  0.00039014  0.00039429  0.00039561  0.00039695
    Gval  0.00042733  0.00043487  0.00043496  0.00043540  0.00044182  0.00044459  0.00046275  0.00046605
    Gval  0.00046958  0.00048052  0.00049481  0.00052646  0.00053445  0.00053716  0.00055410  0.00055446
    Gval  0.00055601  0.00055700  0.00059850  0.00059924  0.00059957  0.00059986  0.00060219  0.00064076
    Gval  0.00064273  0.00064427  0.00064500  0.00064685  0.00067407  0.00069716  0.00069774  0.00080325
    Gval  0.00084700  0.00089724  0.00105737  0.00109321  0.00109415  0.00109482  0.00109535  0.00114291
    Gval  0.00116535  0.00116552  0.00116583  0.00116607  0.00116870  0.00117124  0.00117193  0.00128523
    Gval  0.00129540  0.00132511  0.00134387  0.00153608  0.00155061  0.00175982  0.00178513  0.00192395
    Gval  0.00227953  0.00234964  0.00252666  0.00254215  0.00258811  0.00278800  0.00292176  0.00292811
    Gval  0.00302350  0.00304207  0.00308123  0.00309621  0.00367642  0.00367834  0.00372295  0.00372477
    Gval  0.00394537  0.00546858
  1.360837761096878E-006  1.360837761096878E-006
  2.965107552110773E-006  1.360837761096878E-006
  3.417844363131507E-006  1.360837761096878E-006
  5.342765260199398E-006  1.360837761096878E-006
  8.813260434244647E-006  1.360837761096878E-006
  1.049553325446039E-005  1.360837761096878E-006
  1.119378863551788E-005  1.360837761096878E-006
  1.436656937498137E-005  1.360837761096878E-006
  1.510713543972652E-005  1.360837761096878E-006
  1.577020943634391E-005  1.360837761096878E-006
  1.779272303595767E-005  1.360837761096878E-006
  1.834312490523933E-005  1.360837761096878E-006
  2.136658219161780E-005  1.360837761096878E-006
  2.301418934500676E-005  1.360837761096878E-006
  2.418835264834192E-005  1.360837761096878E-006
  2.608538412411114E-005  1.360837761096878E-006
  2.890418169719657E-005  1.360837761096878E-006
  3.047313603117042E-005  1.360837761096878E-006
  3.592930505373362E-005  1.360837761096878E-006
  3.994085940556691E-005  1.360837761096878E-006
  4.473459482697854E-005  1.360837761096878E-006
  5.040713415922840E-005  1.360837761096878E-006
  5.230036942296558E-005  1.360837761096878E-006
  5.418462698990945E-005  1.360837761096878E-006
  5.472308015171195E-005  1.360837761096878E-006
  5.746718208316250E-005  1.360837761096878E-006
  5.905372110792923E-005  1.360837761096878E-006
  6.391648355028932E-005  1.360837761096878E-006
  6.924610716070739E-005  1.360837761096878E-006
  7.267177267476817E-005  1.360837761096878E-006
  7.525464211547086E-005  1.360837761096878E-006
  8.134115691006305E-005  1.360837761096878E-006
  8.257628418525805E-005  1.360837761096878E-006
  8.561030707755952E-005  1.360837761096878E-006
  8.739542207185575E-005  1.360837761096878E-006
  8.916360060920275E-005  1.360837761096878E-006
  9.271071356637152E-005  1.360837761096878E-006
  9.791686051862397E-005  1.360837761096878E-006
  9.905824039346760E-005  1.360837761096878E-006
  1.192184446758464E-004  1.360837761096878E-006
  1.261581414838844E-004  1.360837761096878E-006
  1.282895756255887E-004  1.360837761096878E-006
  1.366986433167655E-004  1.360837761096878E-006
  1.396215593400373E-004  1.360837761096878E-006
  1.399846911702984E-004  1.360837761096878E-006
  1.410914879532522E-004  1.360837761096878E-006
  1.603804078776193E-004  1.360837761096878E-006
  1.631421006736905E-004  1.360837761096878E-006
  1.676821338068554E-004  1.360837761096878E-006
  1.817975133967409E-004  1.360837761096878E-006
  1.864376149530126E-004  1.360837761096878E-006
  2.107985019187272E-004  1.360837761096878E-006
  2.247872617372784E-004  1.360837761096878E-006
  2.262330679793259E-004  1.360837761096878E-006
  2.332382328809731E-004  1.360837761096878E-006
  2.487532980997705E-004  1.360837761096878E-006
  2.802405059889308E-004  1.360837761096878E-006
  2.893561685029911E-004  1.360837761096878E-006
  2.940295605329997E-004  1.360837761096878E-006
  3.095016235439550E-004  1.360837761096878E-006
  3.456131385898149E-004  1.360837761096878E-006
  3.714970937019703E-004  1.360837761096878E-006
  3.809847916612834E-004  1.360837761096878E-006
  3.901436915954105E-004  1.360837761096878E-006
  3.942892896675416E-004  1.360837761096878E-006
  3.956133443808803E-004  1.360837761096878E-006
  3.969534861383856E-004  1.360837761096878E-006
  4.273347740731623E-004  1.360837761096878E-006
  4.348704251045906E-004  1.360837761096878E-006
  4.349583347477436E-004  1.360837761096878E-006
  4.353961593711052E-004  1.360837761096878E-006
  4.418162350990211E-004  1.360837761096878E-006
  4.445860210917518E-004  1.360837761096878E-006
  4.627451959281050E-004  1.360837761096878E-006
  4.660533963495570E-004  1.360837761096878E-006
  4.695803847195979E-004  1.360837761096878E-006
  4.805228648010506E-004  1.360837761096878E-006
  4.948080076725851E-004  1.360837761096878E-006
  5.264597382202985E-004  1.360837761096878E-006
  5.344540615068791E-004  1.360837761096878E-006
  5.371631070375533E-004  1.360837761096878E-006
  5.540969083927202E-004  1.360837761096878E-006
  5.544579896206643E-004  1.360837761096878E-006
  5.560144820344111E-004  1.360837761096878E-006
  5.570001927744542E-004  1.360837761096878E-006
  5.984999356537392E-004  1.360837761096878E-006
  5.992448814283578E-004  1.360837761096878E-006
  5.995723754532971E-004  1.360837761096878E-006
  5.998561497153092E-004  1.360837761096878E-006
  6.021871059104293E-004  1.360837761096878E-006
  6.407604713518247E-004  1.360837761096878E-006
  6.427339634507560E-004  1.360837761096878E-006
  6.442715296116213E-004  1.360837761096878E-006
  6.450038309459729E-004  1.360837761096878E-006
  6.468477575737139E-004  1.360837761096878E-006
  6.740707516851923E-004  1.360837761096878E-006
  6.971562817766173E-004  1.360837761096878E-006
  6.977379675509727E-004  1.360837761096878E-006
  8.032456546775064E-004  1.360837761096878E-006
  8.469994992352475E-004  1.360837761096878E-006
  8.972391878960584E-004  1.360837761096878E-006
  1.057365258888111E-003  1.360837761096878E-006
  1.093205753059245E-003  1.360837761096878E-006
  1.094149285359207E-003  1.360837761096878E-006
  1.094824267011084E-003  1.360837761096878E-006
  1.095353367669959E-003  1.360837761096878E-006
  1.142907103068366E-003  1.360837761096878E-006
  1.165354655735819E-003  1.360837761096878E-006
  1.165517319580769E-003  1.360837761096878E-006
  1.165827696462410E-003  1.360837761096878E-006
  1.166072474856364E-003  1.360837761096878E-006
  1.168700716063905E-003  1.360837761096878E-006
  1.171240156190102E-003  1.360837761096878E-006
  1.171925682535892E-003  1.360837761096878E-006
  1.285226542953369E-003  1.360837761096878E-006
  1.295398954807226E-003  1.360837761096878E-006
  1.325110361706488E-003  1.360837761096878E-006
  1.343869742798116E-003  1.360837761096878E-006
  1.536083599385766E-003  1.360837761096878E-006
  1.550606881434603E-003  1.360837761096878E-006
  1.759821153485822E-003  1.360837761096878E-006
  1.785129976090618E-003  1.360837761096878E-006
  1.923947537236182E-003  1.360837761096878E-006
  2.279533583771857E-003  1.360837761096878E-006
  2.349642067361590E-003  1.360837761096878E-006
  2.526658695044705E-003  1.360837761096878E-006
  2.542153545873120E-003  1.360837761096878E-006
  2.588110281314230E-003  1.360837761096878E-006
  2.788002370345591E-003  1.360837761096878E-006
  2.921757453604529E-003  1.360837761096878E-006
  2.928107781639432E-003  1.360837761096878E-006
  3.023500380203785E-003  1.360837761096878E-006
  3.042068387954023E-003  1.360837761096878E-006
  3.081233230293394E-003  1.360837761096878E-006
  3.096211793917314E-003  1.360837761096878E-006
  3.676423269153686E-003  1.360837761096878E-006
  3.678338128905715E-003  1.360837761096878E-006
  3.722954934216859E-003  1.360837761096878E-006
  3.724771034847799E-003  1.360837761096878E-006
  3.945371811286276E-003  1.360837761096878E-006
  5.468581486057694E-003  1.360837761096878E-006
 cut=1d-8, nber non-redundant internal coords=         141
 Check on Eigenvals of non-red overlap matrix:
  0.00000136  0.00000297  0.00000342  0.00000534  0.00000881  0.00001050  0.00001119  0.00001437
  0.00001511  0.00001577  0.00001779  0.00001834  0.00002137  0.00002301  0.00002419  0.00002609
  0.00002890  0.00003047  0.00003593  0.00003994  0.00004473  0.00005041  0.00005230  0.00005418
  0.00005472  0.00005747  0.00005905  0.00006392  0.00006925  0.00007267  0.00007525  0.00008134
  0.00008258  0.00008561  0.00008740  0.00008916  0.00009271  0.00009792  0.00009906  0.00011922
  0.00012616  0.00012829  0.00013670  0.00013962  0.00013998  0.00014109  0.00016038  0.00016314
  0.00016768  0.00018180  0.00018644  0.00021080  0.00022479  0.00022623  0.00023324  0.00024875
  0.00028024  0.00028936  0.00029403  0.00030950  0.00034561  0.00037150  0.00038098  0.00039014
  0.00039429  0.00039561  0.00039695  0.00042733  0.00043487  0.00043496  0.00043540  0.00044182
  0.00044459  0.00046275  0.00046605  0.00046958  0.00048052  0.00049481  0.00052646  0.00053445
  0.00053716  0.00055410  0.00055446  0.00055601  0.00055700  0.00059850  0.00059924  0.00059957
  0.00059986  0.00060219  0.00064076  0.00064273  0.00064427  0.00064500  0.00064685  0.00067407
  0.00069716  0.00069774  0.00080325  0.00084700  0.00089724  0.00105737  0.00109321  0.00109415
  0.00109482  0.00109535  0.00114291  0.00116535  0.00116552  0.00116583  0.00116607  0.00116870
  0.00117124  0.00117193  0.00128523  0.00129540  0.00132511  0.00134387  0.00153608  0.00155061
  0.00175982  0.00178513  0.00192395  0.00227953  0.00234964  0.00252666  0.00254215  0.00258811
  0.00278800  0.00292176  0.00292811  0.00302350  0.00304207  0.00308123  0.00309621  0.00367642
  0.00367834  0.00372295  0.00372477  0.00394537  0.00546858
 Checking for correct frequencies
 recalc frequencies=
    -0.0   -0.0   -0.0    0.0    0.0    0.0   25.3   28.9   53.7   57.1
    79.4   91.1   97.9  110.4  147.4  167.7  185.7  190.5  200.8  208.0
   212.8  234.8  235.8  257.3  278.2  291.0  302.6  325.4  348.9  376.9
   389.2  417.9  423.3  433.1  436.3  439.1  447.0  474.9  483.1  487.9
   494.2  507.0  514.2  545.4  560.4  573.1  576.4  605.8  612.4  626.2
   652.8  655.8  675.6  689.5  690.1  712.4  728.8  736.8  754.4  761.1
   764.2  770.2  778.0  802.2  813.9  815.1  821.4  831.3  833.6  845.1
   862.6  913.2  926.6  945.3  956.6  974.5  974.7  976.3  987.6  988.3
  1053.1 1083.4 1093.6 1121.5 1152.2 1155.5 1159.7 1175.9 1186.0 1196.0
  1200.0 1205.8 1224.2 1232.6 1243.1 1263.8 1296.3 1311.4 1318.4 1349.2
  1355.9 1363.9 1382.1 1382.3 1392.4 1400.3 1401.1 1413.1 1416.4 1430.2
  1439.6 1441.3 1460.5 1467.1 1484.9 1489.7 1497.6 1505.2 1512.4 1522.5
  1547.1 1556.9 1568.1 1578.8 1597.8 1598.4 1622.3 1685.6 1725.1 1742.9
  1744.9 3034.3 3038.4 3092.3 3095.5 3112.5 3132.6 3142.9 3197.5 3197.9
  3203.6 3203.8 3212.5 3212.6 3224.6 3224.9 3580.1
 recalc symmetries=
                                                                       
                                                                       
                                                                       
                                                                       
                                                                       
                                                                       
                                                                       
                                                                       
                                                                       
                                                                       
                                                                       
                                                                       
                                                                       
                                                                       
                                                  
 recalc freqs check OK
 Zero-point lengths:
 10.0000 10.0000 10.0000 10.0000 10.0000 10.0000 49.2397 46.1038 33.8332 32.8135
 27.8243 25.9719 25.0563 23.5955 20.4188 19.1424 18.1930 17.9630 17.4937 17.1904
 16.9931 16.1786 16.1451 15.4558 14.8635 14.5318 14.2521 13.7433 13.2721 12.7702
 12.5659 12.1272 12.0489 11.9119 11.8682 11.8306 11.7255 11.3761 11.2789 11.2235
 11.1518 11.0106 10.9325 10.6154 10.4720 10.3555 10.3260 10.0727 10.0180  9.9068
  9.7028  9.6808  9.5382  9.4411  9.4369  9.2879  9.1834  9.1332  9.0262  8.9864
  8.9677  8.9328  8.8880  8.7530  8.6896  8.6834  8.6502  8.5985  8.5864  8.5276
  8.4409  8.2036  8.1440  8.0632  8.0156  7.9416  7.9409  7.9343  7.8886  7.8860
  7.6393  7.5320  7.4965  7.4029  7.3036  7.2932  7.2800  7.2294  7.1988  7.1685
  7.1566  7.1392  7.0856  7.0613  7.0314  6.9736  6.8856  6.8458  6.8276  6.7492
  6.7326  6.7129  6.6684  6.6681  6.6438  6.6251  6.6232  6.5949  6.5873  6.5554
  6.5339  6.5301  6.4870  6.4723  6.4335  6.4232  6.4062  6.3899  6.3748  6.3535
  6.3029  6.2830  6.2605  6.2393  6.2021  6.2009  6.1550  6.0384  5.9689  5.9383
  5.9349  4.5005  4.4975  4.4582  4.4558  4.4436  4.4294  4.4221  4.3842  4.3839
  4.3800  4.3799  4.3740  4.3739  4.3657  4.3655  4.1433
 highest evec of mol 1
 -0.0000  0.0000 -0.0000
 -0.0000  0.0001  0.0000
  0.0000  0.0000  0.0000
  0.0000 -0.0001 -0.0000
 -0.0001  0.0001  0.0001
  0.0000 -0.0000 -0.0001
  0.0000 -0.0001 -0.0000
 -0.0000  0.0000  0.0000
 -0.0000 -0.0000  0.0000
 -0.0000 -0.0000  0.0000
  0.0000  0.0000 -0.0000
 -0.0001 -0.0001  0.0001
 -0.0000  0.0002  0.0000
  0.0007 -0.0014 -0.0013
  0.0015  0.0010 -0.0019
 -0.0000  0.0003  0.0001
 -0.0629  0.2208  0.1278
  0.2311 -0.8109 -0.4691
 -0.0012 -0.0017  0.0015
 -0.0001  0.0002  0.0002
  0.0002 -0.0019 -0.0006
 -0.0001  0.0001  0.0001
  0.0001  0.0000 -0.0001
 -0.0000 -0.0000  0.0000
  0.0000  0.0000 -0.0000
  0.0000  0.0000 -0.0000
 -0.0000  0.0000  0.0000
  0.0000 -0.0000 -0.0000
 -0.0000  0.0001  0.0000
 -0.0000 -0.0001  0.0000
  0.0000 -0.0000 -0.0000
 -0.0000  0.0000  0.0000
 -0.0000  0.0001  0.0001
  0.0000 -0.0002 -0.0001
  0.0000 -0.0001 -0.0000
 -0.0000  0.0000  0.0000
 -0.0000  0.0000  0.0000
 -0.0000 -0.0000  0.0000
  0.0000  0.0000  0.0000
  0.0000 -0.0001 -0.0000
 -0.0000  0.0000  0.0000
  0.0000 -0.0000 -0.0000
  0.0000  0.0001 -0.0000
  0.0001  0.0000 -0.0002
 -0.0002 -0.0004  0.0002
  0.0003  0.0001 -0.0004
 -0.0001 -0.0002  0.0001
 -0.0000  0.0000  0.0001
 -0.0000 -0.0000  0.0000
 generating redundant internal coords
         300        3600          49
 Adding extra bonds for z output only
           6           6           6           7           6           8
           6           6           6           6           6           6
           6           6           6           8           7           1
           6           8           6           6           6           6
           6           6           6           6           6           8
           6           6           6           6           1           1
           1           1           1           1           1           1
           1           1           1           1           1           1
           1
 search for int coords
   1 str   2   1   1.532
   2 str   3   2   1.532
   3 str   4   2   1.498
   4 str   5   4   1.400
   5 str   6   5   1.222
   6 str   7   5   1.479
   7 str   8   7   1.400
   8 str   9   8   1.380
   9 str  10   9   1.423
  10 str  11  10   1.441
  11 str  12  11   1.422
  12 str  13  12   1.380
  13 str  14  13   1.399
  14 str  15  14   1.477
  15 str  16  15   1.218
  16 str  17  15   1.392
  17 str  18  16   2.468
  18 str  18  17   1.013
  19 str  19  17   1.393
  20 str  20  18   2.467
  21 str  20  19   1.218
  22 str  21  19   1.477
  23 str  22  21   1.399
  24 str  23  22   1.380
  25 str  24  23   1.422
  26 str  25  24   1.441
  27 str  26  25   1.423
  28 str  27  26   1.380
  29 str  28  27   1.400
  30 str  29   4   1.407
  31 str  29  28   1.478
  32 str  30  29   1.221
  33 str  31   7   1.410
  34 str  31  28   1.410
  35 str  32  10   1.427
  36 str  32  25   1.426
  37 str  32  31   1.428
  38 str  33  11   1.428
  39 str  33  24   1.428
  40 str  34  14   1.416
  41 str  34  21   1.416
  42 str  34  33   1.430
  43 str  35   1   1.093
  44 str  36   1   1.089
  45 str  37   1   1.093
  46 str  38   2   1.088
  47 str  39   3   1.089
  48 str  40   3   1.093
  49 str  41   3   1.093
  50 str  42   8   1.082
  51 str  43   9   1.081
  52 str  44  12   1.081
  53 str  45  13   1.083
  54 str  46  22   1.083
  55 str  47  23   1.081
  56 str  48  26   1.081
  57 str  49  27   1.082
 nber stretches=          57
  58 ben   1   2   3
  59 prop tor   1   2   3  39
  60 prop tor   1   2   3  40
  61 prop tor   1   2   3  41
  62 ben   1   2   4
  63 prop tor   1   2   4   5
  64 prop tor   1   2   4  29
  65 ben   1   2  38
  66 ben   2   1  35
  67 ben   2   1  36
  68 ben   2   1  37
  69 ben   2   3  39
  70 ben   2   3  40
  71 ben   2   3  41
  72 ben   2   4   5
  73 prop tor   2   4   5   6
  74 prop tor   2   4   5   7
  75 ben   2   4  29
  76 prop tor   2   4  29  28
  77 prop tor   2   4  29  30
  78 ben   3   2   4
  79 prop tor   3   2   4   5
  80 prop tor   3   2   4  29
  81 ben   3   2  38
  82 prop tor   4   2   3  39
  83 prop tor   4   2   3  40
  84 prop tor   4   2   3  41
  85 ben   4   2  38
  86 ben   4   5   6
  87 ben   4   5   7
  88 prop tor   4   5   7   8
  89 prop tor   4   5   7  31
  90 ben   4  29  28
  91 ben   4  29  30
  92 ben   5   4  29
  93 prop tor   5   4  29  28
  94 prop tor   5   4  29  30
  95 ben   5   7   8
  96 prop tor   5   7   8   9
  97 prop tor   5   7   8  42
  98 ben   5   7  31
  99 prop tor   5   7  31  28
 100 prop tor   5   7  31  32
 101 ben   6   5   7
 102 prop tor   6   5   7   8
 103 prop tor   6   5   7  31
 104 ben   7   8   9
 105 prop tor   7   8   9  10
 106 prop tor   7   8   9  43
 107 ben   7   8  42
 108 ben   7  31  28
 109 ben   7  31  32
 110 prop tor   7  31  32  10
 111 prop tor   7  31  32  25
 112 ben   8   7  31
 113 prop tor   8   7  31  28
 114 prop tor   8   7  31  32
 115 ben   8   9  10
 116 prop tor   8   9  10  11
 117 prop tor   8   9  10  32
 118 ben   8   9  43
 119 ben   9   8  42
 120 ben   9  10  11
 121 prop tor   9  10  11  12
 122 prop tor   9  10  11  33
 123 ben   9  10  32
 124 prop tor   9  10  32  25
 125 prop tor   9  10  32  31
 126 ben  10   9  43
 127 ben  10  11  12
 128 prop tor  10  11  12  13
 129 prop tor  10  11  12  44
 130 ben  10  11  33
 131 prop tor  10  11  33  24
 132 prop tor  10  11  33  34
 133 ben  10  32  25
 134 ben  10  32  31
 135 ben  11  10  32
 136 prop tor  11  10  32  25
 137 prop tor  11  10  32  31
 138 ben  11  12  13
 139 prop tor  11  12  13  14
 140 prop tor  11  12  13  45
 141 ben  11  12  44
 142 ben  11  33  24
 143 ben  11  33  34
 144 prop tor  11  33  34  14
 145 prop tor  11  33  34  21
 146 ben  12  11  33
 147 prop tor  12  11  33  24
 148 prop tor  12  11  33  34
 149 ben  12  13  14
 150 prop tor  12  13  14  15
 151 prop tor  12  13  14  34
 152 ben  12  13  45
 153 ben  13  12  44
 154 ben  13  14  15
 155 prop tor  13  14  15  16
 156 prop tor  13  14  15  17
 157 ben  13  14  34
 158 prop tor  13  14  34  21
 159 prop tor  13  14  34  33
 160 ben  14  13  45
 161 ben  14  15  16
 162 prop tor  14  15  16  18
 163 ben  14  15  17
 164 prop tor  14  15  17  18
 165 prop tor  14  15  17  19
 166 ben  14  34  21
 167 ben  14  34  33
 168 ben  15  14  34
 169 prop tor  15  14  34  21
 170 prop tor  15  14  34  33
 171 ben  15  16  18
 172 prop tor  15  16  18  17
 173 prop tor  15  16  18  20
 174 ben  15  17  18
 175 prop tor  15  17  18  16
 176 prop tor  15  17  18  20
 177 ben  15  17  19
 178 prop tor  15  17  19  20
 179 prop tor  15  17  19  21
 180 ben  16  15  17
 181 prop tor  16  15  17  18
 182 prop tor  16  15  17  19
 183 ben  16  18  17
 184 ben  16  18  20
 185 prop tor  16  18  20  19
 186 prop tor  17  15  16  18
 187 ben  17  18  20
 188 prop tor  17  18  20  19
 189 ben  17  19  20
 190 prop tor  17  19  20  18
 191 ben  17  19  21
 192 prop tor  17  19  21  22
 193 prop tor  17  19  21  34
 194 ben  18  17  19
 195 prop tor  18  17  19  20
 196 prop tor  18  17  19  21
 197 ben  18  20  19
 198 prop tor  19  17  18  16
 199 prop tor  19  17  18  20
 200 ben  19  21  22
 201 prop tor  19  21  22  23
 202 prop tor  19  21  22  46
 203 ben  19  21  34
 204 prop tor  19  21  34  14
 205 prop tor  19  21  34  33
 206 ben  20  19  21
 207 prop tor  20  19  21  22
 208 prop tor  20  19  21  34
 209 prop tor  21  19  20  18
 210 ben  21  22  23
 211 prop tor  21  22  23  24
 212 prop tor  21  22  23  47
 213 ben  21  22  46
 214 ben  21  34  33
 215 ben  22  21  34
 216 prop tor  22  21  34  14
 217 prop tor  22  21  34  33
 218 ben  22  23  24
 219 prop tor  22  23  24  25
 220 prop tor  22  23  24  33
 221 ben  22  23  47
 222 ben  23  22  46
 223 ben  23  24  25
 224 prop tor  23  24  25  26
 225 prop tor  23  24  25  32
 226 ben  23  24  33
 227 prop tor  23  24  33  11
 228 prop tor  23  24  33  34
 229 ben  24  23  47
 230 ben  24  25  26
 231 prop tor  24  25  26  27
 232 prop tor  24  25  26  48
 233 ben  24  25  32
 234 prop tor  24  25  32  10
 235 prop tor  24  25  32  31
 236 ben  24  33  34
 237 prop tor  24  33  34  14
 238 prop tor  24  33  34  21
 239 ben  25  24  33
 240 prop tor  25  24  33  11
 241 prop tor  25  24  33  34
 242 ben  25  26  27
 243 prop tor  25  26  27  28
 244 prop tor  25  26  27  49
 245 ben  25  26  48
 246 ben  25  32  31
 247 ben  26  25  32
 248 prop tor  26  25  32  10
 249 prop tor  26  25  32  31
 250 ben  26  27  28
 251 prop tor  26  27  28  29
 252 prop tor  26  27  28  31
 253 ben  26  27  49
 254 ben  27  26  48
 255 ben  27  28  29
 256 prop tor  27  28  29   4
 257 prop tor  27  28  29  30
 258 ben  27  28  31
 259 prop tor  27  28  31   7
 260 prop tor  27  28  31  32
 261 ben  28  27  49
 262 ben  28  29  30
 263 ben  28  31  32
 264 prop tor  28  31  32  10
 265 prop tor  28  31  32  25
 266 prop tor  29   4   5   6
 267 prop tor  29   4   5   7
 268 ben  29  28  31
 269 prop tor  29  28  31   7
 270 prop tor  29  28  31  32
 271 prop tor  31   7   8   9
 272 prop tor  31   7   8  42
 273 prop tor  31  28  29   4
 274 prop tor  31  28  29  30
 275 prop tor  32  10  11  12
 276 prop tor  32  10  11  33
 277 prop tor  32  25  26  27
 278 prop tor  32  25  26  48
 279 prop tor  33  11  12  13
 280 prop tor  33  11  12  44
 281 prop tor  33  24  25  26
 282 prop tor  33  24  25  32
 283 prop tor  34  14  15  16
 284 prop tor  34  14  15  17
 285 prop tor  34  21  22  23
 286 prop tor  34  21  22  46
 287 prop tor  35   1   2   3
 288 prop tor  35   1   2   4
 289 prop tor  35   1   2  38
 290 ben  35   1  36
 291 ben  35   1  37
 292 prop tor  36   1   2   3
 293 prop tor  36   1   2   4
 294 prop tor  36   1   2  38
 295 ben  36   1  37
 296 prop tor  37   1   2   3
 297 prop tor  37   1   2   4
 298 prop tor  37   1   2  38
 299 prop tor  38   2   3  39
 300 prop tor  38   2   3  40
 301 prop tor  38   2   3  41
 302 prop tor  38   2   4   5
 303 prop tor  38   2   4  29
 304 ben  39   3  40
 305 ben  39   3  41
 306 ben  40   3  41
 307 prop tor  42   8   9  10
 308 prop tor  42   8   9  43
 309 prop tor  43   9  10  11
 310 prop tor  43   9  10  32
 311 prop tor  44  12  13  14
 312 prop tor  44  12  13  45
 313 prop tor  45  13  14  15
 314 prop tor  45  13  14  34
 315 prop tor  46  22  23  24
 316 prop tor  46  22  23  47
 317 prop tor  47  23  24  25
 318 prop tor  47  23  24  33
 319 prop tor  48  26  27  28
 320 prop tor  48  26  27  49
 321 prop tor  49  27  28  29
 322 prop tor  49  27  28  31
 nber bend=             101
 nber lin bend=           0
 nber prop tor=         164
 nber impr tor=           0
 nber tot redund int=         322
 Reading file: 
 ./PDI_0_C-1S0.log                                                              
                                          
  Entering Gaussian System, Link 0=g16                                          
  
 Gaussian format, type: g94, g98, g03= F F F
  #P Geom=AllCheck Guess=TCheck SCRF=Check GenChk UB3LYP/6-311G(d,p) Fre    
 energy type= B3LYP   
 Original G94 input coords:
  6  1.027109 -0.970665 -0.369971
  6  2.233461 -0.069209 -0.079887
  6  3.431309 -0.835000  0.495252
  7  2.612029  0.752620 -1.260766
  6  3.067918  0.108045 -2.425543
  8  3.151431 -1.119308 -2.465259
  6  3.427731  0.960821 -3.558059
  6  3.887246  0.373576 -4.742067
  6  4.235027  1.148817 -5.828711
  6  4.144971  2.560962 -5.799416
  6  4.507139  3.384645 -6.933760
  6  4.975507  2.830000 -8.148165
  6  5.318713  3.621494 -9.223964
  6  5.215418  5.013762 -9.153688
  6  5.587138  5.825704-10.311861
  8  5.997886  5.389892-11.382893
  7  5.444344  7.202293-10.129809
  1  5.697682  7.778254-10.922348
  6  4.998374  7.890008 -8.999860
  8  4.935131  9.115384 -9.015246
  6  4.638240  7.037496 -7.867514
  6  4.178413  7.619819 -6.682790
  6  3.831570  6.841680 -5.598487
  6  3.923961  5.430229 -5.633552
  6  3.562282  4.605901 -4.499764
  6  3.093567  5.154945 -3.282241
  6  2.751416  4.360305 -2.208107
  6  2.856060  2.966563 -2.282600
  6  2.484613  2.156042 -1.124515
  8  2.078692  2.646620 -0.072762
  6  3.319231  2.367419 -3.476034
  6  3.678426  3.184954 -4.601148
  6  4.391437  4.807450 -6.834194
  6  4.751134  5.625844 -7.960438
  1  0.701152 -1.450206  0.558818
  1  1.275024 -1.741552 -1.098494
  1  0.191726 -0.377920 -0.752503
  1  1.928152  0.676513  0.651550
  1  3.780517 -1.600938 -0.196037
  1  3.138872 -1.311567  1.436633
  1  4.255427 -0.148798  0.708579
  1  3.961330 -0.706357 -4.778936
  1  4.585200  0.650855 -6.722361
  1  5.071219  1.757645 -8.247791
  1  5.676258  3.184433-10.148729
  1  4.103177  8.700018 -6.643313
  1  3.480685  7.335357 -4.702830
  1  2.996442  6.226802 -3.177994
  1  2.394242  4.795442 -1.282855
 nber atoms=          49
  SCF Done:  E(UB3LYP) =  -1449.50288042     A.U. after    1 cycles             
  
          23          40 "  -1449.50288042"
After scan for Atom:   Atom  AN      X      Y      Z        X      Y      Z        X      Y      Z   
After scan for Atom:   Atom  AN      X      Y      Z        X      Y      Z        X      Y      Z   
After scan for Atom:   Atom  AN      X      Y      Z        X      Y      Z        X      Y      Z   
After scan for Atom:   Atom  AN      X      Y      Z        X      Y      Z        X      Y      Z   
After scan for Atom:   Atom  AN      X      Y      Z        X      Y      Z        X      Y      Z   
After scan for Atom:   Atom  AN      X      Y      Z        X      Y      Z        X      Y      Z   
After scan for Atom:   Atom  AN      X      Y      Z        X      Y      Z        X      Y      Z   
After scan for Atom:   Atom  AN      X      Y      Z        X      Y      Z        X      Y      Z   
After scan for Atom:   Atom  AN      X      Y      Z        X      Y      Z        X      Y      Z   
After scan for Atom:   Atom  AN      X      Y      Z        X      Y      Z        X      Y      Z   
After scan for Atom:   Atom  AN      X      Y      Z        X      Y      Z        X      Y      Z   
After scan for Atom:   Atom  AN      X      Y      Z        X      Y      Z        X      Y      Z   
After scan for Atom:   Atom  AN      X      Y      Z        X      Y      Z        X      Y      Z   
After scan for Atom:   Atom  AN      X      Y      Z        X      Y      Z        X      Y      Z   
After scan for Atom:   Atom  AN      X      Y      Z        X      Y      Z        X      Y      Z   
After scan for Atom:   Atom  AN      X      Y      Z        X      Y      Z        X      Y      Z   
After scan for Atom:   Atom  AN      X      Y      Z        X      Y      Z        X      Y      Z   
After scan for Atom:   Atom  AN      X      Y      Z        X      Y      Z        X      Y      Z   
After scan for Atom:   Atom  AN      X      Y      Z        X      Y      Z        X      Y      Z   
After scan for Atom:   Atom  AN      X      Y      Z        X      Y      Z        X      Y      Z   
After scan for Atom:   Atom  AN      X      Y      Z        X      Y      Z        X      Y      Z   
After scan for Atom:   Atom  AN      X      Y      Z        X      Y      Z        X      Y      Z   
After scan for Atom:   Atom  AN      X      Y      Z        X      Y      Z        X      Y      Z   
After scan for Atom:   Atom  AN      X      Y      Z        X      Y      Z        X      Y      Z   
After scan for Atom:   Atom  AN      X      Y      Z        X      Y      Z        X      Y      Z   
After scan for Atom:   Atom  AN      X      Y      Z        X      Y      Z        X      Y      Z   
After scan for Atom:   Atom  AN      X      Y      Z        X      Y      Z        X      Y      Z   
After scan for Atom:   Atom  AN      X      Y      Z        X      Y      Z        X      Y      Z   
After scan for Atom:   Atom  AN      X      Y      Z        X      Y      Z        X      Y      Z   
After scan for Atom:   Atom  AN      X      Y      Z        X      Y      Z        X      Y      Z   
After scan for Atom:   Atom  AN      X      Y      Z        X      Y      Z        X      Y      Z   
After scan for Atom:   Atom  AN      X      Y      Z        X      Y      Z        X      Y      Z   
After scan for Atom:   Atom  AN      X      Y      Z        X      Y      Z        X      Y      Z   
After scan for Atom:   Atom  AN      X      Y      Z        X      Y      Z        X      Y      Z   
After scan for Atom:   Atom  AN      X      Y      Z        X      Y      Z        X      Y      Z   
After scan for Atom:   Atom  AN      X      Y      Z        X      Y      Z        X      Y      Z   
After scan for Atom:   Atom  AN      X      Y      Z        X      Y      Z        X      Y      Z   
After scan for Atom:   Atom  AN      X      Y      Z        X      Y      Z        X      Y      Z   
After scan for Atom:   Atom  AN      X      Y      Z        X      Y      Z        X      Y      Z   
After scan for Atom:   Atom  AN      X      Y      Z        X      Y      Z        X      Y      Z   
After scan for Atom:   Atom  AN      X      Y      Z        X      Y      Z        X      Y      Z   
After scan for Atom:   Atom  AN      X      Y      Z        X      Y      Z        X      Y      Z   
After scan for Atom:   Atom  AN      X      Y      Z        X      Y      Z        X      Y      Z   
After scan for Atom:   Atom  AN      X      Y      Z        X      Y      Z        X      Y      Z   
After scan for Atom:   Atom  AN      X      Y      Z        X      Y      Z        X      Y      Z   
After scan for Atom:   Atom  AN      X      Y      Z        X      Y      Z        X      Y      Z   
After scan for Atom:   Atom  AN      X      Y      Z        X      Y      Z        X      Y      Z   
 g94    frequencies=
     0.0    0.0    0.0    0.0    0.0    0.0   23.9   26.9   56.0   60.1
    84.6   93.6  100.0  114.7  151.0  170.4  192.9  197.2  201.2  210.3
   216.4  234.1  235.4  266.5  280.7  292.3  302.2  344.4  355.3  376.4
   392.4  419.1  424.8  437.5  441.2  444.3  454.1  475.2  490.0  504.1
   510.6  512.0  518.6  543.8  578.6  580.8  581.2  621.0  624.5  644.9
   664.0  665.0  692.3  699.1  716.9  740.0  747.6  758.4  759.3  771.5
   773.9  784.2  805.4  809.4  812.8  817.8  824.1  828.7  835.6  847.2
   871.8  926.6  941.6  953.5  954.4  963.3  966.9  976.0  979.5  984.6
  1058.0 1078.9 1090.0 1123.7 1154.3 1155.5 1156.6 1176.4 1184.2 1194.3
  1202.3 1203.1 1223.6 1233.5 1247.4 1257.2 1292.6 1300.0 1314.2 1344.7
  1351.8 1364.3 1377.2 1382.8 1385.2 1390.9 1394.6 1396.8 1405.8 1422.5
  1438.6 1463.9 1465.5 1471.6 1479.5 1482.2 1493.4 1507.5 1524.1 1531.8
  1563.2 1573.6 1574.0 1589.4 1608.5 1617.7 1626.4 1664.0 1700.6 1718.7
  1723.2 3021.6 3027.1 3079.8 3082.8 3103.8 3129.6 3138.5 3180.5 3180.7
  3187.4 3187.6 3198.2 3198.4 3211.6 3212.0 3593.1
 g94    symmetries=
                                                 A      A      A      A
       A      A      A      A      A      A      A      A      A      A
       A      A      A      A      A      A      A      A      A      A
       A      A      A      A      A      A      A      A      A      A
       A      A      A      A      A      A      A      A      A      A
       A      A      A      A      A      A      A      A      A      A
       A      A      A      A      A      A      A      A      A      A
       A      A      A      A      A      A      A      A      A      A
       A      A      A      A      A      A      A      A      A      A
       A      A      A      A      A      A      A      A      A      A
       A      A      A      A      A      A      A      A      A      A
       A      A      A      A      A      A      A      A      A      A
       A      A      A      A      A      A      A      A      A      A
       A      A      A      A      A      A      A      A      A      A
       A      A      A      A      A      A      A
 atomic masses:
 12.0000 12.0000 12.0000 14.0031 12.0000 15.9949 12.0000 12.0000 12.0000 12.0000
 12.0000 12.0000 12.0000 12.0000 12.0000 15.9949 14.0031  1.0078 12.0000 15.9949
 12.0000 12.0000 12.0000 12.0000 12.0000 12.0000 12.0000 12.0000 12.0000 15.9949
 12.0000 12.0000 12.0000 12.0000  1.0078  1.0078  1.0078  1.0078  1.0078  1.0078
  1.0078  1.0078  1.0078  1.0078  1.0078  1.0078  1.0078  1.0078  1.0078
 looking for force constants in 
 ./PDI_0_C-1S0.fchk                                                             
  
 Cartesian Force Constants                  R   N=       10878                  
  
 n3=         147       10878
 g94-fc frequencies=
    -6.4   -2.2   -0.0    0.0    0.0    0.9   23.9   26.9   56.0   60.1
    84.6   93.6  100.0  114.7  151.0  170.4  192.9  197.2  201.2  210.3
   216.4  234.1  235.5  266.5  280.7  292.3  302.3  344.5  355.3  376.4
   392.4  419.1  424.8  437.5  441.2  444.3  454.2  475.2  490.0  504.1
   510.6  512.0  518.6  543.8  578.6  580.8  581.2  621.0  624.5  644.9
   664.1  665.0  692.3  699.2  716.9  740.0  747.7  758.4  759.3  771.5
   774.0  784.2  805.4  809.4  812.8  817.8  824.1  828.7  835.6  847.2
   871.9  926.7  941.7  953.5  954.4  963.3  966.9  976.0  979.6  984.6
  1058.1 1078.9 1090.0 1123.7 1154.3 1155.6 1156.7 1176.4 1184.2 1194.3
  1202.3 1203.1 1223.6 1233.5 1247.4 1257.2 1292.6 1300.0 1314.3 1344.7
  1351.8 1364.4 1377.2 1382.8 1385.3 1390.9 1394.7 1396.8 1405.8 1422.5
  1438.6 1463.9 1465.6 1471.7 1479.6 1482.2 1493.5 1507.5 1524.2 1531.8
  1563.2 1573.6 1574.0 1589.4 1608.5 1617.7 1626.5 1664.0 1700.7 1718.7
  1723.2 3021.7 3027.2 3079.9 3082.9 3103.8 3129.6 3138.5 3180.6 3180.7
  3187.5 3187.7 3198.2 3198.5 3211.7 3212.0 3593.1
 at 99999: n3=         147
 symm operator            1 :  F  nop=           0
 symm operator            2 :  F  nop=           0
 symm operator            3 :  F  nop=           0
 symm operator            4 :  F  nop=           0
 symm operator            5 :  F  nop=           0
 symm operator            6 :  F  nop=           0
 symm operator            7 :  F  nop=           0
 The point group of the molecule is  C1
 Symmetry rotation matrix:
   1.00000   0.00000   0.00000
   0.00000   1.00000   0.00000
   0.00000   0.00000   1.00000

 Projecting out zero-frequency components
 generating redundant internal coords
         300        3600          49
 search for int coords
   1 str   2   1   1.534
   2 str   3   2   1.534
   3 str   4   2   1.488
   4 str   5   4   1.407
   5 str   6   5   1.231
   6 str   7   5   1.463
   7 str   8   7   1.399
   8 str   9   8   1.379
   9 str  10   9   1.415
  10 str  11  10   1.448
  11 str  12  11   1.415
  12 str  13  12   1.379
  13 str  14  13   1.398
  14 str  15  14   1.462
  15 str  16  15   1.227
  16 str  17  15   1.396
  17 str  18  16   2.451
  18 str  18  17   1.012
  19 str  19  17   1.396
  20 str  20  18   2.451
  21 str  20  19   1.227
  22 str  21  19   1.462
  23 str  22  21   1.398
  24 str  23  22   1.379
  25 str  24  23   1.415
  26 str  25  24   1.448
  27 str  26  25   1.415
  28 str  27  26   1.379
  29 str  28  27   1.400
  30 str  29   4   1.416
  31 str  29  28   1.462
  32 str  30  29   1.229
  33 str  31   7   1.413
  34 str  31  28   1.413
  35 str  32  10   1.429
  36 str  32  25   1.429
  37 str  32  31   1.436
  38 str  33  11   1.431
  39 str  33  24   1.431
  40 str  34  14   1.419
  41 str  34  21   1.419
  42 str  34  33   1.438
  43 str  35   1   1.095
  44 str  36   1   1.089
  45 str  37   1   1.093
  46 str  38   2   1.088
  47 str  39   3   1.089
  48 str  40   3   1.095
  49 str  41   3   1.093
  50 str  42   8   1.083
  51 str  43   9   1.081
  52 str  44  12   1.081
  53 str  45  13   1.084
  54 str  46  22   1.084
  55 str  47  23   1.081
  56 str  48  26   1.081
  57 str  49  27   1.083
 nber stretches=          57
  58 ben   1   2   3
  59 prop tor   1   2   3  39
  60 prop tor   1   2   3  40
  61 prop tor   1   2   3  41
  62 ben   1   2   4
  63 prop tor   1   2   4   5
  64 prop tor   1   2   4  29
  65 ben   1   2  38
  66 ben   2   1  35
  67 ben   2   1  36
  68 ben   2   1  37
  69 ben   2   3  39
  70 ben   2   3  40
  71 ben   2   3  41
  72 ben   2   4   5
  73 prop tor   2   4   5   6
  74 prop tor   2   4   5   7
  75 ben   2   4  29
  76 prop tor   2   4  29  28
  77 prop tor   2   4  29  30
  78 ben   3   2   4
  79 prop tor   3   2   4   5
  80 prop tor   3   2   4  29
  81 ben   3   2  38
  82 prop tor   4   2   3  39
  83 prop tor   4   2   3  40
  84 prop tor   4   2   3  41
  85 ben   4   2  38
  86 ben   4   5   6
  87 ben   4   5   7
  88 prop tor   4   5   7   8
  89 prop tor   4   5   7  31
  90 ben   4  29  28
  91 ben   4  29  30
  92 ben   5   4  29
  93 prop tor   5   4  29  28
  94 prop tor   5   4  29  30
  95 ben   5   7   8
  96 prop tor   5   7   8   9
  97 prop tor   5   7   8  42
  98 ben   5   7  31
  99 prop tor   5   7  31  28
 100 prop tor   5   7  31  32
 101 ben   6   5   7
 102 prop tor   6   5   7   8
 103 prop tor   6   5   7  31
 104 ben   7   8   9
 105 prop tor   7   8   9  10
 106 prop tor   7   8   9  43
 107 ben   7   8  42
 108 ben   7  31  28
 109 ben   7  31  32
 110 prop tor   7  31  32  10
 111 prop tor   7  31  32  25
 112 ben   8   7  31
 113 prop tor   8   7  31  28
 114 prop tor   8   7  31  32
 115 ben   8   9  10
 116 prop tor   8   9  10  11
 117 prop tor   8   9  10  32
 118 ben   8   9  43
 119 ben   9   8  42
 120 ben   9  10  11
 121 prop tor   9  10  11  12
 122 prop tor   9  10  11  33
 123 ben   9  10  32
 124 prop tor   9  10  32  25
 125 prop tor   9  10  32  31
 126 ben  10   9  43
 127 ben  10  11  12
 128 prop tor  10  11  12  13
 129 prop tor  10  11  12  44
 130 ben  10  11  33
 131 prop tor  10  11  33  24
 132 prop tor  10  11  33  34
 133 ben  10  32  25
 134 ben  10  32  31
 135 ben  11  10  32
 136 prop tor  11  10  32  25
 137 prop tor  11  10  32  31
 138 ben  11  12  13
 139 prop tor  11  12  13  14
 140 prop tor  11  12  13  45
 141 ben  11  12  44
 142 ben  11  33  24
 143 ben  11  33  34
 144 prop tor  11  33  34  14
 145 prop tor  11  33  34  21
 146 ben  12  11  33
 147 prop tor  12  11  33  24
 148 prop tor  12  11  33  34
 149 ben  12  13  14
 150 prop tor  12  13  14  15
 151 prop tor  12  13  14  34
 152 ben  12  13  45
 153 ben  13  12  44
 154 ben  13  14  15
 155 prop tor  13  14  15  16
 156 prop tor  13  14  15  17
 157 ben  13  14  34
 158 prop tor  13  14  34  21
 159 prop tor  13  14  34  33
 160 ben  14  13  45
 161 ben  14  15  16
 162 prop tor  14  15  16  18
 163 ben  14  15  17
 164 prop tor  14  15  17  18
 165 prop tor  14  15  17  19
 166 ben  14  34  21
 167 ben  14  34  33
 168 ben  15  14  34
 169 prop tor  15  14  34  21
 170 prop tor  15  14  34  33
 171 ben  15  16  18
 172 prop tor  15  16  18  17
 173 prop tor  15  16  18  20
 174 ben  15  17  18
 175 prop tor  15  17  18  16
 176 prop tor  15  17  18  20
 177 ben  15  17  19
 178 prop tor  15  17  19  20
 179 prop tor  15  17  19  21
 180 ben  16  15  17
 181 prop tor  16  15  17  18
 182 prop tor  16  15  17  19
 183 ben  16  18  17
 184 ben  16  18  20
 185 prop tor  16  18  20  19
 186 prop tor  17  15  16  18
 187 ben  17  18  20
 188 prop tor  17  18  20  19
 189 ben  17  19  20
 190 prop tor  17  19  20  18
 191 ben  17  19  21
 192 prop tor  17  19  21  22
 193 prop tor  17  19  21  34
 194 ben  18  17  19
 195 prop tor  18  17  19  20
 196 prop tor  18  17  19  21
 197 ben  18  20  19
 198 prop tor  19  17  18  16
 199 prop tor  19  17  18  20
 200 ben  19  21  22
 201 prop tor  19  21  22  23
 202 prop tor  19  21  22  46
 203 ben  19  21  34
 204 prop tor  19  21  34  14
 205 prop tor  19  21  34  33
 206 ben  20  19  21
 207 prop tor  20  19  21  22
 208 prop tor  20  19  21  34
 209 prop tor  21  19  20  18
 210 ben  21  22  23
 211 prop tor  21  22  23  24
 212 prop tor  21  22  23  47
 213 ben  21  22  46
 214 ben  21  34  33
 215 ben  22  21  34
 216 prop tor  22  21  34  14
 217 prop tor  22  21  34  33
 218 ben  22  23  24
 219 prop tor  22  23  24  25
 220 prop tor  22  23  24  33
 221 ben  22  23  47
 222 ben  23  22  46
 223 ben  23  24  25
 224 prop tor  23  24  25  26
 225 prop tor  23  24  25  32
 226 ben  23  24  33
 227 prop tor  23  24  33  11
 228 prop tor  23  24  33  34
 229 ben  24  23  47
 230 ben  24  25  26
 231 prop tor  24  25  26  27
 232 prop tor  24  25  26  48
 233 ben  24  25  32
 234 prop tor  24  25  32  10
 235 prop tor  24  25  32  31
 236 ben  24  33  34
 237 prop tor  24  33  34  14
 238 prop tor  24  33  34  21
 239 ben  25  24  33
 240 prop tor  25  24  33  11
 241 prop tor  25  24  33  34
 242 ben  25  26  27
 243 prop tor  25  26  27  28
 244 prop tor  25  26  27  49
 245 ben  25  26  48
 246 ben  25  32  31
 247 ben  26  25  32
 248 prop tor  26  25  32  10
 249 prop tor  26  25  32  31
 250 ben  26  27  28
 251 prop tor  26  27  28  29
 252 prop tor  26  27  28  31
 253 ben  26  27  49
 254 ben  27  26  48
 255 ben  27  28  29
 256 prop tor  27  28  29   4
 257 prop tor  27  28  29  30
 258 ben  27  28  31
 259 prop tor  27  28  31   7
 260 prop tor  27  28  31  32
 261 ben  28  27  49
 262 ben  28  29  30
 263 ben  28  31  32
 264 prop tor  28  31  32  10
 265 prop tor  28  31  32  25
 266 prop tor  29   4   5   6
 267 prop tor  29   4   5   7
 268 ben  29  28  31
 269 prop tor  29  28  31   7
 270 prop tor  29  28  31  32
 271 prop tor  31   7   8   9
 272 prop tor  31   7   8  42
 273 prop tor  31  28  29   4
 274 prop tor  31  28  29  30
 275 prop tor  32  10  11  12
 276 prop tor  32  10  11  33
 277 prop tor  32  25  26  27
 278 prop tor  32  25  26  48
 279 prop tor  33  11  12  13
 280 prop tor  33  11  12  44
 281 prop tor  33  24  25  26
 282 prop tor  33  24  25  32
 283 prop tor  34  14  15  16
 284 prop tor  34  14  15  17
 285 prop tor  34  21  22  23
 286 prop tor  34  21  22  46
 287 prop tor  35   1   2   3
 288 prop tor  35   1   2   4
 289 prop tor  35   1   2  38
 290 ben  35   1  36
 291 ben  35   1  37
 292 prop tor  36   1   2   3
 293 prop tor  36   1   2   4
 294 prop tor  36   1   2  38
 295 ben  36   1  37
 296 prop tor  37   1   2   3
 297 prop tor  37   1   2   4
 298 prop tor  37   1   2  38
 299 prop tor  38   2   3  39
 300 prop tor  38   2   3  40
 301 prop tor  38   2   3  41
 302 prop tor  38   2   4   5
 303 prop tor  38   2   4  29
 304 ben  39   3  40
 305 ben  39   3  41
 306 ben  40   3  41
 307 prop tor  42   8   9  10
 308 prop tor  42   8   9  43
 309 prop tor  43   9  10  11
 310 prop tor  43   9  10  32
 311 prop tor  44  12  13  14
 312 prop tor  44  12  13  45
 313 prop tor  45  13  14  15
 314 prop tor  45  13  14  34
 315 prop tor  46  22  23  24
 316 prop tor  46  22  23  47
 317 prop tor  47  23  24  25
 318 prop tor  47  23  24  33
 319 prop tor  48  26  27  28
 320 prop tor  48  26  27  49
 321 prop tor  49  27  28  29
 322 prop tor  49  27  28  31
 nber bend=             101
 nber lin bend=           0
 nber prop tor=         164
 nber impr tor=           0
 nber tot redund int=         322
 Eigenvalues of G in red int coords
    Gval -0.00000000 -0.00000000 -0.00000000 -0.00000000 -0.00000000 -0.00000000 -0.00000000 -0.00000000
    Gval -0.00000000 -0.00000000 -0.00000000 -0.00000000 -0.00000000 -0.00000000 -0.00000000 -0.00000000
    Gval -0.00000000 -0.00000000 -0.00000000 -0.00000000 -0.00000000 -0.00000000 -0.00000000 -0.00000000
    Gval -0.00000000 -0.00000000 -0.00000000 -0.00000000 -0.00000000 -0.00000000 -0.00000000 -0.00000000
    Gval -0.00000000 -0.00000000 -0.00000000 -0.00000000 -0.00000000 -0.00000000 -0.00000000 -0.00000000
    Gval -0.00000000 -0.00000000 -0.00000000 -0.00000000 -0.00000000 -0.00000000 -0.00000000 -0.00000000
    Gval -0.00000000 -0.00000000 -0.00000000 -0.00000000 -0.00000000 -0.00000000 -0.00000000 -0.00000000
    Gval -0.00000000 -0.00000000 -0.00000000 -0.00000000 -0.00000000 -0.00000000 -0.00000000 -0.00000000
    Gval -0.00000000 -0.00000000 -0.00000000 -0.00000000 -0.00000000 -0.00000000 -0.00000000 -0.00000000
    Gval -0.00000000 -0.00000000 -0.00000000 -0.00000000 -0.00000000 -0.00000000 -0.00000000 -0.00000000
    Gval -0.00000000 -0.00000000 -0.00000000 -0.00000000 -0.00000000 -0.00000000 -0.00000000 -0.00000000
    Gval -0.00000000 -0.00000000 -0.00000000 -0.00000000 -0.00000000 -0.00000000 -0.00000000  0.00000000
    Gval  0.00000000  0.00000000  0.00000000  0.00000000  0.00000000  0.00000000  0.00000000  0.00000000
    Gval  0.00000000  0.00000000  0.00000000  0.00000000  0.00000000  0.00000000  0.00000000  0.00000000
    Gval  0.00000000  0.00000000  0.00000000  0.00000000  0.00000000  0.00000000  0.00000000  0.00000000
    Gval  0.00000000  0.00000000  0.00000000  0.00000000  0.00000000  0.00000000  0.00000000  0.00000000
    Gval  0.00000000  0.00000000  0.00000000  0.00000000  0.00000000  0.00000000  0.00000000  0.00000000
    Gval  0.00000000  0.00000000  0.00000000  0.00000000  0.00000000  0.00000000  0.00000000  0.00000000
    Gval  0.00000000  0.00000000  0.00000000  0.00000000  0.00000000  0.00000000  0.00000000  0.00000000
    Gval  0.00000000  0.00000000  0.00000000  0.00000000  0.00000000  0.00000000  0.00000000  0.00000000
    Gval  0.00000000  0.00000000  0.00000000  0.00000000  0.00000000  0.00000000  0.00000000  0.00000000
    Gval  0.00000000  0.00000000  0.00000000  0.00000000  0.00000000  0.00000000  0.00000000  0.00000000
    Gval  0.00000000  0.00000000  0.00000000  0.00000000  0.00000000  0.00000136  0.00000296  0.00000343
    Gval  0.00000535  0.00000880  0.00001047  0.00001118  0.00001436  0.00001506  0.00001574  0.00001780
    Gval  0.00001833  0.00002134  0.00002302  0.00002426  0.00002609  0.00002891  0.00003056  0.00003598
    Gval  0.00003997  0.00004473  0.00005050  0.00005222  0.00005394  0.00005473  0.00005743  0.00005878
    Gval  0.00006399  0.00006928  0.00007262  0.00007530  0.00008142  0.00008252  0.00008557  0.00008721
    Gval  0.00008920  0.00009266  0.00009788  0.00009891  0.00011917  0.00012620  0.00012859  0.00013670
    Gval  0.00013973  0.00014014  0.00014110  0.00016050  0.00016258  0.00016762  0.00018234  0.00018668
    Gval  0.00021150  0.00022348  0.00022563  0.00023404  0.00024733  0.00027901  0.00029007  0.00029450
    Gval  0.00030800  0.00034698  0.00037259  0.00038330  0.00039141  0.00039428  0.00039820  0.00039848
    Gval  0.00042681  0.00043305  0.00043466  0.00043597  0.00044177  0.00044317  0.00046277  0.00046562
    Gval  0.00046841  0.00049310  0.00049331  0.00053059  0.00053335  0.00053739  0.00055315  0.00055534
    Gval  0.00055583  0.00055933  0.00059854  0.00059927  0.00059960  0.00059988  0.00060221  0.00063810
    Gval  0.00064141  0.00064493  0.00064573  0.00064754  0.00067201  0.00069597  0.00069607  0.00081179
    Gval  0.00084279  0.00090400  0.00105962  0.00109209  0.00109307  0.00109369  0.00109427  0.00114765
    Gval  0.00116346  0.00116365  0.00116393  0.00116420  0.00116529  0.00116585  0.00116968  0.00128766
    Gval  0.00128913  0.00132255  0.00134905  0.00153508  0.00156124  0.00177119  0.00178322  0.00191821
    Gval  0.00227170  0.00234845  0.00252449  0.00254320  0.00259156  0.00277627  0.00292491  0.00294907
    Gval  0.00302030  0.00304160  0.00308349  0.00308694  0.00366036  0.00366222  0.00370829  0.00370983
    Gval  0.00392457  0.00550655
  1.362975878196716E-006  1.362975878196716E-006
  2.963986870562817E-006  1.362975878196716E-006
  3.430558174291160E-006  1.362975878196716E-006
  5.351316099352517E-006  1.362975878196716E-006
  8.800523223534496E-006  1.362975878196716E-006
  1.046956376695494E-005  1.362975878196716E-006
  1.118153395237549E-005  1.362975878196716E-006
  1.436253804064919E-005  1.362975878196716E-006
  1.506331740204338E-005  1.362975878196716E-006
  1.574034429647263E-005  1.362975878196716E-006
  1.779888660524597E-005  1.362975878196716E-006
  1.833161810097473E-005  1.362975878196716E-006
  2.133910465103019E-005  1.362975878196716E-006
  2.302080390065243E-005  1.362975878196716E-006
  2.425710271933181E-005  1.362975878196716E-006
  2.608847961630222E-005  1.362975878196716E-006
  2.890737256140043E-005  1.362975878196716E-006
  3.055706956833550E-005  1.362975878196716E-006
  3.598070027713563E-005  1.362975878196716E-006
  3.996557296800874E-005  1.362975878196716E-006
  4.472562347407439E-005  1.362975878196716E-006
  5.049767792423760E-005  1.362975878196716E-006
  5.221560058302947E-005  1.362975878196716E-006
  5.393987869205452E-005  1.362975878196716E-006
  5.472951942548147E-005  1.362975878196716E-006
  5.742948478271536E-005  1.362975878196716E-006
  5.877748424372917E-005  1.362975878196716E-006
  6.398661027421314E-005  1.362975878196716E-006
  6.928199708854999E-005  1.362975878196716E-006
  7.262205227773873E-005  1.362975878196716E-006
  7.529579802819033E-005  1.362975878196716E-006
  8.141602323140426E-005  1.362975878196716E-006
  8.251614733398831E-005  1.362975878196716E-006
  8.557114520654497E-005  1.362975878196716E-006
  8.720888083735807E-005  1.362975878196716E-006
  8.919519955533890E-005  1.362975878196716E-006
  9.265930555565879E-005  1.362975878196716E-006
  9.787960912927080E-005  1.362975878196716E-006
  9.890750435575579E-005  1.362975878196716E-006
  1.191728772723377E-004  1.362975878196716E-006
  1.261975389499843E-004  1.362975878196716E-006
  1.285860944181426E-004  1.362975878196716E-006
  1.367043583768544E-004  1.362975878196716E-006
  1.397286537479429E-004  1.362975878196716E-006
  1.401413316327308E-004  1.362975878196716E-006
  1.411033438620109E-004  1.362975878196716E-006
  1.605042241324374E-004  1.362975878196716E-006
  1.625768301508377E-004  1.362975878196716E-006
  1.676211023474994E-004  1.362975878196716E-006
  1.823371454888085E-004  1.362975878196716E-006
  1.866819913871046E-004  1.362975878196716E-006
  2.114961473292690E-004  1.362975878196716E-006
  2.234791813190661E-004  1.362975878196716E-006
  2.256304579748138E-004  1.362975878196716E-006
  2.340363480567090E-004  1.362975878196716E-006
  2.473272212262242E-004  1.362975878196716E-006
  2.790068332324721E-004  1.362975878196716E-006
  2.900713292292199E-004  1.362975878196716E-006
  2.944992504643414E-004  1.362975878196716E-006
  3.080026763268674E-004  1.362975878196716E-006
  3.469799471054519E-004  1.362975878196716E-006
  3.725882307233785E-004  1.362975878196716E-006
  3.833018074746368E-004  1.362975878196716E-006
  3.914102429209244E-004  1.362975878196716E-006
  3.942754733052203E-004  1.362975878196716E-006
  3.982031325463334E-004  1.362975878196716E-006
  3.984840871711712E-004  1.362975878196716E-006
  4.268124798016436E-004  1.362975878196716E-006
  4.330502739246548E-004  1.362975878196716E-006
  4.346568068284227E-004  1.362975878196716E-006
  4.359712739288949E-004  1.362975878196716E-006
  4.417700188920369E-004  1.362975878196716E-006
  4.431668161347505E-004  1.362975878196716E-006
  4.627705043709358E-004  1.362975878196716E-006
  4.656187501576939E-004  1.362975878196716E-006
  4.684143843725950E-004  1.362975878196716E-006
  4.931033623064300E-004  1.362975878196716E-006
  4.933124421564813E-004  1.362975878196716E-006
  5.305873991721605E-004  1.362975878196716E-006
  5.333515367844695E-004  1.362975878196716E-006
  5.373939087931460E-004  1.362975878196716E-006
  5.531484220738818E-004  1.362975878196716E-006
  5.553371803077988E-004  1.362975878196716E-006
  5.558328614302808E-004  1.362975878196716E-006
  5.593323959760074E-004  1.362975878196716E-006
  5.985372900290353E-004  1.362975878196716E-006
  5.992715229040986E-004  1.362975878196716E-006
  5.995978912512966E-004  1.362975878196716E-006
  5.998839481720311E-004  1.362975878196716E-006
  6.022123093948011E-004  1.362975878196716E-006
  6.380970807301666E-004  1.362975878196716E-006
  6.414138416119481E-004  1.362975878196716E-006
  6.449299205520408E-004  1.362975878196716E-006
  6.457292494099771E-004  1.362975878196716E-006
  6.475414071250699E-004  1.362975878196716E-006
  6.720093116198869E-004  1.362975878196716E-006
  6.959671256069168E-004  1.362975878196716E-006
  6.960721120588273E-004  1.362975878196716E-006
  8.117905096030692E-004  1.362975878196716E-006
  8.427867552392292E-004  1.362975878196716E-006
  9.040023392510157E-004  1.362975878196716E-006
  1.059616302041659E-003  1.362975878196716E-006
  1.092090803221572E-003  1.362975878196716E-006
  1.093071747966588E-003  1.362975878196716E-006
  1.093689020040340E-003  1.362975878196716E-006
  1.094274916522254E-003  1.362975878196716E-006
  1.147648399725896E-003  1.362975878196716E-006
  1.163462872003472E-003  1.362975878196716E-006
  1.163653126512698E-003  1.362975878196716E-006
  1.163932409796605E-003  1.362975878196716E-006
  1.164196560042258E-003  1.362975878196716E-006
  1.165293597525006E-003  1.362975878196716E-006
  1.165852391229546E-003  1.362975878196716E-006
  1.169676672922414E-003  1.362975878196716E-006
  1.287661590293040E-003  1.362975878196716E-006
  1.289127107376525E-003  1.362975878196716E-006
  1.322550696272992E-003  1.362975878196716E-006
  1.349048519553502E-003  1.362975878196716E-006
  1.535077921220362E-003  1.362975878196716E-006
  1.561241973760844E-003  1.362975878196716E-006
  1.771186127720544E-003  1.362975878196716E-006
  1.783215439471139E-003  1.362975878196716E-006
  1.918211191565123E-003  1.362975878196716E-006
  2.271699544669196E-003  1.362975878196716E-006
  2.348450413234828E-003  1.362975878196716E-006
  2.524486748860921E-003  1.362975878196716E-006
  2.543201831403208E-003  1.362975878196716E-006
  2.591564979488608E-003  1.362975878196716E-006
  2.776272101075804E-003  1.362975878196716E-006
  2.924907073603200E-003  1.362975878196716E-006
  2.949070788576404E-003  1.362975878196716E-006
  3.020296234058043E-003  1.362975878196716E-006
  3.041601089752695E-003  1.362975878196716E-006
  3.083487808009703E-003  1.362975878196716E-006
  3.086943685905877E-003  1.362975878196716E-006
  3.660361437096199E-003  1.362975878196716E-006
  3.662218384831350E-003  1.362975878196716E-006
  3.708294717286668E-003  1.362975878196716E-006
  3.709830780170800E-003  1.362975878196716E-006
  3.924571062058376E-003  1.362975878196716E-006
  5.506552966036556E-003  1.362975878196716E-006
 cut=1d-8, nber non-redundant internal coords=         141
 Check on Eigenvals of non-red overlap matrix:
  0.00000136  0.00000296  0.00000343  0.00000535  0.00000880  0.00001047  0.00001118  0.00001436
  0.00001506  0.00001574  0.00001780  0.00001833  0.00002134  0.00002302  0.00002426  0.00002609
  0.00002891  0.00003056  0.00003598  0.00003997  0.00004473  0.00005050  0.00005222  0.00005394
  0.00005473  0.00005743  0.00005878  0.00006399  0.00006928  0.00007262  0.00007530  0.00008142
  0.00008252  0.00008557  0.00008721  0.00008920  0.00009266  0.00009788  0.00009891  0.00011917
  0.00012620  0.00012859  0.00013670  0.00013973  0.00014014  0.00014110  0.00016050  0.00016258
  0.00016762  0.00018234  0.00018668  0.00021150  0.00022348  0.00022563  0.00023404  0.00024733
  0.00027901  0.00029007  0.00029450  0.00030800  0.00034698  0.00037259  0.00038330  0.00039141
  0.00039428  0.00039820  0.00039848  0.00042681  0.00043305  0.00043466  0.00043597  0.00044177
  0.00044317  0.00046277  0.00046562  0.00046841  0.00049310  0.00049331  0.00053059  0.00053335
[...]
 nber times 1st assigned=          39           0
 nber times 1st assigned=          40           0
 nber times 1st assigned=          41           0
 nber times 1st assigned=          42           0
 nber times 1st assigned=          43           0
 nber times 1st assigned=          44           0
 nber times 1st assigned=          45           0
 nber times 1st assigned=          46           0
 nber times 1st assigned=          47           0
 nber times 1st assigned=          48           0
 nber times 1st assigned=          49           0
 nber times 1st assigned=          50           0
 nber times 1st assigned=          51           0
 nber times 1st assigned=          52           0
 nber times 1st assigned=          53           0
 nber times 1st assigned=          54           0
 nber times 1st assigned=          55           0
 nber times 1st assigned=          56           0
 nber times 1st assigned=          57           0
 nber times 1st assigned=          58           0
 nber times 1st assigned=          59           0
 nber times 1st assigned=          60           0
 nber times 1st assigned=          61           0
 nber times 1st assigned=          62           0
 nber times 1st assigned=          63           0
 nber times 1st assigned=          64           0
 nber times 1st assigned=          65           0
 nber times 1st assigned=          66           0
 nber times 1st assigned=          67           0
 nber times 1st assigned=          68           0
 nber times 1st assigned=          69           0
 nber times 1st assigned=          70           0
 nber times 1st assigned=          71           0
 nber times 1st assigned=          72           0
 nber times 1st assigned=          73           0
 nber times 1st assigned=          74           0
 nber times 1st assigned=          75           0
 nber times 1st assigned=          76           0
 nber times 1st assigned=          77           0
 nber times 1st assigned=          78           0
 nber times 1st assigned=          79           0
 nber times 1st assigned=          80           0
 nber times 1st assigned=          81           0
 nber times 1st assigned=          82           0
 nber times 1st assigned=          83           0
 nber times 1st assigned=          84           0
 nber times 1st assigned=          85           0
 nber times 1st assigned=          86           0
 nber times 1st assigned=          87           0
 nber times 1st assigned=          88           0
 nber times 1st assigned=          89           0
 nber times 1st assigned=          90           0
 nber times 1st assigned=          91           0
 nber times 1st assigned=          92           0
 nber times 1st assigned=          93           0
 nber times 1st assigned=          94           0
 nber times 1st assigned=          95           0
 nber times 1st assigned=          96           0
 nber times 1st assigned=          97           0
 nber times 1st assigned=          98           0
 nber times 1st assigned=          99           0
 nber times 1st assigned=         100           0
 nber times 1st assigned=         101           0
 nber times 1st assigned=         102           0
 nber times 1st assigned=         103           0
 nber times 1st assigned=         104           0
 nber times 1st assigned=         105           0
 nber times 1st assigned=         106           0
 nber times 1st assigned=         107           0
 nber times 1st assigned=         108           0
 nber times 1st assigned=         109           0
 nber times 1st assigned=         110           0
 nber times 1st assigned=         111           0
 nber times 1st assigned=         112           0
 nber times 1st assigned=         113           0
 nber times 1st assigned=         114           0
 nber times 1st assigned=         115           0
 nber times 1st assigned=         116           0
 nber times 1st assigned=         117           0
 nber times 1st assigned=         118           0
 nber times 1st assigned=         119           0
 nber times 1st assigned=         120           0
 nber times 1st assigned=         121           0
 nber times 1st assigned=         122           0
 nber times 1st assigned=         123           0
 nber times 1st assigned=         124           0
 nber times 1st assigned=         125           0
 nber times 1st assigned=         126           0
 nber times 1st assigned=         127           0
 nber times 1st assigned=         128           0
 nber times 1st assigned=         129           0
 nber times 1st assigned=         130           0
 nber times 1st assigned=         131           0
 nber times 1st assigned=         132           0
 nber times 1st assigned=         133           0
 nber times 1st assigned=         134           0
 nber times 1st assigned=         135           0
 nber times 1st assigned=         136           0
 nber times 1st assigned=         137           0
 nber times 1st assigned=         138           0
 nber times 1st assigned=         139           0
 nber times 1st assigned=         140           0
 nber times 1st assigned=         141           0
 nber times 1st assigned=         142           0
 nber times 1st assigned=         143           0
 nber times 1st assigned=         144           0
 nber times 1st assigned=         145           0
 nber times 1st assigned=         146           0
 nber times 1st assigned=         147           0
 modes represented=   141.033529088176     
 p1=
    0.    0.    0.   -0.   -0.   -0.    1.    1.   -0.   -0.    0.    0.    0.   -0.    0.   -0.    0.    2.   -0.   -3.
   -0.    0.    1.   -0.    2.    6.    0.    0.   -1.    3.    0.   -0.   -4.    2.   -2.    2.   -0.    1.    0.   -1.
   -0.   -0.    0.   -2.    0.    0.   -2.    0.   -0.    0.    0.   -2.   -0.   -0.    0.   -0.    0.    2.    0.    0.
   -0.   -0.    0.    1.   -0.   -0.   -1.   -0.   -0.    1.   -1.    1.   -0.    0.    0.   -0.   -0.   -0.    0.   -0.
   -0.   -1.    0.    0.   -0.    0.   -0.   -0.   -0.   -0.   -0.    1.   -1.    0.   -0.    0.   -2.   -0.    0.    0.
   -0.   -0.    0.    2.    0.   -0.    0.    0.    0.   -0.    1.    0.   -0.   -0.    0.   -0.    0.    0.    0.   -0.
   -0.    1.   -0.   -0.   -0.    0.    0.    0.   -1.   -0.    1.   -0.    0.   -0.    0.   -0.    0.    0.   -0.    0.
    0.   -0.    0.    0.    0.    0.   -0.
 p2=
   -0.   -0.   -0.   -0.   -0.    0.    1.    1.   -0.   -1.    0.    0.   -0.    0.    0.    0.    2.    0.   -0.   -3.
    0.   -1.   -1.    0.   -2.   -6.   -0.    0.    1.   -3.    0.    0.   -4.   -2.   -3.    1.   -0.    2.   -1.   -0.
   -0.    0.   -0.    1.    0.   -2.   -0.   -0.   -0.    0.   -2.    0.    0.    0.   -0.    2.   -0.   -0.    0.   -0.
   -0.    0.    1.    0.    0.    0.   -1.   -0.    0.    1.   -1.    1.   -0.    0.    0.    0.    0.   -0.    0.   -0.
   -0.    1.   -1.    0.   -0.   -0.   -0.    0.    0.   -0.   -0.    1.   -0.    0.    0.    0.   -2.    0.   -0.    0.
    0.    0.    1.    0.   -0.   -0.   -0.    0.   -0.   -0.   -1.    0.    0.    0.   -0.    0.   -0.    0.    0.    0.
    0.    0.    1.   -0.   -0.   -0.    0.    0.    1.    2.   -0.   -0.   -0.   -0.    0.   -0.   -0.   -0.   -0.   -0.
    0.   -0.    0.   -0.    0.   -0.   -0.

 Displacement: in terms of nc of 1 THEN of nc of 2

   1     freq=    -0. Q=  0.000 lam=    -0.0     freq=    -0. Q=  0.000 lam=    -0.0
   2     freq=    -0. Q=  0.000 lam=    -0.0     freq=    -0. Q=  0.000 lam=    -0.0
   3     freq=    -0. Q=  0.000 lam=    -0.0     freq=     0. Q=  0.000 lam=     0.0
   4     freq=     0. Q= -0.000 lam=     0.0     freq=     0. Q= -0.000 lam=     0.0
   5     freq=     0. Q= -0.000 lam=     0.0     freq=     0. Q= -0.000 lam=     0.0
   6     freq=     0. Q= -0.000 lam=     0.0     freq=     0. Q= -0.000 lam=     0.0
   7     freq=    25. Q=  0.019 lam=     0.0     freq=    24. Q=  0.018 lam=     0.0
   8     freq=    29. Q=  0.014 lam=     0.0     freq=    27. Q=  0.012 lam=     0.0
   9     freq=    54. Q= -0.001 lam=     0.0     freq=    56. Q= -0.000 lam=     0.0
  10     freq=    57. Q= -0.014 lam=     0.0     freq=    60. Q= -0.016 lam=     0.0
  11     freq=    79. Q=  0.001 lam=     0.0     freq=    85. Q=  0.001 lam=     0.0
  12     freq=    91. Q=  0.003 lam=     0.0     freq=    94. Q=  0.002 lam=     0.0
  13     freq=    98. Q=  0.007 lam=     0.0     freq=   100. Q=  0.008 lam=     0.0
  14     freq=   110. Q= -0.020 lam=     0.0     freq=   115. Q= -0.021 lam=     0.0
  15     freq=   147. Q=  0.000 lam=     0.0     freq=   151. Q=  0.000 lam=     0.0
  16     freq=   168. Q= -0.008 lam=     0.0     freq=   170. Q= -0.007 lam=     0.0
  17     freq=   186. Q=  0.003 lam=     0.0     freq=   193. Q=  0.127 lam=     1.6
  18     freq=   190. Q=  0.112 lam=     1.2     freq=   197. Q=  0.002 lam=     0.0
  19     freq=   201. Q= -0.001 lam=     0.0     freq=   201. Q= -0.002 lam=     0.0
  20     freq=   208. Q= -0.172 lam=     3.1     freq=   210. Q= -0.164 lam=     2.8
  21     freq=   213. Q= -0.002 lam=     0.0     freq=   216. Q= -0.001 lam=     0.0
  22     freq=   235. Q=  0.003 lam=     0.0     freq=   234. Q=  0.074 lam=     0.6
  23     freq=   236. Q=  0.087 lam=     0.9     freq=   235. Q=  0.054 lam=     0.3
  24     freq=   257. Q= -0.000 lam=     0.0     freq=   266. Q= -0.000 lam=     0.0
  25     freq=   278. Q=  0.154 lam=     3.3     freq=   281. Q=  0.151 lam=     3.2
  26     freq=   291. Q=  0.412 lam=    24.7     freq=   292. Q=  0.407 lam=    24.2
  27     freq=   303. Q=  0.000 lam=     0.0     freq=   302. Q=  0.001 lam=     0.0
  28     freq=   325. Q=  0.001 lam=     0.0     freq=   344. Q=  0.001 lam=     0.0
  29     freq=   349. Q= -0.040 lam=     0.3     freq=   355. Q= -0.046 lam=     0.4
  30     freq=   377. Q=  0.218 lam=     8.9     freq=   376. Q=  0.222 lam=     9.3
  31     freq=   389. Q=  0.015 lam=     0.0     freq=   392. Q=  0.017 lam=     0.1
  32     freq=   418. Q= -0.002 lam=     0.0     freq=   419. Q= -0.000 lam=     0.0
  33     freq=   423. Q= -0.363 lam=    27.9     freq=   425. Q= -0.345 lam=    25.3
  34     freq=   433. Q=  0.147 lam=     4.7     freq=   437. Q=  0.160 lam=     5.6
  35     freq=   436. Q= -0.207 lam=     9.4     freq=   441. Q= -0.241 lam=    12.8
  36     freq=   439. Q=  0.136 lam=     4.1     freq=   444. Q=  0.077 lam=     1.3
  37     freq=   447. Q= -0.003 lam=     0.0     freq=   454. Q= -0.001 lam=     0.0
  38     freq=   475. Q=  0.102 lam=     2.5     freq=   475. Q=  0.132 lam=     4.2
  39     freq=   483. Q=  0.000 lam=     0.0     freq=   490. Q=  0.129 lam=     4.1
  40     freq=   488. Q= -0.123 lam=     3.7     freq=   504. Q= -0.000 lam=     0.0
  41     freq=   494. Q= -0.001 lam=     0.0     freq=   511. Q= -0.001 lam=     0.0
  42     freq=   507. Q= -0.000 lam=     0.0     freq=   512. Q= -0.028 lam=     0.2
  43     freq=   514. Q=  0.028 lam=     0.2     freq=   519. Q=  0.000 lam=     0.0
  44     freq=   545. Q= -0.143 lam=     5.6     freq=   544. Q= -0.138 lam=     5.2
  45     freq=   560. Q=  0.001 lam=     0.0     freq=   579. Q=  0.012 lam=     0.0
  46     freq=   573. Q=  0.014 lam=     0.1     freq=   581. Q=  0.229 lam=    15.2
  47     freq=   576. Q= -0.227 lam=    14.9     freq=   581. Q= -0.006 lam=     0.0
  48     freq=   606. Q=  0.000 lam=     0.0     freq=   621. Q=  0.016 lam=     0.1
  49     freq=   612. Q= -0.017 lam=     0.1     freq=   625. Q= -0.000 lam=     0.0
  50     freq=   626. Q=  0.001 lam=     0.0     freq=   645. Q=  0.001 lam=     0.0
  51     freq=   653. Q=  0.000 lam=     0.0     freq=   664. Q=  0.215 lam=    15.4
  52     freq=   656. Q= -0.216 lam=    15.4     freq=   665. Q= -0.001 lam=     0.0
  53     freq=   676. Q= -0.001 lam=     0.0     freq=   692. Q= -0.011 lam=     0.0
  54     freq=   690. Q= -0.010 lam=     0.0     freq=   699. Q= -0.001 lam=     0.0
  55     freq=   690. Q=  0.001 lam=     0.0     freq=   717. Q=  0.006 lam=     0.0
  56     freq=   712. Q= -0.007 lam=     0.0     freq=   740. Q= -0.207 lam=    15.9
  57     freq=   729. Q=  0.000 lam=     0.0     freq=   748. Q=  0.001 lam=     0.0
  58     freq=   737. Q=  0.202 lam=    15.0     freq=   758. Q=  0.002 lam=     0.0
  59     freq=   754. Q=  0.001 lam=     0.0     freq=   759. Q=  0.000 lam=     0.0
  60     freq=   761. Q=  0.002 lam=     0.0     freq=   771. Q=  0.001 lam=     0.0
  61     freq=   764. Q= -0.001 lam=     0.0     freq=   774. Q= -0.020 lam=     0.2
  62     freq=   770. Q= -0.022 lam=     0.2     freq=   784. Q= -0.000 lam=     0.0
  63     freq=   778. Q=  0.002 lam=     0.0     freq=   805. Q=  0.083 lam=     2.8
  64     freq=   802. Q=  0.095 lam=     3.6     freq=   809. Q=  0.000 lam=     0.0
  65     freq=   814. Q= -0.000 lam=     0.0     freq=   813. Q= -0.001 lam=     0.0
  66     freq=   815. Q= -0.000 lam=     0.0     freq=   818. Q= -0.000 lam=     0.0
  67     freq=   821. Q= -0.079 lam=     2.6     freq=   824. Q= -0.072 lam=     2.2
  68     freq=   831. Q= -0.001 lam=     0.0     freq=   829. Q= -0.000 lam=     0.0
  69     freq=   834. Q= -0.000 lam=     0.0     freq=   836. Q= -0.001 lam=     0.0
  70     freq=   845. Q=  0.170 lam=    12.2     freq=   847. Q=  0.171 lam=    12.4
  71     freq=   863. Q= -0.075 lam=     2.4     freq=   872. Q= -0.068 lam=     2.0
  72     freq=   913. Q=  0.089 lam=     3.6     freq=   927. Q=  0.098 lam=     4.5
  73     freq=   927. Q= -0.041 lam=     0.8     freq=   942. Q= -0.000 lam=     0.0
  74     freq=   945. Q=  0.000 lam=     0.0     freq=   953. Q=  0.001 lam=     0.0
  75     freq=   957. Q=  0.000 lam=     0.0     freq=   954. Q=  0.025 lam=     0.3
  76     freq=   974. Q= -0.006 lam=     0.0     freq=   963. Q= -0.000 lam=     0.0
  77     freq=   975. Q= -0.057 lam=     1.6     freq=   967. Q= -0.001 lam=     0.0
  78     freq=   976. Q= -0.000 lam=     0.0     freq=   976. Q= -0.000 lam=     0.0
  79     freq=   988. Q=  0.000 lam=     0.0     freq=   980. Q=  0.000 lam=     0.0
  80     freq=   988. Q= -0.000 lam=     0.0     freq=   985. Q= -0.063 lam=     2.0
  81     freq=  1053. Q= -0.020 lam=     0.2     freq=  1058. Q= -0.031 lam=     0.5
  82     freq=  1083. Q= -0.179 lam=    17.3     freq=  1079. Q= -0.142 lam=    11.0
  83     freq=  1094. Q=  0.042 lam=     1.0     freq=  1090. Q=  0.093 lam=     4.8
  84     freq=  1121. Q=  0.015 lam=     0.1     freq=  1124. Q=  0.006 lam=     0.0
  85     freq=  1152. Q= -0.010 lam=     0.1     freq=  1154. Q= -0.000 lam=     0.0
  86     freq=  1155. Q=  0.000 lam=     0.0     freq=  1156. Q=  0.004 lam=     0.0
  87     freq=  1160. Q= -0.005 lam=     0.0     freq=  1157. Q= -0.008 lam=     0.0
  88     freq=  1176. Q= -0.011 lam=     0.1     freq=  1176. Q= -0.018 lam=     0.2
  89     freq=  1186. Q= -0.033 lam=     0.6     freq=  1184. Q= -0.018 lam=     0.2
  90     freq=  1196. Q= -0.006 lam=     0.0     freq=  1194. Q= -0.003 lam=     0.0
  91     freq=  1200. Q= -0.002 lam=     0.0     freq=  1202. Q= -0.000 lam=     0.0
  92     freq=  1206. Q=  0.073 lam=     3.2     freq=  1203. Q=  0.085 lam=     4.3
  93     freq=  1224. Q= -0.076 lam=     3.6     freq=  1224. Q= -0.046 lam=     1.3
  94     freq=  1233. Q=  0.037 lam=     0.8     freq=  1234. Q=  0.064 lam=     2.5
  95     freq=  1243. Q= -0.004 lam=     0.0     freq=  1247. Q= -0.003 lam=     0.0
  96     freq=  1264. Q=  0.003 lam=     0.0     freq=  1257. Q=  0.000 lam=     0.0
  97     freq=  1296. Q= -0.253 lam=    41.5     freq=  1293. Q= -0.251 lam=    40.7
  98     freq=  1311. Q= -0.051 lam=     1.7     freq=  1300. Q= -0.030 lam=     0.6
  99     freq=  1318. Q=  0.003 lam=     0.0     freq=  1314. Q=  0.005 lam=     0.0
 100     freq=  1349. Q=  0.002 lam=     0.0     freq=  1345. Q=  0.031 lam=     0.6
 101     freq=  1356. Q= -0.059 lam=     2.3     freq=  1352. Q= -0.002 lam=     0.0
 102     freq=  1364. Q= -0.001 lam=     0.0     freq=  1364. Q= -0.074 lam=     3.7
 103     freq=  1382. Q=  0.019 lam=     0.3     freq=  1377. Q=  0.184 lam=    23.3
 104     freq=  1382. Q=  0.231 lam=    37.0     freq=  1383. Q=  0.001 lam=     0.0
 105     freq=  1392. Q=  0.045 lam=     1.4     freq=  1385. Q=  0.005 lam=     0.0
 106     freq=  1400. Q= -0.001 lam=     0.0     freq=  1391. Q= -0.013 lam=     0.1
 107     freq=  1401. Q=  0.007 lam=     0.0     freq=  1395. Q=  0.000 lam=     0.0
 108     freq=  1413. Q=  0.008 lam=     0.0     freq=  1397. Q=  0.001 lam=     0.0
 109     freq=  1416. Q=  0.058 lam=     2.4     freq=  1406. Q=  0.057 lam=     2.2
 110     freq=  1430. Q= -0.051 lam=     1.9     freq=  1422. Q= -0.047 lam=     1.6
 111     freq=  1440. Q=  0.122 lam=    10.7     freq=  1439. Q=  0.156 lam=    17.6
 112     freq=  1441. Q=  0.035 lam=     0.9     freq=  1464. Q=  0.001 lam=     0.0
 113     freq=  1460. Q= -0.012 lam=     0.1     freq=  1466. Q= -0.002 lam=     0.0
 114     freq=  1467. Q= -0.003 lam=     0.0     freq=  1472. Q= -0.002 lam=     0.0
 115     freq=  1485. Q=  0.000 lam=     0.0     freq=  1480. Q=  0.037 lam=     1.0
 116     freq=  1490. Q= -0.047 lam=     1.7     freq=  1482. Q= -0.001 lam=     0.0
 117     freq=  1498. Q=  0.039 lam=     1.2     freq=  1493. Q=  0.041 lam=     1.3
 118     freq=  1505. Q=  0.000 lam=     0.0     freq=  1508. Q=  0.000 lam=     0.0
 119     freq=  1512. Q=  0.002 lam=     0.0     freq=  1524. Q=  0.027 lam=     0.5
 120     freq=  1522. Q= -0.026 lam=     0.5     freq=  1532. Q= -0.008 lam=     0.1
 121     freq=  1547. Q= -0.051 lam=     2.0     freq=  1563. Q= -0.042 lam=     1.3
 122     freq=  1557. Q=  0.187 lam=    27.2     freq=  1574. Q=  0.012 lam=     0.1
 123     freq=  1568. Q= -0.003 lam=     0.0     freq=  1574. Q= -0.195 lam=    29.9
 124     freq=  1579. Q= -0.006 lam=     0.0     freq=  1589. Q= -0.008 lam=     0.1
 125     freq=  1598. Q= -0.002 lam=     0.0     freq=  1608. Q= -0.002 lam=     0.0
 126     freq=  1598. Q=  0.016 lam=     0.2     freq=  1618. Q=  0.078 lam=     4.9
 127     freq=  1622. Q=  0.037 lam=     1.1     freq=  1626. Q=  0.011 lam=     0.1
 128     freq=  1686. Q=  0.005 lam=     0.0     freq=  1664. Q=  0.008 lam=     0.1
 129     freq=  1725. Q= -0.177 lam=    27.1     freq=  1701. Q= -0.165 lam=    23.3
 130     freq=  1743. Q= -0.003 lam=     0.0     freq=  1719. Q= -0.295 lam=    74.8
 131     freq=  1745. Q=  0.249 lam=    54.0     freq=  1723. Q=  0.002 lam=     0.0
 132     freq=  3034. Q= -0.000 lam=     0.0     freq=  3022. Q= -0.000 lam=     0.0
 133     freq=  3038. Q=  0.017 lam=     0.5     freq=  3027. Q=  0.019 lam=     0.5
 134     freq=  3092. Q= -0.000 lam=     0.0     freq=  3080. Q= -0.000 lam=     0.0
 135     freq=  3095. Q=  0.014 lam=     0.3     freq=  3083. Q=  0.012 lam=     0.2
 136     freq=  3112. Q= -0.008 lam=     0.1     freq=  3104. Q= -0.009 lam=     0.1
 137     freq=  3132. Q=  0.000 lam=     0.0     freq=  3130. Q=  0.000 lam=     0.0
 138     freq=  3143. Q=  0.009 lam=     0.1     freq=  3138. Q=  0.007 lam=     0.1
 139     freq=  3197. Q= -0.003 lam=     0.0     freq=  3181. Q= -0.003 lam=     0.0
 140     freq=  3198. Q=  0.000 lam=     0.0     freq=  3181. Q=  0.001 lam=     0.0
 141     freq=  3204. Q=  0.004 lam=     0.0     freq=  3187. Q=  0.005 lam=     0.0
 142     freq=  3204. Q= -0.009 lam=     0.1     freq=  3188. Q= -0.008 lam=     0.1
 143     freq=  3212. Q=  0.001 lam=     0.0     freq=  3198. Q=  0.000 lam=     0.0
 144     freq=  3212. Q=  0.001 lam=     0.0     freq=  3198. Q=  0.001 lam=     0.0
 145     freq=  3225. Q=  0.004 lam=     0.0     freq=  3212. Q=  0.003 lam=     0.0
 146     freq=  3225. Q=  0.018 lam=     0.5     freq=  3212. Q=  0.018 lam=     0.5
 147     freq=  3580. Q= -0.015 lam=     0.4     freq=  3593. Q= -0.013 lam=     0.3

 total reorg energy (cm**-1, kcal/mol)=      417.      429.      1.19      1.23
 Nber of molecules processed=           2
