 Enter ifcurve (0=recti, 1=orth curvi, 2=apprx curvi, -1 = skip
 And atom ordering flag, 0= never changes, 1= use the first order thenceforth,
  2= deduce it (does read on fail), 3= always read it
 Reading file: 
 ./phenothiazine-pyrene_2_C0S0.log                                              
                                          
  Entering Gaussian System, Link 0=g16                                          
  
 Gaussian format, type: g94, g98, g03= F F F
  #P Geom=AllCheck Guess=TCheck SCRF=Check GenChk RB3LYP/6-311G(d,p) Fre    
 energy type= B3LYP   
 Original G94 input coords:
  6 -6.496806  1.694026  0.000000
  6 -5.159100  2.031024  0.000000
  6 -4.172311  1.048798  0.000000
  6 -4.382410 -0.349530  0.000000
  6 -5.774461 -0.638089  0.000000
  6 -6.774103  0.343991  0.000000
 16 -6.515595 -2.217955  0.000000
  6 -5.101666 -3.240464  0.000000
  6 -5.499053 -4.584280  0.000000
  6 -4.601284 -5.630010  0.000000
  6 -3.268027 -5.275520  0.000000
  6 -2.882235 -3.937821  0.000000
  6 -3.744555 -2.817566  0.000000
  7 -3.311190 -1.389292  0.000000
  6 -1.875002 -1.018205  0.000000
  6 -0.771434 -1.915508  0.000000
  6  0.571047 -1.563497  0.000000
  6  1.066320 -0.251034  0.000000
  6  2.543704  0.028409  0.000000
  6  3.387399 -1.101609  0.000000
  6  4.764475 -1.040467  0.000000
  6  5.427451  0.187456  0.000000
  6  6.857775  0.264595  0.000000
  6  7.498624  1.459716  0.000000
  6  6.756313  2.684988  0.000000
  6  7.399612  3.931193  0.000000
  6  6.670848  5.115489  0.000000
  6  5.282163  5.079819  0.000000
  6  4.599049  3.854832  0.000000
  6  3.175620  3.773023  0.000000
  6  2.524318  2.580793  0.000000
  6  3.197969  1.308119  0.000000
  6  4.640386  1.374807  0.000000
  6  5.327200  2.632510  0.000000
  6  0.000000  0.653796  0.000000
  6 -1.346758  0.298119  0.000000
  1 -7.286533  2.434618  0.000000
  1 -4.839542  3.066563  0.000000
  1 -3.213179  1.483125  0.000000
  1 -7.804538  0.003746  0.000000
  1 -6.565121 -4.786921  0.000000
  1 -4.932331 -6.660818  0.000000
  1 -2.486086 -6.025869  0.000000
  1 -1.833166 -3.850357  0.000000
  1 -0.853576 -2.967111  0.000000
  1  1.237421 -2.412243  0.000000
  1  2.958160 -2.090229  0.000000
  1  5.341864 -1.958941  0.000000
  1  7.418921 -0.663920  0.000000
  1  8.582279  1.508771  0.000000
  1  8.484009  3.960329  0.000000
  1  7.188321  6.068137  0.000000
  1  4.710744  6.001874  0.000000
  1  2.603309  4.695048  0.000000
  1  1.454266  2.623360  0.000000
  1  0.148483  1.716725  0.000000
  1 -1.932263  1.175024  0.000000
 nber atoms=          57
  SCF Done:  E(RB3LYP) =  -1761.47895928     A.U. after    1 cycles             
  
          23          40 "  -1761.47895928"
After scan for Atom:   Atom  AN      X      Y      Z        X      Y      Z        X      Y      Z   
After scan for Atom:   Atom  AN      X      Y      Z        X      Y      Z        X      Y      Z   
After scan for Atom:   Atom  AN      X      Y      Z        X      Y      Z        X      Y      Z   
After scan for Atom:   Atom  AN      X      Y      Z        X      Y      Z        X      Y      Z   
After scan for Atom:   Atom  AN      X      Y      Z        X      Y      Z        X      Y      Z   
After scan for Atom:   Atom  AN      X      Y      Z        X      Y      Z        X      Y      Z   
After scan for Atom:   Atom  AN      X      Y      Z        X      Y      Z        X      Y      Z   
After scan for Atom:   Atom  AN      X      Y      Z        X      Y      Z        X      Y      Z   
After scan for Atom:   Atom  AN      X      Y      Z        X      Y      Z        X      Y      Z   
After scan for Atom:   Atom  AN      X      Y      Z        X      Y      Z        X      Y      Z   
After scan for Atom:   Atom  AN      X      Y      Z        X      Y      Z        X      Y      Z   
After scan for Atom:   Atom  AN      X      Y      Z        X      Y      Z        X      Y      Z   
After scan for Atom:   Atom  AN      X      Y      Z        X      Y      Z        X      Y      Z   
After scan for Atom:   Atom  AN      X      Y      Z        X      Y      Z        X      Y      Z   
After scan for Atom:   Atom  AN      X      Y      Z        X      Y      Z        X      Y      Z   
After scan for Atom:   Atom  AN      X      Y      Z        X      Y      Z        X      Y      Z   
After scan for Atom:   Atom  AN      X      Y      Z        X      Y      Z        X      Y      Z   
After scan for Atom:   Atom  AN      X      Y      Z        X      Y      Z        X      Y      Z   
After scan for Atom:   Atom  AN      X      Y      Z        X      Y      Z        X      Y      Z   
After scan for Atom:   Atom  AN      X      Y      Z        X      Y      Z        X      Y      Z   
After scan for Atom:   Atom  AN      X      Y      Z        X      Y      Z        X      Y      Z   
After scan for Atom:   Atom  AN      X      Y      Z        X      Y      Z        X      Y      Z   
After scan for Atom:   Atom  AN      X      Y      Z        X      Y      Z        X      Y      Z   
After scan for Atom:   Atom  AN      X      Y      Z        X      Y      Z        X      Y      Z   
After scan for Atom:   Atom  AN      X      Y      Z        X      Y      Z        X      Y      Z   
After scan for Atom:   Atom  AN      X      Y      Z        X      Y      Z        X      Y      Z   
After scan for Atom:   Atom  AN      X      Y      Z        X      Y      Z        X      Y      Z   
After scan for Atom:   Atom  AN      X      Y      Z        X      Y      Z        X      Y      Z   
After scan for Atom:   Atom  AN      X      Y      Z        X      Y      Z        X      Y      Z   
After scan for Atom:   Atom  AN      X      Y      Z        X      Y      Z        X      Y      Z   
After scan for Atom:   Atom  AN      X      Y      Z        X      Y      Z        X      Y      Z   
After scan for Atom:   Atom  AN      X      Y      Z        X      Y      Z        X      Y      Z   
After scan for Atom:   Atom  AN      X      Y      Z        X      Y      Z        X      Y      Z   
After scan for Atom:   Atom  AN      X      Y      Z        X      Y      Z        X      Y      Z   
After scan for Atom:   Atom  AN      X      Y      Z        X      Y      Z        X      Y      Z   
After scan for Atom:   Atom  AN      X      Y      Z        X      Y      Z        X      Y      Z   
After scan for Atom:   Atom  AN      X      Y      Z        X      Y      Z        X      Y      Z   
After scan for Atom:   Atom  AN      X      Y      Z        X      Y      Z        X      Y      Z   
After scan for Atom:   Atom  AN      X      Y      Z        X      Y      Z        X      Y      Z   
After scan for Atom:   Atom  AN      X      Y      Z        X      Y      Z        X      Y      Z   
After scan for Atom:   Atom  AN      X      Y      Z        X      Y      Z        X      Y      Z   
After scan for Atom:   Atom  AN      X      Y      Z        X      Y      Z        X      Y      Z   
After scan for Atom:   Atom  AN      X      Y      Z        X      Y      Z        X      Y      Z   
After scan for Atom:   Atom  AN      X      Y      Z        X      Y      Z        X      Y      Z   
After scan for Atom:   Atom  AN      X      Y      Z        X      Y      Z        X      Y      Z   
After scan for Atom:   Atom  AN      X      Y      Z        X      Y      Z        X      Y      Z   
After scan for Atom:   Atom  AN      X      Y      Z        X      Y      Z        X      Y      Z   
After scan for Atom:   Atom  AN      X      Y      Z        X      Y      Z        X      Y      Z   
After scan for Atom:   Atom  AN      X      Y      Z        X      Y      Z        X      Y      Z   
After scan for Atom:   Atom  AN      X      Y      Z        X      Y      Z        X      Y      Z   
After scan for Atom:   Atom  AN      X      Y      Z        X      Y      Z        X      Y      Z   
After scan for Atom:   Atom  AN      X      Y      Z        X      Y      Z        X      Y      Z   
After scan for Atom:   Atom  AN      X      Y      Z        X      Y      Z        X      Y      Z   
After scan for Atom:   Atom  AN      X      Y      Z        X      Y      Z        X      Y      Z   
After scan for Atom:   Atom  AN      X      Y      Z        X      Y      Z        X      Y      Z   
 g94    frequencies=
     0.0    0.0    0.0    0.0    0.0    0.0 -526.8 -491.9 -172.6  -65.6
   -63.3  -36.6   -6.5   53.3   73.7  136.9  139.6  148.5  163.5  169.8
   202.8  210.8  231.8  245.6  246.8  278.1  304.4  307.1  321.0  338.6
   372.7  385.7  386.5  393.3  427.5  430.3  435.5  458.3  478.9  482.9
   498.8  500.4  517.2  519.3  534.4  536.9  553.4  558.6  560.1  575.9
   586.3  615.2  625.9  632.8  663.9  670.3  686.0  687.0  696.0  705.1
   713.8  716.3  731.4  732.7  732.8  745.3  748.6  766.7  781.0  783.4
   799.6  806.7  820.0  829.0  836.9  852.3  855.2  861.4  862.5  888.8
   889.7  907.8  911.2  913.3  949.5  955.6  970.1  970.7  977.2  986.9
   988.9  996.5 1025.7 1058.8 1077.9 1088.8 1096.2 1105.7 1116.3 1128.0
  1129.9 1136.3 1159.4 1162.0 1171.2 1174.6 1178.9 1185.5 1202.3 1211.4
  1223.3 1235.4 1249.0 1251.4 1261.9 1273.3 1283.1 1296.1 1298.6 1306.2
  1311.3 1333.8 1353.5 1368.8 1389.5 1401.7 1409.4 1427.4 1439.2 1445.8
  1463.1 1465.9 1471.6 1493.8 1505.9 1520.3 1521.6 1543.8 1577.4 1586.5
  1593.5 1620.8 1624.9 1628.8 1631.8 1637.7 1640.3 1645.2 1653.8 1668.2
  3156.2 3156.7 3157.7 3159.6 3162.3 3164.8 3168.1 3174.5 3174.5 3177.3
  3184.9 3199.1 3199.2 3208.5 3246.5 3273.1 3340.5 3442.1 3443.7 3581.7
  3583.1
 g94    symmetries=
                                                A"     A"     A"     A"
      A"     A"     A"     A'     A"     A"     A'     A"     A"     A'
      A"     A"     A'     A'     A"     A"     A"     A'     A'     A"
      A"     A'     A'     A"     A"     A'     A'     A"     A'     A'
      A"     A'     A"     A'     A"     A"     A"     A'     A"     A'
      A"     A'     A"     A'     A'     A"     A'     A"     A"     A'
      A"     A'     A"     A'     A"     A'     A"     A"     A'     A"
      A"     A"     A"     A'     A"     A"     A'     A"     A'     A'
      A"     A"     A"     A"     A"     A"     A"     A"     A"     A"
      A'     A'     A'     A'     A'     A'     A'     A'     A'     A'
      A'     A'     A'     A'     A'     A'     A'     A'     A'     A'
      A'     A'     A'     A'     A'     A'     A'     A'     A'     A'
      A'     A'     A'     A'     A'     A'     A'     A'     A'     A'
      A'     A'     A'     A'     A'     A'     A'     A'     A'     A'
      A'     A'     A'     A'     A'     A'     A'     A'     A'     A'
      A'     A'     A'     A'     A'     A'     A'     A'     A'     A'
      A'     A'     A'     A'     A'     A'     A'     A'     A'     A'
      A'
 atomic masses:
 12.0000 12.0000 12.0000 12.0000 12.0000 12.0000 31.9721 12.0000 12.0000 12.0000
 12.0000 12.0000 12.0000 14.0031 12.0000 12.0000 12.0000 12.0000 12.0000 12.0000
 12.0000 12.0000 12.0000 12.0000 12.0000 12.0000 12.0000 12.0000 12.0000 12.0000
 12.0000 12.0000 12.0000 12.0000 12.0000 12.0000  1.0078  1.0078  1.0078  1.0078
  1.0078  1.0078  1.0078  1.0078  1.0078  1.0078  1.0078  1.0078  1.0078  1.0078
  1.0078  1.0078  1.0078  1.0078  1.0078  1.0078  1.0078
 looking for force constants in 
 ./phenothiazine-pyrene_2_C0S0.fchk                                             
  
 Cartesian Force Constants                  R   N=       14706                  
  
 n3=         171       14706
 g94-fc frequencies=
  -526.8 -491.9 -172.6  -65.6  -63.3  -36.6   -6.6   -0.1   -0.0    0.0
     0.0    1.7    2.9   53.3   73.7  136.9  139.6  148.5  163.5  169.8
   202.8  210.8  231.8  245.6  246.8  278.1  304.4  307.2  321.0  338.6
   372.7  385.7  386.5  393.3  427.5  430.3  435.5  458.3  478.9  482.9
   498.8  500.4  517.3  519.3  534.4  536.9  553.4  558.6  560.1  575.9
   586.3  615.3  626.0  632.8  663.9  670.3  686.0  687.0  696.1  705.1
   713.8  716.3  731.4  732.7  732.9  745.3  748.6  766.8  781.0  783.4
   799.6  806.7  820.0  829.0  836.9  852.4  855.2  861.4  862.5  888.8
   889.7  907.9  911.2  913.3  949.6  955.6  970.1  970.7  977.2  986.9
   988.9  996.5 1025.7 1058.8 1077.9 1088.8 1096.2 1105.7 1116.3 1128.0
  1129.9 1136.3 1159.4 1162.0 1171.2 1174.6 1178.9 1185.5 1202.4 1211.4
  1223.3 1235.4 1249.1 1251.4 1261.9 1273.3 1283.1 1296.1 1298.6 1306.3
  1311.3 1333.8 1353.5 1368.9 1389.5 1401.7 1409.4 1427.4 1439.3 1445.9
  1463.1 1466.0 1471.6 1493.9 1505.9 1520.3 1521.6 1543.8 1577.4 1586.6
  1593.6 1620.8 1624.9 1628.8 1631.9 1637.8 1640.3 1645.2 1653.8 1668.2
  3156.3 3156.7 3157.8 3159.7 3162.4 3164.8 3168.2 3174.5 3174.6 3177.3
  3185.0 3199.2 3199.3 3208.6 3246.6 3273.2 3340.6 3442.2 3443.8 3581.8
  3583.1
 at 99999: n3=         171
 symm operator            1 :  F  nop=           0
 symm operator            2 :  F  nop=           0
 symm operator            3 :  F  nop=           0
 symm operator            4 :  F  nop=           0
 symm operator            5 :  T  nop=           1
 symm operator            6 :  F  nop=           1
 symm operator            7 :  F  nop=           1
 The point group of the molecule is  CS
 enforcing symm op           5  jsymt=           1           1          -1
 cartesian coord symmetries:
 A' :  114 A" :   57
 Symmetry rotation matrix:
   1.00000   0.00000   0.00000
   0.00000   1.00000   0.00000
   0.00000   0.00000   1.00000

 Projecting out zero-frequency components
 generating redundant internal coords
         300        3600          57
 search for int coords
   1 str   2   1   1.380
   2 str   3   2   1.392
   3 str   4   3   1.414
   4 str   5   4   1.422
   5 str   6   1   1.378
   6 str   6   5   1.401
   7 str   7   5   1.745
   8 str   8   7   1.745
   9 str   9   8   1.401
  10 str  10   9   1.378
  11 str  11  10   1.380
  12 str  12  11   1.392
  13 str  13   8   1.421
  14 str  13  12   1.414
  15 str  14   4   1.493
  16 str  14  13   1.493
  17 str  15  14   1.483
  18 str  16  15   1.422
  19 str  17  16   1.388
  20 str  18  17   1.403
  21 str  19  18   1.504
  22 str  20  19   1.410
  23 str  21  20   1.378
  24 str  22  21   1.395
  25 str  23  22   1.432
  26 str  24  23   1.356
  27 str  25  24   1.433
  28 str  26  25   1.402
  29 str  27  26   1.391
  30 str  28  27   1.389
  31 str  29  28   1.403
  32 str  30  29   1.426
  33 str  31  30   1.359
  34 str  32  19   1.437
  35 str  32  31   1.440
  36 str  33  22   1.425
  37 str  33  32   1.444
  38 str  34  25   1.430
  39 str  34  29   1.423
  40 str  34  33   1.433
  41 str  35  18   1.398
  42 str  36  15   1.418
  43 str  36  35   1.393
  44 str  37   1   1.083
  45 str  38   2   1.084
  46 str  39   3   1.053
  47 str  40   6   1.085
  48 str  41   9   1.085
  49 str  42  10   1.083
  50 str  43  11   1.084
  51 str  44  12   1.053
  52 str  45  16   1.055
  53 str  46  17   1.079
  54 str  47  20   1.078
  55 str  48  21   1.085
  56 str  49  23   1.085
  57 str  50  24   1.085
  58 str  51  26   1.085
  59 str  52  27   1.084
  60 str  53  28   1.085
  61 str  54  30   1.085
  62 str  55  31   1.071
  63 str  56  35   1.073
  64 str  57  36   1.054
 nber stretches=          64
  65 ben   1   2   3
  66 prop tor   1   2   3   4
  67 prop tor   1   2   3  39
  68 ben   1   2  38
  69 ben   1   6   5
  70 ben   1   6  40
  71 ben   2   1   6
  72 prop tor   2   1   6   5
  73 prop tor   2   1   6  40
  74 ben   2   1  37
  75 ben   2   3   4
  76 prop tor   2   3   4   5
  77 prop tor   2   3   4  14
  78 ben   2   3  39
  79 ben   3   2  38
  80 ben   3   4   5
  81 prop tor   3   4   5   6
  82 prop tor   3   4   5   7
  83 ben   3   4  14
  84 prop tor   3   4  14  13
  85 prop tor   3   4  14  15
  86 ben   4   3  39
  87 ben   4   5   6
  88 prop tor   4   5   6   1
  89 prop tor   4   5   6  40
  90 ben   4   5   7
  91 prop tor   4   5   7   8
  92 ben   4  14  13
  93 ben   4  14  15
  94 prop tor   4  14  15  16
  95 prop tor   4  14  15  36
  96 ben   5   4  14
  97 prop tor   5   4  14  13
  98 prop tor   5   4  14  15
  99 ben   5   6  40
 100 ben   5   7   8
 101 prop tor   5   7   8   9
 102 prop tor   5   7   8  13
 103 prop tor   6   1   2   3
 104 prop tor   6   1   2  38
 105 ben   6   1  37
 106 ben   6   5   7
 107 prop tor   6   5   7   8
 108 prop tor   7   5   6   1
 109 prop tor   7   5   6  40
 110 ben   7   8   9
 111 prop tor   7   8   9  10
 112 prop tor   7   8   9  41
 113 ben   7   8  13
 114 prop tor   7   8  13  12
 115 prop tor   7   8  13  14
 116 ben   8   9  10
 117 prop tor   8   9  10  11
 118 prop tor   8   9  10  42
 119 ben   8   9  41
 120 ben   8  13  12
 121 ben   8  13  14
 122 prop tor   8  13  14   4
 123 prop tor   8  13  14  15
 124 ben   9   8  13
 125 prop tor   9   8  13  12
 126 prop tor   9   8  13  14
 127 ben   9  10  11
 128 prop tor   9  10  11  12
 129 prop tor   9  10  11  43
 130 ben   9  10  42
 131 ben  10   9  41
 132 ben  10  11  12
 133 prop tor  10  11  12  13
 134 prop tor  10  11  12  44
 135 ben  10  11  43
 136 ben  11  10  42
 137 ben  11  12  13
 138 prop tor  11  12  13   8
 139 prop tor  11  12  13  14
 140 ben  11  12  44
 141 ben  12  11  43
 142 ben  12  13  14
 143 prop tor  12  13  14   4
 144 prop tor  12  13  14  15
 145 prop tor  13   8   9  10
 146 prop tor  13   8   9  41
 147 ben  13  12  44
 148 ben  13  14  15
 149 prop tor  13  14  15  16
 150 prop tor  13  14  15  36
 151 prop tor  14   4   5   6
 152 prop tor  14   4   5   7
 153 ben  14  15  16
 154 prop tor  14  15  16  17
 155 prop tor  14  15  16  45
 156 ben  14  15  36
 157 prop tor  14  15  36  35
 158 prop tor  14  15  36  57
 159 ben  15  16  17
 160 prop tor  15  16  17  18
 161 prop tor  15  16  17  46
 162 ben  15  16  45
 163 ben  15  36  35
 164 ben  15  36  57
 165 ben  16  15  36
 166 prop tor  16  15  36  35
 167 prop tor  16  15  36  57
 168 ben  16  17  18
 169 prop tor  16  17  18  19
 170 prop tor  16  17  18  35
 171 ben  16  17  46
 172 ben  17  16  45
 173 ben  17  18  19
 174 prop tor  17  18  19  20
 175 prop tor  17  18  19  32
 176 ben  17  18  35
 177 prop tor  17  18  35  36
 178 prop tor  17  18  35  56
 179 ben  18  17  46
 180 ben  18  19  20
 181 prop tor  18  19  20  21
 182 prop tor  18  19  20  47
 183 ben  18  19  32
 184 prop tor  18  19  32  31
 185 prop tor  18  19  32  33
 186 ben  18  35  36
 187 prop tor  18  35  36  15
 188 prop tor  18  35  36  57
 189 ben  18  35  56
 190 ben  19  18  35
 191 prop tor  19  18  35  36
 192 prop tor  19  18  35  56
 193 ben  19  20  21
 194 prop tor  19  20  21  22
 195 prop tor  19  20  21  48
 196 ben  19  20  47
 197 ben  19  32  31
 198 ben  19  32  33
 199 prop tor  19  32  33  22
 200 prop tor  19  32  33  34
 201 ben  20  19  32
 202 prop tor  20  19  32  31
 203 prop tor  20  19  32  33
 204 ben  20  21  22
 205 prop tor  20  21  22  23
 206 prop tor  20  21  22  33
 207 ben  20  21  48
 208 ben  21  20  47
 209 ben  21  22  23
 210 prop tor  21  22  23  24
 211 prop tor  21  22  23  49
 212 ben  21  22  33
 213 prop tor  21  22  33  32
 214 prop tor  21  22  33  34
 215 ben  22  21  48
 216 ben  22  23  24
 217 prop tor  22  23  24  25
 218 prop tor  22  23  24  50
 219 ben  22  23  49
 220 ben  22  33  32
 221 ben  22  33  34
 222 prop tor  22  33  34  25
 223 prop tor  22  33  34  29
 224 ben  23  22  33
 225 prop tor  23  22  33  32
 226 prop tor  23  22  33  34
 227 ben  23  24  25
 228 prop tor  23  24  25  26
 229 prop tor  23  24  25  34
 230 ben  23  24  50
 231 ben  24  23  49
 232 ben  24  25  26
 233 prop tor  24  25  26  27
 234 prop tor  24  25  26  51
 235 ben  24  25  34
 236 prop tor  24  25  34  29
 237 prop tor  24  25  34  33
 238 ben  25  24  50
 239 ben  25  26  27
 240 prop tor  25  26  27  28
 241 prop tor  25  26  27  52
 242 ben  25  26  51
 243 ben  25  34  29
 244 ben  25  34  33
 245 ben  26  25  34
 246 prop tor  26  25  34  29
 247 prop tor  26  25  34  33
 248 ben  26  27  28
 249 prop tor  26  27  28  29
 250 prop tor  26  27  28  53
 251 ben  26  27  52
 252 ben  27  26  51
 253 ben  27  28  29
 254 prop tor  27  28  29  30
 255 prop tor  27  28  29  34
 256 ben  27  28  53
 257 ben  28  27  52
 258 ben  28  29  30
 259 prop tor  28  29  30  31
 260 prop tor  28  29  30  54
 261 ben  28  29  34
 262 prop tor  28  29  34  25
 263 prop tor  28  29  34  33
 264 ben  29  28  53
 265 ben  29  30  31
 266 prop tor  29  30  31  32
 267 prop tor  29  30  31  55
 268 ben  29  30  54
 269 ben  29  34  33
 270 ben  30  29  34
 271 prop tor  30  29  34  25
 272 prop tor  30  29  34  33
 273 ben  30  31  32
 274 prop tor  30  31  32  19
 275 prop tor  30  31  32  33
 276 ben  30  31  55
 277 ben  31  30  54
 278 ben  31  32  33
 279 prop tor  31  32  33  22
 280 prop tor  31  32  33  34
 281 prop tor  32  19  20  21
 282 prop tor  32  19  20  47
 283 ben  32  31  55
 284 ben  32  33  34
 285 prop tor  32  33  34  25
 286 prop tor  32  33  34  29
 287 prop tor  33  22  23  24
 288 prop tor  33  22  23  49
 289 prop tor  34  25  26  27
 290 prop tor  34  25  26  51
 291 prop tor  34  29  30  31
 292 prop tor  34  29  30  54
 293 prop tor  35  18  19  20
 294 prop tor  35  18  19  32
 295 ben  35  36  57
 296 prop tor  36  15  16  17
 297 prop tor  36  15  16  45
 298 ben  36  35  56
 299 prop tor  37   1   2   3
 300 prop tor  37   1   2  38
 301 prop tor  37   1   6   5
 302 prop tor  37   1   6  40
 303 prop tor  38   2   3   4
 304 prop tor  38   2   3  39
 305 prop tor  39   3   4   5
 306 prop tor  39   3   4  14
 307 prop tor  41   9  10  11
 308 prop tor  41   9  10  42
 309 prop tor  42  10  11  12
 310 prop tor  42  10  11  43
 311 prop tor  43  11  12  13
 312 prop tor  43  11  12  44
 313 prop tor  44  12  13   8
 314 prop tor  44  12  13  14
 315 prop tor  45  16  17  18
 316 prop tor  45  16  17  46
 317 prop tor  46  17  18  19
 318 prop tor  46  17  18  35
 319 prop tor  47  20  21  22
 320 prop tor  47  20  21  48
 321 prop tor  48  21  22  23
 322 prop tor  48  21  22  33
 323 prop tor  49  23  24  25
 324 prop tor  49  23  24  50
 325 prop tor  50  24  25  26
 326 prop tor  50  24  25  34
 327 prop tor  51  26  27  28
 328 prop tor  51  26  27  52
 329 prop tor  52  27  28  29
 330 prop tor  52  27  28  53
 331 prop tor  53  28  29  30
 332 prop tor  53  28  29  34
 333 prop tor  54  30  31  32
 334 prop tor  54  30  31  55
 335 prop tor  55  31  32  19
 336 prop tor  55  31  32  33
 337 prop tor  56  35  36  15
 338 prop tor  56  35  36  57
 nber bend=             106
 nber lin bend=           0
 nber prop tor=         168
 nber impr tor=           0
 nber tot redund int=         338
 Eigenvalues of G in red int coords
    Gval -0.00000000 -0.00000000 -0.00000000 -0.00000000 -0.00000000 -0.00000000 -0.00000000 -0.00000000
    Gval -0.00000000 -0.00000000 -0.00000000 -0.00000000 -0.00000000 -0.00000000 -0.00000000 -0.00000000
    Gval -0.00000000 -0.00000000 -0.00000000 -0.00000000 -0.00000000 -0.00000000 -0.00000000 -0.00000000
    Gval -0.00000000 -0.00000000 -0.00000000 -0.00000000 -0.00000000 -0.00000000 -0.00000000 -0.00000000
    Gval -0.00000000 -0.00000000 -0.00000000 -0.00000000 -0.00000000 -0.00000000 -0.00000000 -0.00000000
    Gval -0.00000000 -0.00000000 -0.00000000 -0.00000000 -0.00000000 -0.00000000 -0.00000000 -0.00000000
    Gval -0.00000000 -0.00000000 -0.00000000 -0.00000000 -0.00000000 -0.00000000 -0.00000000 -0.00000000
    Gval -0.00000000 -0.00000000 -0.00000000 -0.00000000 -0.00000000 -0.00000000 -0.00000000 -0.00000000
    Gval -0.00000000 -0.00000000 -0.00000000 -0.00000000 -0.00000000 -0.00000000 -0.00000000 -0.00000000
    Gval -0.00000000 -0.00000000 -0.00000000 -0.00000000 -0.00000000 -0.00000000 -0.00000000 -0.00000000
    Gval -0.00000000 -0.00000000 -0.00000000 -0.00000000 -0.00000000 -0.00000000 -0.00000000 -0.00000000
    Gval -0.00000000  0.00000000  0.00000000  0.00000000  0.00000000  0.00000000  0.00000000  0.00000000
    Gval  0.00000000  0.00000000  0.00000000  0.00000000  0.00000000  0.00000000  0.00000000  0.00000000
    Gval  0.00000000  0.00000000  0.00000000  0.00000000  0.00000000  0.00000000  0.00000000  0.00000000
    Gval  0.00000000  0.00000000  0.00000000  0.00000000  0.00000000  0.00000000  0.00000000  0.00000000
    Gval  0.00000000  0.00000000  0.00000000  0.00000000  0.00000000  0.00000000  0.00000000  0.00000000
    Gval  0.00000000  0.00000000  0.00000000  0.00000000  0.00000000  0.00000000  0.00000000  0.00000000
    Gval  0.00000000  0.00000000  0.00000000  0.00000000  0.00000000  0.00000000  0.00000000  0.00000000
    Gval  0.00000000  0.00000000  0.00000000  0.00000000  0.00000000  0.00000000  0.00000000  0.00000000
    Gval  0.00000000  0.00000000  0.00000000  0.00000000  0.00000000  0.00000000  0.00000000  0.00000000
    Gval  0.00000000  0.00000000  0.00000000  0.00000000  0.00000000  0.00000000  0.00000000  0.00000000
    Gval  0.00000000  0.00000000  0.00000000  0.00000000  0.00000000  0.00000022  0.00000100  0.00000161
    Gval  0.00000162  0.00000249  0.00000634  0.00000812  0.00000957  0.00001111  0.00001322  0.00001580
    Gval  0.00001827  0.00002213  0.00002260  0.00002353  0.00002387  0.00002769  0.00002895  0.00003067
    Gval  0.00003445  0.00004155  0.00004711  0.00004921  0.00005129  0.00005259  0.00005324  0.00005605
    Gval  0.00005758  0.00006055  0.00006448  0.00006844  0.00006903  0.00007251  0.00007299  0.00007764
    Gval  0.00007849  0.00007920  0.00007989  0.00008220  0.00008923  0.00009435  0.00010034  0.00010661
    Gval  0.00011473  0.00012032  0.00012134  0.00012803  0.00012985  0.00013369  0.00013487  0.00013918
    Gval  0.00014353  0.00014765  0.00016456  0.00017202  0.00017849  0.00019123  0.00019232  0.00020708
    Gval  0.00021035  0.00022602  0.00024211  0.00025324  0.00025810  0.00026126  0.00028346  0.00030564
    Gval  0.00030824  0.00032122  0.00032270  0.00033677  0.00036796  0.00037141  0.00037751  0.00038009
    Gval  0.00038731  0.00039046  0.00040087  0.00041401  0.00042290  0.00042772  0.00043863  0.00044801
    Gval  0.00047457  0.00053704  0.00059330  0.00059331  0.00059390  0.00059638  0.00059680  0.00059692
    Gval  0.00059730  0.00059839  0.00059853  0.00059978  0.00060839  0.00061850  0.00061997  0.00063335
    Gval  0.00064226  0.00064242  0.00064955  0.00065108  0.00065216  0.00065639  0.00065698  0.00065914
    Gval  0.00070550  0.00074743  0.00075692  0.00080668  0.00082507  0.00082707  0.00091044  0.00101123
    Gval  0.00106133  0.00106160  0.00106538  0.00108418  0.00109647  0.00109940  0.00110937  0.00113200
    Gval  0.00113207  0.00113605  0.00113920  0.00116154  0.00116368  0.00116890  0.00117167  0.00117617
    Gval  0.00117832  0.00117838  0.00118154  0.00118955  0.00119000  0.00119228  0.00128823  0.00151798
    Gval  0.00173410  0.00173936  0.00177932  0.00185423  0.00189762  0.00192889  0.00213690  0.00224129
    Gval  0.00246349  0.00249478  0.00252061  0.00259006  0.00270324  0.00274229  0.00289241  0.00310861
    Gval  0.00348094  0.00349834  0.00356913  0.00361917  0.00364314  0.00368042  0.00374698  0.00393389
    Gval  0.00408264  0.00408391
  2.223220328300294E-007  2.223220328300294E-007
  9.981237147789919E-007  2.223220328300294E-007
  1.614866567857237E-006  2.223220328300294E-007
  1.615462203816308E-006  2.223220328300294E-007
  2.492431842967822E-006  2.223220328300294E-007
  6.341976204391134E-006  2.223220328300294E-007
  8.124729863109810E-006  2.223220328300294E-007
  9.566880475861353E-006  2.223220328300294E-007
  1.110985585176052E-005  2.223220328300294E-007
  1.322335572668778E-005  2.223220328300294E-007
  1.579927986484708E-005  2.223220328300294E-007
  1.826525624023164E-005  2.223220328300294E-007
  2.213433961758609E-005  2.223220328300294E-007
  2.259766220752639E-005  2.223220328300294E-007
  2.352975115785215E-005  2.223220328300294E-007
  2.387211695846959E-005  2.223220328300294E-007
  2.768835061686317E-005  2.223220328300294E-007
  2.894924936075370E-005  2.223220328300294E-007
  3.066624177377170E-005  2.223220328300294E-007
  3.445450835827084E-005  2.223220328300294E-007
  4.154927584422543E-005  2.223220328300294E-007
  4.710600203111205E-005  2.223220328300294E-007
  4.920932975759583E-005  2.223220328300294E-007
  5.128786822300340E-005  2.223220328300294E-007
  5.259384204736544E-005  2.223220328300294E-007
  5.324237157677093E-005  2.223220328300294E-007
  5.605102264576211E-005  2.223220328300294E-007
  5.758062465267465E-005  2.223220328300294E-007
  6.055350459197721E-005  2.223220328300294E-007
  6.448118047125928E-005  2.223220328300294E-007
  6.844375337811042E-005  2.223220328300294E-007
  6.902583790195643E-005  2.223220328300294E-007
  7.250786870905391E-005  2.223220328300294E-007
  7.298689724404091E-005  2.223220328300294E-007
  7.764039014150926E-005  2.223220328300294E-007
  7.849198941816928E-005  2.223220328300294E-007
  7.920160748276195E-005  2.223220328300294E-007
  7.988800274057402E-005  2.223220328300294E-007
  8.219533982045440E-005  2.223220328300294E-007
  8.923458618345982E-005  2.223220328300294E-007
  9.435099023810170E-005  2.223220328300294E-007
  1.003407107483531E-004  2.223220328300294E-007
  1.066073692174218E-004  2.223220328300294E-007
  1.147348228547228E-004  2.223220328300294E-007
  1.203221475633536E-004  2.223220328300294E-007
  1.213373045129683E-004  2.223220328300294E-007
  1.280256628500586E-004  2.223220328300294E-007
  1.298533235692152E-004  2.223220328300294E-007
  1.336850924912515E-004  2.223220328300294E-007
  1.348674491421402E-004  2.223220328300294E-007
  1.391821144558126E-004  2.223220328300294E-007
  1.435331148213650E-004  2.223220328300294E-007
  1.476451819411858E-004  2.223220328300294E-007
  1.645627457810989E-004  2.223220328300294E-007
  1.720171419123353E-004  2.223220328300294E-007
  1.784919877021335E-004  2.223220328300294E-007
  1.912291539481190E-004  2.223220328300294E-007
  1.923242924024656E-004  2.223220328300294E-007
  2.070769764147942E-004  2.223220328300294E-007
  2.103475856739315E-004  2.223220328300294E-007
  2.260153651795016E-004  2.223220328300294E-007
  2.421104911466444E-004  2.223220328300294E-007
  2.532355791370429E-004  2.223220328300294E-007
  2.580957426478382E-004  2.223220328300294E-007
  2.612594477619100E-004  2.223220328300294E-007
  2.834560810521110E-004  2.223220328300294E-007
  3.056413927317201E-004  2.223220328300294E-007
  3.082387073771997E-004  2.223220328300294E-007
  3.212170695391447E-004  2.223220328300294E-007
  3.227024643720362E-004  2.223220328300294E-007
  3.367703141842424E-004  2.223220328300294E-007
  3.679593983993424E-004  2.223220328300294E-007
  3.714073129275395E-004  2.223220328300294E-007
  3.775145782444932E-004  2.223220328300294E-007
  3.800879548112933E-004  2.223220328300294E-007
  3.873095064066466E-004  2.223220328300294E-007
  3.904581477403271E-004  2.223220328300294E-007
  4.008714405092287E-004  2.223220328300294E-007
  4.140111528977420E-004  2.223220328300294E-007
  4.228991785709558E-004  2.223220328300294E-007
  4.277175475613682E-004  2.223220328300294E-007
  4.386340744893767E-004  2.223220328300294E-007
  4.480052544200713E-004  2.223220328300294E-007
  4.745691120321286E-004  2.223220328300294E-007
  5.370363813025624E-004  2.223220328300294E-007
  5.932958953651924E-004  2.223220328300294E-007
  5.933121082756710E-004  2.223220328300294E-007
  5.939014506105626E-004  2.223220328300294E-007
  5.963778083081431E-004  2.223220328300294E-007
  5.968000790472574E-004  2.223220328300294E-007
  5.969175036235369E-004  2.223220328300294E-007
  5.972958860163255E-004  2.223220328300294E-007
  5.983923295969117E-004  2.223220328300294E-007
  5.985314598015621E-004  2.223220328300294E-007
  5.997752377131264E-004  2.223220328300294E-007
  6.083859446165182E-004  2.223220328300294E-007
  6.185014989035794E-004  2.223220328300294E-007
  6.199669005346002E-004  2.223220328300294E-007
  6.333532151433209E-004  2.223220328300294E-007
  6.422562030596416E-004  2.223220328300294E-007
  6.424164213348037E-004  2.223220328300294E-007
  6.495535369664995E-004  2.223220328300294E-007
  6.510769332108579E-004  2.223220328300294E-007
  6.521609531280279E-004  2.223220328300294E-007
  6.563859832187108E-004  2.223220328300294E-007
  6.569832349430917E-004  2.223220328300294E-007
  6.591352219192116E-004  2.223220328300294E-007
  7.054966808319908E-004  2.223220328300294E-007
  7.474344477412409E-004  2.223220328300294E-007
  7.569192677579485E-004  2.223220328300294E-007
  8.066783232866946E-004  2.223220328300294E-007
  8.250676479566837E-004  2.223220328300294E-007
  8.270684473820256E-004  2.223220328300294E-007
  9.104447751349764E-004  2.223220328300294E-007
  1.011232181366296E-003  2.223220328300294E-007
  1.061327502617315E-003  2.223220328300294E-007
  1.061596542039026E-003  2.223220328300294E-007
  1.065380975570679E-003  2.223220328300294E-007
  1.084175992958815E-003  2.223220328300294E-007
  1.096465865754340E-003  2.223220328300294E-007
  1.099404275863064E-003  2.223220328300294E-007
  1.109367074160005E-003  2.223220328300294E-007
  1.132001520090951E-003  2.223220328300294E-007
  1.132074341237740E-003  2.223220328300294E-007
  1.136048308055864E-003  2.223220328300294E-007
  1.139196368233330E-003  2.223220328300294E-007
  1.161544085335581E-003  2.223220328300294E-007
  1.163683739758758E-003  2.223220328300294E-007
  1.168898049243722E-003  2.223220328300294E-007
  1.171666126919703E-003  2.223220328300294E-007
  1.176174661128243E-003  2.223220328300294E-007
  1.178321386959351E-003  2.223220328300294E-007
  1.178380856144643E-003  2.223220328300294E-007
  1.181537041746673E-003  2.223220328300294E-007
  1.189546033842540E-003  2.223220328300294E-007
  1.190000257596062E-003  2.223220328300294E-007
  1.192280007242917E-003  2.223220328300294E-007
  1.288232180674750E-003  2.223220328300294E-007
  1.517975182584276E-003  2.223220328300294E-007
  1.734101180547284E-003  2.223220328300294E-007
  1.739362141003835E-003  2.223220328300294E-007
  1.779318263458807E-003  2.223220328300294E-007
  1.854227321922626E-003  2.223220328300294E-007
  1.897618144610880E-003  2.223220328300294E-007
  1.928893392711726E-003  2.223220328300294E-007
  2.136902172405530E-003  2.223220328300294E-007
  2.241286678609838E-003  2.223220328300294E-007
  2.463494454246703E-003  2.223220328300294E-007
  2.494780417016676E-003  2.223220328300294E-007
  2.520609978870855E-003  2.223220328300294E-007
  2.590057297385315E-003  2.223220328300294E-007
  2.703240948968231E-003  2.223220328300294E-007
  2.742285556061876E-003  2.223220328300294E-007
  2.892407451185943E-003  2.223220328300294E-007
  3.108611755868416E-003  2.223220328300294E-007
  3.480937261332669E-003  2.223220328300294E-007
  3.498342735022909E-003  2.223220328300294E-007
  3.569126527114833E-003  2.223220328300294E-007
  3.619171562869330E-003  2.223220328300294E-007
  3.643139769623255E-003  2.223220328300294E-007
  3.680424725305553E-003  2.223220328300294E-007
  3.746978701157809E-003  2.223220328300294E-007
  3.933890868148596E-003  2.223220328300294E-007
  4.082637167251188E-003  2.223220328300294E-007
  4.083908010025026E-003  2.223220328300294E-007
 cut=1d-8, nber non-redundant internal coords=         165
 Check on Eigenvals of non-red overlap matrix:
  0.00000022  0.00000100  0.00000161  0.00000162  0.00000249  0.00000634  0.00000812  0.00000957
  0.00001111  0.00001322  0.00001580  0.00001827  0.00002213  0.00002260  0.00002353  0.00002387
  0.00002769  0.00002895  0.00003067  0.00003445  0.00004155  0.00004711  0.00004921  0.00005129
  0.00005259  0.00005324  0.00005605  0.00005758  0.00006055  0.00006448  0.00006844  0.00006903
  0.00007251  0.00007299  0.00007764  0.00007849  0.00007920  0.00007989  0.00008220  0.00008923
  0.00009435  0.00010034  0.00010661  0.00011473  0.00012032  0.00012134  0.00012803  0.00012985
  0.00013369  0.00013487  0.00013918  0.00014353  0.00014765  0.00016456  0.00017202  0.00017849
  0.00019123  0.00019232  0.00020708  0.00021035  0.00022602  0.00024211  0.00025324  0.00025810
  0.00026126  0.00028346  0.00030564  0.00030824  0.00032122  0.00032270  0.00033677  0.00036796
  0.00037141  0.00037751  0.00038009  0.00038731  0.00039046  0.00040087  0.00041401  0.00042290
  0.00042772  0.00043863  0.00044801  0.00047457  0.00053704  0.00059330  0.00059331  0.00059390
  0.00059638  0.00059680  0.00059692  0.00059730  0.00059839  0.00059853  0.00059978  0.00060839
  0.00061850  0.00061997  0.00063335  0.00064226  0.00064242  0.00064955  0.00065108  0.00065216
  0.00065639  0.00065698  0.00065914  0.00070550  0.00074743  0.00075692  0.00080668  0.00082507
  0.00082707  0.00091044  0.00101123  0.00106133  0.00106160  0.00106538  0.00108418  0.00109647
  0.00109940  0.00110937  0.00113200  0.00113207  0.00113605  0.00113920  0.00116154  0.00116368
  0.00116890  0.00117167  0.00117617  0.00117832  0.00117838  0.00118154  0.00118955  0.00119000
  0.00119228  0.00128823  0.00151798  0.00173410  0.00173936  0.00177932  0.00185423  0.00189762
  0.00192889  0.00213690  0.00224129  0.00246349  0.00249478  0.00252061  0.00259006  0.00270324
  0.00274229  0.00289241  0.00310861  0.00348094  0.00349834  0.00356913  0.00361917  0.00364314
  0.00368042  0.00374698  0.00393389  0.00408264  0.00408391
 Checking for correct frequencies
 recalc frequencies=
  -526.8 -491.9 -172.6  -65.6  -63.3  -36.6   -6.5   -0.0   -0.0   -0.0
    -0.0    0.0    0.0   53.3   73.7  136.9  139.6  148.5  163.5  169.8
   202.8  210.8  231.8  245.6  246.8  278.1  304.4  307.2  321.0  338.6
   372.7  385.7  386.5  393.3  427.5  430.3  435.5  458.3  478.9  482.9
   498.8  500.4  517.3  519.3  534.4  536.9  553.4  558.6  560.1  575.9
   586.3  615.3  626.0  632.8  663.9  670.3  686.0  687.0  696.1  705.1
   713.8  716.3  731.4  732.7  732.9  745.3  748.6  766.8  781.0  783.4
   799.6  806.7  820.0  829.0  836.9  852.4  855.2  861.4  862.5  888.8
   889.7  907.9  911.2  913.3  949.6  955.6  970.1  970.7  977.2  986.9
   988.9  996.5 1025.7 1058.8 1077.9 1088.8 1096.2 1105.7 1116.3 1128.0
  1129.9 1136.3 1159.4 1162.0 1171.2 1174.6 1178.9 1185.5 1202.4 1211.4
  1223.3 1235.4 1249.1 1251.4 1261.9 1273.3 1283.1 1296.1 1298.6 1306.3
  1311.3 1333.8 1353.5 1368.9 1389.5 1401.7 1409.4 1427.4 1439.3 1445.9
  1463.1 1466.0 1471.6 1493.9 1505.9 1520.3 1521.6 1543.8 1577.4 1586.6
  1593.6 1620.8 1624.9 1628.8 1631.9 1637.8 1640.3 1645.2 1653.8 1668.2
  3156.3 3156.7 3157.8 3159.7 3162.4 3164.8 3168.2 3174.5 3174.6 3177.3
  3185.0 3199.2 3199.3 3208.6 3246.6 3273.2 3340.6 3442.2 3443.8 3581.8
  3583.1
 recalc symmetries=
     A"     A"     A"     A"     A"     A"     A"     A'     A'     A" 
     A"     A"     A'     A'     A"     A"     A'     A"     A"     A' 
     A"     A"     A'     A'     A"     A"     A"     A'     A'     A" 
     A"     A'     A'     A"     A"     A'     A'     A"     A'     A' 
     A"     A'     A"     A'     A"     A"     A"     A'     A"     A' 
     A"     A'     A"     A'     A'     A"     A'     A"     A"     A' 
     A"     A'     A"     A'     A"     A'     A"     A"     A'     A" 
     A"     A"     A"     A'     A"     A"     A'     A"     A'     A' 
     A"     A"     A"     A"     A"     A"     A"     A"     A"     A" 
     A'     A'     A'     A'     A'     A'     A'     A'     A'     A' 
     A'     A'     A'     A'     A'     A'     A'     A'     A'     A' 
     A'     A'     A'     A'     A'     A'     A'     A'     A'     A' 
     A'     A'     A'     A'     A'     A'     A'     A'     A'     A' 
     A'     A'     A'     A'     A'     A'     A'     A'     A'     A' 
     A'     A'     A'     A'     A'     A'     A'     A'     A'     A' 
     A'     A'     A'     A'     A'     A'     A'     A'     A'     A' 
     A'     A'     A'     A'     A'     A'     A'     A'     A'     A' 
     A' 
 recalc freqs check OK
 Zero-point lengths:
 10.8013 11.1781 18.8690 30.5992 31.1518 40.9668 97.2487 10.0000 10.0000 10.0000
 10.0000 10.0000 10.0000 33.9645 28.8798 21.1891 20.9833 20.3414 19.3873 19.0230
 17.4092 17.0738 16.2821 15.8182 15.7813 14.8660 14.2094 14.1455 13.8377 13.4719
 12.8407 12.6234 12.6108 12.5003 11.9902 11.9516 11.8799 11.5805 11.3284 11.2820
 11.1004 11.0820 10.9004 10.8785 10.7242 10.6992 10.5385 10.4891 10.4749 10.3305
 10.2385  9.9947  9.9088  9.8550  9.6213  9.5755  9.4651  9.4586  9.3966  9.3363
  9.2794  9.2628  9.1669  9.1584  9.1577  9.0807  9.0608  8.9529  8.8709  8.8574
  8.7670  8.7285  8.6573  8.6103  8.5694  8.4915  8.4773  8.4467  8.4415  8.3154
  8.3115  8.2279  8.2129  8.2032  8.0451  8.0196  7.9596  7.9572  7.9306  7.8916
  7.8836  7.8534  7.7407  7.6187  7.5509  7.5132  7.4876  7.4555  7.4200  7.3815
  7.3752  7.3544  7.2809  7.2727  7.2439  7.2334  7.2203  7.2001  7.1495  7.1228
  7.0881  7.0532  7.0146  7.0080  6.9789  6.9474  6.9210  6.8861  6.8795  6.8593
  6.8460  6.7881  6.7386  6.7006  6.6506  6.6217  6.6036  6.5617  6.5347  6.5197
  6.4812  6.4749  6.4625  6.4142  6.3885  6.3582  6.3554  6.3095  6.2420  6.2240
  6.2103  6.1579  6.1501  6.1427  6.1370  6.1259  6.1211  6.1120  6.0961  6.0698
  4.4127  4.4124  4.4117  4.4104  4.4085  4.4068  4.4044  4.4000  4.4000  4.3981
  4.3928  4.3831  4.3830  4.3766  4.3509  4.3332  4.2893  4.2255  4.2245  4.1423
  4.1416
 highest evec of mol 1
  0.0007  0.0002  0.0000
 -0.0004 -0.0044  0.0000
 -0.1540 -0.0744  0.0000
 -0.0001  0.0054  0.0000
  0.0014 -0.0002  0.0000
  0.0007  0.0007  0.0000
 -0.0000  0.0001  0.0000
 -0.0006 -0.0005  0.0000
 -0.0006  0.0001  0.0000
 -0.0004 -0.0001  0.0000
  0.0013 -0.0020  0.0000
  0.0923  0.0055  0.0000
 -0.0015  0.0023  0.0000
  0.0000 -0.0008  0.0000
  0.0009  0.0050  0.0000
 -0.0042 -0.0710  0.0000
  0.0012 -0.0009  0.0000
 -0.0005  0.0007  0.0000
 -0.0000 -0.0001  0.0000
  0.0000  0.0000  0.0000
 -0.0000  0.0000  0.0000
  0.0000  0.0000  0.0000
 -0.0000  0.0000  0.0000
  0.0000  0.0000  0.0000
  0.0000 -0.0000  0.0000
 -0.0000  0.0000  0.0000
 -0.0000 -0.0000  0.0000
 -0.0000 -0.0000  0.0000
  0.0000  0.0000  0.0000
  0.0000 -0.0000  0.0000
 -0.0000 -0.0000  0.0000
  0.0000  0.0000  0.0000
 -0.0000 -0.0000  0.0000
 -0.0000 -0.0000  0.0000
 -0.0009 -0.0047  0.0000
  0.0727 -0.1174  0.0000
  0.0006 -0.0006  0.0000
  0.0026  0.0085  0.0000
  0.6202  0.2201  0.0000
 -0.0011 -0.0003  0.0000
  0.0006  0.0001  0.0000
 -0.0001 -0.0005  0.0000
 -0.0035  0.0033  0.0000
 -0.3500 -0.0583  0.0000
  0.0534  0.2776  0.0000
 -0.0025  0.0035  0.0000
 -0.0000 -0.0000  0.0000
  0.0000 -0.0000  0.0000
  0.0000 -0.0000  0.0000
  0.0000  0.0000  0.0000
  0.0000 -0.0000  0.0000
  0.0000  0.0000  0.0000
 -0.0000  0.0000  0.0000
 -0.0000  0.0000  0.0000
 -0.0001 -0.0000  0.0000
  0.0018  0.0124  0.0000
 -0.3506  0.4193  0.0000
 generating redundant internal coords
         300        3600          57
 Adding extra bonds for z output only
           6           6           6           6           6           6
          16           6           6           6           6           6
           6           7           6           6           6           6
           6           6           6           6           6           6
           6           6           6           6           6           6
           6           6           6           6           6           6
           1           1           1           1           1           1
           1           1           1           1           1           1
           1           1           1           1           1           1
           1           1           1
 search for int coords
   1 str   2   1   1.380
   2 str   3   2   1.392
   3 str   4   3   1.414
   4 str   5   4   1.422
   5 str   6   1   1.378
   6 str   6   5   1.401
   7 str   7   5   1.745
   8 str   8   7   1.745
   9 str   9   8   1.401
  10 str  10   9   1.378
  11 str  11  10   1.380
  12 str  12  11   1.392
  13 str  13   8   1.421
  14 str  13  12   1.414
  15 str  14   4   1.493
  16 str  14  13   1.493
  17 str  15  14   1.483
  18 str  16  15   1.422
  19 str  17  16   1.388
  20 str  18  17   1.403
  21 str  19  18   1.504
  22 str  20  19   1.410
  23 str  21  20   1.378
  24 str  22  21   1.395
  25 str  23  22   1.432
  26 str  24  23   1.356
  27 str  25  24   1.433
  28 str  26  25   1.402
  29 str  27  26   1.391
  30 str  28  27   1.389
  31 str  29  28   1.403
  32 str  30  29   1.426
  33 str  31  30   1.359
  34 str  32  19   1.437
  35 str  32  31   1.440
  36 str  33  22   1.425
  37 str  33  32   1.444
  38 str  34  25   1.430
  39 str  34  29   1.423
  40 str  34  33   1.433
  41 str  35  18   1.398
  42 str  36  15   1.418
  43 str  36  35   1.393
  44 str  37   1   1.083
  45 str  38   2   1.084
  46 str  39   3   1.053
  47 str  40   6   1.085
  48 str  41   9   1.085
  49 str  42  10   1.083
  50 str  43  11   1.084
  51 str  44  12   1.053
  52 str  45  16   1.055
  53 str  46  17   1.079
  54 str  47  20   1.078
  55 str  48  21   1.085
  56 str  49  23   1.085
  57 str  50  24   1.085
  58 str  51  26   1.085
  59 str  52  27   1.084
  60 str  53  28   1.085
  61 str  54  30   1.085
  62 str  55  31   1.071
  63 str  56  35   1.073
  64 str  57  36   1.054
 nber stretches=          64
  65 ben   1   2   3
  66 prop tor   1   2   3   4
  67 prop tor   1   2   3  39
  68 ben   1   2  38
  69 ben   1   6   5
  70 ben   1   6  40
  71 ben   2   1   6
  72 prop tor   2   1   6   5
  73 prop tor   2   1   6  40
  74 ben   2   1  37
  75 ben   2   3   4
  76 prop tor   2   3   4   5
  77 prop tor   2   3   4  14
  78 ben   2   3  39
  79 ben   3   2  38
  80 ben   3   4   5
  81 prop tor   3   4   5   6
  82 prop tor   3   4   5   7
  83 ben   3   4  14
  84 prop tor   3   4  14  13
  85 prop tor   3   4  14  15
  86 ben   4   3  39
  87 ben   4   5   6
  88 prop tor   4   5   6   1
  89 prop tor   4   5   6  40
  90 ben   4   5   7
  91 prop tor   4   5   7   8
  92 ben   4  14  13
  93 ben   4  14  15
  94 prop tor   4  14  15  16
  95 prop tor   4  14  15  36
  96 ben   5   4  14
  97 prop tor   5   4  14  13
  98 prop tor   5   4  14  15
  99 ben   5   6  40
 100 ben   5   7   8
 101 prop tor   5   7   8   9
 102 prop tor   5   7   8  13
 103 prop tor   6   1   2   3
 104 prop tor   6   1   2  38
 105 ben   6   1  37
 106 ben   6   5   7
 107 prop tor   6   5   7   8
 108 prop tor   7   5   6   1
 109 prop tor   7   5   6  40
 110 ben   7   8   9
 111 prop tor   7   8   9  10
 112 prop tor   7   8   9  41
 113 ben   7   8  13
 114 prop tor   7   8  13  12
 115 prop tor   7   8  13  14
 116 ben   8   9  10
 117 prop tor   8   9  10  11
 118 prop tor   8   9  10  42
 119 ben   8   9  41
 120 ben   8  13  12
 121 ben   8  13  14
 122 prop tor   8  13  14   4
 123 prop tor   8  13  14  15
 124 ben   9   8  13
 125 prop tor   9   8  13  12
 126 prop tor   9   8  13  14
 127 ben   9  10  11
 128 prop tor   9  10  11  12
 129 prop tor   9  10  11  43
 130 ben   9  10  42
 131 ben  10   9  41
 132 ben  10  11  12
 133 prop tor  10  11  12  13
 134 prop tor  10  11  12  44
 135 ben  10  11  43
 136 ben  11  10  42
 137 ben  11  12  13
 138 prop tor  11  12  13   8
 139 prop tor  11  12  13  14
 140 ben  11  12  44
 141 ben  12  11  43
 142 ben  12  13  14
 143 prop tor  12  13  14   4
 144 prop tor  12  13  14  15
 145 prop tor  13   8   9  10
 146 prop tor  13   8   9  41
 147 ben  13  12  44
 148 ben  13  14  15
 149 prop tor  13  14  15  16
 150 prop tor  13  14  15  36
 151 prop tor  14   4   5   6
 152 prop tor  14   4   5   7
 153 ben  14  15  16
 154 prop tor  14  15  16  17
 155 prop tor  14  15  16  45
 156 ben  14  15  36
 157 prop tor  14  15  36  35
 158 prop tor  14  15  36  57
 159 ben  15  16  17
 160 prop tor  15  16  17  18
 161 prop tor  15  16  17  46
 162 ben  15  16  45
 163 ben  15  36  35
 164 ben  15  36  57
 165 ben  16  15  36
 166 prop tor  16  15  36  35
 167 prop tor  16  15  36  57
 168 ben  16  17  18
 169 prop tor  16  17  18  19
 170 prop tor  16  17  18  35
 171 ben  16  17  46
 172 ben  17  16  45
 173 ben  17  18  19
 174 prop tor  17  18  19  20
 175 prop tor  17  18  19  32
 176 ben  17  18  35
 177 prop tor  17  18  35  36
 178 prop tor  17  18  35  56
 179 ben  18  17  46
 180 ben  18  19  20
 181 prop tor  18  19  20  21
 182 prop tor  18  19  20  47
 183 ben  18  19  32
 184 prop tor  18  19  32  31
 185 prop tor  18  19  32  33
 186 ben  18  35  36
 187 prop tor  18  35  36  15
 188 prop tor  18  35  36  57
 189 ben  18  35  56
 190 ben  19  18  35
 191 prop tor  19  18  35  36
 192 prop tor  19  18  35  56
 193 ben  19  20  21
 194 prop tor  19  20  21  22
 195 prop tor  19  20  21  48
 196 ben  19  20  47
 197 ben  19  32  31
 198 ben  19  32  33
 199 prop tor  19  32  33  22
 200 prop tor  19  32  33  34
 201 ben  20  19  32
 202 prop tor  20  19  32  31
 203 prop tor  20  19  32  33
 204 ben  20  21  22
 205 prop tor  20  21  22  23
 206 prop tor  20  21  22  33
 207 ben  20  21  48
 208 ben  21  20  47
 209 ben  21  22  23
 210 prop tor  21  22  23  24
 211 prop tor  21  22  23  49
 212 ben  21  22  33
 213 prop tor  21  22  33  32
 214 prop tor  21  22  33  34
 215 ben  22  21  48
 216 ben  22  23  24
 217 prop tor  22  23  24  25
 218 prop tor  22  23  24  50
 219 ben  22  23  49
 220 ben  22  33  32
 221 ben  22  33  34
 222 prop tor  22  33  34  25
 223 prop tor  22  33  34  29
 224 ben  23  22  33
 225 prop tor  23  22  33  32
 226 prop tor  23  22  33  34
 227 ben  23  24  25
 228 prop tor  23  24  25  26
 229 prop tor  23  24  25  34
 230 ben  23  24  50
 231 ben  24  23  49
 232 ben  24  25  26
 233 prop tor  24  25  26  27
 234 prop tor  24  25  26  51
 235 ben  24  25  34
 236 prop tor  24  25  34  29
 237 prop tor  24  25  34  33
 238 ben  25  24  50
 239 ben  25  26  27
 240 prop tor  25  26  27  28
 241 prop tor  25  26  27  52
 242 ben  25  26  51
 243 ben  25  34  29
 244 ben  25  34  33
 245 ben  26  25  34
 246 prop tor  26  25  34  29
 247 prop tor  26  25  34  33
 248 ben  26  27  28
 249 prop tor  26  27  28  29
 250 prop tor  26  27  28  53
 251 ben  26  27  52
 252 ben  27  26  51
 253 ben  27  28  29
 254 prop tor  27  28  29  30
 255 prop tor  27  28  29  34
 256 ben  27  28  53
 257 ben  28  27  52
 258 ben  28  29  30
 259 prop tor  28  29  30  31
 260 prop tor  28  29  30  54
 261 ben  28  29  34
 262 prop tor  28  29  34  25
 263 prop tor  28  29  34  33
 264 ben  29  28  53
 265 ben  29  30  31
 266 prop tor  29  30  31  32
 267 prop tor  29  30  31  55
 268 ben  29  30  54
 269 ben  29  34  33
 270 ben  30  29  34
 271 prop tor  30  29  34  25
 272 prop tor  30  29  34  33
 273 ben  30  31  32
 274 prop tor  30  31  32  19
 275 prop tor  30  31  32  33
 276 ben  30  31  55
 277 ben  31  30  54
 278 ben  31  32  33
 279 prop tor  31  32  33  22
 280 prop tor  31  32  33  34
 281 prop tor  32  19  20  21
 282 prop tor  32  19  20  47
 283 ben  32  31  55
 284 ben  32  33  34
 285 prop tor  32  33  34  25
 286 prop tor  32  33  34  29
 287 prop tor  33  22  23  24
 288 prop tor  33  22  23  49
 289 prop tor  34  25  26  27
 290 prop tor  34  25  26  51
 291 prop tor  34  29  30  31
 292 prop tor  34  29  30  54
 293 prop tor  35  18  19  20
 294 prop tor  35  18  19  32
 295 ben  35  36  57
 296 prop tor  36  15  16  17
 297 prop tor  36  15  16  45
 298 ben  36  35  56
 299 prop tor  37   1   2   3
 300 prop tor  37   1   2  38
 301 prop tor  37   1   6   5
 302 prop tor  37   1   6  40
 303 prop tor  38   2   3   4
 304 prop tor  38   2   3  39
 305 prop tor  39   3   4   5
 306 prop tor  39   3   4  14
 307 prop tor  41   9  10  11
 308 prop tor  41   9  10  42
 309 prop tor  42  10  11  12
 310 prop tor  42  10  11  43
 311 prop tor  43  11  12  13
 312 prop tor  43  11  12  44
 313 prop tor  44  12  13   8
 314 prop tor  44  12  13  14
 315 prop tor  45  16  17  18
 316 prop tor  45  16  17  46
 317 prop tor  46  17  18  19
 318 prop tor  46  17  18  35
 319 prop tor  47  20  21  22
 320 prop tor  47  20  21  48
 321 prop tor  48  21  22  23
 322 prop tor  48  21  22  33
 323 prop tor  49  23  24  25
 324 prop tor  49  23  24  50
 325 prop tor  50  24  25  26
 326 prop tor  50  24  25  34
 327 prop tor  51  26  27  28
 328 prop tor  51  26  27  52
 329 prop tor  52  27  28  29
 330 prop tor  52  27  28  53
 331 prop tor  53  28  29  30
 332 prop tor  53  28  29  34
 333 prop tor  54  30  31  32
 334 prop tor  54  30  31  55
 335 prop tor  55  31  32  19
 336 prop tor  55  31  32  33
 337 prop tor  56  35  36  15
 338 prop tor  56  35  36  57
 nber bend=             106
 nber lin bend=           0
 nber prop tor=         168
 nber impr tor=           0
 nber tot redund int=         338
 Reading file: 
 ./phenothiazine-pyrene_2_C1S0.log                                              
                                          
  Entering Gaussian System, Link 0=g16                                          
  
 Gaussian format, type: g94, g98, g03= F F F
  #P Geom=AllCheck Guess=TCheck SCRF=Check GenChk UB3LYP/6-311G(d,p) Fre    
 energy type= B3LYP   
 Original G94 input coords:
  6 -6.496014  1.674556  0.000000
  6 -5.152603  2.018576  0.000000
  6 -4.158298  1.052866  0.000000
  6 -4.362115 -0.350186  0.000000
  6 -5.757191 -0.647422  0.000000
  6 -6.770958  0.331637  0.000000
 16 -6.483166 -2.209577  0.000000
  6 -5.092387 -3.225735  0.000000
  6 -5.504839 -4.573251  0.000000
  6 -4.613350 -5.614653  0.000000
  6 -3.271329 -5.264897  0.000000
  6 -2.869756 -3.938373  0.000000
  6 -3.727918 -2.810308  0.000000
  7 -3.293944 -1.386911  0.000000
  6 -1.865907 -1.020002  0.000000
  6 -0.761912 -1.923926  0.000000
  6  0.573638 -1.574480  0.000000
  6  1.071413 -0.254007  0.000000
  6  2.526938  0.023565  0.000000
  6  3.377315 -1.111709  0.000000
  6  4.746742 -1.047084  0.000000
  6  5.411307  0.190048  0.000000
  6  6.833437  0.259581  0.000000
  6  7.478896  1.460332  0.000000
  6  6.740273  2.680305  0.000000
  6  7.388482  3.927473  0.000000
  6  6.664938  5.116244  0.000000
  6  5.278121  5.082306  0.000000
  6  4.589622  3.853889  0.000000
  6  3.173340  3.778996  0.000000
  6  2.515160  2.582084  0.000000
  6  3.184006  1.316895  0.000000
  6  4.625026  1.378670  0.000000
  6  5.312993  2.631415  0.000000
  6  0.000000  0.656440  0.000000
  6 -1.339174  0.302528  0.000000
  1 -7.284745  2.415204  0.000000
  1 -4.845570  3.057170  0.000000
  1 -3.205367  1.500364  0.000000
  1 -7.798915 -0.013932  0.000000
  1 -6.571489 -4.769156  0.000000
  1 -4.944372 -6.644747  0.000000
  1 -2.499531 -6.024663  0.000000
  1 -1.819752 -3.865776  0.000000
  1 -0.846859 -2.974626  0.000000
  1  1.241026 -2.421182  0.000000
  1  2.952643 -2.101181  0.000000
  1  5.327789 -1.961937  0.000000
  1  7.395220 -0.667488  0.000000
  1  8.562164  1.503942  0.000000
  1  8.472526  3.953437  0.000000
  1  7.185432  6.066111  0.000000
  1  4.708740  6.005075  0.000000
  1  2.601236  4.700330  0.000000
  1  1.445951  2.635777  0.000000
  1  0.152137  1.717859  0.000000
  1 -1.927408  1.176779  0.000000
 nber atoms=          57
  SCF Done:  E(UB3LYP) =  -1761.25494080     A.U. after    1 cycles             
  
          23          40 "  -1761.25494080"
After scan for Atom:   Atom  AN      X      Y      Z        X      Y      Z        X      Y      Z   
After scan for Atom:   Atom  AN      X      Y      Z        X      Y      Z        X      Y      Z   
After scan for Atom:   Atom  AN      X      Y      Z        X      Y      Z        X      Y      Z   
After scan for Atom:   Atom  AN      X      Y      Z        X      Y      Z        X      Y      Z   
After scan for Atom:   Atom  AN      X      Y      Z        X      Y      Z        X      Y      Z   
After scan for Atom:   Atom  AN      X      Y      Z        X      Y      Z        X      Y      Z   
After scan for Atom:   Atom  AN      X      Y      Z        X      Y      Z        X      Y      Z   
After scan for Atom:   Atom  AN      X      Y      Z        X      Y      Z        X      Y      Z   
After scan for Atom:   Atom  AN      X      Y      Z        X      Y      Z        X      Y      Z   
After scan for Atom:   Atom  AN      X      Y      Z        X      Y      Z        X      Y      Z   
After scan for Atom:   Atom  AN      X      Y      Z        X      Y      Z        X      Y      Z   
After scan for Atom:   Atom  AN      X      Y      Z        X      Y      Z        X      Y      Z   
After scan for Atom:   Atom  AN      X      Y      Z        X      Y      Z        X      Y      Z   
After scan for Atom:   Atom  AN      X      Y      Z        X      Y      Z        X      Y      Z   
After scan for Atom:   Atom  AN      X      Y      Z        X      Y      Z        X      Y      Z   
After scan for Atom:   Atom  AN      X      Y      Z        X      Y      Z        X      Y      Z   
After scan for Atom:   Atom  AN      X      Y      Z        X      Y      Z        X      Y      Z   
After scan for Atom:   Atom  AN      X      Y      Z        X      Y      Z        X      Y      Z   
After scan for Atom:   Atom  AN      X      Y      Z        X      Y      Z        X      Y      Z   
After scan for Atom:   Atom  AN      X      Y      Z        X      Y      Z        X      Y      Z   
After scan for Atom:   Atom  AN      X      Y      Z        X      Y      Z        X      Y      Z   
After scan for Atom:   Atom  AN      X      Y      Z        X      Y      Z        X      Y      Z   
After scan for Atom:   Atom  AN      X      Y      Z        X      Y      Z        X      Y      Z   
After scan for Atom:   Atom  AN      X      Y      Z        X      Y      Z        X      Y      Z   
After scan for Atom:   Atom  AN      X      Y      Z        X      Y      Z        X      Y      Z   
After scan for Atom:   Atom  AN      X      Y      Z        X      Y      Z        X      Y      Z   
After scan for Atom:   Atom  AN      X      Y      Z        X      Y      Z        X      Y      Z   
After scan for Atom:   Atom  AN      X      Y      Z        X      Y      Z        X      Y      Z   
After scan for Atom:   Atom  AN      X      Y      Z        X      Y      Z        X      Y      Z   
After scan for Atom:   Atom  AN      X      Y      Z        X      Y      Z        X      Y      Z   
After scan for Atom:   Atom  AN      X      Y      Z        X      Y      Z        X      Y      Z   
After scan for Atom:   Atom  AN      X      Y      Z        X      Y      Z        X      Y      Z   
After scan for Atom:   Atom  AN      X      Y      Z        X      Y      Z        X      Y      Z   
After scan for Atom:   Atom  AN      X      Y      Z        X      Y      Z        X      Y      Z   
After scan for Atom:   Atom  AN      X      Y      Z        X      Y      Z        X      Y      Z   
After scan for Atom:   Atom  AN      X      Y      Z        X      Y      Z        X      Y      Z   
After scan for Atom:   Atom  AN      X      Y      Z        X      Y      Z        X      Y      Z   
After scan for Atom:   Atom  AN      X      Y      Z        X      Y      Z        X      Y      Z   
After scan for Atom:   Atom  AN      X      Y      Z        X      Y      Z        X      Y      Z   
After scan for Atom:   Atom  AN      X      Y      Z        X      Y      Z        X      Y      Z   
After scan for Atom:   Atom  AN      X      Y      Z        X      Y      Z        X      Y      Z   
After scan for Atom:   Atom  AN      X      Y      Z        X      Y      Z        X      Y      Z   
After scan for Atom:   Atom  AN      X      Y      Z        X      Y      Z        X      Y      Z   
After scan for Atom:   Atom  AN      X      Y      Z        X      Y      Z        X      Y      Z   
After scan for Atom:   Atom  AN      X      Y      Z        X      Y      Z        X      Y      Z   
After scan for Atom:   Atom  AN      X      Y      Z        X      Y      Z        X      Y      Z   
After scan for Atom:   Atom  AN      X      Y      Z        X      Y      Z        X      Y      Z   
After scan for Atom:   Atom  AN      X      Y      Z        X      Y      Z        X      Y      Z   
After scan for Atom:   Atom  AN      X      Y      Z        X      Y      Z        X      Y      Z   
After scan for Atom:   Atom  AN      X      Y      Z        X      Y      Z        X      Y      Z   
After scan for Atom:   Atom  AN      X      Y      Z        X      Y      Z        X      Y      Z   
After scan for Atom:   Atom  AN      X      Y      Z        X      Y      Z        X      Y      Z   
After scan for Atom:   Atom  AN      X      Y      Z        X      Y      Z        X      Y      Z   
After scan for Atom:   Atom  AN      X      Y      Z        X      Y      Z        X      Y      Z   
After scan for Atom:   Atom  AN      X      Y      Z        X      Y      Z        X      Y      Z   
 g94    frequencies=
     0.0    0.0    0.0    0.0    0.0    0.0 -508.9 -468.3 -162.8  -65.7
   -38.1  -16.4    4.5   53.3   74.9  137.4  139.8  146.6  170.2  171.0
   197.7  206.4  231.6  245.2  246.1  278.0  305.4  305.8  322.1  347.4
   380.5  387.0  387.6  399.9  421.4  430.7  435.7  465.9  479.2  482.0
   491.5  496.4  509.6  514.2  517.9  540.0  557.7  566.0  570.1  573.2
   589.1  616.0  627.0  627.9  661.9  671.0  680.1  685.3  699.6  704.9
   714.4  721.1  729.4  733.8  744.1  745.6  754.4  772.1  780.9  793.5
   808.0  817.0  825.9  828.3  831.8  857.1  862.1  864.4  878.0  891.0
   908.9  932.7  938.3  940.4  964.4  970.7  988.0  993.6  997.5  998.7
   999.4 1006.1 1020.8 1055.4 1055.9 1074.2 1086.0 1098.3 1103.5 1120.0
  1137.8 1139.6 1159.6 1169.4 1176.2 1183.7 1184.5 1191.5 1209.7 1220.0
  1227.2 1238.3 1245.8 1252.9 1261.9 1277.7 1285.7 1299.0 1302.6 1317.6
  1325.1 1342.0 1363.9 1373.5 1391.5 1398.6 1404.9 1428.4 1444.1 1448.3
  1461.3 1465.4 1472.9 1482.5 1504.7 1508.5 1513.9 1543.3 1563.3 1572.3
  1588.7 1606.2 1613.9 1621.0 1624.0 1628.3 1631.3 1640.6 1644.3 1646.2
  3169.7 3169.9 3173.0 3173.9 3175.7 3179.8 3181.8 3189.7 3190.0 3190.0
  3198.3 3212.8 3212.8 3223.3 3261.0 3285.3 3347.8 3451.1 3452.1 3587.6
  3588.9
 g94    symmetries=
                                                A"     A"     A"     A"
      A"     A"     A"     A'     A"     A"     A'     A"     A'     A"
      A"     A"     A'     A'     A"     A"     A"     A'     A'     A"
      A"     A'     A'     A"     A"     A'     A'     A"     A'     A'
      A"     A'     A"     A"     A'     A"     A'     A"     A"     A'
      A"     A'     A"     A'     A'     A"     A'     A"     A"     A'
      A'     A"     A"     A"     A'     A'     A"     A"     A'     A"
      A"     A"     A"     A'     A"     A'     A"     A'     A"     A'
      A"     A"     A"     A"     A"     A"     A'     A"     A'     A"
      A"     A"     A'     A'     A'     A'     A'     A'     A'     A'
      A'     A'     A'     A'     A'     A'     A'     A'     A'     A'
      A'     A'     A'     A'     A'     A'     A'     A'     A'     A'
      A'     A'     A'     A'     A'     A'     A'     A'     A'     A'
      A'     A'     A'     A'     A'     A'     A'     A'     A'     A'
      A'     A'     A'     A'     A'     A'     A'     A'     A'     A'
      A'     A'     A'     A'     A'     A'     A'     A'     A'     A'
      A'     A'     A'     A'     A'     A'     A'     A'     A'     A'
      A'
 atomic masses:
 12.0000 12.0000 12.0000 12.0000 12.0000 12.0000 31.9721 12.0000 12.0000 12.0000
 12.0000 12.0000 12.0000 14.0031 12.0000 12.0000 12.0000 12.0000 12.0000 12.0000
 12.0000 12.0000 12.0000 12.0000 12.0000 12.0000 12.0000 12.0000 12.0000 12.0000
 12.0000 12.0000 12.0000 12.0000 12.0000 12.0000  1.0078  1.0078  1.0078  1.0078
  1.0078  1.0078  1.0078  1.0078  1.0078  1.0078  1.0078  1.0078  1.0078  1.0078
  1.0078  1.0078  1.0078  1.0078  1.0078  1.0078  1.0078
 looking for force constants in 
 ./phenothiazine-pyrene_2_C1S0.fchk                                             
  
 Cartesian Force Constants                  R   N=       14706                  
  
 n3=         171       14706
 g94-fc frequencies=
  -508.9 -468.3 -162.8  -65.7  -38.1  -16.4   -1.8   -0.0    0.0    0.0
     1.2    1.6    4.6   53.3   74.9  137.4  139.8  146.6  170.2  171.0
   197.7  206.4  231.6  245.2  246.1  278.0  305.4  305.8  322.1  347.4
   380.5  387.0  387.6  399.9  421.4  430.7  435.7  465.9  479.2  482.0
   491.5  496.4  509.7  514.2  517.9  540.0  557.7  566.0  570.1  573.2
   589.1  616.0  627.1  627.9  661.9  671.0  680.1  685.3  699.6  704.9
   714.4  721.1  729.5  733.9  744.2  745.7  754.4  772.2  781.0  793.5
   808.0  817.0  825.9  828.3  831.8  857.1  862.2  864.4  878.0  891.0
   908.9  932.7  938.3  940.4  964.4  970.8  988.0  993.6  997.6  998.7
   999.4 1006.1 1020.8 1055.4 1055.9 1074.3 1086.0 1098.4 1103.5 1120.0
  1137.8 1139.6 1159.6 1169.5 1176.2 1183.7 1184.6 1191.5 1209.7 1220.0
  1227.3 1238.3 1245.8 1252.9 1261.9 1277.7 1285.7 1299.1 1302.6 1317.6
  1325.2 1342.0 1363.9 1373.5 1391.5 1398.6 1404.9 1428.4 1444.2 1448.4
  1461.3 1465.4 1472.9 1482.5 1504.7 1508.5 1513.9 1543.3 1563.3 1572.3
  1588.7 1606.3 1614.0 1621.0 1624.1 1628.3 1631.3 1640.7 1644.3 1646.2
  3169.7 3170.0 3173.1 3174.0 3175.8 3179.9 3181.9 3189.7 3190.0 3190.1
  3198.4 3212.8 3212.9 3223.3 3261.1 3285.4 3347.9 3451.2 3452.2 3587.7
  3588.9
 at 99999: n3=         171
 symm operator            1 :  F  nop=           0
 symm operator            2 :  F  nop=           0
 symm operator            3 :  F  nop=           0
 symm operator            4 :  F  nop=           0
 symm operator            5 :  T  nop=           1
 symm operator            6 :  F  nop=           1
 symm operator            7 :  F  nop=           1
 The point group of the molecule is  CS
 enforcing symm op           5  jsymt=           1           1          -1
 cartesian coord symmetries:
 A' :  114 A" :   57
 Symmetry rotation matrix:
   1.00000   0.00000   0.00000
   0.00000   1.00000   0.00000
   0.00000   0.00000   1.00000

 Projecting out zero-frequency components
 generating redundant internal coords
         300        3600          57
 search for int coords
   1 str   2   1   1.387
   2 str   3   2   1.386
   3 str   4   3   1.418
   4 str   5   4   1.426
   5 str   6   1   1.371
   6 str   6   5   1.409
   7 str   7   5   1.723
   8 str   8   7   1.722
   9 str   9   8   1.409
  10 str  10   9   1.371
  11 str  11  10   1.387
  12 str  12  11   1.386
  13 str  13   8   1.426
  14 str  13  12   1.417
  15 str  14   4   1.489
  16 str  14  13   1.488
  17 str  15  14   1.474
  18 str  16  15   1.427
  19 str  17  16   1.381
  20 str  18  17   1.411
  21 str  19  18   1.482
  22 str  20  19   1.418
  23 str  21  20   1.371
  24 str  22  21   1.404
  25 str  23  22   1.424
  26 str  24  23   1.363
  27 str  25  24   1.426
  28 str  26  25   1.406
  29 str  27  26   1.392
  30 str  28  27   1.387
  31 str  29  28   1.408
  32 str  30  29   1.418
  33 str  31  30   1.366
  34 str  32  19   1.451
  35 str  32  31   1.431
  36 str  33  22   1.425
  37 str  33  32   1.442
  38 str  34  25   1.428
  39 str  34  29   1.420
  40 str  34  33   1.429
  41 str  35  18   1.406
  42 str  36  15   1.424
  43 str  36  35   1.385
  44 str  37   1   1.082
  45 str  38   2   1.083
  46 str  39   3   1.053
  47 str  40   6   1.084
  48 str  41   9   1.084
  49 str  42  10   1.082
  50 str  43  11   1.083
  51 str  44  12   1.053
  52 str  45  16   1.054
  53 str  46  17   1.078
  54 str  47  20   1.077
  55 str  48  21   1.084
  56 str  49  23   1.084
  57 str  50  24   1.084
  58 str  51  26   1.084
  59 str  52  27   1.083
  60 str  53  28   1.084
  61 str  54  30   1.085
  62 str  55  31   1.071
  63 str  56  35   1.072
  64 str  57  36   1.054
 nber stretches=          64
  65 ben   1   2   3
  66 prop tor   1   2   3   4
  67 prop tor   1   2   3  39
  68 ben   1   2  38
  69 ben   1   6   5
  70 ben   1   6  40
  71 ben   2   1   6
  72 prop tor   2   1   6   5
  73 prop tor   2   1   6  40
  74 ben   2   1  37
  75 ben   2   3   4
  76 prop tor   2   3   4   5
  77 prop tor   2   3   4  14
  78 ben   2   3  39
  79 ben   3   2  38
  80 ben   3   4   5
  81 prop tor   3   4   5   6
  82 prop tor   3   4   5   7
  83 ben   3   4  14
  84 prop tor   3   4  14  13
  85 prop tor   3   4  14  15
  86 ben   4   3  39
  87 ben   4   5   6
  88 prop tor   4   5   6   1
  89 prop tor   4   5   6  40
  90 ben   4   5   7
  91 prop tor   4   5   7   8
  92 ben   4  14  13
  93 ben   4  14  15
  94 prop tor   4  14  15  16
  95 prop tor   4  14  15  36
  96 ben   5   4  14
  97 prop tor   5   4  14  13
  98 prop tor   5   4  14  15
  99 ben   5   6  40
 100 ben   5   7   8
 101 prop tor   5   7   8   9
 102 prop tor   5   7   8  13
 103 prop tor   6   1   2   3
 104 prop tor   6   1   2  38
 105 ben   6   1  37
 106 ben   6   5   7
 107 prop tor   6   5   7   8
 108 prop tor   7   5   6   1
 109 prop tor   7   5   6  40
 110 ben   7   8   9
 111 prop tor   7   8   9  10
 112 prop tor   7   8   9  41
 113 ben   7   8  13
 114 prop tor   7   8  13  12
 115 prop tor   7   8  13  14
 116 ben   8   9  10
 117 prop tor   8   9  10  11
 118 prop tor   8   9  10  42
 119 ben   8   9  41
 120 ben   8  13  12
 121 ben   8  13  14
 122 prop tor   8  13  14   4
 123 prop tor   8  13  14  15
 124 ben   9   8  13
 125 prop tor   9   8  13  12
 126 prop tor   9   8  13  14
 127 ben   9  10  11
 128 prop tor   9  10  11  12
 129 prop tor   9  10  11  43
 130 ben   9  10  42
 131 ben  10   9  41
 132 ben  10  11  12
 133 prop tor  10  11  12  13
 134 prop tor  10  11  12  44
 135 ben  10  11  43
 136 ben  11  10  42
 137 ben  11  12  13
 138 prop tor  11  12  13   8
 139 prop tor  11  12  13  14
 140 ben  11  12  44
 141 ben  12  11  43
 142 ben  12  13  14
 143 prop tor  12  13  14   4
 144 prop tor  12  13  14  15
 145 prop tor  13   8   9  10
 146 prop tor  13   8   9  41
 147 ben  13  12  44
 148 ben  13  14  15
 149 prop tor  13  14  15  16
 150 prop tor  13  14  15  36
 151 prop tor  14   4   5   6
 152 prop tor  14   4   5   7
 153 ben  14  15  16
 154 prop tor  14  15  16  17
 155 prop tor  14  15  16  45
 156 ben  14  15  36
 157 prop tor  14  15  36  35
 158 prop tor  14  15  36  57
 159 ben  15  16  17
 160 prop tor  15  16  17  18
 161 prop tor  15  16  17  46
 162 ben  15  16  45
 163 ben  15  36  35
 164 ben  15  36  57
 165 ben  16  15  36
 166 prop tor  16  15  36  35
 167 prop tor  16  15  36  57
 168 ben  16  17  18
 169 prop tor  16  17  18  19
 170 prop tor  16  17  18  35
 171 ben  16  17  46
 172 ben  17  16  45
 173 ben  17  18  19
 174 prop tor  17  18  19  20
 175 prop tor  17  18  19  32
 176 ben  17  18  35
 177 prop tor  17  18  35  36
 178 prop tor  17  18  35  56
 179 ben  18  17  46
 180 ben  18  19  20
 181 prop tor  18  19  20  21
 182 prop tor  18  19  20  47
 183 ben  18  19  32
 184 prop tor  18  19  32  31
 185 prop tor  18  19  32  33
 186 ben  18  35  36
 187 prop tor  18  35  36  15
 188 prop tor  18  35  36  57
 189 ben  18  35  56
 190 ben  19  18  35
 191 prop tor  19  18  35  36
 192 prop tor  19  18  35  56
 193 ben  19  20  21
 194 prop tor  19  20  21  22
 195 prop tor  19  20  21  48
 196 ben  19  20  47
 197 ben  19  32  31
 198 ben  19  32  33
 199 prop tor  19  32  33  22
 200 prop tor  19  32  33  34
 201 ben  20  19  32
 202 prop tor  20  19  32  31
 203 prop tor  20  19  32  33
 204 ben  20  21  22
 205 prop tor  20  21  22  23
 206 prop tor  20  21  22  33
 207 ben  20  21  48
 208 ben  21  20  47
 209 ben  21  22  23
 210 prop tor  21  22  23  24
 211 prop tor  21  22  23  49
 212 ben  21  22  33
 213 prop tor  21  22  33  32
 214 prop tor  21  22  33  34
 215 ben  22  21  48
 216 ben  22  23  24
 217 prop tor  22  23  24  25
 218 prop tor  22  23  24  50
 219 ben  22  23  49
 220 ben  22  33  32
 221 ben  22  33  34
 222 prop tor  22  33  34  25
 223 prop tor  22  33  34  29
 224 ben  23  22  33
 225 prop tor  23  22  33  32
 226 prop tor  23  22  33  34
 227 ben  23  24  25
 228 prop tor  23  24  25  26
 229 prop tor  23  24  25  34
 230 ben  23  24  50
 231 ben  24  23  49
 232 ben  24  25  26
 233 prop tor  24  25  26  27
 234 prop tor  24  25  26  51
 235 ben  24  25  34
 236 prop tor  24  25  34  29
 237 prop tor  24  25  34  33
 238 ben  25  24  50
 239 ben  25  26  27
 240 prop tor  25  26  27  28
 241 prop tor  25  26  27  52
 242 ben  25  26  51
 243 ben  25  34  29
 244 ben  25  34  33
 245 ben  26  25  34
 246 prop tor  26  25  34  29
 247 prop tor  26  25  34  33
 248 ben  26  27  28
 249 prop tor  26  27  28  29
 250 prop tor  26  27  28  53
 251 ben  26  27  52
 252 ben  27  26  51
 253 ben  27  28  29
 254 prop tor  27  28  29  30
 255 prop tor  27  28  29  34
 256 ben  27  28  53
 257 ben  28  27  52
 258 ben  28  29  30
 259 prop tor  28  29  30  31
 260 prop tor  28  29  30  54
 261 ben  28  29  34
 262 prop tor  28  29  34  25
 263 prop tor  28  29  34  33
 264 ben  29  28  53
 265 ben  29  30  31
 266 prop tor  29  30  31  32
 267 prop tor  29  30  31  55
 268 ben  29  30  54
 269 ben  29  34  33
 270 ben  30  29  34
 271 prop tor  30  29  34  25
 272 prop tor  30  29  34  33
 273 ben  30  31  32
 274 prop tor  30  31  32  19
 275 prop tor  30  31  32  33
 276 ben  30  31  55
 277 ben  31  30  54
 278 ben  31  32  33
 279 prop tor  31  32  33  22
 280 prop tor  31  32  33  34
 281 prop tor  32  19  20  21
 282 prop tor  32  19  20  47
 283 ben  32  31  55
 284 ben  32  33  34
 285 prop tor  32  33  34  25
 286 prop tor  32  33  34  29
 287 prop tor  33  22  23  24
 288 prop tor  33  22  23  49
 289 prop tor  34  25  26  27
 290 prop tor  34  25  26  51
 291 prop tor  34  29  30  31
 292 prop tor  34  29  30  54
 293 prop tor  35  18  19  20
 294 prop tor  35  18  19  32
 295 ben  35  36  57
 296 prop tor  36  15  16  17
 297 prop tor  36  15  16  45
 298 ben  36  35  56
 299 prop tor  37   1   2   3
 300 prop tor  37   1   2  38
 301 prop tor  37   1   6   5
 302 prop tor  37   1   6  40
 303 prop tor  38   2   3   4
 304 prop tor  38   2   3  39
 305 prop tor  39   3   4   5
 306 prop tor  39   3   4  14
 307 prop tor  41   9  10  11
 308 prop tor  41   9  10  42
 309 prop tor  42  10  11  12
 310 prop tor  42  10  11  43
 311 prop tor  43  11  12  13
 312 prop tor  43  11  12  44
 313 prop tor  44  12  13   8
 314 prop tor  44  12  13  14
 315 prop tor  45  16  17  18
 316 prop tor  45  16  17  46
 317 prop tor  46  17  18  19
 318 prop tor  46  17  18  35
 319 prop tor  47  20  21  22
 320 prop tor  47  20  21  48
 321 prop tor  48  21  22  23
 322 prop tor  48  21  22  33
 323 prop tor  49  23  24  25
 324 prop tor  49  23  24  50
 325 prop tor  50  24  25  26
 326 prop tor  50  24  25  34
 327 prop tor  51  26  27  28
 328 prop tor  51  26  27  52
 329 prop tor  52  27  28  29
 330 prop tor  52  27  28  53
 331 prop tor  53  28  29  30
 332 prop tor  53  28  29  34
 333 prop tor  54  30  31  32
 334 prop tor  54  30  31  55
 335 prop tor  55  31  32  19
 336 prop tor  55  31  32  33
 337 prop tor  56  35  36  15
 338 prop tor  56  35  36  57
 nber bend=             106
 nber lin bend=           0
 nber prop tor=         168
 nber impr tor=           0
 nber tot redund int=         338
 Eigenvalues of G in red int coords
    Gval -0.00000000 -0.00000000 -0.00000000 -0.00000000 -0.00000000 -0.00000000 -0.00000000 -0.00000000
    Gval -0.00000000 -0.00000000 -0.00000000 -0.00000000 -0.00000000 -0.00000000 -0.00000000 -0.00000000
    Gval -0.00000000 -0.00000000 -0.00000000 -0.00000000 -0.00000000 -0.00000000 -0.00000000 -0.00000000
    Gval -0.00000000 -0.00000000 -0.00000000 -0.00000000 -0.00000000 -0.00000000 -0.00000000 -0.00000000
    Gval -0.00000000 -0.00000000 -0.00000000 -0.00000000 -0.00000000 -0.00000000 -0.00000000 -0.00000000
    Gval -0.00000000 -0.00000000 -0.00000000 -0.00000000 -0.00000000 -0.00000000 -0.00000000 -0.00000000
    Gval -0.00000000 -0.00000000 -0.00000000 -0.00000000 -0.00000000 -0.00000000 -0.00000000 -0.00000000
    Gval -0.00000000 -0.00000000 -0.00000000 -0.00000000 -0.00000000 -0.00000000 -0.00000000 -0.00000000
    Gval -0.00000000 -0.00000000 -0.00000000 -0.00000000 -0.00000000 -0.00000000 -0.00000000 -0.00000000
    Gval -0.00000000 -0.00000000 -0.00000000 -0.00000000 -0.00000000 -0.00000000 -0.00000000 -0.00000000
    Gval -0.00000000 -0.00000000 -0.00000000 -0.00000000 -0.00000000 -0.00000000 -0.00000000 -0.00000000
    Gval -0.00000000  0.00000000  0.00000000  0.00000000  0.00000000  0.00000000  0.00000000  0.00000000
    Gval  0.00000000  0.00000000  0.00000000  0.00000000  0.00000000  0.00000000  0.00000000  0.00000000
    Gval  0.00000000  0.00000000  0.00000000  0.00000000  0.00000000  0.00000000  0.00000000  0.00000000
    Gval  0.00000000  0.00000000  0.00000000  0.00000000  0.00000000  0.00000000  0.00000000  0.00000000
    Gval  0.00000000  0.00000000  0.00000000  0.00000000  0.00000000  0.00000000  0.00000000  0.00000000
    Gval  0.00000000  0.00000000  0.00000000  0.00000000  0.00000000  0.00000000  0.00000000  0.00000000
    Gval  0.00000000  0.00000000  0.00000000  0.00000000  0.00000000  0.00000000  0.00000000  0.00000000
    Gval  0.00000000  0.00000000  0.00000000  0.00000000  0.00000000  0.00000000  0.00000000  0.00000000
    Gval  0.00000000  0.00000000  0.00000000  0.00000000  0.00000000  0.00000000  0.00000000  0.00000000
    Gval  0.00000000  0.00000000  0.00000000  0.00000000  0.00000000  0.00000000  0.00000000  0.00000000
    Gval  0.00000000  0.00000000  0.00000000  0.00000000  0.00000000  0.00000022  0.00000100  0.00000162
    Gval  0.00000162  0.00000250  0.00000636  0.00000816  0.00000954  0.00001116  0.00001329  0.00001580
    Gval  0.00001820  0.00002230  0.00002267  0.00002353  0.00002389  0.00002772  0.00002901  0.00003071
    Gval  0.00003463  0.00004123  0.00004706  0.00004920  0.00005128  0.00005247  0.00005316  0.00005598
    Gval  0.00005758  0.00006048  0.00006451  0.00006850  0.00006908  0.00007251  0.00007297  0.00007725
    Gval  0.00007859  0.00007947  0.00008015  0.00008187  0.00008933  0.00009449  0.00010036  0.00010667
    Gval  0.00011485  0.00012027  0.00012137  0.00012809  0.00012957  0.00013372  0.00013494  0.00013926
    Gval  0.00014355  0.00014795  0.00016512  0.00017300  0.00018069  0.00019207  0.00019236  0.00020858
    Gval  0.00020986  0.00022617  0.00024212  0.00025461  0.00025825  0.00026199  0.00028241  0.00030370
    Gval  0.00030835  0.00032162  0.00032244  0.00033617  0.00036734  0.00037172  0.00037725  0.00038008
    Gval  0.00038668  0.00039196  0.00040070  0.00041445  0.00042420  0.00042746  0.00043921  0.00044873
    Gval  0.00047484  0.00053518  0.00059327  0.00059329  0.00059391  0.00059637  0.00059677  0.00059689
    Gval  0.00059733  0.00059839  0.00059850  0.00059977  0.00060832  0.00061838  0.00061985  0.00063340
    Gval  0.00064226  0.00064260  0.00064932  0.00064948  0.00065096  0.00065637  0.00065698  0.00065901
    Gval  0.00070365  0.00074490  0.00075723  0.00080697  0.00082908  0.00083124  0.00091385  0.00101110
    Gval  0.00106244  0.00106271  0.00106643  0.00108643  0.00109819  0.00110120  0.00111069  0.00113309
    Gval  0.00113318  0.00113702  0.00113964  0.00116370  0.00116491  0.00117059  0.00117172  0.00117863
    Gval  0.00117941  0.00117946  0.00118246  0.00119065  0.00119127  0.00119458  0.00129115  0.00152076
    Gval  0.00172916  0.00173651  0.00177938  0.00185367  0.00189631  0.00193234  0.00213744  0.00224885
    Gval  0.00246766  0.00249399  0.00252902  0.00259467  0.00270840  0.00274685  0.00289465  0.00310820
    Gval  0.00349796  0.00351474  0.00357637  0.00362713  0.00364918  0.00368531  0.00374916  0.00394047
    Gval  0.00407644  0.00407783
  2.231421481737011E-007  2.231421481737011E-007
  1.002693000525271E-006  2.231421481737011E-007
  1.616198526778606E-006  2.231421481737011E-007
  1.620061752036454E-006  2.231421481737011E-007
  2.499488831988696E-006  2.231421481737011E-007
  6.357621213457390E-006  2.231421481737011E-007
  8.157676387082303E-006  2.231421481737011E-007
  9.541820013296420E-006  2.231421481737011E-007
  1.115570919993154E-005  2.231421481737011E-007
  1.328787601961369E-005  2.231421481737011E-007
[...]
 nber times 1st assigned=         109           0
 nber times 1st assigned=         110           0
 nber times 1st assigned=         111           0
 nber times 1st assigned=         112           0
 nber times 1st assigned=         113           0
 nber times 1st assigned=         114           0
 nber times 1st assigned=         115           0
 nber times 1st assigned=         116           0
 nber times 1st assigned=         117           0
 nber times 1st assigned=         118           0
 nber times 1st assigned=         119           0
 nber times 1st assigned=         120           0
 nber times 1st assigned=         121           0
 nber times 1st assigned=         122           0
 nber times 1st assigned=         123           0
 nber times 1st assigned=         124           0
 nber times 1st assigned=         125           0
 nber times 1st assigned=         126           0
 nber times 1st assigned=         127           0
 nber times 1st assigned=         128           0
 nber times 1st assigned=         129           0
 nber times 1st assigned=         130           0
 nber times 1st assigned=         131           0
 nber times 1st assigned=         132           0
 nber times 1st assigned=         133           0
 nber times 1st assigned=         134           0
 nber times 1st assigned=         135           0
 nber times 1st assigned=         136           0
 nber times 1st assigned=         137           0
 nber times 1st assigned=         138           0
 nber times 1st assigned=         139           0
 nber times 1st assigned=         140           0
 nber times 1st assigned=         141           0
 nber times 1st assigned=         142           0
 nber times 1st assigned=         143           0
 nber times 1st assigned=         144           0
 nber times 1st assigned=         145           0
 nber times 1st assigned=         146           0
 nber times 1st assigned=         147           0
 nber times 1st assigned=         148           0
 nber times 1st assigned=         149           0
 nber times 1st assigned=         150           0
 nber times 1st assigned=         151           0
 nber times 1st assigned=         152           0
 nber times 1st assigned=         153           0
 nber times 1st assigned=         154           0
 nber times 1st assigned=         155           0
 nber times 1st assigned=         156           0
 nber times 1st assigned=         157           0
 nber times 1st assigned=         158           0
 nber times 1st assigned=         159           0
 nber times 1st assigned=         160           0
 nber times 1st assigned=         161           0
 nber times 1st assigned=         162           0
 nber times 1st assigned=         163           0
 nber times 1st assigned=         164           0
 nber times 1st assigned=         165           0
 nber times 1st assigned=         166           0
 nber times 1st assigned=         167           0
 nber times 1st assigned=         168           0
 nber times 1st assigned=         169           0
 nber times 1st assigned=         170           0
 nber times 1st assigned=         171           0
 modes represented=   165.149059518705     
 p1=
    0.   -0.    0.    0.   -0.   -0.   -0.   -0.   -0.   -0.    0.    0.    0.   -2.    0.   -0.   -7.   -0.    0.   -8.
    0.    0.    1.    6.    0.    0.   -0.   -2.    6.   -0.   -0.   -4.   -1.    0.   -0.   -1.   -1.   -0.   -0.   -1.
   -0.    3.    0.    1.    0.   -0.    0.   -0.    0.   -1.    0.   -0.    0.    0.   -1.    0.    0.    0.   -0.   -1.
    0.   -0.   -0.    0.    0.   -1.   -0.    0.    0.    0.   -0.   -0.   -0.    0.    0.   -0.   -1.   -0.   -0.    0.
   -0.    0.    0.    0.   -0.   -0.   -0.    0.    0.    0.   -0.    0.    0.    0.   -1.    0.   -0.   -1.   -1.   -0.
   -0.    1.   -1.    1.    0.    1.   -1.   -0.   -1.   -1.    0.   -1.    0.    1.    1.    0.   -0.   -0.   -1.    0.
    0.   -0.    1.    0.   -0.   -0.   -0.    0.    0.   -0.    0.   -0.    0.   -0.    0.    0.    0.    1.    0.   -0.
    1.   -0.    0.    1.   -0.    1.   -0.    1.   -0.    1.    0.    0.    0.   -0.   -0.    0.    0.    0.    0.   -0.
    0.    0.   -0.   -0.    0.    0.    0.    0.    0.    0.   -0.
 p2=
    0.   -0.   -0.    0.    0.   -0.    0.   -0.   -0.    0.    0.    0.    0.   -2.    0.    0.   -7.   -0.    7.   -0.
    0.   -0.    1.   -6.   -0.   -0.   -0.   -2.   -6.    0.   -0.    0.    4.    0.   -0.   -1.    1.    0.   -0.    1.
   -0.    3.    0.    0.    1.    0.   -0.    0.    0.   -1.   -0.   -0.    0.   -0.    1.    0.   -0.   -0.    0.   -1.
    0.    0.    0.   -0.   -0.    1.    0.    0.    0.   -0.   -0.   -0.   -0.   -0.   -0.    1.   -0.    0.   -0.    0.
   -0.   -0.    0.   -0.   -0.    0.    0.    0.    0.    0.   -0.   -0.   -0.   -0.   -0.    1.    0.    0.    0.   -1.
   -1.    1.    1.   -0.    0.   -0.   -1.   -0.    1.    1.    0.    1.    0.   -0.    1.   -0.    0.   -1.    1.    0.
   -0.   -0.    0.   -0.    0.    0.    0.   -0.   -0.   -0.    0.    0.    0.   -1.    0.    0.   -0.    1.    0.   -0.
   -0.    1.    0.    0.   -0.   -1.    0.    0.    0.   -1.    0.   -0.   -0.   -0.    0.   -0.    0.    0.    0.   -0.
   -0.   -0.   -0.    0.   -0.   -0.   -0.   -0.   -0.   -0.    0.

 Displacement: in terms of nc of 1 THEN of nc of 2

   1 A"  freq=  -527. Q=  0.000 lam=    -0.0 A"  freq=  -509. Q=  0.000 lam=    -0.0
   2 A"  freq=  -492. Q= -0.000 lam=    -0.0 A"  freq=  -468. Q= -0.000 lam=    -0.0
   3 A"  freq=  -173. Q=  0.000 lam=    -0.0 A"  freq=  -163. Q=  0.000 lam=    -0.0
   4 A"  freq=   -66. Q=  0.000 lam=    -0.0 A"  freq=   -66. Q=  0.000 lam=    -0.0
   5 A"  freq=   -63. Q= -0.000 lam=    -0.0 A"  freq=   -38. Q= -0.000 lam=    -0.0
   6 A"  freq=   -37. Q= -0.000 lam=    -0.0 A"  freq=   -16. Q= -0.000 lam=    -0.0
   7 A"  freq=    -6. Q= -0.000 lam=    -0.0 A'  freq=    -0. Q= -0.000 lam=    -0.0
   8 A'  freq=    -0. Q= -0.000 lam=    -0.0 A"  freq=    -0. Q= -0.000 lam=    -0.0
   9 A'  freq=    -0. Q= -0.000 lam=    -0.0 A"  freq=    -0. Q= -0.000 lam=    -0.0
  10 A"  freq=    -0. Q= -0.000 lam=    -0.0 A"  freq=    -0. Q= -0.000 lam=    -0.0
  11 A"  freq=    -0. Q=  0.000 lam=    -0.0 A'  freq=     0. Q=  0.000 lam=     0.0
  12 A"  freq=     0. Q=  0.000 lam=     0.0 A'  freq=     0. Q=  0.000 lam=     0.0
  13 A'  freq=     0. Q=  0.000 lam=     0.0 A"  freq=     5. Q=  0.000 lam=     0.0
  14 A'  freq=    53. Q= -0.071 lam=     0.1 A'  freq=    53. Q= -0.073 lam=     0.1
  15 A"  freq=    74. Q=  0.000 lam=     0.0 A"  freq=    75. Q=  0.000 lam=     0.0
  16 A"  freq=   137. Q= -0.000 lam=     0.0 A"  freq=   137. Q= -0.000 lam=     0.0
  17 A'  freq=   140. Q= -0.334 lam=     7.8 A'  freq=   140. Q= -0.349 lam=     8.5
  18 A"  freq=   149. Q= -0.000 lam=     0.0 A"  freq=   147. Q= -0.000 lam=     0.0
  19 A"  freq=   164. Q=  0.000 lam=     0.0 A'  freq=   170. Q=  0.383 lam=    12.5
  20 A'  freq=   170. Q= -0.394 lam=    13.2 A"  freq=   171. Q= -0.000 lam=     0.0
  21 A"  freq=   203. Q=  0.000 lam=     0.0 A"  freq=   198. Q=  0.000 lam=     0.0
  22 A"  freq=   211. Q=  0.000 lam=     0.0 A"  freq=   206. Q=  0.000 lam=     0.0
  23 A'  freq=   232. Q=  0.067 lam=     0.5 A'  freq=   232. Q=  0.051 lam=     0.3
  24 A'  freq=   246. Q=  0.369 lam=    16.7 A'  freq=   245. Q=  0.360 lam=    15.9
  25 A"  freq=   247. Q=  0.000 lam=     0.0 A"  freq=   246. Q=  0.000 lam=     0.0
  26 A"  freq=   278. Q=  0.000 lam=     0.0 A"  freq=   278. Q=  0.000 lam=     0.0
  27 A"  freq=   304. Q= -0.000 lam=     0.0 A"  freq=   305. Q= -0.000 lam=     0.0
  28 A'  freq=   307. Q= -0.175 lam=     4.7 A'  freq=   306. Q= -0.176 lam=     4.7
  29 A'  freq=   321. Q=  0.428 lam=    29.4 A'  freq=   322. Q=  0.441 lam=    31.4
  30 A"  freq=   339. Q= -0.000 lam=     0.0 A"  freq=   347. Q= -0.000 lam=     0.0
  31 A"  freq=   373. Q= -0.000 lam=     0.0 A"  freq=   381. Q= -0.000 lam=     0.0
  32 A'  freq=   386. Q= -0.282 lam=    15.3 A'  freq=   387. Q= -0.019 lam=     0.1
  33 A'  freq=   386. Q= -0.049 lam=     0.5 A'  freq=   388. Q= -0.300 lam=    17.4
  34 A"  freq=   393. Q=  0.000 lam=     0.0 A"  freq=   400. Q=  0.000 lam=     0.0
  35 A"  freq=   427. Q= -0.000 lam=     0.0 A"  freq=   421. Q= -0.000 lam=     0.0
  36 A'  freq=   430. Q= -0.094 lam=     1.9 A'  freq=   431. Q= -0.095 lam=     2.0
  37 A'  freq=   435. Q= -0.069 lam=     1.0 A'  freq=   436. Q= -0.062 lam=     0.8
  38 A"  freq=   458. Q= -0.000 lam=     0.0 A"  freq=   466. Q= -0.000 lam=     0.0
  39 A'  freq=   479. Q= -0.015 lam=     0.1 A'  freq=   479. Q= -0.025 lam=     0.2
  40 A'  freq=   483. Q= -0.078 lam=     1.5 A'  freq=   482. Q= -0.101 lam=     2.4
  41 A"  freq=   499. Q= -0.000 lam=     0.0 A"  freq=   492. Q= -0.000 lam=     0.0
  42 A'  freq=   500. Q=  0.264 lam=    17.5 A'  freq=   496. Q=  0.237 lam=    14.0
  43 A"  freq=   517. Q=  0.000 lam=     0.0 A"  freq=   510. Q=  0.000 lam=     0.0
  44 A'  freq=   519. Q=  0.114 lam=     3.4 A"  freq=   514. Q=  0.000 lam=     0.0
  45 A"  freq=   534. Q=  0.000 lam=     0.0 A'  freq=   518. Q=  0.095 lam=     2.3
  46 A"  freq=   537. Q= -0.000 lam=     0.0 A"  freq=   540. Q= -0.000 lam=     0.0
  47 A"  freq=   553. Q=  0.000 lam=     0.0 A'  freq=   558. Q=  0.039 lam=     0.4
  48 A'  freq=   559. Q= -0.033 lam=     0.3 A"  freq=   566. Q= -0.000 lam=     0.0
  49 A"  freq=   560. Q=  0.000 lam=     0.0 A"  freq=   570. Q=  0.000 lam=     0.0
  50 A'  freq=   576. Q= -0.098 lam=     2.7 A'  freq=   573. Q= -0.098 lam=     2.7
  51 A"  freq=   586. Q=  0.000 lam=     0.0 A"  freq=   589. Q=  0.000 lam=     0.0
  52 A'  freq=   615. Q= -0.013 lam=     0.1 A'  freq=   616. Q= -0.001 lam=     0.0
  53 A"  freq=   626. Q=  0.000 lam=     0.0 A"  freq=   627. Q=  0.000 lam=     0.0
  54 A'  freq=   633. Q=  0.001 lam=     0.0 A'  freq=   628. Q=  0.001 lam=     0.0
  55 A'  freq=   664. Q= -0.111 lam=     4.1 A'  freq=   662. Q= -0.116 lam=     4.5
  56 A"  freq=   670. Q=  0.000 lam=     0.0 A"  freq=   671. Q=  0.000 lam=     0.0
  57 A'  freq=   686. Q=  0.021 lam=     0.1 A'  freq=   680. Q=  0.021 lam=     0.1
  58 A"  freq=   687. Q=  0.000 lam=     0.0 A"  freq=   685. Q=  0.000 lam=     0.0
  59 A"  freq=   696. Q= -0.000 lam=     0.0 A"  freq=   700. Q= -0.000 lam=     0.0
  60 A'  freq=   705. Q= -0.101 lam=     3.6 A'  freq=   705. Q= -0.105 lam=     3.9
  61 A"  freq=   714. Q=  0.000 lam=     0.0 A'  freq=   714. Q=  0.023 lam=     0.2
  62 A'  freq=   716. Q= -0.035 lam=     0.4 A"  freq=   721. Q= -0.000 lam=     0.0
  63 A"  freq=   731. Q= -0.000 lam=     0.0 A"  freq=   729. Q= -0.000 lam=     0.0
  64 A'  freq=   733. Q=  0.006 lam=     0.0 A"  freq=   734. Q=  0.000 lam=     0.0
  65 A"  freq=   733. Q=  0.000 lam=     0.0 A'  freq=   744. Q=  0.046 lam=     0.8
  66 A'  freq=   745. Q= -0.132 lam=     6.5 A'  freq=   746. Q= -0.125 lam=     5.8
  67 A"  freq=   749. Q= -0.000 lam=     0.0 A"  freq=   754. Q= -0.000 lam=     0.0
  68 A"  freq=   767. Q=  0.000 lam=     0.0 A"  freq=   772. Q=  0.000 lam=     0.0
  69 A'  freq=   781. Q=  0.032 lam=     0.4 A'  freq=   781. Q=  0.033 lam=     0.4
  70 A"  freq=   783. Q=  0.000 lam=     0.0 A"  freq=   794. Q=  0.000 lam=     0.0
  71 A"  freq=   800. Q= -0.000 lam=     0.0 A"  freq=   808. Q= -0.000 lam=     0.0
  72 A"  freq=   807. Q= -0.000 lam=     0.0 A"  freq=   817. Q= -0.000 lam=     0.0
  73 A"  freq=   820. Q= -0.000 lam=     0.0 A"  freq=   826. Q= -0.000 lam=     0.0
  74 A'  freq=   829. Q=  0.030 lam=     0.4 A'  freq=   828. Q=  0.034 lam=     0.5
  75 A"  freq=   837. Q=  0.000 lam=     0.0 A"  freq=   832. Q=  0.000 lam=     0.0
  76 A"  freq=   852. Q= -0.000 lam=     0.0 A'  freq=   857. Q= -0.135 lam=     7.8
  77 A'  freq=   855. Q= -0.126 lam=     6.8 A"  freq=   862. Q= -0.000 lam=     0.0
  78 A"  freq=   861. Q= -0.000 lam=     0.0 A'  freq=   864. Q= -0.024 lam=     0.2
  79 A'  freq=   862. Q= -0.020 lam=     0.2 A"  freq=   878. Q= -0.000 lam=     0.0
  80 A'  freq=   889. Q=  0.013 lam=     0.1 A'  freq=   891. Q=  0.016 lam=     0.1
  81 A"  freq=   890. Q= -0.000 lam=     0.0 A"  freq=   909. Q= -0.000 lam=     0.0
  82 A"  freq=   908. Q=  0.000 lam=     0.0 A"  freq=   933. Q=  0.000 lam=     0.0
  83 A"  freq=   911. Q=  0.000 lam=     0.0 A"  freq=   938. Q=  0.000 lam=     0.0
  84 A"  freq=   913. Q=  0.000 lam=     0.0 A"  freq=   940. Q=  0.000 lam=     0.0
  85 A"  freq=   950. Q= -0.000 lam=     0.0 A"  freq=   964. Q= -0.000 lam=     0.0
  86 A"  freq=   956. Q= -0.000 lam=     0.0 A"  freq=   971. Q= -0.000 lam=     0.0
  87 A"  freq=   970. Q= -0.000 lam=     0.0 A'  freq=   988. Q= -0.012 lam=     0.1
  88 A"  freq=   971. Q=  0.000 lam=     0.0 A"  freq=   994. Q=  0.000 lam=     0.0
  89 A"  freq=   977. Q=  0.000 lam=     0.0 A'  freq=   998. Q=  0.038 lam=     0.7
  90 A"  freq=   987. Q=  0.000 lam=     0.0 A"  freq=   999. Q=  0.000 lam=     0.0
  91 A'  freq=   989. Q= -0.026 lam=     0.3 A"  freq=   999. Q= -0.000 lam=     0.0
  92 A'  freq=   996. Q=  0.021 lam=     0.2 A"  freq=  1006. Q=  0.000 lam=     0.0
  93 A'  freq=  1026. Q=  0.007 lam=     0.0 A'  freq=  1021. Q=  0.016 lam=     0.1
  94 A'  freq=  1059. Q=  0.002 lam=     0.0 A'  freq=  1055. Q=  0.062 lam=     2.0
  95 A'  freq=  1078. Q= -0.069 lam=     2.6 A'  freq=  1056. Q= -0.037 lam=     0.7
  96 A'  freq=  1089. Q=  0.026 lam=     0.4 A'  freq=  1074. Q=  0.099 lam=     5.3
  97 A'  freq=  1096. Q= -0.049 lam=     1.3 A'  freq=  1086. Q= -0.015 lam=     0.1
  98 A'  freq=  1106. Q= -0.171 lam=    16.1 A'  freq=  1098. Q= -0.043 lam=     1.0
  99 A'  freq=  1116. Q= -0.095 lam=     5.1 A'  freq=  1103. Q= -0.005 lam=     0.0
 100 A'  freq=  1128. Q= -0.007 lam=     0.0 A'  freq=  1120. Q= -0.167 lam=    15.5
 101 A'  freq=  1130. Q= -0.011 lam=     0.1 A'  freq=  1138. Q= -0.131 lam=     9.8
 102 A'  freq=  1136. Q=  0.161 lam=    14.7 A'  freq=  1140. Q=  0.096 lam=     5.2
 103 A'  freq=  1159. Q= -0.072 lam=     3.0 A'  freq=  1160. Q= -0.182 lam=    19.3
 104 A'  freq=  1162. Q=  0.080 lam=     3.7 A'  freq=  1169. Q=  0.004 lam=     0.0
 105 A'  freq=  1171. Q=  0.008 lam=     0.0 A'  freq=  1176. Q=  0.047 lam=     1.3
 106 A'  freq=  1175. Q=  0.072 lam=     3.1 A'  freq=  1184. Q=  0.009 lam=     0.0
 107 A'  freq=  1179. Q= -0.070 lam=     2.9 A'  freq=  1185. Q= -0.074 lam=     3.3
 108 A'  freq=  1186. Q= -0.011 lam=     0.1 A'  freq=  1192. Q= -0.020 lam=     0.2
 109 A'  freq=  1202. Q= -0.079 lam=     3.7 A'  freq=  1210. Q= -0.083 lam=     4.2
 110 A'  freq=  1211. Q= -0.126 lam=     9.6 A'  freq=  1220. Q= -0.154 lam=    14.5
 111 A'  freq=  1223. Q=  0.063 lam=     2.4 A'  freq=  1227. Q=  0.040 lam=     1.0
 112 A'  freq=  1235. Q= -0.138 lam=    11.8 A'  freq=  1238. Q= -0.131 lam=    10.7
 113 A'  freq=  1249. Q=  0.027 lam=     0.5 A'  freq=  1246. Q=  0.066 lam=     2.7
 114 A'  freq=  1251. Q=  0.073 lam=     3.4 A'  freq=  1253. Q=  0.053 lam=     1.8
 115 A'  freq=  1262. Q=  0.186 lam=    21.7 A'  freq=  1262. Q=  0.148 lam=    13.9
 116 A'  freq=  1273. Q=  0.006 lam=     0.0 A'  freq=  1278. Q=  0.069 lam=     3.1
 117 A'  freq=  1283. Q= -0.053 lam=     1.8 A'  freq=  1286. Q= -0.051 lam=     1.7
 118 A'  freq=  1296. Q= -0.069 lam=     3.1 A'  freq=  1299. Q= -0.129 lam=    10.9
 119 A'  freq=  1299. Q= -0.157 lam=    15.9 A'  freq=  1303. Q= -0.100 lam=     6.5
 120 A'  freq=  1306. Q=  0.001 lam=     0.0 A'  freq=  1318. Q=  0.062 lam=     2.6
 121 A'  freq=  1311. Q=  0.066 lam=     2.9 A'  freq=  1325. Q=  0.046 lam=     1.4
 122 A'  freq=  1334. Q= -0.031 lam=     0.6 A'  freq=  1342. Q= -0.044 lam=     1.3
 123 A'  freq=  1353. Q=  0.091 lam=     5.6 A'  freq=  1364. Q=  0.072 lam=     3.5
 124 A'  freq=  1369. Q=  0.029 lam=     0.6 A'  freq=  1373. Q=  0.015 lam=     0.2
 125 A'  freq=  1389. Q= -0.059 lam=     2.4 A'  freq=  1391. Q= -0.068 lam=     3.2
 126 A'  freq=  1402. Q= -0.037 lam=     1.0 A'  freq=  1399. Q= -0.029 lam=     0.6
 127 A'  freq=  1409. Q= -0.024 lam=     0.4 A'  freq=  1405. Q= -0.036 lam=     0.9
 128 A'  freq=  1427. Q=  0.042 lam=     1.2 A'  freq=  1428. Q=  0.046 lam=     1.5
 129 A'  freq=  1439. Q=  0.004 lam=     0.0 A'  freq=  1444. Q=  0.003 lam=     0.0
 130 A'  freq=  1446. Q= -0.020 lam=     0.3 A'  freq=  1448. Q= -0.021 lam=     0.3
 131 A'  freq=  1463. Q=  0.031 lam=     0.7 A'  freq=  1461. Q=  0.033 lam=     0.8
 132 A'  freq=  1466. Q= -0.045 lam=     1.5 A'  freq=  1465. Q= -0.025 lam=     0.5
 133 A'  freq=  1472. Q=  0.056 lam=     2.3 A'  freq=  1473. Q=  0.040 lam=     1.2
 134 A'  freq=  1494. Q= -0.038 lam=     1.1 A'  freq=  1482. Q= -0.082 lam=     5.0
 135 A'  freq=  1506. Q=  0.072 lam=     3.9 A'  freq=  1505. Q=  0.027 lam=     0.5
 136 A'  freq=  1520. Q=  0.052 lam=     2.1 A'  freq=  1509. Q=  0.028 lam=     0.6
 137 A'  freq=  1522. Q=  0.021 lam=     0.3 A'  freq=  1514. Q=  0.042 lam=     1.4
 138 A'  freq=  1544. Q=  0.108 lam=     8.9 A'  freq=  1543. Q=  0.106 lam=     8.6
 139 A'  freq=  1577. Q=  0.003 lam=     0.0 A'  freq=  1563. Q=  0.003 lam=     0.0
 140 A'  freq=  1587. Q= -0.031 lam=     0.8 A'  freq=  1572. Q= -0.020 lam=     0.3
 141 A'  freq=  1594. Q=  0.096 lam=     7.3 A'  freq=  1589. Q=  0.070 lam=     3.8
 142 A'  freq=  1621. Q= -0.038 lam=     1.2 A'  freq=  1606. Q= -0.180 lam=    26.1
 143 A'  freq=  1625. Q=  0.000 lam=     0.0 A'  freq=  1614. Q=  0.058 lam=     2.8
 144 A'  freq=  1629. Q=  0.209 lam=    35.7 A'  freq=  1621. Q=  0.015 lam=     0.2
 145 A'  freq=  1632. Q= -0.060 lam=     2.9 A'  freq=  1624. Q= -0.058 lam=     2.7
 146 A'  freq=  1638. Q=  0.105 lam=     9.0 A'  freq=  1628. Q=  0.136 lam=    15.0
 147 A'  freq=  1640. Q= -0.056 lam=     2.5 A'  freq=  1631. Q= -0.002 lam=     0.0
 148 A'  freq=  1645. Q=  0.127 lam=    13.2 A'  freq=  1641. Q=  0.027 lam=     0.6
 149 A'  freq=  1654. Q= -0.041 lam=     1.4 A'  freq=  1644. Q= -0.019 lam=     0.3
 150 A'  freq=  1668. Q=  0.151 lam=    19.1 A'  freq=  1646. Q=  0.204 lam=    34.1
 151 A'  freq=  3156. Q=  0.009 lam=     0.1 A'  freq=  3170. Q=  0.009 lam=     0.1
 152 A'  freq=  3157. Q=  0.000 lam=     0.0 A'  freq=  3170. Q=  0.000 lam=     0.0
 153 A'  freq=  3158. Q=  0.000 lam=     0.0 A'  freq=  3173. Q=  0.000 lam=     0.0
 154 A'  freq=  3160. Q= -0.003 lam=     0.0 A'  freq=  3174. Q= -0.003 lam=     0.0
 155 A'  freq=  3162. Q= -0.005 lam=     0.0 A'  freq=  3176. Q= -0.005 lam=     0.0
 156 A'  freq=  3165. Q=  0.010 lam=     0.2 A'  freq=  3180. Q=  0.001 lam=     0.0
 157 A'  freq=  3168. Q=  0.004 lam=     0.0 A'  freq=  3182. Q=  0.009 lam=     0.1
 158 A'  freq=  3174. Q=  0.001 lam=     0.0 A'  freq=  3190. Q=  0.003 lam=     0.0
 159 A'  freq=  3175. Q=  0.003 lam=     0.0 A'  freq=  3190. Q=  0.011 lam=     0.2
 160 A'  freq=  3177. Q= -0.011 lam=     0.2 A'  freq=  3190. Q= -0.005 lam=     0.0
 161 A'  freq=  3185. Q=  0.013 lam=     0.3 A'  freq=  3198. Q=  0.013 lam=     0.3
 162 A'  freq=  3199. Q=  0.003 lam=     0.0 A'  freq=  3213. Q=  0.005 lam=     0.0
 163 A'  freq=  3199. Q= -0.014 lam=     0.3 A'  freq=  3213. Q= -0.013 lam=     0.3
 164 A'  freq=  3209. Q= -0.002 lam=     0.0 A'  freq=  3223. Q= -0.002 lam=     0.0
 165 A'  freq=  3247. Q=  0.012 lam=     0.3 A'  freq=  3261. Q=  0.012 lam=     0.2
 166 A'  freq=  3273. Q=  0.006 lam=     0.1 A'  freq=  3285. Q=  0.005 lam=     0.0
 167 A'  freq=  3341. Q=  0.006 lam=     0.1 A'  freq=  3348. Q=  0.006 lam=     0.1
 168 A'  freq=  3442. Q=  0.000 lam=     0.0 A'  freq=  3451. Q=  0.000 lam=     0.0
 169 A'  freq=  3444. Q=  0.000 lam=     0.0 A'  freq=  3452. Q=  0.000 lam=     0.0
 170 A'  freq=  3582. Q=  0.009 lam=     0.1 A'  freq=  3588. Q=  0.010 lam=     0.2
 171 A'  freq=  3583. Q= -0.003 lam=     0.0 A'  freq=  3589. Q= -0.001 lam=     0.0

 total reorg energy (cm**-1, kcal/mol)=      398.      397.      1.14      1.14
 Nber of molecules processed=           2
