 Enter ifcurve (0=recti, 1=orth curvi, 2=apprx curvi, -1 = skip
 And atom ordering flag, 0= never changes, 1= use the first order thenceforth,
  2= deduce it (does read on fail), 3= always read it
 Reading file: 
 ./Non-cov-phenyl-N_1_C0S0.log                                                  
                                          
  Entering Gaussian System, Link 0=g16                                          
  
 Gaussian format, type: g94, g98, g03= F F F
  #P Geom=AllCheck Guess=TCheck SCRF=Check GenChk RB3LYP/6-311G(d,p) Fre    
 energy type= B3LYP   
 Original G94 input coords:
  6  7.636843  0.000000  0.000000
  6  6.929384 -1.199243  0.000000
  6  5.538866 -1.197796  0.000000
  6  4.802642  0.000000  0.000000
  6  3.312820  0.000000  0.000000
  6  2.567080  1.189825  0.000000
  6  1.180328  1.190076  0.000000
  6  0.434469  0.000000  0.000000
  6 -1.052532  0.000000  0.000000
  6 -1.791865  1.197115  0.000000
  6 -3.178181  1.200727  0.000000
  6 -3.898268  0.000000  0.000000
  6 -5.378346  0.000000  0.000000
  7 -6.000708  1.191967  0.000000
  6 -7.331274  1.179603  0.000000
  6 -8.068642  0.000000  0.000000
  6 -7.331274 -1.179603  0.000000
  7 -6.000708 -1.191967  0.000000
  6 -3.178181 -1.200727  0.000000
  6 -1.791865 -1.197115  0.000000
  6  1.180328 -1.190076  0.000000
  6  2.567080 -1.189825  0.000000
  6  5.538866  1.197796  0.000000
  6  6.929384  1.199243  0.000000
  1  8.720677  0.000000  0.000000
  1  7.460943 -2.144358  0.000000
  1  5.029652 -2.152211  0.000000
  1  3.068115  2.148844  0.000000
  1  0.678980  2.148645  0.000000
  1 -1.284935  2.152775  0.000000
  1 -3.723480  2.135354  0.000000
  1 -7.822248  2.149614  0.000000
  1 -9.150977  0.000000  0.000000
  1 -7.822248 -2.149614  0.000000
  1 -3.723480 -2.135354  0.000000
  1 -1.284935 -2.152775  0.000000
  1  0.678980 -2.148645  0.000000
  1  3.068115 -2.148844  0.000000
  1  5.029652  2.152211  0.000000
  1  7.460943  2.144358  0.000000
 nber atoms=          40
 Original standard coords:
  6  0.000000  0.000000  7.907955
  6  0.000000  1.199243  7.200496
  6  0.000000  1.197796  5.809978
  6  0.000000  0.000000  5.073754
  6  0.000000  0.000000  3.583932
  6  0.000000 -1.189825  2.838192
  6  0.000000 -1.190076  1.451440
  6  0.000000  0.000000  0.705581
  6  0.000000  0.000000 -0.781419
  6  0.000000 -1.197115 -1.520753
  6  0.000000 -1.200727 -2.907069
  6  0.000000  0.000000 -3.627156
  6  0.000000  0.000000 -5.107234
  7  0.000000 -1.191967 -5.729596
  6  0.000000 -1.179603 -7.060162
  6  0.000000  0.000000 -7.797530
  6  0.000000  1.179603 -7.060162
  7  0.000000  1.191967 -5.729596
  6  0.000000  1.200727 -2.907069
  6  0.000000  1.197115 -1.520753
  6  0.000000  1.190076  1.451440
  6  0.000000  1.189825  2.838192
  6  0.000000 -1.197796  5.809978
  6  0.000000 -1.199243  7.200496
  1  0.000000  0.000000  8.991789
  1  0.000000  2.144358  7.732055
  1  0.000000  2.152211  5.300765
  1  0.000000 -2.148844  3.339227
  1  0.000000 -2.148645  0.950092
  1  0.000000 -2.152775 -1.013823
  1  0.000000 -2.135354 -3.452368
  1  0.000000 -2.149614 -7.551136
  1  0.000000  0.000000 -8.879864
  1  0.000000  2.149614 -7.551136
  1  0.000000  2.135354 -3.452368
  1  0.000000  2.152775 -1.013823
  1  0.000000  2.148645  0.950092
  1  0.000000  2.148844  3.339227
  1  0.000000 -2.152211  5.300765
  1  0.000000 -2.144358  7.732055
  SCF Done:  E(RB3LYP) =  -957.720291844     A.U. after    1 cycles             
  
          23          40 "  -957.720291844"
After scan for Atom:   Atom  AN      X      Y      Z        X      Y      Z        X      Y      Z   
After scan for Atom:   Atom  AN      X      Y      Z        X      Y      Z        X      Y      Z   
After scan for Atom:   Atom  AN      X      Y      Z        X      Y      Z        X      Y      Z   
After scan for Atom:   Atom  AN      X      Y      Z        X      Y      Z        X      Y      Z   
After scan for Atom:   Atom  AN      X      Y      Z        X      Y      Z        X      Y      Z   
After scan for Atom:   Atom  AN      X      Y      Z        X      Y      Z        X      Y      Z   
After scan for Atom:   Atom  AN      X      Y      Z        X      Y      Z        X      Y      Z   
After scan for Atom:   Atom  AN      X      Y      Z        X      Y      Z        X      Y      Z   
After scan for Atom:   Atom  AN      X      Y      Z        X      Y      Z        X      Y      Z   
After scan for Atom:   Atom  AN      X      Y      Z        X      Y      Z        X      Y      Z   
After scan for Atom:   Atom  AN      X      Y      Z        X      Y      Z        X      Y      Z   
After scan for Atom:   Atom  AN      X      Y      Z        X      Y      Z        X      Y      Z   
After scan for Atom:   Atom  AN      X      Y      Z        X      Y      Z        X      Y      Z   
After scan for Atom:   Atom  AN      X      Y      Z        X      Y      Z        X      Y      Z   
After scan for Atom:   Atom  AN      X      Y      Z        X      Y      Z        X      Y      Z   
After scan for Atom:   Atom  AN      X      Y      Z        X      Y      Z        X      Y      Z   
After scan for Atom:   Atom  AN      X      Y      Z        X      Y      Z        X      Y      Z   
After scan for Atom:   Atom  AN      X      Y      Z        X      Y      Z        X      Y      Z   
After scan for Atom:   Atom  AN      X      Y      Z        X      Y      Z        X      Y      Z   
After scan for Atom:   Atom  AN      X      Y      Z        X      Y      Z        X      Y      Z   
After scan for Atom:   Atom  AN      X      Y      Z        X      Y      Z        X      Y      Z   
After scan for Atom:   Atom  AN      X      Y      Z        X      Y      Z        X      Y      Z   
After scan for Atom:   Atom  AN      X      Y      Z        X      Y      Z        X      Y      Z   
After scan for Atom:   Atom  AN      X      Y      Z        X      Y      Z        X      Y      Z   
After scan for Atom:   Atom  AN      X      Y      Z        X      Y      Z        X      Y      Z   
After scan for Atom:   Atom  AN      X      Y      Z        X      Y      Z        X      Y      Z   
After scan for Atom:   Atom  AN      X      Y      Z        X      Y      Z        X      Y      Z   
After scan for Atom:   Atom  AN      X      Y      Z        X      Y      Z        X      Y      Z   
After scan for Atom:   Atom  AN      X      Y      Z        X      Y      Z        X      Y      Z   
After scan for Atom:   Atom  AN      X      Y      Z        X      Y      Z        X      Y      Z   
After scan for Atom:   Atom  AN      X      Y      Z        X      Y      Z        X      Y      Z   
After scan for Atom:   Atom  AN      X      Y      Z        X      Y      Z        X      Y      Z   
After scan for Atom:   Atom  AN      X      Y      Z        X      Y      Z        X      Y      Z   
After scan for Atom:   Atom  AN      X      Y      Z        X      Y      Z        X      Y      Z   
After scan for Atom:   Atom  AN      X      Y      Z        X      Y      Z        X      Y      Z   
After scan for Atom:   Atom  AN      X      Y      Z        X      Y      Z        X      Y      Z   
After scan for Atom:   Atom  AN      X      Y      Z        X      Y      Z        X      Y      Z   
After scan for Atom:   Atom  AN      X      Y      Z        X      Y      Z        X      Y      Z   
 g94    frequencies=
     0.0    0.0    0.0    0.0    0.0    0.0  -96.3  -53.1   21.6   50.4
    57.9   59.4  119.6  134.3  167.7  172.3  223.4  254.6  335.7  336.4
   370.9  386.7  406.8  410.1  418.0  445.5  453.6  485.0  487.5  510.4
   554.7  573.4  631.4  641.0  642.2  655.1  668.4  694.9  707.6  729.2
   743.9  769.9  780.1  806.7  812.2  817.1  826.1  835.6  849.9  854.2
   879.6  919.2  949.3  956.8  973.3  995.8  996.7  997.8 1001.7 1007.9
  1008.1 1013.0 1018.0 1023.0 1033.5 1054.6 1064.8 1075.0 1111.5 1111.7
  1113.1 1142.7 1168.2 1188.1 1206.5 1218.7 1236.7 1251.0 1274.7 1287.8
  1293.0 1302.9 1310.4 1326.5 1341.5 1353.5 1361.4 1370.0 1433.4 1444.6
  1448.8 1468.1 1483.8 1521.9 1543.0 1570.7 1580.0 1596.0 1614.0 1614.1
  1623.5 1637.7 1647.0 1658.7 3141.9 3143.9 3162.0 3170.0 3181.1 3182.6
  3186.4 3190.8 3192.1 3201.4 3201.6 3202.0 3207.4 3209.1 3211.9 3214.3
 g94    symmetries=
                                                A2     A2     B1     A2
      B2     B1     B1     B2     B1     A1     B2     B1     B1     A1
      B2     A2     A2     A2     A2     B2     B1     A1     B2     B1
      B1     B1     B2     A1     B2     B2     B2     B1     A1     B1
      B1     A1     B1     A2     A1     B1     B1     A2     A2     B1
      B1     B1     A2     B1     A2     B1     A2     B1     A2     B1
      A1     A1     A1     A1     A1     A1     A1     A1     B2     B2
      A1     B2     B2     B2     A1     A1     B2     A1     B2     A1
      B2     A1     B2     B2     B2     A1     B2     B2     B2     B2
      A1     B2     B2     A1     A1     A1     B2     B2     A1     B2
      B2     A1     A1     A1     A1     B2     A1     B2     A1     B2
      A1     B2     A1     B2     A1     A1     B2     A1     B2     A1
 atomic masses:
 12.0000 12.0000 12.0000 12.0000 12.0000 12.0000 12.0000 12.0000 12.0000 12.0000
 12.0000 12.0000 12.0000 14.0031 12.0000 12.0000 12.0000 14.0031 12.0000 12.0000
 12.0000 12.0000 12.0000 12.0000  1.0078  1.0078  1.0078  1.0078  1.0078  1.0078
  1.0078  1.0078  1.0078  1.0078  1.0078  1.0078  1.0078  1.0078  1.0078  1.0078
 looking for force constants in 
 ./Non-cov-phenyl-N_1_C0S0.fchk                                                 
  
 Cartesian Force Constants                  R   N=        7260                  
  
 n3=         120        7260
 g94-fc frequencies=
   -96.3  -53.1   -1.0   -0.0    0.0    0.0    0.8    1.0   21.6   50.4
    57.9   59.4  119.6  134.3  167.7  172.4  223.4  254.6  335.7  336.4
   370.9  386.7  406.8  410.1  418.0  445.5  453.6  485.0  487.5  510.5
   554.7  573.4  631.4  641.0  642.2  655.1  668.4  694.9  707.6  729.3
   743.9  769.9  780.1  806.7  812.2  817.1  826.2  835.6  850.0  854.2
   879.6  919.3  949.3  956.8  973.3  995.8  996.7  997.9 1001.7 1008.0
  1008.1 1013.0 1018.1 1023.0 1033.6 1054.6 1064.9 1075.0 1111.5 1111.8
  1113.2 1142.7 1168.2 1188.1 1206.5 1218.8 1236.7 1251.0 1274.8 1287.8
  1293.0 1302.9 1310.4 1326.6 1341.5 1353.5 1361.5 1370.1 1433.4 1444.7
  1448.8 1468.1 1483.8 1521.9 1543.0 1570.7 1580.0 1596.0 1614.0 1614.1
  1623.5 1637.7 1647.1 1658.7 3141.9 3143.9 3162.0 3170.1 3181.1 3182.7
  3186.4 3190.9 3192.1 3201.5 3201.7 3202.0 3207.5 3209.2 3211.9 3214.4
 at 99999: n3=         120
 symm operator            1 :  T  nop=           1
 symm operator            2 :  F  nop=           1
 symm operator            3 :  F  nop=           1
 symm operator            4 :  F  nop=           1
 symm operator            5 :  F  nop=           1
 symm operator            6 :  T  nop=           2
 symm operator            7 :  T  nop=           3
 The point group of the molecule is C2V
 enforcing symm op           1  jsymt=          -1          -1           1
 enforcing symm op           6  jsymt=           1          -1           1
 enforcing symm op           7  jsymt=          -1           1           1
 cartesian coord symmetries:
 A1 :   40 A2 :   15 B1 :   25 B2 :   40
 Symmetry rotation matrix:
   1.00000   0.00000   0.00000
   0.00000   1.00000   0.00000
   0.00000   0.00000   1.00000

 Projecting out zero-frequency components
 generating redundant internal coords
         300        3600          40
 search for int coords
   1 str   2   1   1.392
   2 str   3   2   1.391
   3 str   4   3   1.406
   4 str   5   4   1.490
   5 str   6   5   1.404
   6 str   7   6   1.387
   7 str   8   7   1.404
   8 str   9   8   1.487
   9 str  10   9   1.407
  10 str  11  10   1.386
  11 str  12  11   1.400
  12 str  13  12   1.480
  13 str  14  13   1.345
  14 str  15  14   1.331
  15 str  16  15   1.391
  16 str  17  16   1.391
  17 str  18  13   1.345
  18 str  18  17   1.331
  19 str  19  12   1.400
  20 str  20   9   1.407
  21 str  20  19   1.386
  22 str  21   8   1.404
  23 str  22   5   1.404
  24 str  22  21   1.387
  25 str  23   4   1.406
  26 str  24   1   1.392
  27 str  24  23   1.391
  28 str  25   1   1.084
  29 str  26   2   1.084
  30 str  27   3   1.082
  31 str  28   6   1.082
  32 str  29   7   1.082
  33 str  30  10   1.082
  34 str  31  11   1.082
  35 str  32  15   1.087
  36 str  33  16   1.082
  37 str  34  17   1.087
  38 str  35  19   1.082
  39 str  36  20   1.082
  40 str  37  21   1.082
  41 str  38  22   1.082
  42 str  39  23   1.082
  43 str  40  24   1.084
 nber stretches=          43
  44 ben   1   2   3
  45 prop tor   1   2   3   4
  46 prop tor   1   2   3  27
  47 ben   1   2  26
  48 ben   1  24  23
  49 ben   1  24  40
  50 ben   2   1  24
  51 prop tor   2   1  24  23
  52 prop tor   2   1  24  40
  53 ben   2   1  25
  54 ben   2   3   4
  55 prop tor   2   3   4   5
  56 prop tor   2   3   4  23
  57 ben   2   3  27
  58 ben   3   2  26
  59 ben   3   4   5
  60 prop tor   3   4   5   6
  61 prop tor   3   4   5  22
  62 ben   3   4  23
  63 prop tor   3   4  23  24
  64 prop tor   3   4  23  39
  65 ben   4   3  27
  66 ben   4   5   6
  67 prop tor   4   5   6   7
  68 prop tor   4   5   6  28
  69 ben   4   5  22
  70 prop tor   4   5  22  21
  71 prop tor   4   5  22  38
  72 ben   4  23  24
  73 prop tor   4  23  24   1
  74 prop tor   4  23  24  40
  75 ben   4  23  39
  76 ben   5   4  23
  77 prop tor   5   4  23  24
  78 prop tor   5   4  23  39
  79 ben   5   6   7
  80 prop tor   5   6   7   8
  81 prop tor   5   6   7  29
  82 ben   5   6  28
  83 ben   5  22  21
  84 ben   5  22  38
  85 ben   6   5  22
  86 prop tor   6   5  22  21
  87 prop tor   6   5  22  38
  88 ben   6   7   8
  89 prop tor   6   7   8   9
  90 prop tor   6   7   8  21
  91 ben   6   7  29
  92 ben   7   6  28
  93 ben   7   8   9
  94 prop tor   7   8   9  10
  95 prop tor   7   8   9  20
  96 ben   7   8  21
  97 prop tor   7   8  21  22
  98 prop tor   7   8  21  37
  99 ben   8   7  29
 100 ben   8   9  10
 101 prop tor   8   9  10  11
 102 prop tor   8   9  10  30
 103 ben   8   9  20
 104 prop tor   8   9  20  19
 105 prop tor   8   9  20  36
 106 ben   8  21  22
 107 prop tor   8  21  22   5
 108 prop tor   8  21  22  38
 109 ben   8  21  37
 110 ben   9   8  21
 111 prop tor   9   8  21  22
 112 prop tor   9   8  21  37
 113 ben   9  10  11
 114 prop tor   9  10  11  12
 115 prop tor   9  10  11  31
 116 ben   9  10  30
 117 ben   9  20  19
 118 ben   9  20  36
 119 ben  10   9  20
 120 prop tor  10   9  20  19
 121 prop tor  10   9  20  36
 122 ben  10  11  12
 123 prop tor  10  11  12  13
 124 prop tor  10  11  12  19
 125 ben  10  11  31
 126 ben  11  10  30
 127 ben  11  12  13
 128 prop tor  11  12  13  14
 129 prop tor  11  12  13  18
 130 ben  11  12  19
 131 prop tor  11  12  19  20
 132 prop tor  11  12  19  35
 133 ben  12  11  31
 134 ben  12  13  14
 135 prop tor  12  13  14  15
 136 ben  12  13  18
 137 prop tor  12  13  18  17
 138 ben  12  19  20
 139 prop tor  12  19  20   9
 140 prop tor  12  19  20  36
 141 ben  12  19  35
 142 ben  13  12  19
 143 prop tor  13  12  19  20
 144 prop tor  13  12  19  35
 145 ben  13  14  15
 146 prop tor  13  14  15  16
 147 prop tor  13  14  15  32
 148 ben  13  18  17
 149 ben  14  13  18
 150 prop tor  14  13  18  17
 151 ben  14  15  16
 152 prop tor  14  15  16  17
 153 prop tor  14  15  16  33
 154 ben  14  15  32
 155 ben  15  16  17
 156 prop tor  15  16  17  18
 157 prop tor  15  16  17  34
 158 ben  15  16  33
 159 ben  16  15  32
 160 ben  16  17  18
 161 prop tor  16  17  18  13
 162 ben  16  17  34
 163 ben  17  16  33
 164 prop tor  18  13  14  15
 165 ben  18  17  34
 166 prop tor  19  12  13  14
 167 prop tor  19  12  13  18
 168 ben  19  20  36
 169 prop tor  20   9  10  11
 170 prop tor  20   9  10  30
 171 ben  20  19  35
 172 prop tor  21   8   9  10
 173 prop tor  21   8   9  20
 174 ben  21  22  38
 175 prop tor  22   5   6   7
 176 prop tor  22   5   6  28
 177 ben  22  21  37
 178 prop tor  23   4   5   6
 179 prop tor  23   4   5  22
 180 ben  23  24  40
 181 prop tor  24   1   2   3
 182 prop tor  24   1   2  26
 183 ben  24   1  25
 184 ben  24  23  39
 185 prop tor  25   1   2   3
 186 prop tor  25   1   2  26
 187 prop tor  25   1  24  23
 188 prop tor  25   1  24  40
 189 prop tor  26   2   3   4
 190 prop tor  26   2   3  27
 191 prop tor  27   3   4   5
 192 prop tor  27   3   4  23
 193 prop tor  28   6   7   8
 194 prop tor  28   6   7  29
 195 prop tor  29   7   8   9
 196 prop tor  29   7   8  21
 197 prop tor  30  10  11  12
 198 prop tor  30  10  11  31
 199 prop tor  31  11  12  13
 200 prop tor  31  11  12  19
 201 prop tor  32  15  16  17
 202 prop tor  32  15  16  33
 203 prop tor  33  16  17  18
 204 prop tor  33  16  17  34
 205 prop tor  34  17  18  13
 206 prop tor  35  19  20   9
 207 prop tor  35  19  20  36
 208 prop tor  37  21  22   5
 209 prop tor  37  21  22  38
 210 prop tor  39  23  24   1
 211 prop tor  39  23  24  40
 nber bend=              68
 nber lin bend=           0
 nber prop tor=         100
 nber impr tor=           0
 nber tot redund int=         211
 Eigenvalues of G in red int coords
    Gval -0.00000000 -0.00000000 -0.00000000 -0.00000000 -0.00000000 -0.00000000 -0.00000000 -0.00000000
    Gval -0.00000000 -0.00000000 -0.00000000 -0.00000000 -0.00000000 -0.00000000 -0.00000000 -0.00000000
    Gval -0.00000000 -0.00000000 -0.00000000 -0.00000000 -0.00000000 -0.00000000 -0.00000000 -0.00000000
    Gval -0.00000000 -0.00000000 -0.00000000 -0.00000000 -0.00000000 -0.00000000 -0.00000000 -0.00000000
    Gval -0.00000000 -0.00000000 -0.00000000 -0.00000000 -0.00000000 -0.00000000 -0.00000000 -0.00000000
    Gval -0.00000000 -0.00000000 -0.00000000 -0.00000000 -0.00000000 -0.00000000 -0.00000000 -0.00000000
    Gval -0.00000000 -0.00000000 -0.00000000  0.00000000  0.00000000  0.00000000  0.00000000  0.00000000
    Gval  0.00000000  0.00000000  0.00000000  0.00000000  0.00000000  0.00000000  0.00000000  0.00000000
    Gval  0.00000000  0.00000000  0.00000000  0.00000000  0.00000000  0.00000000  0.00000000  0.00000000
    Gval  0.00000000  0.00000000  0.00000000  0.00000000  0.00000000  0.00000000  0.00000000  0.00000000
    Gval  0.00000000  0.00000000  0.00000000  0.00000000  0.00000000  0.00000000  0.00000000  0.00000000
    Gval  0.00000000  0.00000000  0.00000000  0.00000000  0.00000000  0.00000000  0.00000000  0.00000000
    Gval  0.00000000  0.00000050  0.00000198  0.00000204  0.00000298  0.00000778  0.00000843  0.00001282
    Gval  0.00001390  0.00001541  0.00002020  0.00002794  0.00003008  0.00004239  0.00004522  0.00004568
    Gval  0.00004888  0.00005059  0.00005209  0.00005601  0.00005649  0.00005862  0.00005902  0.00006699
    Gval  0.00006772  0.00007832  0.00008253  0.00009174  0.00009970  0.00010643  0.00010846  0.00011678
    Gval  0.00011688  0.00011710  0.00012085  0.00012288  0.00012713  0.00013369  0.00017178  0.00021544
    Gval  0.00023426  0.00025112  0.00026170  0.00027317  0.00028307  0.00028900  0.00030577  0.00035242
    Gval  0.00036288  0.00038183  0.00039187  0.00039294  0.00039624  0.00041398  0.00043165  0.00051435
    Gval  0.00053690  0.00058057  0.00059308  0.00059343  0.00059364  0.00059657  0.00059853  0.00059975
    Gval  0.00060014  0.00060208  0.00060406  0.00060426  0.00062320  0.00062458  0.00063364  0.00064170
    Gval  0.00064320  0.00064903  0.00065129  0.00066105  0.00072897  0.00091409  0.00104149  0.00106045
    Gval  0.00106684  0.00107741  0.00108125  0.00110939  0.00111071  0.00111217  0.00112860  0.00113905
    Gval  0.00115102  0.00115403  0.00116840  0.00117022  0.00117194  0.00117312  0.00117465  0.00140288
    Gval  0.00143056  0.00145332  0.00158922  0.00175020  0.00195106  0.00226198  0.00234300  0.00235041
    Gval  0.00236573  0.00239740  0.00266263  0.00314243  0.00357222  0.00365486  0.00367003  0.00370914
    Gval  0.00372447  0.00373680  0.00406717
  4.962251561289187E-007  4.962251561289187E-007
  1.977305003023236E-006  4.962251561289187E-007
  2.044298209071173E-006  4.962251561289187E-007
  2.981898221001459E-006  4.962251561289187E-007
  7.776747142304262E-006  4.962251561289187E-007
  8.430956765116993E-006  4.962251561289187E-007
  1.281534708202904E-005  4.962251561289187E-007
  1.390054128572034E-005  4.962251561289187E-007
  1.540697001123760E-005  4.962251561289187E-007
  2.020138620864490E-005  4.962251561289187E-007
  2.793943349630009E-005  4.962251561289187E-007
  3.008202314907469E-005  4.962251561289187E-007
  4.239382207591233E-005  4.962251561289187E-007
  4.522146469093668E-005  4.962251561289187E-007
  4.568346036820905E-005  4.962251561289187E-007
  4.887960058892643E-005  4.962251561289187E-007
  5.058874079893182E-005  4.962251561289187E-007
  5.209386543131016E-005  4.962251561289187E-007
  5.601290413277766E-005  4.962251561289187E-007
  5.648842455070493E-005  4.962251561289187E-007
  5.861901391781652E-005  4.962251561289187E-007
  5.902211822697931E-005  4.962251561289187E-007
  6.699169467806565E-005  4.962251561289187E-007
  6.772205701414633E-005  4.962251561289187E-007
  7.831866751766289E-005  4.962251561289187E-007
  8.252651572360232E-005  4.962251561289187E-007
  9.173630237892949E-005  4.962251561289187E-007
  9.970241713273885E-005  4.962251561289187E-007
  1.064337359650663E-004  4.962251561289187E-007
  1.084575077321564E-004  4.962251561289187E-007
  1.167826931719236E-004  4.962251561289187E-007
  1.168783163680567E-004  4.962251561289187E-007
  1.171043750822402E-004  4.962251561289187E-007
  1.208492304939676E-004  4.962251561289187E-007
  1.228815309301010E-004  4.962251561289187E-007
  1.271328747861408E-004  4.962251561289187E-007
  1.336859884020275E-004  4.962251561289187E-007
  1.717785392925331E-004  4.962251561289187E-007
  2.154406655988848E-004  4.962251561289187E-007
  2.342573680778260E-004  4.962251561289187E-007
  2.511155105157576E-004  4.962251561289187E-007
  2.616954634506511E-004  4.962251561289187E-007
  2.731652553967986E-004  4.962251561289187E-007
  2.830734959495905E-004  4.962251561289187E-007
  2.889973350452399E-004  4.962251561289187E-007
  3.057723234844824E-004  4.962251561289187E-007
  3.524212706273894E-004  4.962251561289187E-007
  3.628755597392140E-004  4.962251561289187E-007
  3.818254004603093E-004  4.962251561289187E-007
  3.918703082029485E-004  4.962251561289187E-007
  3.929401417246054E-004  4.962251561289187E-007
  3.962434705163824E-004  4.962251561289187E-007
  4.139791818909649E-004  4.962251561289187E-007
  4.316507574380573E-004  4.962251561289187E-007
  5.143523700030765E-004  4.962251561289187E-007
  5.369010799631128E-004  4.962251561289187E-007
  5.805714431931429E-004  4.962251561289187E-007
  5.930755083057243E-004  4.962251561289187E-007
  5.934302830483775E-004  4.962251561289187E-007
  5.936441173128042E-004  4.962251561289187E-007
  5.965745794660225E-004  4.962251561289187E-007
  5.985272118264794E-004  4.962251561289187E-007
  5.997479164899414E-004  4.962251561289187E-007
  6.001399049542405E-004  4.962251561289187E-007
  6.020765402391215E-004  4.962251561289187E-007
  6.040644287131454E-004  4.962251561289187E-007
  6.042619177521804E-004  4.962251561289187E-007
  6.231962596713995E-004  4.962251561289187E-007
  6.245829783166736E-004  4.962251561289187E-007
  6.336429173902112E-004  4.962251561289187E-007
  6.416991457911412E-004  4.962251561289187E-007
  6.432000122674109E-004  4.962251561289187E-007
  6.490275038758069E-004  4.962251561289187E-007
  6.512943874736674E-004  4.962251561289187E-007
  6.610535640677967E-004  4.962251561289187E-007
  7.289741623539123E-004  4.962251561289187E-007
  9.140887607796881E-004  4.962251561289187E-007
  1.041492795281015E-003  4.962251561289187E-007
  1.060451451206743E-003  4.962251561289187E-007
  1.066842197567957E-003  4.962251561289187E-007
  1.077408728773988E-003  4.962251561289187E-007
  1.081250308966851E-003  4.962251561289187E-007
  1.109388735311795E-003  4.962251561289187E-007
  1.110705016069207E-003  4.962251561289187E-007
  1.112171081146671E-003  4.962251561289187E-007
  1.128599249556658E-003  4.962251561289187E-007
  1.139047640072390E-003  4.962251561289187E-007
  1.151020692780268E-003  4.962251561289187E-007
  1.154033948737069E-003  4.962251561289187E-007
  1.168400680681843E-003  4.962251561289187E-007
  1.170218882822908E-003  4.962251561289187E-007
  1.171941771009297E-003  4.962251561289187E-007
  1.173116563312160E-003  4.962251561289187E-007
  1.174645963124029E-003  4.962251561289187E-007
  1.402877822916193E-003  4.962251561289187E-007
  1.430556428482563E-003  4.962251561289187E-007
  1.453322119624298E-003  4.962251561289187E-007
  1.589219595536635E-003  4.962251561289187E-007
  1.750201268390847E-003  4.962251561289187E-007
  1.951063936424268E-003  4.962251561289187E-007
  2.261976355909656E-003  4.962251561289187E-007
  2.342999710205916E-003  4.962251561289187E-007
  2.350414601180322E-003  4.962251561289187E-007
  2.365730942692738E-003  4.962251561289187E-007
  2.397398857407435E-003  4.962251561289187E-007
  2.662626872050022E-003  4.962251561289187E-007
  3.142426664455937E-003  4.962251561289187E-007
  3.572223201472919E-003  4.962251561289187E-007
  3.654858249563738E-003  4.962251561289187E-007
  3.670028871681092E-003  4.962251561289187E-007
  3.709138119010878E-003  4.962251561289187E-007
  3.724465679155559E-003  4.962251561289187E-007
  3.736798546952017E-003  4.962251561289187E-007
  4.067173898783786E-003  4.962251561289187E-007
 cut=1d-8, nber non-redundant internal coords=         114
 Check on Eigenvals of non-red overlap matrix:
  0.00000050  0.00000198  0.00000204  0.00000298  0.00000778  0.00000843  0.00001282  0.00001390
  0.00001541  0.00002020  0.00002794  0.00003008  0.00004239  0.00004522  0.00004568  0.00004888
  0.00005059  0.00005209  0.00005601  0.00005649  0.00005862  0.00005902  0.00006699  0.00006772
  0.00007832  0.00008253  0.00009174  0.00009970  0.00010643  0.00010846  0.00011678  0.00011688
  0.00011710  0.00012085  0.00012288  0.00012713  0.00013369  0.00017178  0.00021544  0.00023426
  0.00025112  0.00026170  0.00027317  0.00028307  0.00028900  0.00030577  0.00035242  0.00036288
  0.00038183  0.00039187  0.00039294  0.00039624  0.00041398  0.00043165  0.00051435  0.00053690
  0.00058057  0.00059308  0.00059343  0.00059364  0.00059657  0.00059853  0.00059975  0.00060014
  0.00060208  0.00060406  0.00060426  0.00062320  0.00062458  0.00063364  0.00064170  0.00064320
  0.00064903  0.00065129  0.00066105  0.00072897  0.00091409  0.00104149  0.00106045  0.00106684
  0.00107741  0.00108125  0.00110939  0.00111071  0.00111217  0.00112860  0.00113905  0.00115102
  0.00115403  0.00116840  0.00117022  0.00117194  0.00117312  0.00117465  0.00140288  0.00143056
  0.00145332  0.00158922  0.00175020  0.00195106  0.00226198  0.00234300  0.00235041  0.00236573
  0.00239740  0.00266263  0.00314243  0.00357222  0.00365486  0.00367003  0.00370914  0.00372447
  0.00373680  0.00406717
 Checking for correct frequencies
 recalc frequencies=
   -96.3  -53.1   -0.0    0.0    0.0    0.0    0.0    0.0   21.6   50.4
    57.9   59.4  119.6  134.3  167.7  172.4  223.4  254.6  335.7  336.4
   370.9  386.7  406.8  410.1  418.0  445.5  453.6  485.0  487.5  510.5
   554.7  573.4  631.4  641.0  642.2  655.1  668.4  694.9  707.6  729.3
   743.9  769.9  780.1  806.7  812.2  817.1  826.2  835.6  850.0  854.2
   879.6  919.3  949.3  956.8  973.3  995.8  996.7  997.9 1001.7 1008.0
  1008.1 1013.0 1018.1 1023.0 1033.6 1054.6 1064.9 1075.0 1111.5 1111.8
  1113.2 1142.7 1168.2 1188.1 1206.5 1218.8 1236.7 1251.0 1274.8 1287.8
  1293.0 1302.9 1310.4 1326.6 1341.5 1353.5 1361.5 1370.1 1433.4 1444.7
  1448.8 1468.1 1483.8 1521.9 1543.0 1570.7 1580.0 1596.0 1614.0 1614.1
  1623.5 1637.7 1647.1 1658.7 3141.9 3143.9 3162.0 3170.1 3181.1 3182.7
  3186.4 3190.9 3192.1 3201.5 3201.7 3202.0 3207.5 3209.2 3211.9 3214.4
 recalc symmetries=
     A2     A2     B2     B1     A2     B2     B1     A1     B1     A2 
     B2     B1     B1     B2     B1     A1     B2     B1     B1     A1 
     B2     A2     A2     A2     A2     B2     B1     A1     B2     B1 
     B1     B1     B2     A1     B2     B2     B2     B1     A1     B1 
     B1     A1     B1     A2     A1     B1     B1     A2     A2     B1 
     B1     B1     A2     B1     A2     B1     A2     B1     A2     B1 
     A1     A1     A1     A1     A1     A1     A1     A1     B2     B2 
     A1     B2     B2     B2     A1     A1     B2     A1     B2     A1 
     B2     A1     B2     B2     B2     A1     B2     B2     B2     B2 
     A1     B2     B2     A1     A1     A1     B2     B2     A1     B2 
     B2     A1     A1     A1     A1     B2     A1     B2     A1     B2 
     A1     B2     A1     B2     A1     A1     B2     A1     B2     A1 
 recalc freqs check OK
 Zero-point lengths:
 25.2597 34.0128 10.0000 10.0000 10.0000 10.0000 10.0000 10.0000 53.3738 34.9089
 32.5881 32.1635 22.6729 21.3901 19.1431 18.8836 16.5870 15.5374 13.5297 13.5156
 12.8723 12.6067 12.2912 12.2413 12.1253 11.7453 11.6400 11.2568 11.2278 10.9728
 10.5259 10.3530  9.8661  9.7921  9.7830  9.6857  9.5893  9.4046  9.3195  9.1802
  9.0893  8.9348  8.8758  8.7285  8.6986  8.6726  8.6251  8.5761  8.5035  8.4825
  8.3589  8.1767  8.0462  8.0146  7.9465  7.8562  7.8527  7.8480  7.8330  7.8086
  7.8081  7.7892  7.7698  7.7510  7.7113  7.6341  7.5971  7.5611  7.4360  7.4351
  7.4305  7.3337  7.2534  7.1924  7.1372  7.1012  7.0496  7.0091  6.9435  6.9083
  6.8943  6.8681  6.8485  6.8066  6.7685  6.7384  6.7188  6.6977  6.5480  6.5225
  6.5131  6.4701  6.4358  6.3548  6.3112  6.2553  6.2369  6.2055  6.1708  6.1707
  6.1527  6.1260  6.1086  6.0870  4.4228  4.4214  4.4087  4.4031  4.3955  4.3944
  4.3918  4.3887  4.3879  4.3815  4.3813  4.3811  4.3774  4.3762  4.3743  4.3727
 highest evec of mol 1
  0.0000  0.0000 -0.0072
  0.0000 -0.0121 -0.0081
  0.0000 -0.0449  0.0241
  0.0000  0.0000  0.0017
  0.0000  0.0000 -0.0037
  0.0000  0.0690 -0.0387
  0.0000  0.0938  0.0505
  0.0000  0.0000  0.0046
  0.0000  0.0000 -0.0047
  0.0000  0.0938 -0.0532
  0.0000  0.0856  0.0515
  0.0000  0.0000  0.0044
  0.0000  0.0000  0.0013
  0.0000 -0.0006 -0.0000
  0.0000 -0.0001  0.0001
  0.0000  0.0000 -0.0008
  0.0000  0.0001  0.0001
  0.0000  0.0006 -0.0000
  0.0000 -0.0856  0.0515
  0.0000 -0.0938 -0.0532
  0.0000 -0.0938  0.0505
  0.0000 -0.0690 -0.0387
  0.0000  0.0449  0.0241
  0.0000  0.0121 -0.0081
  0.0000  0.0000  0.0216
  0.0000  0.0383  0.0221
  0.0000  0.1501 -0.0834
  0.0000 -0.2279  0.1237
  0.0000 -0.3118 -0.1690
  0.0000 -0.3136  0.1732
  0.0000 -0.2807 -0.1614
  0.0000  0.0000 -0.0000
  0.0000  0.0000  0.0022
  0.0000 -0.0000 -0.0000
  0.0000  0.2807 -0.1614
  0.0000  0.3136  0.1732
  0.0000  0.3118 -0.1690
  0.0000  0.2279  0.1237
  0.0000 -0.1501 -0.0834
  0.0000 -0.0383  0.0221
 generating redundant internal coords
         300        3600          40
 Adding extra bonds for z output only
           6           6           6           6           6           6
           6           6           6           6           6           6
           6           7           6           6           6           7
           6           6           6           6           6           6
           1           1           1           1           1           1
           1           1           1           1           1           1
           1           1           1           1
 search for int coords
   1 str   2   1   1.392
   2 str   3   2   1.391
   3 str   4   3   1.406
   4 str   5   4   1.490
   5 str   6   5   1.404
   6 str   7   6   1.387
   7 str   8   7   1.404
   8 str   9   8   1.487
   9 str  10   9   1.407
  10 str  11  10   1.386
  11 str  12  11   1.400
  12 str  13  12   1.480
  13 str  14  13   1.345
  14 str  15  14   1.331
  15 str  16  15   1.391
  16 str  17  16   1.391
  17 str  18  13   1.345
  18 str  18  17   1.331
  19 str  19  12   1.400
  20 str  20   9   1.407
  21 str  20  19   1.386
  22 str  21   8   1.404
  23 str  22   5   1.404
  24 str  22  21   1.387
  25 str  23   4   1.406
  26 str  24   1   1.392
  27 str  24  23   1.391
  28 str  25   1   1.084
  29 str  26   2   1.084
  30 str  27   3   1.082
  31 str  28   6   1.082
  32 str  29   7   1.082
  33 str  30  10   1.082
  34 str  31  11   1.082
  35 str  32  15   1.087
  36 str  33  16   1.082
  37 str  34  17   1.087
  38 str  35  19   1.082
  39 str  36  20   1.082
  40 str  37  21   1.082
  41 str  38  22   1.082
  42 str  39  23   1.082
  43 str  40  24   1.084
 nber stretches=          43
  44 ben   1   2   3
  45 prop tor   1   2   3   4
  46 prop tor   1   2   3  27
  47 ben   1   2  26
  48 ben   1  24  23
  49 ben   1  24  40
  50 ben   2   1  24
  51 prop tor   2   1  24  23
  52 prop tor   2   1  24  40
  53 ben   2   1  25
  54 ben   2   3   4
  55 prop tor   2   3   4   5
  56 prop tor   2   3   4  23
  57 ben   2   3  27
  58 ben   3   2  26
  59 ben   3   4   5
  60 prop tor   3   4   5   6
  61 prop tor   3   4   5  22
  62 ben   3   4  23
  63 prop tor   3   4  23  24
  64 prop tor   3   4  23  39
  65 ben   4   3  27
  66 ben   4   5   6
  67 prop tor   4   5   6   7
  68 prop tor   4   5   6  28
  69 ben   4   5  22
  70 prop tor   4   5  22  21
  71 prop tor   4   5  22  38
  72 ben   4  23  24
  73 prop tor   4  23  24   1
  74 prop tor   4  23  24  40
  75 ben   4  23  39
  76 ben   5   4  23
  77 prop tor   5   4  23  24
  78 prop tor   5   4  23  39
  79 ben   5   6   7
  80 prop tor   5   6   7   8
  81 prop tor   5   6   7  29
  82 ben   5   6  28
  83 ben   5  22  21
  84 ben   5  22  38
  85 ben   6   5  22
  86 prop tor   6   5  22  21
  87 prop tor   6   5  22  38
  88 ben   6   7   8
  89 prop tor   6   7   8   9
  90 prop tor   6   7   8  21
  91 ben   6   7  29
  92 ben   7   6  28
  93 ben   7   8   9
  94 prop tor   7   8   9  10
  95 prop tor   7   8   9  20
  96 ben   7   8  21
  97 prop tor   7   8  21  22
  98 prop tor   7   8  21  37
  99 ben   8   7  29
 100 ben   8   9  10
 101 prop tor   8   9  10  11
 102 prop tor   8   9  10  30
 103 ben   8   9  20
 104 prop tor   8   9  20  19
 105 prop tor   8   9  20  36
 106 ben   8  21  22
 107 prop tor   8  21  22   5
 108 prop tor   8  21  22  38
 109 ben   8  21  37
 110 ben   9   8  21
 111 prop tor   9   8  21  22
 112 prop tor   9   8  21  37
 113 ben   9  10  11
 114 prop tor   9  10  11  12
 115 prop tor   9  10  11  31
 116 ben   9  10  30
 117 ben   9  20  19
 118 ben   9  20  36
 119 ben  10   9  20
 120 prop tor  10   9  20  19
 121 prop tor  10   9  20  36
 122 ben  10  11  12
 123 prop tor  10  11  12  13
 124 prop tor  10  11  12  19
 125 ben  10  11  31
 126 ben  11  10  30
 127 ben  11  12  13
 128 prop tor  11  12  13  14
 129 prop tor  11  12  13  18
 130 ben  11  12  19
 131 prop tor  11  12  19  20
 132 prop tor  11  12  19  35
 133 ben  12  11  31
 134 ben  12  13  14
 135 prop tor  12  13  14  15
 136 ben  12  13  18
 137 prop tor  12  13  18  17
 138 ben  12  19  20
 139 prop tor  12  19  20   9
 140 prop tor  12  19  20  36
 141 ben  12  19  35
 142 ben  13  12  19
 143 prop tor  13  12  19  20
 144 prop tor  13  12  19  35
 145 ben  13  14  15
 146 prop tor  13  14  15  16
 147 prop tor  13  14  15  32
 148 ben  13  18  17
 149 ben  14  13  18
 150 prop tor  14  13  18  17
 151 ben  14  15  16
 152 prop tor  14  15  16  17
 153 prop tor  14  15  16  33
 154 ben  14  15  32
 155 ben  15  16  17
 156 prop tor  15  16  17  18
 157 prop tor  15  16  17  34
 158 ben  15  16  33
 159 ben  16  15  32
 160 ben  16  17  18
 161 prop tor  16  17  18  13
 162 ben  16  17  34
 163 ben  17  16  33
 164 prop tor  18  13  14  15
 165 ben  18  17  34
 166 prop tor  19  12  13  14
 167 prop tor  19  12  13  18
 168 ben  19  20  36
 169 prop tor  20   9  10  11
 170 prop tor  20   9  10  30
 171 ben  20  19  35
 172 prop tor  21   8   9  10
 173 prop tor  21   8   9  20
 174 ben  21  22  38
 175 prop tor  22   5   6   7
 176 prop tor  22   5   6  28
 177 ben  22  21  37
 178 prop tor  23   4   5   6
 179 prop tor  23   4   5  22
 180 ben  23  24  40
 181 prop tor  24   1   2   3
 182 prop tor  24   1   2  26
 183 ben  24   1  25
 184 ben  24  23  39
 185 prop tor  25   1   2   3
 186 prop tor  25   1   2  26
 187 prop tor  25   1  24  23
 188 prop tor  25   1  24  40
 189 prop tor  26   2   3   4
 190 prop tor  26   2   3  27
 191 prop tor  27   3   4   5
 192 prop tor  27   3   4  23
 193 prop tor  28   6   7   8
 194 prop tor  28   6   7  29
 195 prop tor  29   7   8   9
 196 prop tor  29   7   8  21
 197 prop tor  30  10  11  12
 198 prop tor  30  10  11  31
 199 prop tor  31  11  12  13
 200 prop tor  31  11  12  19
 201 prop tor  32  15  16  17
 202 prop tor  32  15  16  33
 203 prop tor  33  16  17  18
 204 prop tor  33  16  17  34
 205 prop tor  34  17  18  13
 206 prop tor  35  19  20   9
 207 prop tor  35  19  20  36
 208 prop tor  37  21  22   5
 209 prop tor  37  21  22  38
 210 prop tor  39  23  24   1
 211 prop tor  39  23  24  40
 nber bend=              68
 nber lin bend=           0
 nber prop tor=         100
 nber impr tor=           0
 nber tot redund int=         211
 Reading file: 
 ./Non-cov-phenyl-N_1_C0S1.log                                                  
                                          
  Entering Gaussian System, Link 0=g16                                          
  
 Gaussian format, type: g94, g98, g03= F F F
  #P Geom=AllCheck Guess=TCheck SCRF=Check GenChk RB3LYP TD(FC,Read)/6-3    
 energy type= TD      
 Original G94 input coords:
  6  7.609247  0.000000  0.000000
  6  6.900492 -1.205305  0.000000
  6  5.517197 -1.209405  0.000000
  6  4.766841  0.000000  0.000000
  6  3.314280  0.000000  0.000000
  6  2.552725  1.206290  0.000000
  6  1.182117  1.209687  0.000000
  6  0.413485  0.000000  0.000000
  6 -1.025934  0.000000  0.000000
  6 -1.784784  1.214299  0.000000
  6 -3.157693  1.215169  0.000000
  6 -3.893096  0.000000  0.000000
  6 -5.345639  0.000000  0.000000
  7 -5.979079  1.204886  0.000000
  6 -7.302379  1.185372  0.000000
  6 -8.045365  0.000000  0.000000
  6 -7.302379 -1.185372  0.000000
  7 -5.979079 -1.204886  0.000000
  6 -3.157693 -1.215169  0.000000
  6 -1.784784 -1.214299  0.000000
  6  1.182117 -1.209687  0.000000
  6  2.552725 -1.206290  0.000000
  6  5.517197  1.209405  0.000000
  6  6.900492  1.205305  0.000000
  1  8.692827  0.000000  0.000000
  1  7.436547 -2.147653  0.000000
  1  5.008552 -2.163398  0.000000
  1  3.058069  2.162411  0.000000
  1  0.675418  2.164478  0.000000
  1 -1.277129  2.169672  0.000000
  1 -3.710393  2.144933  0.000000
  1 -7.799261  2.153668  0.000000
  1 -9.127445  0.000000  0.000000
  1 -7.799261 -2.153668  0.000000
  1 -3.710393 -2.144933  0.000000
  1 -1.277129 -2.169672  0.000000
  1  0.675418 -2.164478  0.000000
  1  3.058069 -2.162411  0.000000
  1  5.008552  2.163398  0.000000
  1  7.436547  2.147653  0.000000
 nber atoms=          40
 Original standard coords:
  6  0.000000  0.000000  7.879019
  6  0.000000  1.205305  7.170265
  6  0.000000  1.209405  5.786969
  6  0.000000  0.000000  5.036613
  6  0.000000  0.000000  3.584052
  6  0.000000 -1.206290  2.822497
  6  0.000000 -1.209687  1.451890
  6  0.000000  0.000000  0.683257
  6  0.000000  0.000000 -0.756162
  6  0.000000 -1.214299 -1.515011
  6  0.000000 -1.215169 -2.887921
  6  0.000000  0.000000 -3.623324
  6  0.000000  0.000000 -5.075867
  7  0.000000 -1.204886 -5.709307
  6  0.000000 -1.185372 -7.032607
  6  0.000000  0.000000 -7.775593
  6  0.000000  1.185372 -7.032607
  7  0.000000  1.204886 -5.709307
  6  0.000000  1.215169 -2.887921
  6  0.000000  1.214299 -1.515011
  6  0.000000  1.209687  1.451890
  6  0.000000  1.206290  2.822497
  6  0.000000 -1.209405  5.786969
  6  0.000000 -1.205305  7.170265
  1  0.000000  0.000000  8.962599
  1  0.000000  2.147653  7.706319
  1  0.000000  2.163398  5.278324
  1  0.000000 -2.162411  3.327841
  1  0.000000 -2.164478  0.945190
  1  0.000000 -2.169672 -1.007357
  1  0.000000 -2.144933 -3.440621
  1  0.000000 -2.153668 -7.529488
  1  0.000000  0.000000 -8.857672
  1  0.000000  2.153668 -7.529488
  1  0.000000  2.144933 -3.440621
  1  0.000000  2.169672 -1.007357
  1  0.000000  2.164478  0.945190
  1  0.000000  2.162411  3.327841
  1  0.000000 -2.163398  5.278324
  1  0.000000 -2.147653  7.706319
  Total Energy, E(TD-HF/TD-DFT) =  -957.598896610                               
  
          32          49 "  -957.598896610"
After scan for Atom:   Atom  AN      X      Y      Z        X      Y      Z        X      Y      Z   
After scan for Atom:   Atom  AN      X      Y      Z        X      Y      Z        X      Y      Z   
After scan for Atom:   Atom  AN      X      Y      Z        X      Y      Z        X      Y      Z   
After scan for Atom:   Atom  AN      X      Y      Z        X      Y      Z        X      Y      Z   
After scan for Atom:   Atom  AN      X      Y      Z        X      Y      Z        X      Y      Z   
After scan for Atom:   Atom  AN      X      Y      Z        X      Y      Z        X      Y      Z   
After scan for Atom:   Atom  AN      X      Y      Z        X      Y      Z        X      Y      Z   
After scan for Atom:   Atom  AN      X      Y      Z        X      Y      Z        X      Y      Z   
After scan for Atom:   Atom  AN      X      Y      Z        X      Y      Z        X      Y      Z   
After scan for Atom:   Atom  AN      X      Y      Z        X      Y      Z        X      Y      Z   
After scan for Atom:   Atom  AN      X      Y      Z        X      Y      Z        X      Y      Z   
After scan for Atom:   Atom  AN      X      Y      Z        X      Y      Z        X      Y      Z   
After scan for Atom:   Atom  AN      X      Y      Z        X      Y      Z        X      Y      Z   
After scan for Atom:   Atom  AN      X      Y      Z        X      Y      Z        X      Y      Z   
After scan for Atom:   Atom  AN      X      Y      Z        X      Y      Z        X      Y      Z   
After scan for Atom:   Atom  AN      X      Y      Z        X      Y      Z        X      Y      Z   
After scan for Atom:   Atom  AN      X      Y      Z        X      Y      Z        X      Y      Z   
After scan for Atom:   Atom  AN      X      Y      Z        X      Y      Z        X      Y      Z   
After scan for Atom:   Atom  AN      X      Y      Z        X      Y      Z        X      Y      Z   
After scan for Atom:   Atom  AN      X      Y      Z        X      Y      Z        X      Y      Z   
After scan for Atom:   Atom  AN      X      Y      Z        X      Y      Z        X      Y      Z   
After scan for Atom:   Atom  AN      X      Y      Z        X      Y      Z        X      Y      Z   
After scan for Atom:   Atom  AN      X      Y      Z        X      Y      Z        X      Y      Z   
After scan for Atom:   Atom  AN      X      Y      Z        X      Y      Z        X      Y      Z   
After scan for Atom:   Atom  AN      X      Y      Z        X      Y      Z        X      Y      Z   
After scan for Atom:   Atom  AN      X      Y      Z        X      Y      Z        X      Y      Z   
After scan for Atom:   Atom  AN      X      Y      Z        X      Y      Z        X      Y      Z   
After scan for Atom:   Atom  AN      X      Y      Z        X      Y      Z        X      Y      Z   
After scan for Atom:   Atom  AN      X      Y      Z        X      Y      Z        X      Y      Z   
After scan for Atom:   Atom  AN      X      Y      Z        X      Y      Z        X      Y      Z   
After scan for Atom:   Atom  AN      X      Y      Z        X      Y      Z        X      Y      Z   
After scan for Atom:   Atom  AN      X      Y      Z        X      Y      Z        X      Y      Z   
After scan for Atom:   Atom  AN      X      Y      Z        X      Y      Z        X      Y      Z   
After scan for Atom:   Atom  AN      X      Y      Z        X      Y      Z        X      Y      Z   
After scan for Atom:   Atom  AN      X      Y      Z        X      Y      Z        X      Y      Z   
After scan for Atom:   Atom  AN      X      Y      Z        X      Y      Z        X      Y      Z   
After scan for Atom:   Atom  AN      X      Y      Z        X      Y      Z        X      Y      Z   
After scan for Atom:   Atom  AN      X      Y      Z        X      Y      Z        X      Y      Z   
 g94    frequencies=
     0.0    0.0    0.0    0.0    0.0    0.0  -61.3  -26.2   18.2   51.2
    58.3   75.0  108.4  134.6  140.6  173.3  220.5  220.8  287.7  336.1
   374.1  394.3  400.3  404.7  409.7  423.1  444.8  465.0  483.2  488.2
   518.1  536.5  614.8  626.2  628.2  643.5  652.9  669.8  693.5  709.5
   730.2  747.1  765.2  773.0  776.2  787.8  792.2  798.8  811.5  828.3
   841.9  903.6  941.0  945.4  973.4  973.6  978.8  984.1  984.2  984.6
   987.9  992.9  994.3  998.8 1005.0 1023.2 1047.6 1056.2 1087.1 1100.4
  1112.5 1138.5 1156.1 1184.0 1204.4 1216.0 1224.5 1256.2 1273.8 1284.8
  1297.2 1329.4 1330.2 1342.1 1348.2 1352.6 1368.4 1377.1 1434.8 1437.9
  1452.1 1466.5 1485.1 1487.9 1499.3 1503.7 1512.8 1520.4 1535.8 1573.8
  1598.9 1617.3 1640.3 1674.1 3125.2 3125.6 3167.2 3174.4 3185.8 3186.8
  3190.2 3194.8 3196.1 3200.7 3208.7 3209.8 3213.2 3214.5 3219.2 3221.6
 g94    symmetries=
                                                A2     A2     B1     B1
      B2     A2     B1     B2     B1     A1     ?A     ?A     B1     A1
      B2     A2     A2     ?B     ?B     A2     B2     ?A     ?A     A1
      B1     B1     B2     A1     B2     B2     B2     B1     A1     B1
      B1     A1     A2     B1     B1     A2     A1     B1     A2     B1
      B1     B1     A2     B1     B1     A2     A1     A2     A1     B1
      A2     A1     B1     A1     A1     A1     A1     A1     A1     B2
      B2     B2     B2     B2     A1     A1     B2     A1     B2     B2
      B2     B2     A1     B2     B2     A1     B2     A1     A1     B2
      B2     B2     B2     A1     B2     B2     A1     B2     A1     B2
      A1     A1     A1     A1     A1     B2     A1     B2     A1     B2
      A1     B2     A1     A1     B2     A1     B2     A1     B2     A1
 atomic masses:
 12.0000 12.0000 12.0000 12.0000 12.0000 12.0000 12.0000 12.0000 12.0000 12.0000
 12.0000 12.0000 12.0000 14.0031 12.0000 12.0000 12.0000 14.0031 12.0000 12.0000
 12.0000 12.0000 12.0000 12.0000  1.0078  1.0078  1.0078  1.0078  1.0078  1.0078
  1.0078  1.0078  1.0078  1.0078  1.0078  1.0078  1.0078  1.0078  1.0078  1.0078
 looking for force constants in 
 ./Non-cov-phenyl-N_1_C0S1.fchk                                                 
  
 Cartesian Force Constants                  R   N=        7260                  
  
 n3=         120        7260
 g94-fc frequencies=
   -61.3  -26.2   -5.7   -1.1   -0.0   -0.0    0.0    0.8   18.2   51.2
    58.3   75.0  108.4  134.6  140.6  173.3  220.5  220.8  287.7  336.2
   374.1  394.3  400.3  404.7  409.7  423.1  444.8  465.0  483.2  488.2
   518.1  536.5  614.8  626.2  628.2  643.5  652.9  669.8  693.5  709.5
   730.2  747.2  765.2  773.1  776.2  787.8  792.2  798.8  811.5  828.3
   841.9  903.6  941.1  945.4  973.4  973.6  978.8  984.1  984.3  984.7
   987.9  992.9  994.4  998.8 1005.0 1023.3 1047.7 1056.2 1087.1 1100.4
  1112.6 1138.6 1156.1 1184.0 1204.4 1216.0 1224.5 1256.2 1273.8 1284.8
  1297.2 1329.4 1330.3 1342.1 1348.2 1352.6 1368.4 1377.1 1434.9 1437.9
  1452.2 1466.6 1485.1 1488.0 1499.3 1503.7 1512.8 1520.5 1535.8 1573.8
  1598.9 1617.4 1640.4 1674.2 3125.2 3125.6 3167.3 3174.4 3185.9 3186.9
  3190.3 3194.8 3196.2 3200.7 3208.7 3209.8 3213.3 3214.6 3219.3 3221.7
 at 99999: n3=         120
 symm operator            1 :  T  nop=           1
 symm operator            2 :  F  nop=           1
 symm operator            3 :  F  nop=           1
 symm operator            4 :  F  nop=           1
 symm operator            5 :  F  nop=           1
 symm operator            6 :  T  nop=           2
 symm operator            7 :  T  nop=           3
 The point group of the molecule is C2V
 enforcing symm op           1  jsymt=          -1          -1           1
 enforcing symm op           6  jsymt=           1          -1           1
 enforcing symm op           7  jsymt=          -1           1           1
 cartesian coord symmetries:
 A1 :   40 A2 :   15 B1 :   25 B2 :   40
 Symmetry rotation matrix:
   1.00000   0.00000   0.00000
   0.00000   1.00000   0.00000
   0.00000   0.00000   1.00000

 Projecting out zero-frequency components
 generating redundant internal coords
         300        3600          40
 search for int coords
   1 str   2   1   1.398
   2 str   3   2   1.383
   3 str   4   3   1.423
   4 str   5   4   1.453
   5 str   6   5   1.427
   6 str   7   6   1.371
   7 str   8   7   1.433
   8 str   9   8   1.439
   9 str  10   9   1.432
  10 str  11  10   1.373
  11 str  12  11   1.420
  12 str  13  12   1.453
  13 str  14  13   1.361
  14 str  15  14   1.323
  15 str  16  15   1.399
  16 str  17  16   1.399
  17 str  18  13   1.361
  18 str  18  17   1.323
  19 str  19  12   1.420
  20 str  20   9   1.432
  21 str  20  19   1.373
  22 str  21   8   1.433
  23 str  22   5   1.427
  24 str  22  21   1.371
  25 str  23   4   1.423
  26 str  24   1   1.398
  27 str  24  23   1.383
  28 str  25   1   1.084
  29 str  26   2   1.084
  30 str  27   3   1.081
  31 str  28   6   1.081
  32 str  29   7   1.081
  33 str  30  10   1.082
  34 str  31  11   1.082
  35 str  32  15   1.088
  36 str  33  16   1.082
  37 str  34  17   1.088
  38 str  35  19   1.082
  39 str  36  20   1.082
  40 str  37  21   1.081
  41 str  38  22   1.081
  42 str  39  23   1.081
  43 str  40  24   1.084
 nber stretches=          43
  44 ben   1   2   3
  45 prop tor   1   2   3   4
  46 prop tor   1   2   3  27
  47 ben   1   2  26
  48 ben   1  24  23
  49 ben   1  24  40
  50 ben   2   1  24
  51 prop tor   2   1  24  23
  52 prop tor   2   1  24  40
  53 ben   2   1  25
  54 ben   2   3   4
  55 prop tor   2   3   4   5
  56 prop tor   2   3   4  23
  57 ben   2   3  27
  58 ben   3   2  26
  59 ben   3   4   5
  60 prop tor   3   4   5   6
  61 prop tor   3   4   5  22
  62 ben   3   4  23
  63 prop tor   3   4  23  24
  64 prop tor   3   4  23  39
  65 ben   4   3  27
  66 ben   4   5   6
  67 prop tor   4   5   6   7
  68 prop tor   4   5   6  28
  69 ben   4   5  22
  70 prop tor   4   5  22  21
  71 prop tor   4   5  22  38
  72 ben   4  23  24
  73 prop tor   4  23  24   1
  74 prop tor   4  23  24  40
  75 ben   4  23  39
  76 ben   5   4  23
  77 prop tor   5   4  23  24
  78 prop tor   5   4  23  39
  79 ben   5   6   7
  80 prop tor   5   6   7   8
  81 prop tor   5   6   7  29
  82 ben   5   6  28
  83 ben   5  22  21
  84 ben   5  22  38
  85 ben   6   5  22
  86 prop tor   6   5  22  21
  87 prop tor   6   5  22  38
  88 ben   6   7   8
  89 prop tor   6   7   8   9
  90 prop tor   6   7   8  21
  91 ben   6   7  29
  92 ben   7   6  28
  93 ben   7   8   9
  94 prop tor   7   8   9  10
  95 prop tor   7   8   9  20
  96 ben   7   8  21
  97 prop tor   7   8  21  22
  98 prop tor   7   8  21  37
  99 ben   8   7  29
 100 ben   8   9  10
 101 prop tor   8   9  10  11
 102 prop tor   8   9  10  30
 103 ben   8   9  20
 104 prop tor   8   9  20  19
 105 prop tor   8   9  20  36
 106 ben   8  21  22
 107 prop tor   8  21  22   5
 108 prop tor   8  21  22  38
 109 ben   8  21  37
 110 ben   9   8  21
 111 prop tor   9   8  21  22
 112 prop tor   9   8  21  37
 113 ben   9  10  11
 114 prop tor   9  10  11  12
 115 prop tor   9  10  11  31
 116 ben   9  10  30
 117 ben   9  20  19
 118 ben   9  20  36
 119 ben  10   9  20
 120 prop tor  10   9  20  19
 121 prop tor  10   9  20  36
 122 ben  10  11  12
 123 prop tor  10  11  12  13
 124 prop tor  10  11  12  19
 125 ben  10  11  31
 126 ben  11  10  30
 127 ben  11  12  13
 128 prop tor  11  12  13  14
 129 prop tor  11  12  13  18
 130 ben  11  12  19
 131 prop tor  11  12  19  20
 132 prop tor  11  12  19  35
 133 ben  12  11  31
 134 ben  12  13  14
 135 prop tor  12  13  14  15
 136 ben  12  13  18
 137 prop tor  12  13  18  17
 138 ben  12  19  20
 139 prop tor  12  19  20   9
 140 prop tor  12  19  20  36
 141 ben  12  19  35
 142 ben  13  12  19
 143 prop tor  13  12  19  20
 144 prop tor  13  12  19  35
 145 ben  13  14  15
 146 prop tor  13  14  15  16
 147 prop tor  13  14  15  32
 148 ben  13  18  17
 149 ben  14  13  18
 150 prop tor  14  13  18  17
 151 ben  14  15  16
 152 prop tor  14  15  16  17
 153 prop tor  14  15  16  33
 154 ben  14  15  32
 155 ben  15  16  17
 156 prop tor  15  16  17  18
 157 prop tor  15  16  17  34
 158 ben  15  16  33
 159 ben  16  15  32
 160 ben  16  17  18
 161 prop tor  16  17  18  13
 162 ben  16  17  34
 163 ben  17  16  33
 164 prop tor  18  13  14  15
 165 ben  18  17  34
 166 prop tor  19  12  13  14
 167 prop tor  19  12  13  18
 168 ben  19  20  36
 169 prop tor  20   9  10  11
 170 prop tor  20   9  10  30
 171 ben  20  19  35
 172 prop tor  21   8   9  10
 173 prop tor  21   8   9  20
 174 ben  21  22  38
 175 prop tor  22   5   6   7
 176 prop tor  22   5   6  28
 177 ben  22  21  37
 178 prop tor  23   4   5   6
 179 prop tor  23   4   5  22
 180 ben  23  24  40
 181 prop tor  24   1   2   3
 182 prop tor  24   1   2  26
 183 ben  24   1  25
 184 ben  24  23  39
 185 prop tor  25   1   2   3
 186 prop tor  25   1   2  26
 187 prop tor  25   1  24  23
 188 prop tor  25   1  24  40
 189 prop tor  26   2   3   4
 190 prop tor  26   2   3  27
 191 prop tor  27   3   4   5
 192 prop tor  27   3   4  23
 193 prop tor  28   6   7   8
 194 prop tor  28   6   7  29
 195 prop tor  29   7   8   9
 196 prop tor  29   7   8  21
 197 prop tor  30  10  11  12
 198 prop tor  30  10  11  31
 199 prop tor  31  11  12  13
 200 prop tor  31  11  12  19
 201 prop tor  32  15  16  17
 202 prop tor  32  15  16  33
 203 prop tor  33  16  17  18
 204 prop tor  33  16  17  34
 205 prop tor  34  17  18  13
 206 prop tor  35  19  20   9
 207 prop tor  35  19  20  36
 208 prop tor  37  21  22   5
 209 prop tor  37  21  22  38
 210 prop tor  39  23  24   1
 211 prop tor  39  23  24  40
 nber bend=              68
 nber lin bend=           0
 nber prop tor=         100
 nber impr tor=           0
 nber tot redund int=         211
 Eigenvalues of G in red int coords
    Gval -0.00000000 -0.00000000 -0.00000000 -0.00000000 -0.00000000 -0.00000000 -0.00000000 -0.00000000
    Gval -0.00000000 -0.00000000 -0.00000000 -0.00000000 -0.00000000 -0.00000000 -0.00000000 -0.00000000
    Gval -0.00000000 -0.00000000 -0.00000000 -0.00000000 -0.00000000 -0.00000000 -0.00000000 -0.00000000
    Gval -0.00000000 -0.00000000 -0.00000000 -0.00000000 -0.00000000 -0.00000000 -0.00000000 -0.00000000
    Gval -0.00000000 -0.00000000 -0.00000000 -0.00000000 -0.00000000 -0.00000000 -0.00000000 -0.00000000
    Gval -0.00000000 -0.00000000 -0.00000000 -0.00000000 -0.00000000 -0.00000000 -0.00000000  0.00000000
    Gval  0.00000000  0.00000000  0.00000000  0.00000000  0.00000000  0.00000000  0.00000000  0.00000000
    Gval  0.00000000  0.00000000  0.00000000  0.00000000  0.00000000  0.00000000  0.00000000  0.00000000
    Gval  0.00000000  0.00000000  0.00000000  0.00000000  0.00000000  0.00000000  0.00000000  0.00000000
    Gval  0.00000000  0.00000000  0.00000000  0.00000000  0.00000000  0.00000000  0.00000000  0.00000000
    Gval  0.00000000  0.00000000  0.00000000  0.00000000  0.00000000  0.00000000  0.00000000  0.00000000
    Gval  0.00000000  0.00000000  0.00000000  0.00000000  0.00000000  0.00000000  0.00000000  0.00000000
    Gval  0.00000000  0.00000050  0.00000201  0.00000203  0.00000299  0.00000774  0.00000839  0.00001269
    Gval  0.00001408  0.00001532  0.00002045  0.00002784  0.00002982  0.00004240  0.00004497  0.00004518
    Gval  0.00004880  0.00005045  0.00005253  0.00005591  0.00005629  0.00005861  0.00005884  0.00006684
    Gval  0.00006800  0.00007825  0.00008076  0.00009242  0.00009990  0.00010670  0.00010981  0.00011665
    Gval  0.00011687  0.00011729  0.00012066  0.00012220  0.00012813  0.00013290  0.00017408  0.00021644
    Gval  0.00023645  0.00025185  0.00025758  0.00026859  0.00028304  0.00028475  0.00030115  0.00034832
    Gval  0.00035912  0.00037723  0.00038776  0.00039932  0.00040041  0.00041952  0.00043802  0.00051774
    Gval  0.00053924  0.00058430  0.00059048  0.00059306  0.00059344  0.00059361  0.00059652  0.00059859
    Gval  0.00059949  0.00059988  0.00060380  0.00060435  0.00062314  0.00062834  0.00063364  0.00064141
    Gval  0.00064375  0.00064739  0.00064948  0.00066023  0.00073749  0.00091305  0.00104175  0.00105972
    Gval  0.00106956  0.00107604  0.00108025  0.00110624  0.00110806  0.00111025  0.00112536  0.00114045
    Gval  0.00115419  0.00115590  0.00117015  0.00117131  0.00117258  0.00117260  0.00117265  0.00139811
    Gval  0.00142389  0.00143914  0.00157014  0.00173753  0.00194610  0.00224356  0.00232559  0.00233795
    Gval  0.00235030  0.00238740  0.00266287  0.00314675  0.00357771  0.00366217  0.00367122  0.00371163
    Gval  0.00372412  0.00372574  0.00406105
  4.991152542348352E-007  4.991152542348352E-007
  2.007591259195831E-006  4.991152542348352E-007
  2.032281321470064E-006  4.991152542348352E-007
  2.992400382932666E-006  4.991152542348352E-007
  7.739765623598101E-006  4.991152542348352E-007
  8.385260689893773E-006  4.991152542348352E-007
  1.269260856207007E-005  4.991152542348352E-007
  1.408322965661502E-005  4.991152542348352E-007
  1.532483797880598E-005  4.991152542348352E-007
  2.044858141767360E-005  4.991152542348352E-007
  2.784175698473617E-005  4.991152542348352E-007
  2.982289728071316E-005  4.991152542348352E-007
  4.239684983364744E-005  4.991152542348352E-007
  4.497044186036808E-005  4.991152542348352E-007
  4.518298749126914E-005  4.991152542348352E-007
  4.880489190366442E-005  4.991152542348352E-007
  5.044965990037721E-005  4.991152542348352E-007
  5.252588165396968E-005  4.991152542348352E-007
  5.590720590377831E-005  4.991152542348352E-007
  5.628544830632378E-005  4.991152542348352E-007
  5.861273733067502E-005  4.991152542348352E-007
  5.883940437137103E-005  4.991152542348352E-007
  6.684366453984809E-005  4.991152542348352E-007
  6.800284270376627E-005  4.991152542348352E-007
  7.824749037436121E-005  4.991152542348352E-007
  8.076483096833342E-005  4.991152542348352E-007
  9.242303647557922E-005  4.991152542348352E-007
  9.990141650188335E-005  4.991152542348352E-007
  1.066954424212103E-004  4.991152542348352E-007
  1.098086567796093E-004  4.991152542348352E-007
  1.166523593973298E-004  4.991152542348352E-007
  1.168667340183110E-004  4.991152542348352E-007
  1.172903276379860E-004  4.991152542348352E-007
  1.206551861568415E-004  4.991152542348352E-007
  1.221998798310540E-004  4.991152542348352E-007
  1.281316332227314E-004  4.991152542348352E-007
  1.329000985165819E-004  4.991152542348352E-007
  1.740777509587610E-004  4.991152542348352E-007
  2.164354052678397E-004  4.991152542348352E-007
  2.364468421339737E-004  4.991152542348352E-007
  2.518464082531447E-004  4.991152542348352E-007
  2.575810714564660E-004  4.991152542348352E-007
  2.685884705758494E-004  4.991152542348352E-007
  2.830440689781434E-004  4.991152542348352E-007
  2.847500649324526E-004  4.991152542348352E-007
  3.011484099467834E-004  4.991152542348352E-007
  3.483249537979532E-004  4.991152542348352E-007
  3.591241402366995E-004  4.991152542348352E-007
  3.772258766484382E-004  4.991152542348352E-007
  3.877603563776200E-004  4.991152542348352E-007
  3.993184431101683E-004  4.991152542348352E-007
  4.004129637260075E-004  4.991152542348352E-007
  4.195181778106208E-004  4.991152542348352E-007
  4.380233228886179E-004  4.991152542348352E-007
  5.177414707464997E-004  4.991152542348352E-007
  5.392425628620537E-004  4.991152542348352E-007
  5.843044625803585E-004  4.991152542348352E-007
  5.904793363135652E-004  4.991152542348352E-007
  5.930595349640088E-004  4.991152542348352E-007
  5.934412279244935E-004  4.991152542348352E-007
  5.936114377914603E-004  4.991152542348352E-007
  5.965193691354114E-004  4.991152542348352E-007
  5.985884173419334E-004  4.991152542348352E-007
  5.994899659125358E-004  4.991152542348352E-007
  5.998837538170063E-004  4.991152542348352E-007
  6.038013749434689E-004  4.991152542348352E-007
  6.043524438656824E-004  4.991152542348352E-007
  6.231374339899644E-004  4.991152542348352E-007
  6.283428027109632E-004  4.991152542348352E-007
  6.336412163330805E-004  4.991152542348352E-007
  6.414127400389059E-004  4.991152542348352E-007
  6.437542379568018E-004  4.991152542348352E-007
  6.473947906465562E-004  4.991152542348352E-007
  6.494832323880644E-004  4.991152542348352E-007
  6.602343745874868E-004  4.991152542348352E-007
  7.374930318309744E-004  4.991152542348352E-007
  9.130521370713451E-004  4.991152542348352E-007
  1.041745963776496E-003  4.991152542348352E-007
  1.059719078717610E-003  4.991152542348352E-007
  1.069564319334390E-003  4.991152542348352E-007
  1.076036705682096E-003  4.991152542348352E-007
  1.080245749494362E-003  4.991152542348352E-007
  1.106242417520573E-003  4.991152542348352E-007
  1.108061150803077E-003  4.991152542348352E-007
  1.110248784176214E-003  4.991152542348352E-007
  1.125362329230868E-003  4.991152542348352E-007
  1.140450687325397E-003  4.991152542348352E-007
  1.154193337728980E-003  4.991152542348352E-007
  1.155899314977372E-003  4.991152542348352E-007
  1.170147036736935E-003  4.991152542348352E-007
  1.171313805231603E-003  4.991152542348352E-007
  1.172584928891950E-003  4.991152542348352E-007
  1.172597659234590E-003  4.991152542348352E-007
  1.172653244453737E-003  4.991152542348352E-007
  1.398109039376377E-003  4.991152542348352E-007
  1.423889040059992E-003  4.991152542348352E-007
  1.439138262475581E-003  4.991152542348352E-007
  1.570137930988335E-003  4.991152542348352E-007
  1.737526265221642E-003  4.991152542348352E-007
  1.946098702003689E-003  4.991152542348352E-007
  2.243561661276243E-003  4.991152542348352E-007
  2.325589746477924E-003  4.991152542348352E-007
  2.337952239488775E-003  4.991152542348352E-007
  2.350304467293477E-003  4.991152542348352E-007
  2.387397664001845E-003  4.991152542348352E-007
  2.662865186046851E-003  4.991152542348352E-007
  3.146754078735037E-003  4.991152542348352E-007
  3.577714383168625E-003  4.991152542348352E-007
  3.662174088563043E-003  4.991152542348352E-007
  3.671215659094222E-003  4.991152542348352E-007
  3.711634819967253E-003  4.991152542348352E-007
  3.724123811064598E-003  4.991152542348352E-007
  3.725738467948530E-003  4.991152542348352E-007
  4.061054454096739E-003  4.991152542348352E-007
 cut=1d-8, nber non-redundant internal coords=         114
 Check on Eigenvals of non-red overlap matrix:
  0.00000050  0.00000201  0.00000203  0.00000299  0.00000774  0.00000839  0.00001269  0.00001408
  0.00001532  0.00002045  0.00002784  0.00002982  0.00004240  0.00004497  0.00004518  0.00004880
  0.00005045  0.00005253  0.00005591  0.00005629  0.00005861  0.00005884  0.00006684  0.00006800
  0.00007825  0.00008076  0.00009242  0.00009990  0.00010670  0.00010981  0.00011665  0.00011687
  0.00011729  0.00012066  0.00012220  0.00012813  0.00013290  0.00017408  0.00021644  0.00023645
  0.00025185  0.00025758  0.00026859  0.00028304  0.00028475  0.00030115  0.00034832  0.00035912
  0.00037723  0.00038776  0.00039932  0.00040041  0.00041952  0.00043802  0.00051774  0.00053924
  0.00058430  0.00059048  0.00059306  0.00059344  0.00059361  0.00059652  0.00059859  0.00059949
  0.00059988  0.00060380  0.00060435  0.00062314  0.00062834  0.00063364  0.00064141  0.00064375
  0.00064739  0.00064948  0.00066023  0.00073749  0.00091305  0.00104175  0.00105972  0.00106956
  0.00107604  0.00108025  0.00110624  0.00110806  0.00111025  0.00112536  0.00114045  0.00115419
  0.00115590  0.00117015  0.00117131  0.00117258  0.00117260  0.00117265  0.00139811  0.00142389
  0.00143914  0.00157014  0.00173753  0.00194610  0.00224356  0.00232559  0.00233795  0.00235030
  0.00238740  0.00266287  0.00314675  0.00357771  0.00366217  0.00367122  0.00371163  0.00372412
  0.00372574  0.00406105
 Checking for correct frequencies
 recalc frequencies=
   -61.3  -26.2   -0.0   -0.0   -0.0   -0.0   -0.0    0.0   18.2   51.2
    58.3   75.0  108.4  134.6  140.6  173.3  220.5  220.8  287.7  336.2
   374.1  394.3  400.3  404.7  409.7  423.1  444.8  465.0  483.2  488.2
   518.1  536.5  614.8  626.2  628.2  643.5  652.9  669.8  693.5  709.5
   730.2  747.2  765.2  773.1  776.2  787.8  792.2  798.8  811.5  828.3
   841.9  903.6  941.1  945.4  973.4  973.6  978.8  984.1  984.3  984.7
   987.9  992.9  994.4  998.8 1005.0 1023.3 1047.7 1056.2 1087.1 1100.4
  1112.6 1138.6 1156.1 1184.0 1204.4 1216.0 1224.5 1256.2 1273.8 1284.8
  1297.2 1329.4 1330.3 1342.1 1348.2 1352.6 1368.4 1377.1 1434.9 1437.9
  1452.2 1466.6 1485.1 1488.0 1499.3 1503.7 1512.8 1520.5 1535.8 1573.8
  1598.9 1617.4 1640.4 1674.2 3125.2 3125.6 3167.3 3174.4 3185.9 3186.9
  3190.3 3194.8 3196.2 3200.7 3208.7 3209.8 3213.3 3214.6 3219.3 3221.7
 recalc symmetries=
     A2     A2     A1     B2     B2     B1     A2     B1     B1     B1 
     B2     A2     B1     B2     B1     A1     B2     B1     B1     A1 
     B2     A2     A2     B1     A2     A2     B2     B1     B2     A1 
     B1     B1     B2     A1     B2     B2     B2     B1     A1     B1 
     B1     A1     A2     B1     B1     A2     A1     B1     A2     B1 
     B1     B1     A2     B1     B1     A2     A1     A2     A1     B1 
     A2     A1     B1     A1     A1     A1     A1     A1     A1     B2 
     B2     B2     B2     B2     A1     A1     B2     A1     B2     B2 
     B2     B2     A1     B2     B2     A1     B2     A1     A1     B2 
     B2     B2     B2     A1     B2     B2     A1     B2     A1     B2 
     A1     A1     A1     A1     A1     B2     A1     B2     A1     B2 
     A1     B2     A1     A1     B2     A1     B2     A1     B2     A1 
 recalc freqs check OK
 Zero-point lengths:
 31.6623 48.4187 10.0000 10.0000 10.0000 10.0000 10.0000 10.0000 58.0806 34.6369
 32.4797 28.6244 23.8153 21.3650 20.9096 18.8338 16.6949 16.6841 14.6160 13.5216
 12.8181 12.4852 12.3906 12.3234 12.2480 12.0520 11.7552 11.4968 11.2776 11.2205
 10.8919 10.7035  9.9984  9.9069  9.8914  9.7726  9.7022  9.5789  9.4140  9.3070
  9.1741  9.0696  8.9622  8.9164  8.8984  8.8324  8.8082  8.7717  8.7024  8.6137
  8.5439  8.2470  8.0814  8.0630  7.9461  7.9451  7.9239  7.9026  7.9021  7.9004
  7.8875  7.8674  7.8618  7.8443  7.8200  7.7500  7.6592  7.6282  7.5189  7.4735
  7.4325  7.3472  7.2911  7.2047  7.1435  7.1092  7.0846  6.9947  6.9462  6.9163
  6.8832  6.7993  6.7971  6.7671  6.7518  6.7407  6.7018  6.6805  6.5447  6.5378
  6.5056  6.4736  6.4330  6.4269  6.4026  6.3932  6.3739  6.3578  6.3259  6.2491
  6.1999  6.1644  6.1210  6.0589  4.4346  4.4343  4.4051  4.4001  4.3922  4.3915
  4.3891  4.3860  4.3851  4.3820  4.3765  4.3758  4.3734  4.3725  4.3694  4.3677
 highest evec of mol 2
  0.0000  0.0000  0.0093
  0.0000  0.0162  0.0114
  0.0000  0.0705 -0.0381
  0.0000  0.0000 -0.0029
  0.0000  0.0000  0.0050
  0.0000 -0.0932  0.0538
  0.0000 -0.1140 -0.0643
  0.0000  0.0000 -0.0063
  0.0000  0.0000  0.0041
  0.0000 -0.0571  0.0312
  0.0000 -0.0392 -0.0242
  0.0000  0.0000 -0.0027
  0.0000  0.0000 -0.0000
  0.0000  0.0002 -0.0001
  0.0000 -0.0004 -0.0001
  0.0000  0.0000 -0.0004
  0.0000  0.0004 -0.0001
  0.0000 -0.0002 -0.0001
  0.0000  0.0392 -0.0242
  0.0000  0.0571  0.0312
  0.0000  0.1140 -0.0643
  0.0000  0.0932  0.0538
  0.0000 -0.0705 -0.0381
  0.0000 -0.0162  0.0114
  0.0000  0.0000 -0.0272
  0.0000 -0.0510 -0.0298
  0.0000 -0.2359  0.1310
  0.0000  0.3094 -0.1704
  0.0000  0.3790  0.2075
  0.0000  0.1910 -0.1067
  0.0000  0.1281  0.0749
  0.0000  0.0012  0.0006
  0.0000  0.0000  0.0014
  0.0000 -0.0012  0.0006
  0.0000 -0.1281  0.0749
  0.0000 -0.1910 -0.1067
  0.0000 -0.3790  0.2075
  0.0000 -0.3094 -0.1704
  0.0000  0.2359  0.1310
  0.0000  0.0510 -0.0298
 Enter nber and list of atoms to keep of mol #2
 keep list:          40           1           2           3           4
           5           6           7           8           9          10
          11          12          13          14          15          16
          17          18          19          20          21          22
          23          24          25          26          27          28
          29          30          31          32          33          34
          35          36          37          38          39          40
 reordering atoms
           1   7.95218781468650     
           2   7.24343381468650     
           3   5.86013781468650     
           4   5.10978181468650     
           5   3.65722081468650     
           6   2.89566581468650     
           7   1.52505881468650     
           8  0.756425814686500     
           9 -0.682993185313500     
          10  -1.44184218531350     
          11  -2.81475218531350     
          12  -3.55015518531350     
          13  -5.00269818531350     
          14  -5.63613818531350     
          15  -6.95943818531350     
          16  -7.70242418531350     
          17  -6.95943818531350     
          18  -5.63613818531350     
          19  -2.81475218531350     
          20  -1.44184218531350     
          21   1.52505881468650     
          22   2.89566581468650     
          23   5.86013781468650     
          24   7.24343381468650     
          25   9.03576781468650     
          26   7.77948781468650     
          27   5.35149281468650     
          28   3.40100981468650     
          29   1.01835881468650     
          30 -0.934188185313500     
          31  -3.36745218531350     
          32  -7.45631918531350     
          33  -8.78450318531350     
          34  -7.45631918531350     
          35  -3.36745218531350     
          36 -0.934188185313500     
          37   1.01835881468650     
          38   3.40100981468650     
          39   5.35149281468650     
          40   7.77948781468650     
           1           1
           2           2
           3           3
           4           4
           5           5
           6           6
           7           7
           8           8
           9           9
          10          10
          11          11
          12          12
          13          13
          14          14
          15          15
          16          16
          17          17
          18          18
          19          19
          20          20
          21          21
          22          22
          23          23
          24          24
          25          25
          26          26
          27          27
          28          28
          29          29
          30          30
          31          31
          32          32
          33          33
          34          34
          35          35
          36          36
          37          37
          38          38
          39          39
          40          40
 initial cartes coords mol 1
   6   0.00000   0.00000   7.98151
   6   0.00000  -1.19924   7.27405
   6   0.00000  -1.19780   5.88353
   6   0.00000   0.00000   5.14731
   6   0.00000   0.00000   3.65749
   6   0.00000   1.18982   2.91175
   6   0.00000   1.19008   1.52499
   6   0.00000   0.00000   0.77914
   6   0.00000   0.00000  -0.70786
   6   0.00000   1.19711  -1.44720
   6   0.00000   1.20073  -2.83351
   6   0.00000   0.00000  -3.55360
   6   0.00000   0.00000  -5.03368
   7   0.00000   1.19197  -5.65604
   6   0.00000   1.17960  -6.98661
   6   0.00000   0.00000  -7.72398
   6   0.00000  -1.17960  -6.98661
   7   0.00000  -1.19197  -5.65604
   6   0.00000  -1.20073  -2.83351
   6   0.00000  -1.19711  -1.44720
   6   0.00000  -1.19008   1.52499
   6   0.00000  -1.18982   2.91175
   6   0.00000   1.19780   5.88353
   6   0.00000   1.19924   7.27405
   1   0.00000   0.00000   9.06534
   1   0.00000  -2.14436   7.80561
   1   0.00000  -2.15221   5.37432
   1   0.00000   2.14884   3.41278
   1   0.00000   2.14865   1.02365
   1   0.00000   2.15278  -0.94027
   1   0.00000   2.13535  -3.37881
   1   0.00000   2.14961  -7.47758
   1   0.00000   0.00000  -8.80631
   1   0.00000  -2.14961  -7.47758
   1   0.00000  -2.13535  -3.37881
   1   0.00000  -2.15278  -0.94027
   1   0.00000  -2.14865   1.02365
   1   0.00000  -2.14884   3.41278
   1   0.00000   2.15221   5.37432
   1   0.00000   2.14436   7.80561
 initial cartes coords mol 2
   6   0.00000  -0.00000   7.95219
   6   0.00000  -1.20531   7.24343
   6   0.00000  -1.20941   5.86014
   6   0.00000  -0.00000   5.10978
   6   0.00000  -0.00000   3.65722
   6   0.00000   1.20629   2.89567
   6   0.00000   1.20969   1.52506
   6   0.00000  -0.00000   0.75643
   6   0.00000  -0.00000  -0.68299
   6   0.00000   1.21430  -1.44184
   6   0.00000   1.21517  -2.81475
   6   0.00000  -0.00000  -3.55016
   6   0.00000  -0.00000  -5.00270
   7   0.00000   1.20489  -5.63614
   6   0.00000   1.18537  -6.95944
   6   0.00000  -0.00000  -7.70242
   6   0.00000  -1.18537  -6.95944
   7   0.00000  -1.20489  -5.63614
   6   0.00000  -1.21517  -2.81475
   6   0.00000  -1.21430  -1.44184
   6   0.00000  -1.20969   1.52506
   6   0.00000  -1.20629   2.89567
   6   0.00000   1.20941   5.86014
   6   0.00000   1.20531   7.24343
   1   0.00000  -0.00000   9.03577
   1   0.00000  -2.14765   7.77949
   1   0.00000  -2.16340   5.35149
   1   0.00000   2.16241   3.40101
   1   0.00000   2.16448   1.01836
   1   0.00000   2.16967  -0.93419
   1   0.00000   2.14493  -3.36745
   1   0.00000   2.15367  -7.45632
   1   0.00000  -0.00000  -8.78450
   1   0.00000  -2.15367  -7.45632
   1   0.00000  -2.14493  -3.36745
   1   0.00000  -2.16967  -0.93419
   1   0.00000  -2.16448   1.01836
   1   0.00000  -2.16241   3.40101
   1   0.00000   2.16340   5.35149
   1   0.00000   2.14765   7.77949
 loop 1 0
 mod cartes coords mol 2
   6   0.00000  -0.00000   7.95219
   6   0.00000  -1.20531   7.24343
   6   0.00000  -1.20941   5.86014
   6   0.00000  -0.00000   5.10978
   6   0.00000  -0.00000   3.65722
   6   0.00000   1.20629   2.89567
   6   0.00000   1.20969   1.52506
   6   0.00000  -0.00000   0.75643
   6   0.00000  -0.00000  -0.68299
   6   0.00000   1.21430  -1.44184
   6   0.00000   1.21517  -2.81475
   6   0.00000  -0.00000  -3.55016
   6   0.00000  -0.00000  -5.00270
   7   0.00000   1.20489  -5.63614
   6   0.00000   1.18537  -6.95944
   6   0.00000  -0.00000  -7.70242
   6   0.00000  -1.18537  -6.95944
   7   0.00000  -1.20489  -5.63614
   6   0.00000  -1.21517  -2.81475
   6   0.00000  -1.21430  -1.44184
   6   0.00000  -1.20969   1.52506
   6   0.00000  -1.20629   2.89567
   6   0.00000   1.20941   5.86014
   6   0.00000   1.20531   7.24343
   1   0.00000  -0.00000   9.03577
   1   0.00000  -2.14765   7.77949
   1   0.00000  -2.16340   5.35149
   1   0.00000   2.16241   3.40101
   1   0.00000   2.16448   1.01836
   1   0.00000   2.16967  -0.93419
   1   0.00000   2.14493  -3.36745
   1   0.00000   2.15367  -7.45632
   1   0.00000  -0.00000  -8.78450
   1   0.00000  -2.15367  -7.45632
   1   0.00000  -2.14493  -3.36745
   1   0.00000  -2.16967  -0.93419
   1   0.00000  -2.16448   1.01836
   1   0.00000  -2.16241   3.40101
   1   0.00000   2.16340   5.35149
   1   0.00000   2.14765   7.77949
 read in order, maxerr=  0.04 for atom   4
 final axis swaps:           1           1           1
 final xyz swap pattern=           1
 reorder list:
   1   2   3   4   5   6   7   8   9  10  11  12  13  14  15  16  17  18  19  20
  21  22  23  24  25  26  27  28  29  30  31  32  33  34  35  36  37  38  39  40
 axis signs=           1           1           1
  6     0.000000 -0.000000  7.952188     0.000000  0.000000  7.981509
  6     0.000000 -1.205305  7.243434     0.000000 -1.199243  7.274050
  6     0.000000 -1.209405  5.860138     0.000000 -1.197796  5.883532
  6     0.000000 -0.000000  5.109782     0.000000  0.000000  5.147308
  6     0.000000 -0.000000  3.657221     0.000000  0.000000  3.657486
  6     0.000000  1.206290  2.895666     0.000000  1.189825  2.911746
  6     0.000000  1.209687  1.525059     0.000000  1.190076  1.524994
  6     0.000000 -0.000000  0.756426     0.000000  0.000000  0.779135
  6     0.000000 -0.000000 -0.682993     0.000000  0.000000 -0.707865
  6     0.000000  1.214299 -1.441842     0.000000  1.197115 -1.447199
  6     0.000000  1.215169 -2.814752     0.000000  1.200727 -2.833515
  6     0.000000 -0.000000 -3.550155     0.000000  0.000000 -3.553602
  6     0.000000 -0.000000 -5.002698     0.000000  0.000000 -5.033680
  7     0.000000  1.204886 -5.636138     0.000000  1.191967 -5.656042
  6     0.000000  1.185372 -6.959438     0.000000  1.179603 -6.986608
  6     0.000000 -0.000000 -7.702424     0.000000  0.000000 -7.723976
  6     0.000000 -1.185372 -6.959438     0.000000 -1.179603 -6.986608
  7     0.000000 -1.204886 -5.636138     0.000000 -1.191967 -5.656042
  6     0.000000 -1.215169 -2.814752     0.000000 -1.200727 -2.833515
  6     0.000000 -1.214299 -1.441842     0.000000 -1.197115 -1.447199
  6     0.000000 -1.209687  1.525059     0.000000 -1.190076  1.524994
  6     0.000000 -1.206290  2.895666     0.000000 -1.189825  2.911746
  6     0.000000  1.209405  5.860138     0.000000  1.197796  5.883532
  6     0.000000  1.205305  7.243434     0.000000  1.199243  7.274050
  1     0.000000 -0.000000  9.035768     0.000000  0.000000  9.065343
  1     0.000000 -2.147653  7.779488     0.000000 -2.144358  7.805609
  1     0.000000 -2.163398  5.351493     0.000000 -2.152211  5.374319
  1     0.000000  2.162411  3.401010     0.000000  2.148844  3.412781
  1     0.000000  2.164478  1.018359     0.000000  2.148645  1.023646
  1     0.000000  2.169672 -0.934188     0.000000  2.152775 -0.940269
  1     0.000000  2.144933 -3.367452     0.000000  2.135354 -3.378814
  1     0.000000  2.153668 -7.456319     0.000000  2.149614 -7.477582
  1     0.000000 -0.000000 -8.784503     0.000000  0.000000 -8.806310
  1     0.000000 -2.153668 -7.456319     0.000000 -2.149614 -7.477582
  1     0.000000 -2.144933 -3.367452     0.000000 -2.135354 -3.378814
  1     0.000000 -2.169672 -0.934188     0.000000 -2.152775 -0.940269
  1     0.000000 -2.164478  1.018359     0.000000 -2.148645  1.023646
  1     0.000000 -2.162411  3.401010     0.000000 -2.148844  3.412781
  1     0.000000  2.163398  5.351493     0.000000  2.152211  5.374319
  1     0.000000  2.147653  7.779488     0.000000  2.144358  7.805609
 generating redundant internal coords
         300        3600          40
 Adding extra bonds for z output only
           6           6           6           6           6           6
           6           6           6           6           6           6
           6           7           6           6           6           7
           6           6           6           6           6           6
           1           1           1           1           1           1
           1           1           1           1           1           1
           1           1           1           1
 search for int coords
   1 str   2   1   1.398
   2 str   3   2   1.383
   3 str   4   3   1.423
   4 str   5   4   1.453
   5 str   6   5   1.427
   6 str   7   6   1.371
   7 str   8   7   1.433
   8 str   9   8   1.439
   9 str  10   9   1.432
  10 str  11  10   1.373
  11 str  12  11   1.420
  12 str  13  12   1.453
  13 str  14  13   1.361
  14 str  15  14   1.323
  15 str  16  15   1.399
  16 str  17  16   1.399
  17 str  18  13   1.361
  18 str  18  17   1.323
  19 str  19  12   1.420
  20 str  20   9   1.432
  21 str  20  19   1.373
  22 str  21   8   1.433
  23 str  22   5   1.427
  24 str  22  21   1.371
  25 str  23   4   1.423
  26 str  24   1   1.398
  27 str  24  23   1.383
  28 str  25   1   1.084
  29 str  26   2   1.084
  30 str  27   3   1.081
  31 str  28   6   1.081
  32 str  29   7   1.081
[...]
                 0.4579    21.0          95 B2   1499.
  98 B2   1596. -0.3467    12.0   100.2  91 B2   1452.
                -0.6779    45.9          96 B2   1504.
                -0.3968    15.7          98 B2   1520.
  99 A1   1614. -0.8247    68.0    99.9 101 A1   1599.
                 0.4575    20.9         104 A1   1674.
 100 B2   1614. -0.3683    13.6   100.3  96 B2   1504.
                 0.7870    61.9          98 B2   1520.
 101 B2   1623. -0.4067    16.5   100.2  96 B2   1504.
                 0.8873    78.7         100 B2   1574.
 102 A1   1638.  0.5145    26.5    99.7 101 A1   1599.
                 0.7531    56.7         104 A1   1674.
 103 A1   1647. -0.8744    76.5    99.7 102 A1   1617.
                 0.4153    17.3         104 A1   1674.
 104 A1   1659.  0.9507    90.4    99.7 103 A1   1640.
 105 A1   3142.  0.9993    99.9   100.0 105 A1   3125.
 106 B2   3144. -1.0000   100.0   100.0 106 B2   3126.
 107 A1   3162.  0.9990    99.8   100.0 107 A1   3167.
 108 B2   3170. -0.9978    99.6   100.0 108 B2   3174.
 109 A1   3181. -0.8847    78.3   100.0 109 A1   3186.
                -0.3760    14.1         111 A1   3190.
 110 B2   3183.  0.8975    80.5   100.0 110 B2   3187.
                 0.4167    17.4         112 B2   3195.
 111 A1   3186.  0.9141    83.6   100.0 111 A1   3190.
 112 B2   3191. -0.3883    15.1   100.0 110 B2   3187.
                 0.8974    80.5         112 B2   3195.
 113 A1   3192.  0.9441    89.1   100.0 113 A1   3196.
 114 B2   3201.  0.9476    89.8   100.0 115 B2   3209.
 115 A1   3202.  0.9728    94.6   100.0 114 A1   3201.
 116 A1   3202.  0.9365    87.7   100.0 116 A1   3210.
 117 B2   3207. -0.8677    75.3   100.0 117 B2   3213.
                -0.4519    20.4         119 B2   3219.
 118 A1   3209. -0.9036    81.6   100.0 118 A1   3215.
                 0.3788    14.3         120 A1   3222.
 119 B2   3212.  0.4160    17.3   100.0 117 B2   3213.
                -0.8826    77.9         119 B2   3219.
 120 A1   3214. -0.3451    11.9   100.0 118 A1   3215.
                -0.9180    84.3         120 A1   3222.
 nber times 1st assigned=           1           0
 nber times 1st assigned=           2           0
 nber times 1st assigned=           3           0
 nber times 1st assigned=           4           0
 nber times 1st assigned=           5           0
 nber times 1st assigned=           6           0
 nber times 1st assigned=           7           0
 nber times 1st assigned=           8           0
 nber times 1st assigned=           9           0
 nber times 1st assigned=          10           0
 nber times 1st assigned=          11           0
 nber times 1st assigned=          12           0
 nber times 1st assigned=          13           0
 nber times 1st assigned=          14           0
 nber times 1st assigned=          15           0
 nber times 1st assigned=          16           0
 nber times 1st assigned=          17           0
 nber times 1st assigned=          18           0
 nber times 1st assigned=          19           0
 nber times 1st assigned=          20           0
 nber times 1st assigned=          21           0
 nber times 1st assigned=          22           0
 nber times 1st assigned=          23           0
 nber times 1st assigned=          24           0
 nber times 1st assigned=          25           0
 nber times 1st assigned=          26           0
 nber times 1st assigned=          27           0
 nber times 1st assigned=          28           0
 nber times 1st assigned=          29           0
 nber times 1st assigned=          30           0
 nber times 1st assigned=          31           0
 nber times 1st assigned=          32           0
 nber times 1st assigned=          33           0
 nber times 1st assigned=          34           0
 nber times 1st assigned=          35           0
 nber times 1st assigned=          36           0
 nber times 1st assigned=          37           0
 nber times 1st assigned=          38           0
 nber times 1st assigned=          39           0
 nber times 1st assigned=          40           0
 nber times 1st assigned=          41           0
 nber times 1st assigned=          42           0
 nber times 1st assigned=          43           0
 nber times 1st assigned=          44           0
 nber times 1st assigned=          45           0
 nber times 1st assigned=          46           0
 nber times 1st assigned=          47           0
 nber times 1st assigned=          48           0
 nber times 1st assigned=          49           0
 nber times 1st assigned=          50           0
 nber times 1st assigned=          51           0
 nber times 1st assigned=          52           0
 nber times 1st assigned=          53           0
 nber times 1st assigned=          54           0
 nber times 1st assigned=          55           0
 nber times 1st assigned=          56           0
 nber times 1st assigned=          57           0
 nber times 1st assigned=          58           0
 nber times 1st assigned=          59           0
 nber times 1st assigned=          60           0
 nber times 1st assigned=          61           0
 nber times 1st assigned=          62           0
 nber times 1st assigned=          63           0
 nber times 1st assigned=          64           0
 nber times 1st assigned=          65           0
 nber times 1st assigned=          66           0
 nber times 1st assigned=          67           0
 nber times 1st assigned=          68           0
 nber times 1st assigned=          69           0
 nber times 1st assigned=          70           0
 nber times 1st assigned=          71           0
 nber times 1st assigned=          72           0
 nber times 1st assigned=          73           0
 nber times 1st assigned=          74           0
 nber times 1st assigned=          75           0
 nber times 1st assigned=          76           0
 nber times 1st assigned=          77           0
 nber times 1st assigned=          78           0
 nber times 1st assigned=          79           0
 nber times 1st assigned=          80           0
 nber times 1st assigned=          81           0
 nber times 1st assigned=          82           0
 nber times 1st assigned=          83           0
 nber times 1st assigned=          84           0
 nber times 1st assigned=          85           0
 nber times 1st assigned=          86           0
 nber times 1st assigned=          87           0
 nber times 1st assigned=          88           0
 nber times 1st assigned=          89           0
 nber times 1st assigned=          90           0
 nber times 1st assigned=          91           0
 nber times 1st assigned=          92           0
 nber times 1st assigned=          93           0
 nber times 1st assigned=          94           0
 nber times 1st assigned=          95           0
 nber times 1st assigned=          96           0
 nber times 1st assigned=          97           0
 nber times 1st assigned=          98           0
 nber times 1st assigned=          99           0
 nber times 1st assigned=         100           0
 nber times 1st assigned=         101           0
 nber times 1st assigned=         102           0
 nber times 1st assigned=         103           0
 nber times 1st assigned=         104           0
 nber times 1st assigned=         105           0
 nber times 1st assigned=         106           0
 nber times 1st assigned=         107           0
 nber times 1st assigned=         108           0
 nber times 1st assigned=         109           0
 nber times 1st assigned=         110           0
 nber times 1st assigned=         111           0
 nber times 1st assigned=         112           0
 nber times 1st assigned=         113           0
 nber times 1st assigned=         114           0
 nber times 1st assigned=         115           0
 nber times 1st assigned=         116           0
 nber times 1st assigned=         117           0
 nber times 1st assigned=         118           0
 nber times 1st assigned=         119           0
 nber times 1st assigned=         120           0
 modes represented=   113.952068454021     
 p1=
    0.   -0.   -0.   -0.    0.   -0.    0.    0.   -0.    0.   -0.   -0.    0.    0.   -0.  -15.   -0.   -0.    0.    2.
   -0.   -0.   -0.    0.   -0.   -0.    0.    0.   -0.    0.   -0.   -0.    0.   -0.    0.   -0.   -0.    0.   -0.   -0.
   -0.   -1.    0.   -0.   -5.    0.   -0.    0.    0.    0.    0.   -0.   -0.   -0.    0.   -0.   -0.   -0.   -0.   -0.
    2.    1.    0.    2.   -1.    0.    1.    1.    0.   -0.   -2.    0.   -0.    0.    1.    1.    0.   -5.    0.   -3.
    0.   -1.   -0.    0.    0.    1.    0.   -0.    0.   -0.    2.   -0.    0.   -1.    0.    0.    0.    0.    3.   -0.
   -0.    4.    2.    0.   -0.    0.   -0.   -0.   -0.    0.   -0.    0.    0.   -0.   -0.    0.    0.    0.   -0.   -0.
 p2=
   -0.    0.    0.    0.   -0.   -0.    0.    0.    0.    0.   -0.    0.    0.   -0.    0.  -15.   -0.    0.   -0.    2.
   -0.   -0.    0.   -0.    0.    0.    0.    0.   -0.   -0.   -0.   -0.    0.    0.   -0.    0.   -0.   -0.   -0.   -0.
   -0.   -1.   -0.   -0.   -0.    0.    5.   -0.    0.   -0.   -0.   -0.   -0.   -0.   -0.    0.   -0.   -0.   -0.    0.
    0.   -0.   -0.    1.   -1.   -1.    1.   -1.   -2.    0.   -0.    0.    0.   -0.   -1.    0.   -0.    4.    0.    0.
   -0.    0.   -2.    0.    0.    2.    0.   -2.   -2.    0.    0.    0.   -0.   -1.   -0.    0.   -1.   -0.   -0.   -0.
    0.   -1.    1.   -6.    0.   -0.   -0.   -0.   -0.   -0.    0.    0.    0.    0.   -0.   -0.   -0.    0.   -0.   -0.

 Displacement: in terms of nc of 1 THEN of nc of 2

   1 A2  freq=   -96. Q=  0.000 lam=    -0.0 A2  freq=   -61. Q=  0.000 lam=    -0.0
   2 A2  freq=   -53. Q= -0.000 lam=    -0.0 A2  freq=   -26. Q= -0.000 lam=    -0.0
   3 B2  freq=    -0. Q= -0.000 lam=    -0.0 A1  freq=    -0. Q= -0.000 lam=    -0.0
   4 B1  freq=     0. Q= -0.000 lam=     0.0 B2  freq=    -0. Q= -0.000 lam=    -0.0
   5 A2  freq=     0. Q=  0.000 lam=     0.0 B2  freq=    -0. Q=  0.000 lam=    -0.0
   6 B2  freq=     0. Q= -0.000 lam=     0.0 B1  freq=    -0. Q= -0.000 lam=    -0.0
   7 B1  freq=     0. Q=  0.000 lam=     0.0 A2  freq=    -0. Q=  0.000 lam=    -0.0
   8 A1  freq=     0. Q=  0.000 lam=     0.0 B1  freq=     0. Q=  0.000 lam=     0.0
   9 B1  freq=    22. Q= -0.000 lam=     0.0 B1  freq=    18. Q= -0.000 lam=     0.0
  10 A2  freq=    50. Q=  0.000 lam=     0.0 B1  freq=    51. Q=  0.000 lam=     0.0
  11 B2  freq=    58. Q= -0.000 lam=     0.0 B2  freq=    58. Q= -0.000 lam=     0.0
  12 B1  freq=    59. Q= -0.000 lam=     0.0 A2  freq=    75. Q= -0.000 lam=     0.0
  13 B1  freq=   120. Q=  0.000 lam=     0.0 B1  freq=   108. Q=  0.000 lam=     0.0
  14 B2  freq=   134. Q=  0.000 lam=     0.0 B2  freq=   135. Q=  0.000 lam=     0.0
  15 B1  freq=   168. Q= -0.000 lam=     0.0 B1  freq=   141. Q= -0.000 lam=     0.0
  16 A1  freq=   172. Q= -0.807 lam=    56.1 A1  freq=   173. Q= -0.792 lam=    54.4
  17 B2  freq=   223. Q= -0.000 lam=     0.0 B2  freq=   221. Q= -0.000 lam=     0.0
  18 B1  freq=   255. Q= -0.000 lam=     0.0 B1  freq=   221. Q= -0.000 lam=     0.0
  19 B1  freq=   336. Q=  0.000 lam=     0.0 B1  freq=   288. Q=  0.000 lam=     0.0
  20 A1  freq=   336. Q=  0.112 lam=     2.1 A1  freq=   336. Q=  0.113 lam=     2.1
  21 B2  freq=   371. Q= -0.000 lam=     0.0 B2  freq=   374. Q= -0.000 lam=     0.0
  22 A2  freq=   387. Q= -0.000 lam=     0.0 A2  freq=   394. Q= -0.000 lam=     0.0
  23 A2  freq=   407. Q= -0.000 lam=     0.0 A2  freq=   400. Q= -0.000 lam=     0.0
  24 A2  freq=   410. Q=  0.000 lam=     0.0 B1  freq=   405. Q=  0.000 lam=     0.0
  25 A2  freq=   418. Q= -0.000 lam=     0.0 A2  freq=   410. Q= -0.000 lam=     0.0
  26 B2  freq=   446. Q= -0.000 lam=     0.0 A2  freq=   423. Q= -0.000 lam=     0.0
  27 B1  freq=   454. Q=  0.000 lam=     0.0 B2  freq=   445. Q=  0.000 lam=     0.0
  28 A1  freq=   485. Q=  0.027 lam=     0.2 B1  freq=   465. Q=  0.000 lam=     0.0
  29 B2  freq=   488. Q= -0.000 lam=     0.0 B2  freq=   483. Q= -0.000 lam=     0.0
  30 B1  freq=   510. Q=  0.000 lam=     0.0 A1  freq=   488. Q=  0.031 lam=     0.2
  31 B1  freq=   555. Q= -0.000 lam=     0.0 B1  freq=   518. Q= -0.000 lam=     0.0
  32 B1  freq=   573. Q= -0.000 lam=     0.0 B1  freq=   536. Q= -0.000 lam=     0.0
  33 B2  freq=   631. Q=  0.000 lam=     0.0 B2  freq=   615. Q=  0.000 lam=     0.0
  34 A1  freq=   641. Q= -0.022 lam=     0.1 A1  freq=   626. Q= -0.030 lam=     0.3
  35 B2  freq=   642. Q=  0.000 lam=     0.0 B2  freq=   628. Q=  0.000 lam=     0.0
  36 B2  freq=   655. Q= -0.000 lam=     0.0 B2  freq=   644. Q= -0.000 lam=     0.0
  37 B2  freq=   668. Q= -0.000 lam=     0.0 B2  freq=   653. Q= -0.000 lam=     0.0
  38 B1  freq=   695. Q=  0.000 lam=     0.0 B1  freq=   670. Q=  0.000 lam=     0.0
  39 A1  freq=   708. Q= -0.048 lam=     0.8 A1  freq=   693. Q= -0.006 lam=     0.0
  40 B1  freq=   729. Q= -0.000 lam=     0.0 B1  freq=   710. Q= -0.000 lam=     0.0
  41 B1  freq=   744. Q= -0.000 lam=     0.0 B1  freq=   730. Q= -0.000 lam=     0.0
  42 A1  freq=   770. Q= -0.078 lam=     2.4 A1  freq=   747. Q= -0.069 lam=     1.8
  43 B1  freq=   780. Q=  0.000 lam=     0.0 A2  freq=   765. Q=  0.000 lam=     0.0
  44 A2  freq=   807. Q= -0.000 lam=     0.0 B1  freq=   773. Q= -0.000 lam=     0.0
  45 A1  freq=   812. Q= -0.533 lam=   115.5 B1  freq=   776. Q= -0.000 lam=     0.0
  46 B1  freq=   817. Q=  0.000 lam=     0.0 A2  freq=   788. Q=  0.000 lam=     0.0
  47 B1  freq=   826. Q= -0.000 lam=     0.0 A1  freq=   792. Q= -0.579 lam=   133.0
  48 A2  freq=   836. Q=  0.000 lam=     0.0 B1  freq=   799. Q=  0.000 lam=     0.0
  49 A2  freq=   850. Q=  0.000 lam=     0.0 A2  freq=   812. Q=  0.000 lam=     0.0
  50 B1  freq=   854. Q=  0.000 lam=     0.0 B1  freq=   828. Q=  0.000 lam=     0.0
  51 B1  freq=   880. Q=  0.000 lam=     0.0 B1  freq=   842. Q=  0.000 lam=     0.0
  52 B1  freq=   919. Q= -0.000 lam=     0.0 B1  freq=   904. Q= -0.000 lam=     0.0
  53 A2  freq=   949. Q= -0.000 lam=     0.0 A2  freq=   941. Q= -0.000 lam=     0.0
  54 B1  freq=   957. Q= -0.000 lam=     0.0 B1  freq=   945. Q= -0.000 lam=     0.0
  55 A2  freq=   973. Q=  0.000 lam=     0.0 B1  freq=   973. Q=  0.000 lam=     0.0
  56 B1  freq=   996. Q= -0.000 lam=     0.0 A2  freq=   974. Q= -0.000 lam=     0.0
  57 A2  freq=   997. Q= -0.000 lam=     0.0 A1  freq=   979. Q= -0.060 lam=     1.8
  58 B1  freq=   998. Q= -0.000 lam=     0.0 A2  freq=   984. Q= -0.000 lam=     0.0
  59 A2  freq=  1002. Q= -0.000 lam=     0.0 A1  freq=   984. Q= -0.053 lam=     1.4
  60 B1  freq=  1008. Q= -0.000 lam=     0.0 B1  freq=   985. Q= -0.000 lam=     0.0
  61 A1  freq=  1008. Q=  0.199 lam=    20.0 A2  freq=   988. Q=  0.000 lam=     0.0
  62 A1  freq=  1013. Q=  0.150 lam=    11.3 A1  freq=   993. Q=  0.041 lam=     0.8
  63 A1  freq=  1018. Q=  0.028 lam=     0.4 B1  freq=   994. Q=  0.000 lam=     0.0
  64 A1  freq=  1023. Q=  0.201 lam=    20.6 A1  freq=   999. Q=  0.119 lam=     7.1
  65 A1  freq=  1034. Q= -0.112 lam=     6.5 A1  freq=  1005. Q= -0.185 lam=    17.1
  66 A1  freq=  1055. Q=  0.014 lam=     0.1 A1  freq=  1023. Q=  0.152 lam=    11.8
  67 A1  freq=  1065. Q=  0.107 lam=     6.1 A1  freq=  1048. Q=  0.097 lam=     4.9
  68 A1  freq=  1075. Q=  0.135 lam=     9.8 A1  freq=  1056. Q=  0.141 lam=    10.5
  69 B2  freq=  1111. Q=  0.000 lam=     0.0 A1  freq=  1087. Q=  0.221 lam=    26.5
  70 B2  freq=  1112. Q= -0.000 lam=     0.0 B2  freq=  1100. Q= -0.000 lam=     0.0
  71 A1  freq=  1113. Q= -0.230 lam=    29.3 B2  freq=  1113. Q= -0.000 lam=     0.0
  72 B2  freq=  1143. Q=  0.000 lam=     0.0 B2  freq=  1139. Q=  0.000 lam=     0.0
  73 B2  freq=  1168. Q= -0.000 lam=     0.0 B2  freq=  1156. Q= -0.000 lam=     0.0
  74 B2  freq=  1188. Q=  0.000 lam=     0.0 B2  freq=  1184. Q=  0.000 lam=     0.0
  75 A1  freq=  1207. Q=  0.121 lam=     8.8 A1  freq=  1204. Q=  0.099 lam=     5.9
  76 A1  freq=  1219. Q=  0.104 lam=     6.6 A1  freq=  1216. Q=  0.054 lam=     1.8
  77 B2  freq=  1237. Q=  0.000 lam=     0.0 B2  freq=  1224. Q=  0.000 lam=     0.0
  78 A1  freq=  1251. Q= -0.661 lam=   273.6 A1  freq=  1256. Q= -0.523 lam=   172.0
  79 B2  freq=  1275. Q=  0.000 lam=     0.0 B2  freq=  1274. Q=  0.000 lam=     0.0
  80 A1  freq=  1288. Q= -0.443 lam=   126.2 B2  freq=  1285. Q= -0.000 lam=     0.0
  81 B2  freq=  1293. Q=  0.000 lam=     0.0 B2  freq=  1297. Q=  0.000 lam=     0.0
  82 A1  freq=  1303. Q= -0.146 lam=    14.0 B2  freq=  1329. Q= -0.000 lam=     0.0
  83 B2  freq=  1310. Q= -0.000 lam=     0.0 A1  freq=  1330. Q= -0.233 lam=    36.0
  84 B2  freq=  1327. Q=  0.000 lam=     0.0 B2  freq=  1342. Q=  0.000 lam=     0.0
  85 B2  freq=  1342. Q=  0.000 lam=     0.0 B2  freq=  1348. Q=  0.000 lam=     0.0
  86 A1  freq=  1354. Q=  0.132 lam=    11.8 A1  freq=  1353. Q=  0.370 lam=    92.4
  87 B2  freq=  1361. Q=  0.000 lam=     0.0 B2  freq=  1368. Q=  0.000 lam=     0.0
  88 B2  freq=  1370. Q= -0.000 lam=     0.0 A1  freq=  1377. Q= -0.242 lam=    40.4
  89 B2  freq=  1433. Q=  0.000 lam=     0.0 A1  freq=  1435. Q=  0.358 lam=    91.7
  90 B2  freq=  1445. Q= -0.000 lam=     0.0 B2  freq=  1438. Q= -0.000 lam=     0.0
  91 A1  freq=  1449. Q=  0.285 lam=    58.9 B2  freq=  1452. Q=  0.000 lam=     0.0
  92 B2  freq=  1468. Q= -0.000 lam=     0.0 B2  freq=  1467. Q= -0.000 lam=     0.0
  93 B2  freq=  1484. Q=  0.000 lam=     0.0 B2  freq=  1485. Q=  0.000 lam=     0.0
  94 A1  freq=  1522. Q= -0.171 lam=    22.4 A1  freq=  1488. Q= -0.129 lam=    12.3
  95 A1  freq=  1543. Q=  0.042 lam=     1.4 B2  freq=  1499. Q=  0.000 lam=     0.0
  96 A1  freq=  1571. Q=  0.031 lam=     0.8 B2  freq=  1504. Q=  0.000 lam=     0.0
  97 B2  freq=  1580. Q=  0.000 lam=     0.0 A1  freq=  1513. Q=  0.184 lam=    25.6
  98 B2  freq=  1596. Q=  0.000 lam=     0.0 B2  freq=  1520. Q=  0.000 lam=     0.0
  99 A1  freq=  1614. Q=  0.427 lam=   147.3 A1  freq=  1536. Q=  0.004 lam=     0.0
 100 B2  freq=  1614. Q= -0.000 lam=     0.0 B2  freq=  1574. Q= -0.000 lam=     0.0
 101 B2  freq=  1623. Q= -0.000 lam=     0.0 A1  freq=  1599. Q= -0.044 lam=     1.5
 102 A1  freq=  1638. Q=  0.723 lam=   427.8 A1  freq=  1617. Q=  0.093 lam=     7.0
 103 A1  freq=  1647. Q=  0.289 lam=    68.5 A1  freq=  1640. Q=  0.127 lam=    13.2
 104 A1  freq=  1659. Q=  0.071 lam=     4.2 A1  freq=  1674. Q=  0.959 lam=   770.4
 105 A1  freq=  3142. Q= -0.007 lam=     0.1 A1  freq=  3125. Q= -0.010 lam=     0.1
 106 B2  freq=  3144. Q=  0.000 lam=     0.0 B2  freq=  3126. Q=  0.000 lam=     0.0
 107 A1  freq=  3162. Q= -0.002 lam=     0.0 A1  freq=  3167. Q= -0.000 lam=     0.0
 108 B2  freq=  3170. Q= -0.000 lam=     0.0 B2  freq=  3174. Q= -0.000 lam=     0.0
 109 A1  freq=  3181. Q= -0.004 lam=     0.0 A1  freq=  3186. Q= -0.008 lam=     0.1
 110 B2  freq=  3183. Q=  0.000 lam=     0.0 B2  freq=  3187. Q=  0.000 lam=     0.0
 111 A1  freq=  3186. Q= -0.008 lam=     0.1 A1  freq=  3190. Q= -0.008 lam=     0.1
 112 B2  freq=  3191. Q=  0.000 lam=     0.0 B2  freq=  3195. Q=  0.000 lam=     0.0
 113 A1  freq=  3192. Q=  0.003 lam=     0.0 A1  freq=  3196. Q=  0.003 lam=     0.0
 114 B2  freq=  3201. Q= -0.000 lam=     0.0 A1  freq=  3201. Q= -0.009 lam=     0.1
 115 A1  freq=  3202. Q= -0.006 lam=     0.1 B2  freq=  3209. Q= -0.000 lam=     0.0
 116 A1  freq=  3202. Q=  0.001 lam=     0.0 A1  freq=  3210. Q=  0.004 lam=     0.0
 117 B2  freq=  3207. Q=  0.000 lam=     0.0 B2  freq=  3213. Q=  0.000 lam=     0.0
 118 A1  freq=  3209. Q=  0.009 lam=     0.1 A1  freq=  3215. Q=  0.003 lam=     0.0
 119 B2  freq=  3212. Q= -0.000 lam=     0.0 B2  freq=  3219. Q= -0.000 lam=     0.0
 120 A1  freq=  3214. Q= -0.024 lam=     0.9 A1  freq=  3222. Q= -0.027 lam=     1.1

 total reorg energy (cm**-1, kcal/mol)=     1455.     1546.      4.16      4.42
 Nber of molecules processed=           2
