 Enter ifcurve (0=recti, 1=orth curvi, 2=apprx curvi, -1 = skip
 And atom ordering flag, 0= never changes, 1= use the first order thenceforth,
  2= deduce it (does read on fail), 3= always read it
 Reading file: 
 ./TT-PDI_0_C0S2.log                                                            
                                          
  Entering Gaussian System, Link 0=g16                                          
  
 Gaussian format, type: g94, g98, g03= F F F
  #P Geom=AllCheck Guess=TCheck SCRF=Check GenChk RB3LYP TD(FC,Read)/6-3    
 energy type= TD      
 Original G94 input coords:
  6  1.272347  1.037948  0.691014
  6  2.340532  0.123001  0.081772
  6  3.591724  0.876847 -0.382485
  7  2.680839 -1.014173  0.987474
  6  2.377035 -2.311661  0.521561
  8  1.859210 -2.483557 -0.573925
  6  2.710840 -3.435569  1.410247
  6  2.431473 -4.737786  0.997153
  6  2.732862 -5.816440  1.808591
  6  3.329948 -5.650387  3.077519
  6  3.650444 -6.770275  3.935989
  6  3.383676 -8.109494  3.555002
  6  3.690691 -9.167327  4.373411
  6  4.285995 -8.957460  5.631535
  6  4.596752-10.107669  6.445539
  8  4.394061-11.271184  6.137278
  7  5.213301 -9.810004  7.729247
  6  5.548002-10.874156  8.577136
  6  5.807211-12.174723  8.263886
  6  6.055444-12.960107  9.449809
 16  6.439517-14.597703  9.742268
  6  6.545930-14.331882 11.473079
  6  6.288099-13.035676 11.803188
  6  5.988728-12.252826 10.636734
 16  5.604095-10.600364 10.343764
  6  5.493357 -8.492619  8.199195
  8  5.982876 -8.374193  9.328895
  6  5.169709 -7.403744  7.322735
  6  5.441066 -6.085946  7.737177
  6  5.139617 -5.020949  6.926754
  6  4.545297 -5.199483  5.651327
  6  4.226610 -4.079853  4.792119
  6  4.489740 -2.742829  5.163250
  6  4.179875 -1.680818  4.333249
  6  3.590538 -1.898295  3.088645
  6  3.273910 -0.744322  2.230637
  8  3.513656  0.405687  2.577677
  6  3.307632 -3.216526  2.670729
  6  3.624309 -4.325762  3.521064
  6  4.254167 -6.527843  5.208804
  6  4.574106 -7.641919  6.061526
  1  0.952538  1.765420 -0.060776
  1  1.652716  1.574850  1.558965
  1  0.394794  0.458163  0.989166
  1  1.905654 -0.372986 -0.783266
  1  4.068546  1.406486  0.441180
  1  3.308689  1.602316 -1.150771
  1  4.314032  0.186032 -0.825419
  1  1.973678 -4.880192  0.026531
  1  2.498683 -6.807522  1.446558
  1  2.927322 -8.315707  2.597811
  1  3.481542-10.184517  4.068194
  1  5.794193-12.545986  7.254409
  1  6.787882-15.160522 12.118418
  1  6.304050-12.659677 12.816122
  1  5.894218 -5.933355  8.708177
  1  5.364728 -4.025498  7.280521
  1  4.946238 -2.526273  6.118675
  1  4.387144 -0.660513  4.630013
 nber atoms=          59
  Total Energy, E(TD-HF/TD-DFT) =  -2475.62791221                               
  
          32          49 "  -2475.62791221"
After scan for Atom:   Atom  AN      X      Y      Z        X      Y      Z        X      Y      Z   
After scan for Atom:   Atom  AN      X      Y      Z        X      Y      Z        X      Y      Z   
After scan for Atom:   Atom  AN      X      Y      Z        X      Y      Z        X      Y      Z   
After scan for Atom:   Atom  AN      X      Y      Z        X      Y      Z        X      Y      Z   
After scan for Atom:   Atom  AN      X      Y      Z        X      Y      Z        X      Y      Z   
After scan for Atom:   Atom  AN      X      Y      Z        X      Y      Z        X      Y      Z   
After scan for Atom:   Atom  AN      X      Y      Z        X      Y      Z        X      Y      Z   
After scan for Atom:   Atom  AN      X      Y      Z        X      Y      Z        X      Y      Z   
After scan for Atom:   Atom  AN      X      Y      Z        X      Y      Z        X      Y      Z   
After scan for Atom:   Atom  AN      X      Y      Z        X      Y      Z        X      Y      Z   
After scan for Atom:   Atom  AN      X      Y      Z        X      Y      Z        X      Y      Z   
After scan for Atom:   Atom  AN      X      Y      Z        X      Y      Z        X      Y      Z   
After scan for Atom:   Atom  AN      X      Y      Z        X      Y      Z        X      Y      Z   
After scan for Atom:   Atom  AN      X      Y      Z        X      Y      Z        X      Y      Z   
After scan for Atom:   Atom  AN      X      Y      Z        X      Y      Z        X      Y      Z   
After scan for Atom:   Atom  AN      X      Y      Z        X      Y      Z        X      Y      Z   
After scan for Atom:   Atom  AN      X      Y      Z        X      Y      Z        X      Y      Z   
After scan for Atom:   Atom  AN      X      Y      Z        X      Y      Z        X      Y      Z   
After scan for Atom:   Atom  AN      X      Y      Z        X      Y      Z        X      Y      Z   
After scan for Atom:   Atom  AN      X      Y      Z        X      Y      Z        X      Y      Z   
After scan for Atom:   Atom  AN      X      Y      Z        X      Y      Z        X      Y      Z   
After scan for Atom:   Atom  AN      X      Y      Z        X      Y      Z        X      Y      Z   
After scan for Atom:   Atom  AN      X      Y      Z        X      Y      Z        X      Y      Z   
After scan for Atom:   Atom  AN      X      Y      Z        X      Y      Z        X      Y      Z   
After scan for Atom:   Atom  AN      X      Y      Z        X      Y      Z        X      Y      Z   
After scan for Atom:   Atom  AN      X      Y      Z        X      Y      Z        X      Y      Z   
After scan for Atom:   Atom  AN      X      Y      Z        X      Y      Z        X      Y      Z   
After scan for Atom:   Atom  AN      X      Y      Z        X      Y      Z        X      Y      Z   
After scan for Atom:   Atom  AN      X      Y      Z        X      Y      Z        X      Y      Z   
After scan for Atom:   Atom  AN      X      Y      Z        X      Y      Z        X      Y      Z   
After scan for Atom:   Atom  AN      X      Y      Z        X      Y      Z        X      Y      Z   
After scan for Atom:   Atom  AN      X      Y      Z        X      Y      Z        X      Y      Z   
After scan for Atom:   Atom  AN      X      Y      Z        X      Y      Z        X      Y      Z   
After scan for Atom:   Atom  AN      X      Y      Z        X      Y      Z        X      Y      Z   
After scan for Atom:   Atom  AN      X      Y      Z        X      Y      Z        X      Y      Z   
After scan for Atom:   Atom  AN      X      Y      Z        X      Y      Z        X      Y      Z   
After scan for Atom:   Atom  AN      X      Y      Z        X      Y      Z        X      Y      Z   
After scan for Atom:   Atom  AN      X      Y      Z        X      Y      Z        X      Y      Z   
After scan for Atom:   Atom  AN      X      Y      Z        X      Y      Z        X      Y      Z   
After scan for Atom:   Atom  AN      X      Y      Z        X      Y      Z        X      Y      Z   
After scan for Atom:   Atom  AN      X      Y      Z        X      Y      Z        X      Y      Z   
After scan for Atom:   Atom  AN      X      Y      Z        X      Y      Z        X      Y      Z   
After scan for Atom:   Atom  AN      X      Y      Z        X      Y      Z        X      Y      Z   
After scan for Atom:   Atom  AN      X      Y      Z        X      Y      Z        X      Y      Z   
After scan for Atom:   Atom  AN      X      Y      Z        X      Y      Z        X      Y      Z   
After scan for Atom:   Atom  AN      X      Y      Z        X      Y      Z        X      Y      Z   
After scan for Atom:   Atom  AN      X      Y      Z        X      Y      Z        X      Y      Z   
After scan for Atom:   Atom  AN      X      Y      Z        X      Y      Z        X      Y      Z   
After scan for Atom:   Atom  AN      X      Y      Z        X      Y      Z        X      Y      Z   
After scan for Atom:   Atom  AN      X      Y      Z        X      Y      Z        X      Y      Z   
After scan for Atom:   Atom  AN      X      Y      Z        X      Y      Z        X      Y      Z   
After scan for Atom:   Atom  AN      X      Y      Z        X      Y      Z        X      Y      Z   
After scan for Atom:   Atom  AN      X      Y      Z        X      Y      Z        X      Y      Z   
After scan for Atom:   Atom  AN      X      Y      Z        X      Y      Z        X      Y      Z   
After scan for Atom:   Atom  AN      X      Y      Z        X      Y      Z        X      Y      Z   
After scan for Atom:   Atom  AN      X      Y      Z        X      Y      Z        X      Y      Z   
After scan for Atom:   Atom  AN      X      Y      Z        X      Y      Z        X      Y      Z   
 g94    frequencies=
     0.0    0.0    0.0    0.0    0.0    0.0   13.2   21.2   32.1   43.1
    48.6   57.1   61.3   86.1   93.6   97.5  108.6  129.6  145.0  167.4
   169.1  178.3  193.0  196.2  210.4  219.1  234.2  234.4  247.7  262.7
   264.8  300.9  308.3  314.1  330.0  353.1  370.9  394.4  406.3  419.9
   423.8  435.8  443.2  452.4  453.3  461.0  465.6  469.8  482.7  497.7
   500.6  506.6  511.3  517.5  540.7  542.0  579.5  580.2  590.8  592.6
   603.2  621.2  624.3  629.5  659.5  668.4  697.9  708.2  717.0  728.7
   747.2  749.4  756.1  759.2  769.1  785.0  803.9  807.8  814.4  817.9
   819.7  825.3  827.0  834.5  839.4  843.2  851.6  855.2  895.1  905.0
   925.6  943.6  949.1  955.8  970.7  970.8  975.4  981.0  985.7  989.5
  1032.0 1067.1 1083.0 1094.6 1113.1 1136.5 1147.7 1155.2 1164.1 1174.8
  1184.3 1189.8 1200.5 1205.7 1210.3 1226.9 1236.7 1248.5 1262.2 1280.7
  1292.4 1297.5 1316.9 1321.7 1336.5 1359.4 1359.9 1365.8 1373.1 1384.1
  1393.1 1396.6 1397.8 1412.1 1426.1 1439.9 1458.2 1464.5 1471.8 1479.4
  1483.7 1484.2 1496.2 1506.5 1523.4 1535.4 1536.5 1559.3 1576.6 1582.6
  1594.2 1615.5 1617.6 1635.6 1654.8 1685.7 1721.4 1740.2 2174.4 3030.0
  3034.5 3087.3 3090.4 3109.7 3131.7 3141.6 3192.7 3192.9 3199.4 3199.5
  3208.7 3208.7 3222.6 3223.4 3229.2 3264.8 3283.5
 g94    symmetries=
                                                 A      A      A      A
       A      A      A      A      A      A      A      A      A      A
       A      A      A      A      A      A      A      A      A      A
       A      A      A      A      A      A      A      A      A      A
       A      A      A      A      A      A      A      A      A      A
       A      A      A      A      A      A      A      A      A      A
       A      A      A      A      A      A      A      A      A      A
       A      A      A      A      A      A      A      A      A      A
       A      A      A      A      A      A      A      A      A      A
       A      A      A      A      A      A      A      A      A      A
       A      A      A      A      A      A      A      A      A      A
       A      A      A      A      A      A      A      A      A      A
       A      A      A      A      A      A      A      A      A      A
       A      A      A      A      A      A      A      A      A      A
       A      A      A      A      A      A      A      A      A      A
       A      A      A      A      A      A      A      A      A      A
       A      A      A      A      A      A      A      A      A      A
       A      A      A      A      A      A      A
 atomic masses:
 12.0000 12.0000 12.0000 14.0031 12.0000 15.9949 12.0000 12.0000 12.0000 12.0000
 12.0000 12.0000 12.0000 12.0000 12.0000 15.9949 14.0031 12.0000 12.0000 12.0000
 31.9721 12.0000 12.0000 12.0000 31.9721 12.0000 15.9949 12.0000 12.0000 12.0000
 12.0000 12.0000 12.0000 12.0000 12.0000 12.0000 15.9949 12.0000 12.0000 12.0000
 12.0000  1.0078  1.0078  1.0078  1.0078  1.0078  1.0078  1.0078  1.0078  1.0078
  1.0078  1.0078  1.0078  1.0078  1.0078  1.0078  1.0078  1.0078  1.0078
 looking for force constants in 
 ./TT-PDI_0_C0S2.fchk                                                           
  
 Cartesian Force Constants                  R   N=       15753                  
  
 n3=         177       15753
 g94-fc frequencies=
    -3.3   -1.1   -0.0   -0.0    0.0    1.6   13.2   21.2   32.1   43.1
    48.6   57.1   61.3   86.1   93.6   97.5  108.6  129.6  145.0  167.4
   169.1  178.3  193.0  196.2  210.4  219.1  234.2  234.4  247.7  262.7
   264.8  300.9  308.3  314.1  330.0  353.1  370.9  394.4  406.3  419.9
   423.8  435.8  443.2  452.4  453.3  461.0  465.6  469.9  482.7  497.7
   500.6  506.6  511.3  517.5  540.7  542.0  579.5  580.3  590.8  592.6
   603.2  621.2  624.3  629.5  659.5  668.5  698.0  708.2  717.0  728.7
   747.2  749.4  756.1  759.2  769.1  785.0  803.9  807.8  814.5  817.9
   819.7  825.3  827.0  834.5  839.4  843.2  851.7  855.2  895.1  905.0
   925.6  943.6  949.1  955.8  970.7  970.9  975.4  981.0  985.7  989.5
  1032.0 1067.1 1083.0 1094.6 1113.2 1136.5 1147.8 1155.2 1164.2 1174.8
  1184.3 1189.8 1200.5 1205.7 1210.4 1226.9 1236.8 1248.5 1262.2 1280.7
  1292.4 1297.5 1317.0 1321.8 1336.5 1359.5 1359.9 1365.9 1373.1 1384.1
  1393.1 1396.7 1397.9 1412.1 1426.2 1439.9 1458.2 1464.5 1471.8 1479.5
  1483.7 1484.2 1496.3 1506.5 1523.4 1535.4 1536.6 1559.3 1576.7 1582.6
  1594.3 1615.6 1617.7 1635.6 1654.8 1685.8 1721.4 1740.2 2174.4 3030.0
  3034.6 3087.3 3090.5 3109.7 3131.7 3141.6 3192.8 3193.0 3199.5 3199.6
  3208.7 3208.8 3222.6 3223.5 3229.2 3264.8 3283.6
 at 99999: n3=         177
 symm operator            1 :  F  nop=           0
 symm operator            2 :  F  nop=           0
 symm operator            3 :  F  nop=           0
 symm operator            4 :  F  nop=           0
 symm operator            5 :  F  nop=           0
 symm operator            6 :  F  nop=           0
 symm operator            7 :  F  nop=           0
 The point group of the molecule is  C1
 Symmetry rotation matrix:
   1.00000   0.00000   0.00000
   0.00000   1.00000   0.00000
   0.00000   0.00000   1.00000

 Projecting out zero-frequency components
 generating redundant internal coords
         300        3600          59
 search for int coords
   1 str   2   1   1.533
   2 str   3   2   1.533
   3 str   4   2   1.493
   4 str   5   4   1.412
   5 str   6   5   1.224
   6 str   7   5   1.471
   7 str   8   7   1.394
   8 str   9   8   1.383
   9 str  10   9   1.412
  10 str  11  10   1.447
  11 str  12  11   1.418
  12 str  13  12   1.372
  13 str  14  13   1.408
  14 str  15  14   1.443
  15 str  16  15   1.221
  16 str  17  15   1.455
  17 str  18  17   1.401
  18 str  19  18   1.363
  19 str  20  19   1.444
  20 str  21  20   1.707
  21 str  22  21   1.754
  22 str  23  22   1.362
  23 str  24  20   1.383
  24 str  24  21   2.550
  25 str  24  23   1.436
  26 str  25  18   1.789
  27 str  25  24   1.722
  28 str  26  17   1.426
  29 str  27  25   2.476
  30 str  27  26   1.237
  31 str  28  26   1.435
  32 str  29  28   1.408
  33 str  30  29   1.372
  34 str  31  30   1.418
  35 str  32  31   1.447
  36 str  33  32   1.412
  37 str  34  33   1.383
  38 str  35  34   1.394
  39 str  36   4   1.404
  40 str  36  35   1.472
  41 str  37  36   1.225
  42 str  38   7   1.412
  43 str  38  35   1.412
  44 str  39  10   1.428
  45 str  39  32   1.428
  46 str  39  38   1.433
  47 str  40  11   1.429
  48 str  40  31   1.430
  49 str  41  14   1.414
  50 str  41  28   1.415
  51 str  41  40   1.439
  52 str  42   1   1.094
  53 str  43   1   1.089
  54 str  44   1   1.093
  55 str  45   2   1.088
  56 str  46   3   1.089
  57 str  47   3   1.094
  58 str  48   3   1.093
  59 str  49   8   1.083
  60 str  50   9   1.081
  61 str  51  12   1.080
  62 str  52  13   1.082
  63 str  53  19   1.076
  64 str  54  22   1.078
  65 str  55  23   1.081
  66 str  56  29   1.082
  67 str  57  30   1.080
  68 str  58  33   1.081
  69 str  59  34   1.083
 nber stretches=          69
  70 ben   1   2   3
  71 prop tor   1   2   3  46
  72 prop tor   1   2   3  47
  73 prop tor   1   2   3  48
  74 ben   1   2   4
  75 prop tor   1   2   4   5
  76 prop tor   1   2   4  36
  77 ben   1   2  45
  78 ben   2   1  42
  79 ben   2   1  43
  80 ben   2   1  44
  81 ben   2   3  46
  82 ben   2   3  47
  83 ben   2   3  48
  84 ben   2   4   5
  85 prop tor   2   4   5   6
  86 prop tor   2   4   5   7
  87 ben   2   4  36
  88 prop tor   2   4  36  35
  89 prop tor   2   4  36  37
  90 ben   3   2   4
  91 prop tor   3   2   4   5
  92 prop tor   3   2   4  36
  93 ben   3   2  45
  94 prop tor   4   2   3  46
  95 prop tor   4   2   3  47
  96 prop tor   4   2   3  48
  97 ben   4   2  45
  98 ben   4   5   6
  99 ben   4   5   7
 100 prop tor   4   5   7   8
 101 prop tor   4   5   7  38
 102 ben   4  36  35
 103 ben   4  36  37
 104 ben   5   4  36
 105 prop tor   5   4  36  35
 106 prop tor   5   4  36  37
 107 ben   5   7   8
 108 prop tor   5   7   8   9
 109 prop tor   5   7   8  49
 110 ben   5   7  38
 111 prop tor   5   7  38  35
 112 prop tor   5   7  38  39
 113 ben   6   5   7
 114 prop tor   6   5   7   8
 115 prop tor   6   5   7  38
 116 ben   7   8   9
 117 prop tor   7   8   9  10
 118 prop tor   7   8   9  50
 119 ben   7   8  49
 120 ben   7  38  35
 121 ben   7  38  39
 122 prop tor   7  38  39  10
 123 prop tor   7  38  39  32
 124 ben   8   7  38
 125 prop tor   8   7  38  35
 126 prop tor   8   7  38  39
 127 ben   8   9  10
 128 prop tor   8   9  10  11
 129 prop tor   8   9  10  39
 130 ben   8   9  50
 131 ben   9   8  49
 132 ben   9  10  11
 133 prop tor   9  10  11  12
 134 prop tor   9  10  11  40
 135 ben   9  10  39
 136 prop tor   9  10  39  32
 137 prop tor   9  10  39  38
 138 ben  10   9  50
 139 ben  10  11  12
 140 prop tor  10  11  12  13
 141 prop tor  10  11  12  51
 142 ben  10  11  40
 143 prop tor  10  11  40  31
 144 prop tor  10  11  40  41
 145 ben  10  39  32
 146 ben  10  39  38
 147 ben  11  10  39
 148 prop tor  11  10  39  32
 149 prop tor  11  10  39  38
 150 ben  11  12  13
 151 prop tor  11  12  13  14
 152 prop tor  11  12  13  52
 153 ben  11  12  51
 154 ben  11  40  31
 155 ben  11  40  41
 156 prop tor  11  40  41  14
 157 prop tor  11  40  41  28
 158 ben  12  11  40
 159 prop tor  12  11  40  31
 160 prop tor  12  11  40  41
 161 ben  12  13  14
 162 prop tor  12  13  14  15
 163 prop tor  12  13  14  41
 164 ben  12  13  52
 165 ben  13  12  51
 166 ben  13  14  15
 167 prop tor  13  14  15  16
 168 prop tor  13  14  15  17
 169 ben  13  14  41
 170 prop tor  13  14  41  28
 171 prop tor  13  14  41  40
 172 ben  14  13  52
 173 ben  14  15  16
 174 ben  14  15  17
 175 prop tor  14  15  17  18
 176 prop tor  14  15  17  26
 177 ben  14  41  28
 178 ben  14  41  40
 179 ben  15  14  41
 180 prop tor  15  14  41  28
 181 prop tor  15  14  41  40
 182 ben  15  17  18
 183 prop tor  15  17  18  19
 184 prop tor  15  17  18  25
 185 ben  15  17  26
 186 prop tor  15  17  26  27
 187 prop tor  15  17  26  28
 188 ben  16  15  17
 189 prop tor  16  15  17  18
 190 prop tor  16  15  17  26
 191 ben  17  18  19
 192 prop tor  17  18  19  20
 193 prop tor  17  18  19  53
 194 ben  17  18  25
 195 prop tor  17  18  25  24
 196 prop tor  17  18  25  27
 197 ben  17  26  27
 198 prop tor  17  26  27  25
 199 ben  17  26  28
 200 prop tor  17  26  28  29
 201 prop tor  17  26  28  41
 202 ben  18  17  26
 203 prop tor  18  17  26  27
 204 prop tor  18  17  26  28
 205 ben  18  19  20
 206 prop tor  18  19  20  21
 207 prop tor  18  19  20  24
 208 ben  18  19  53
 209 ben  18  25  24
 210 ben  18  25  27
 211 prop tor  18  25  27  26
 212 ben  19  18  25
 213 prop tor  19  18  25  24
 214 prop tor  19  18  25  27
 215 ben  19  20  21
 216 prop tor  19  20  21  22
 217 prop tor  19  20  21  24
 218 ben  19  20  24
 219 prop tor  19  20  24  21
 220 prop tor  19  20  24  23
 221 prop tor  19  20  24  25
 222 ben  20  19  53
 223 ben  20  21  22
 224 prop tor  20  21  22  23
 225 prop tor  20  21  22  54
 226 ben  20  21  24
 227 prop tor  20  21  24  23
 228 prop tor  20  21  24  25
 229 ben  20  24  21
 230 ben  20  24  23
 231 ben  20  24  25
 232 prop tor  20  24  25  18
 233 prop tor  20  24  25  27
 234 ben  21  20  24
 235 prop tor  21  20  24  23
 236 prop tor  21  20  24  25
 237 ben  21  22  23
 238 prop tor  21  22  23  24
 239 prop tor  21  22  23  55
 240 ben  21  22  54
 241 ben  21  24  23
 242 ben  21  24  25
 243 prop tor  21  24  25  18
 244 prop tor  21  24  25  27
 245 ben  22  21  24
 246 prop tor  22  21  24  20
 247 prop tor  22  21  24  23
 248 prop tor  22  21  24  25
 249 ben  22  23  24
 250 prop tor  22  23  24  20
 251 prop tor  22  23  24  21
 252 prop tor  22  23  24  25
 253 ben  22  23  55
 254 ben  23  22  54
 255 ben  23  24  25
 256 prop tor  23  24  25  18
 257 prop tor  23  24  25  27
 258 prop tor  24  20  21  22
 259 prop tor  24  21  22  23
 260 prop tor  24  21  22  54
 261 ben  24  23  55
 262 ben  24  25  27
 263 prop tor  24  25  27  26
 264 prop tor  25  18  19  20
 265 prop tor  25  18  19  53
 266 ben  25  27  26
 267 prop tor  26  17  18  19
 268 prop tor  26  17  18  25
 269 ben  26  28  29
 270 prop tor  26  28  29  30
 271 prop tor  26  28  29  56
 272 ben  26  28  41
 273 prop tor  26  28  41  14
 274 prop tor  26  28  41  40
 275 ben  27  26  28
 276 prop tor  27  26  28  29
 277 prop tor  27  26  28  41
 278 prop tor  28  26  27  25
 279 ben  28  29  30
 280 prop tor  28  29  30  31
 281 prop tor  28  29  30  57
 282 ben  28  29  56
 283 ben  28  41  40
 284 ben  29  28  41
 285 prop tor  29  28  41  14
 286 prop tor  29  28  41  40
 287 ben  29  30  31
 288 prop tor  29  30  31  32
 289 prop tor  29  30  31  40
 290 ben  29  30  57
 291 ben  30  29  56
 292 ben  30  31  32
 293 prop tor  30  31  32  33
 294 prop tor  30  31  32  39
 295 ben  30  31  40
 296 prop tor  30  31  40  11
 297 prop tor  30  31  40  41
 298 ben  31  30  57
 299 ben  31  32  33
 300 prop tor  31  32  33  34
 301 prop tor  31  32  33  58
 302 ben  31  32  39
 303 prop tor  31  32  39  10
 304 prop tor  31  32  39  38
 305 ben  31  40  41
 306 prop tor  31  40  41  14
 307 prop tor  31  40  41  28
 308 ben  32  31  40
 309 prop tor  32  31  40  11
 310 prop tor  32  31  40  41
 311 ben  32  33  34
 312 prop tor  32  33  34  35
 313 prop tor  32  33  34  59
 314 ben  32  33  58
 315 ben  32  39  38
 316 ben  33  32  39
 317 prop tor  33  32  39  10
 318 prop tor  33  32  39  38
 319 ben  33  34  35
 320 prop tor  33  34  35  36
 321 prop tor  33  34  35  38
 322 ben  33  34  59
 323 ben  34  33  58
 324 ben  34  35  36
 325 prop tor  34  35  36   4
 326 prop tor  34  35  36  37
 327 ben  34  35  38
 328 prop tor  34  35  38   7
 329 prop tor  34  35  38  39
 330 ben  35  34  59
 331 ben  35  36  37
 332 ben  35  38  39
 333 prop tor  35  38  39  10
 334 prop tor  35  38  39  32
 335 prop tor  36   4   5   6
 336 prop tor  36   4   5   7
 337 ben  36  35  38
 338 prop tor  36  35  38   7
 339 prop tor  36  35  38  39
 340 prop tor  38   7   8   9
 341 prop tor  38   7   8  49
 342 prop tor  38  35  36   4
 343 prop tor  38  35  36  37
 344 prop tor  39  10  11  12
 345 prop tor  39  10  11  40
 346 prop tor  39  32  33  34
 347 prop tor  39  32  33  58
 348 prop tor  40  11  12  13
 349 prop tor  40  11  12  51
 350 prop tor  40  31  32  33
 351 prop tor  40  31  32  39
 352 prop tor  41  14  15  16
 353 prop tor  41  14  15  17
 354 prop tor  41  28  29  30
 355 prop tor  41  28  29  56
 356 prop tor  42   1   2   3
 357 prop tor  42   1   2   4
 358 prop tor  42   1   2  45
 359 ben  42   1  43
 360 ben  42   1  44
 361 prop tor  43   1   2   3
 362 prop tor  43   1   2   4
 363 prop tor  43   1   2  45
 364 ben  43   1  44
 365 prop tor  44   1   2   3
 366 prop tor  44   1   2   4
 367 prop tor  44   1   2  45
 368 prop tor  45   2   3  46
 369 prop tor  45   2   3  47
 370 prop tor  45   2   3  48
 371 prop tor  45   2   4   5
 372 prop tor  45   2   4  36
 373 ben  46   3  47
 374 ben  46   3  48
 375 ben  47   3  48
 376 prop tor  49   8   9  10
 377 prop tor  49   8   9  50
 378 prop tor  50   9  10  11
 379 prop tor  50   9  10  39
 380 prop tor  51  12  13  14
 381 prop tor  51  12  13  52
 382 prop tor  52  13  14  15
 383 prop tor  52  13  14  41
 384 prop tor  53  19  20  21
 385 prop tor  53  19  20  24
 386 prop tor  54  22  23  24
 387 prop tor  54  22  23  55
 388 prop tor  55  23  24  20
 389 prop tor  55  23  24  21
 390 prop tor  55  23  24  25
 391 prop tor  56  29  30  31
 392 prop tor  56  29  30  57
 393 prop tor  57  30  31  32
 394 prop tor  57  30  31  40
 395 prop tor  58  33  34  35
 396 prop tor  58  33  34  59
 397 prop tor  59  34  35  36
 398 prop tor  59  34  35  38
 nber bend=             124
 nber lin bend=           0
 nber prop tor=         205
 nber impr tor=           0
 nber tot redund int=         398
 Eigenvalues of G in red int coords
    Gval -0.00000000 -0.00000000 -0.00000000 -0.00000000 -0.00000000 -0.00000000 -0.00000000 -0.00000000
    Gval -0.00000000 -0.00000000 -0.00000000 -0.00000000 -0.00000000 -0.00000000 -0.00000000 -0.00000000
    Gval -0.00000000 -0.00000000 -0.00000000 -0.00000000 -0.00000000 -0.00000000 -0.00000000 -0.00000000
    Gval -0.00000000 -0.00000000 -0.00000000 -0.00000000 -0.00000000 -0.00000000 -0.00000000 -0.00000000
    Gval -0.00000000 -0.00000000 -0.00000000 -0.00000000 -0.00000000 -0.00000000 -0.00000000 -0.00000000
    Gval -0.00000000 -0.00000000 -0.00000000 -0.00000000 -0.00000000 -0.00000000 -0.00000000 -0.00000000
    Gval -0.00000000 -0.00000000 -0.00000000 -0.00000000 -0.00000000 -0.00000000 -0.00000000 -0.00000000
    Gval -0.00000000 -0.00000000 -0.00000000 -0.00000000 -0.00000000 -0.00000000 -0.00000000 -0.00000000
    Gval -0.00000000 -0.00000000 -0.00000000 -0.00000000 -0.00000000 -0.00000000 -0.00000000 -0.00000000
    Gval -0.00000000 -0.00000000 -0.00000000 -0.00000000 -0.00000000 -0.00000000 -0.00000000 -0.00000000
    Gval -0.00000000 -0.00000000 -0.00000000 -0.00000000 -0.00000000 -0.00000000 -0.00000000 -0.00000000
    Gval -0.00000000 -0.00000000 -0.00000000 -0.00000000 -0.00000000 -0.00000000 -0.00000000 -0.00000000
    Gval -0.00000000 -0.00000000 -0.00000000 -0.00000000 -0.00000000 -0.00000000 -0.00000000 -0.00000000
    Gval -0.00000000 -0.00000000 -0.00000000 -0.00000000 -0.00000000 -0.00000000 -0.00000000 -0.00000000
    Gval -0.00000000 -0.00000000 -0.00000000 -0.00000000  0.00000000  0.00000000  0.00000000  0.00000000
    Gval  0.00000000  0.00000000  0.00000000  0.00000000  0.00000000  0.00000000  0.00000000  0.00000000
    Gval  0.00000000  0.00000000  0.00000000  0.00000000  0.00000000  0.00000000  0.00000000  0.00000000
    Gval  0.00000000  0.00000000  0.00000000  0.00000000  0.00000000  0.00000000  0.00000000  0.00000000
    Gval  0.00000000  0.00000000  0.00000000  0.00000000  0.00000000  0.00000000  0.00000000  0.00000000
    Gval  0.00000000  0.00000000  0.00000000  0.00000000  0.00000000  0.00000000  0.00000000  0.00000000
    Gval  0.00000000  0.00000000  0.00000000  0.00000000  0.00000000  0.00000000  0.00000000  0.00000000
    Gval  0.00000000  0.00000000  0.00000000  0.00000000  0.00000000  0.00000000  0.00000000  0.00000000
    Gval  0.00000000  0.00000000  0.00000000  0.00000000  0.00000000  0.00000000  0.00000000  0.00000000
    Gval  0.00000000  0.00000000  0.00000000  0.00000000  0.00000000  0.00000000  0.00000000  0.00000000
    Gval  0.00000000  0.00000000  0.00000000  0.00000000  0.00000000  0.00000000  0.00000000  0.00000000
    Gval  0.00000000  0.00000000  0.00000000  0.00000000  0.00000000  0.00000000  0.00000000  0.00000000
    Gval  0.00000000  0.00000000  0.00000000  0.00000000  0.00000000  0.00000000  0.00000000  0.00000000
    Gval  0.00000000  0.00000000  0.00000000  0.00000000  0.00000000  0.00000000  0.00000000  0.00000000
    Gval  0.00000000  0.00000000  0.00000000  0.00000048  0.00000098  0.00000158  0.00000250  0.00000483
    Gval  0.00000559  0.00000730  0.00000791  0.00000943  0.00001233  0.00001261  0.00001572  0.00001606
    Gval  0.00001760  0.00001830  0.00001901  0.00002149  0.00002265  0.00002410  0.00002478  0.00002523
    Gval  0.00002807  0.00003029  0.00003468  0.00003995  0.00004047  0.00004469  0.00004697  0.00004840
    Gval  0.00004942  0.00005145  0.00005354  0.00005479  0.00006139  0.00006278  0.00006312  0.00006811
    Gval  0.00007046  0.00007204  0.00007468  0.00007837  0.00008156  0.00008235  0.00008497  0.00008665
    Gval  0.00008873  0.00009380  0.00009602  0.00009835  0.00010448  0.00010943  0.00011642  0.00012087
    Gval  0.00012643  0.00013633  0.00013831  0.00013925  0.00014053  0.00015897  0.00015919  0.00016509
    Gval  0.00016790  0.00017925  0.00018394  0.00020131  0.00020274  0.00020499  0.00021888  0.00022446
    Gval  0.00022958  0.00023673  0.00025452  0.00026707  0.00028422  0.00029190  0.00030169  0.00030913
    Gval  0.00034627  0.00036177  0.00037020  0.00038256  0.00038646  0.00039088  0.00039478  0.00040998
    Gval  0.00042424  0.00043052  0.00043142  0.00043632  0.00044176  0.00044179  0.00044254  0.00045924
    Gval  0.00046397  0.00046990  0.00047277  0.00048812  0.00049553  0.00053321  0.00053728  0.00053796
    Gval  0.00055371  0.00055570  0.00055594  0.00056347  0.00059808  0.00059853  0.00059925  0.00059959
    Gval  0.00059986  0.00060221  0.00062087  0.00062903  0.00062994  0.00064144  0.00064491  0.00064575
    Gval  0.00064750  0.00067090  0.00069398  0.00069709  0.00077654  0.00080682  0.00081601  0.00090654
    Gval  0.00099278  0.00108876  0.00109370  0.00109465  0.00109532  0.00109587  0.00109728  0.00114592
    Gval  0.00115490  0.00116432  0.00116483  0.00116631  0.00116692  0.00116893  0.00116952  0.00119142
    Gval  0.00123404  0.00129130  0.00129255  0.00132928  0.00145067  0.00152110  0.00165114  0.00173488
    Gval  0.00185227  0.00195137  0.00227897  0.00234596  0.00236394  0.00252325  0.00254539  0.00258427
    Gval  0.00278174  0.00292456  0.00302232  0.00304262  0.00306872  0.00308279  0.00309235  0.00366457
    Gval  0.00366800  0.00371101  0.00371500  0.00371597  0.00393438  0.00489445
  4.779047738121929E-007  4.779047738121929E-007
  9.781869354995558E-007  4.779047738121929E-007
  1.577043835400140E-006  4.779047738121929E-007
  2.496851874517670E-006  4.779047738121929E-007
  4.832090247349981E-006  4.779047738121929E-007
  5.593080763215888E-006  4.779047738121929E-007
  7.301586754166238E-006  4.779047738121929E-007
  7.911510164929920E-006  4.779047738121929E-007
  9.433743371504358E-006  4.779047738121929E-007
  1.232875359946688E-005  4.779047738121929E-007
  1.261092025945082E-005  4.779047738121929E-007
  1.572354014805953E-005  4.779047738121929E-007
  1.605766510070477E-005  4.779047738121929E-007
  1.760223858779536E-005  4.779047738121929E-007
  1.830148738266659E-005  4.779047738121929E-007
  1.901102967347388E-005  4.779047738121929E-007
  2.149232475830129E-005  4.779047738121929E-007
  2.265441339852310E-005  4.779047738121929E-007
  2.409561973787606E-005  4.779047738121929E-007
  2.477591174859562E-005  4.779047738121929E-007
  2.523329386096257E-005  4.779047738121929E-007
  2.807406329234321E-005  4.779047738121929E-007
  3.029055311298150E-005  4.779047738121929E-007
  3.468027408400501E-005  4.779047738121929E-007
  3.994848912553316E-005  4.779047738121929E-007
  4.047379471678052E-005  4.779047738121929E-007
  4.469207061081004E-005  4.779047738121929E-007
  4.697052049658114E-005  4.779047738121929E-007
  4.840118533454957E-005  4.779047738121929E-007
  4.942019812472457E-005  4.779047738121929E-007
  5.145257243762177E-005  4.779047738121929E-007
  5.354246528901029E-005  4.779047738121929E-007
  5.478811614419182E-005  4.779047738121929E-007
  6.139397136313584E-005  4.779047738121929E-007
  6.278450990169262E-005  4.779047738121929E-007
  6.311601942589676E-005  4.779047738121929E-007
  6.811354116903954E-005  4.779047738121929E-007
  7.046469912341569E-005  4.779047738121929E-007
  7.203726081451095E-005  4.779047738121929E-007
  7.468449604050420E-005  4.779047738121929E-007
  7.837077423652470E-005  4.779047738121929E-007
  8.155797983620889E-005  4.779047738121929E-007
  8.234648695742810E-005  4.779047738121929E-007
  8.497041219130235E-005  4.779047738121929E-007
  8.665346558695607E-005  4.779047738121929E-007
  8.872847362738306E-005  4.779047738121929E-007
  9.380170599843306E-005  4.779047738121929E-007
  9.601828020819066E-005  4.779047738121929E-007
  9.834880636575294E-005  4.779047738121929E-007
  1.044826600866371E-004  4.779047738121929E-007
  1.094291063181873E-004  4.779047738121929E-007
  1.164183253747531E-004  4.779047738121929E-007
  1.208702647434244E-004  4.779047738121929E-007
  1.264339979527408E-004  4.779047738121929E-007
  1.363263306439402E-004  4.779047738121929E-007
  1.383141207433918E-004  4.779047738121929E-007
  1.392468600676795E-004  4.779047738121929E-007
  1.405300849627278E-004  4.779047738121929E-007
  1.589684592659581E-004  4.779047738121929E-007
  1.591922743202457E-004  4.779047738121929E-007
  1.650928975413777E-004  4.779047738121929E-007
  1.679020881229730E-004  4.779047738121929E-007
  1.792542693121331E-004  4.779047738121929E-007
  1.839403693484465E-004  4.779047738121929E-007
  2.013064231608035E-004  4.779047738121929E-007
  2.027375576073137E-004  4.779047738121929E-007
  2.049870537741539E-004  4.779047738121929E-007
  2.188757579507169E-004  4.779047738121929E-007
  2.244587382534154E-004  4.779047738121929E-007
  2.295827174554452E-004  4.779047738121929E-007
  2.367331773139625E-004  4.779047738121929E-007
  2.545200290860858E-004  4.779047738121929E-007
  2.670698831197663E-004  4.779047738121929E-007
  2.842194461254951E-004  4.779047738121929E-007
  2.919048491108028E-004  4.779047738121929E-007
  3.016875088286798E-004  4.779047738121929E-007
  3.091304679449294E-004  4.779047738121929E-007
  3.462660186154703E-004  4.779047738121929E-007
  3.617680831059954E-004  4.779047738121929E-007
  3.701962957372447E-004  4.779047738121929E-007
  3.825609947092465E-004  4.779047738121929E-007
  3.864586151488873E-004  4.779047738121929E-007
  3.908769308201195E-004  4.779047738121929E-007
  3.947823534756337E-004  4.779047738121929E-007
  4.099820888253411E-004  4.779047738121929E-007
  4.242421175857724E-004  4.779047738121929E-007
  4.305178689581476E-004  4.779047738121929E-007
  4.314185852849373E-004  4.779047738121929E-007
  4.363159440647578E-004  4.779047738121929E-007
  4.417563801900864E-004  4.779047738121929E-007
  4.417905827918291E-004  4.779047738121929E-007
  4.425424964099396E-004  4.779047738121929E-007
  4.592440608235939E-004  4.779047738121929E-007
  4.639718827685945E-004  4.779047738121929E-007
  4.698974655393239E-004  4.779047738121929E-007
  4.727654097744642E-004  4.779047738121929E-007
  4.881212493752691E-004  4.779047738121929E-007
  4.955320278452430E-004  4.779047738121929E-007
  5.332059839833027E-004  4.779047738121929E-007
  5.372797821500739E-004  4.779047738121929E-007
  5.379615199283442E-004  4.779047738121929E-007
  5.537135066293656E-004  4.779047738121929E-007
  5.557024653003802E-004  4.779047738121929E-007
  5.559431389155989E-004  4.779047738121929E-007
  5.634717215767022E-004  4.779047738121929E-007
  5.980751682025771E-004  4.779047738121929E-007
  5.985327497061096E-004  4.779047738121929E-007
  5.992496995516084E-004  4.779047738121929E-007
  5.995873700034370E-004  4.779047738121929E-007
  5.998623280322411E-004  4.779047738121929E-007
  6.022108494966328E-004  4.779047738121929E-007
  6.208661278075631E-004  4.779047738121929E-007
  6.290349514243644E-004  4.779047738121929E-007
  6.299421368147266E-004  4.779047738121929E-007
  6.414431555486980E-004  4.779047738121929E-007
  6.449072005628208E-004  4.779047738121929E-007
  6.457496321198912E-004  4.779047738121929E-007
  6.474970311591613E-004  4.779047738121929E-007
  6.708965885588313E-004  4.779047738121929E-007
  6.939805283874541E-004  4.779047738121929E-007
  6.970903104206772E-004  4.779047738121929E-007
  7.765363399539335E-004  4.779047738121929E-007
  8.068198425618631E-004  4.779047738121929E-007
  8.160075805659001E-004  4.779047738121929E-007
  9.065383735317718E-004  4.779047738121929E-007
  9.927827368498869E-004  4.779047738121929E-007
  1.088763948009378E-003  4.779047738121929E-007
  1.093700365856990E-003  4.779047738121929E-007
  1.094653530550186E-003  4.779047738121929E-007
  1.095319389374356E-003  4.779047738121929E-007
  1.095873843059038E-003  4.779047738121929E-007
  1.097280213846237E-003  4.779047738121929E-007
  1.145923841568908E-003  4.779047738121929E-007
  1.154902027172976E-003  4.779047738121929E-007
  1.164320517678771E-003  4.779047738121929E-007
  1.164831295360088E-003  4.779047738121929E-007
  1.166305244613759E-003  4.779047738121929E-007
  1.166920770263778E-003  4.779047738121929E-007
  1.168930223903510E-003  4.779047738121929E-007
  1.169524853707997E-003  4.779047738121929E-007
  1.191421314266992E-003  4.779047738121929E-007
  1.234043433209454E-003  4.779047738121929E-007
  1.291303330932808E-003  4.779047738121929E-007
  1.292546563091562E-003  4.779047738121929E-007
  1.329277926549057E-003  4.779047738121929E-007
  1.450668515362690E-003  4.779047738121929E-007
  1.521098486727248E-003  4.779047738121929E-007
  1.651140332730204E-003  4.779047738121929E-007
  1.734878063417594E-003  4.779047738121929E-007
  1.852272050888744E-003  4.779047738121929E-007
  1.951368219145322E-003  4.779047738121929E-007
  2.278971662784956E-003  4.779047738121929E-007
  2.345958115677206E-003  4.779047738121929E-007
  2.363940604107441E-003  4.779047738121929E-007
  2.523248780550066E-003  4.779047738121929E-007
  2.545389124271350E-003  4.779047738121929E-007
  2.584268965676539E-003  4.779047738121929E-007
  2.781742053162164E-003  4.779047738121929E-007
  2.924555362680475E-003  4.779047738121929E-007
  3.022316918922553E-003  4.779047738121929E-007
  3.042623207909575E-003  4.779047738121929E-007
  3.068722027173400E-003  4.779047738121929E-007
  3.082792495387754E-003  4.779047738121929E-007
  3.092354138400918E-003  4.779047738121929E-007
  3.664571621722767E-003  4.779047738121929E-007
  3.667998604561346E-003  4.779047738121929E-007
  3.711005898321506E-003  4.779047738121929E-007
  3.714996347402625E-003  4.779047738121929E-007
  3.715970268036695E-003  4.779047738121929E-007
  3.934381387258813E-003  4.779047738121929E-007
  4.894450735891984E-003  4.779047738121929E-007
 cut=1d-8, nber non-redundant internal coords=         171
 Check on Eigenvals of non-red overlap matrix:
  0.00000048  0.00000098  0.00000158  0.00000250  0.00000483  0.00000559  0.00000730  0.00000791
  0.00000943  0.00001233  0.00001261  0.00001572  0.00001606  0.00001760  0.00001830  0.00001901
  0.00002149  0.00002265  0.00002410  0.00002478  0.00002523  0.00002807  0.00003029  0.00003468
  0.00003995  0.00004047  0.00004469  0.00004697  0.00004840  0.00004942  0.00005145  0.00005354
  0.00005479  0.00006139  0.00006278  0.00006312  0.00006811  0.00007046  0.00007204  0.00007468
  0.00007837  0.00008156  0.00008235  0.00008497  0.00008665  0.00008873  0.00009380  0.00009602
  0.00009835  0.00010448  0.00010943  0.00011642  0.00012087  0.00012643  0.00013633  0.00013831
  0.00013925  0.00014053  0.00015897  0.00015919  0.00016509  0.00016790  0.00017925  0.00018394
  0.00020131  0.00020274  0.00020499  0.00021888  0.00022446  0.00022958  0.00023673  0.00025452
  0.00026707  0.00028422  0.00029190  0.00030169  0.00030913  0.00034627  0.00036177  0.00037020
  0.00038256  0.00038646  0.00039088  0.00039478  0.00040998  0.00042424  0.00043052  0.00043142
  0.00043632  0.00044176  0.00044179  0.00044254  0.00045924  0.00046397  0.00046990  0.00047277
  0.00048812  0.00049553  0.00053321  0.00053728  0.00053796  0.00055371  0.00055570  0.00055594
  0.00056347  0.00059808  0.00059853  0.00059925  0.00059959  0.00059986  0.00060221  0.00062087
  0.00062903  0.00062994  0.00064144  0.00064491  0.00064575  0.00064750  0.00067090  0.00069398
  0.00069709  0.00077654  0.00080682  0.00081601  0.00090654  0.00099278  0.00108876  0.00109370
  0.00109465  0.00109532  0.00109587  0.00109728  0.00114592  0.00115490  0.00116432  0.00116483
  0.00116631  0.00116692  0.00116893  0.00116952  0.00119142  0.00123404  0.00129130  0.00129255
  0.00132928  0.00145067  0.00152110  0.00165114  0.00173488  0.00185227  0.00195137  0.00227897
  0.00234596  0.00236394  0.00252325  0.00254539  0.00258427  0.00278174  0.00292456  0.00302232
  0.00304262  0.00306872  0.00308279  0.00309235  0.00366457  0.00366800  0.00371101  0.00371500
  0.00371597  0.00393438  0.00489445
 Checking for correct frequencies
 recalc frequencies=
    -0.0   -0.0    0.0    0.0    0.0    0.0   13.2   21.2   32.1   43.1
    48.6   57.1   61.3   86.1   93.6   97.5  108.6  129.6  145.0  167.4
   169.1  178.3  193.0  196.2  210.4  219.1  234.2  234.4  247.7  262.7
   264.8  300.9  308.3  314.1  330.0  353.1  370.9  394.4  406.3  419.9
   423.8  435.8  443.2  452.4  453.3  461.0  465.6  469.9  482.7  497.7
   500.6  506.6  511.3  517.5  540.7  542.0  579.5  580.3  590.8  592.6
   603.2  621.2  624.3  629.5  659.5  668.5  698.0  708.2  717.0  728.7
   747.2  749.4  756.1  759.2  769.1  785.0  803.9  807.8  814.5  817.9
   819.7  825.3  827.0  834.5  839.4  843.2  851.7  855.2  895.1  905.0
   925.6  943.6  949.1  955.8  970.7  970.9  975.4  981.0  985.7  989.5
  1032.0 1067.1 1083.0 1094.6 1113.2 1136.5 1147.8 1155.2 1164.2 1174.8
  1184.3 1189.8 1200.5 1205.7 1210.4 1226.9 1236.8 1248.5 1262.2 1280.7
  1292.4 1297.5 1317.0 1321.8 1336.5 1359.5 1359.9 1365.9 1373.1 1384.1
  1393.1 1396.7 1397.9 1412.1 1426.2 1439.9 1458.2 1464.5 1471.8 1479.5
  1483.7 1484.2 1496.3 1506.5 1523.4 1535.4 1536.6 1559.3 1576.7 1582.6
  1594.3 1615.6 1617.7 1635.6 1654.8 1685.8 1721.4 1740.2 2174.4 3030.0
  3034.6 3087.3 3090.5 3109.7 3131.7 3141.6 3192.8 3193.0 3199.5 3199.6
  3208.7 3208.8 3222.6 3223.5 3229.2 3264.8 3283.6
 recalc symmetries=
                                                                       
                                                                       
                                                                       
                                                                       
                                                                       
                                                                       
                                                                       
                                                                       
                                                                       
                                                                       
                                                                       
                                                                       
                                                                       
                                                                       
                                                                       
                                                                       
                                                                       
                                                  
 recalc freqs check OK
 Zero-point lengths:
 10.0000 10.0000 10.0000 10.0000 10.0000 10.0000 68.1274 53.8601 43.7877 37.7545
 35.5772 32.7942 31.6516 26.7129 25.6196 25.1066 23.7893 21.7778 20.5850 19.1584
 19.0624 18.5676 17.8444 17.6977 17.0909 16.7486 16.2010 16.1935 15.7505 15.2944
 15.2340 14.2914 14.1185 13.9885 13.6465 13.1925 12.8727 12.4835 12.2992 12.0975
 12.0425 11.8751 11.7762 11.6556 11.6440 11.5466 11.4896 11.4371 11.2840 11.1121
 11.0803 11.0140 10.9637 10.8976 10.6614 10.6483 10.2981 10.2917 10.1991 10.1841
 10.0942  9.9468  9.9218  9.8809  9.6533  9.5886  9.3838  9.3159  9.2583  9.1837
  9.0696  9.0558  9.0160  8.9975  8.9394  8.8481  8.7434  8.7227  8.6868  8.6683
  8.6591  8.6297  8.6207  8.5818  8.5565  8.5374  8.4949  8.4774  8.2862  8.2409
  8.1484  8.0704  8.0470  8.0188  7.9572  7.9564  7.9377  7.9150  7.8961  7.8812
  7.7171  7.5891  7.5331  7.4932  7.4305  7.3538  7.3176  7.2939  7.2659  7.2329
  7.2039  7.1872  7.1550  7.1397  7.1259  7.0776  7.0494  7.0161  6.9780  6.9274
  6.8959  6.8825  6.8314  6.8190  6.7812  6.7238  6.7226  6.7080  6.6902  6.6637
  6.6420  6.6336  6.6307  6.5973  6.5647  6.5333  6.4921  6.4781  6.4621  6.4453
  6.4361  6.4350  6.4090  6.3872  6.3516  6.3268  6.3244  6.2781  6.2435  6.2317
  6.2089  6.1678  6.1639  6.1299  6.0943  6.0381  5.9752  5.9429  5.3165  4.5037
  4.5003  4.4617  4.4595  4.4457  4.4300  4.4230  4.3874  4.3873  4.3829  4.3828
  4.3765  4.3765  4.3671  4.3665  4.3626  4.3387  4.3264
 highest evec of mol 1
  0.0000 -0.0000  0.0000
  0.0000 -0.0000  0.0000
 -0.0000  0.0000  0.0000
 -0.0000  0.0000 -0.0000
  0.0000 -0.0000  0.0000
 -0.0000 -0.0000 -0.0000
 -0.0000  0.0000 -0.0000
  0.0000 -0.0000  0.0000
  0.0000  0.0000 -0.0000
  0.0000 -0.0000  0.0000
 -0.0000  0.0001 -0.0000
  0.0000 -0.0001  0.0001
 -0.0000  0.0001 -0.0001
  0.0001 -0.0003  0.0001
  0.0006  0.0015  0.0012
 -0.0019  0.0002 -0.0027
 -0.0003 -0.0001 -0.0013
 -0.0024  0.0106  0.0003
  0.0010 -0.1082 -0.2723
  0.0017 -0.0038  0.0089
 -0.0002  0.0004 -0.0012
 -0.0015  0.0059 -0.0026
  0.0002 -0.0014 -0.0006
 -0.0001  0.0016  0.0036
 -0.0002  0.0000  0.0031
 -0.0000 -0.0009 -0.0006
  0.0003 -0.0001  0.0003
 -0.0001  0.0001 -0.0000
 -0.0000 -0.0000 -0.0000
 -0.0000 -0.0001 -0.0001
  0.0000  0.0000  0.0000
 -0.0000  0.0000 -0.0000
 -0.0000 -0.0000 -0.0000
 -0.0000 -0.0000 -0.0000
 -0.0000  0.0000 -0.0000
  0.0000 -0.0000  0.0000
 -0.0000  0.0000 -0.0000
  0.0000 -0.0000  0.0000
  0.0000  0.0000  0.0000
  0.0000 -0.0000  0.0001
  0.0000  0.0002  0.0000
 -0.0000  0.0000 -0.0000
 -0.0000 -0.0000 -0.0000
  0.0000  0.0000  0.0000
 -0.0000 -0.0000 -0.0000
 -0.0000 -0.0000 -0.0000
 -0.0000  0.0000 -0.0000
  0.0000 -0.0000 -0.0000
 -0.0000 -0.0000 -0.0000
 -0.0000 -0.0001 -0.0000
 -0.0002 -0.0000 -0.0003
 -0.0001  0.0000  0.0000
  0.0076  0.3373  0.8943
  0.0041 -0.0140  0.0105
  0.0002  0.0011  0.0030
  0.0000  0.0000  0.0001
  0.0001  0.0002  0.0001
  0.0000 -0.0000  0.0000
  0.0000  0.0000  0.0000
 generating redundant internal coords
         300        3600          59
 Adding extra bonds for z output only
           6           6           6           7           6           8
           6           6           6           6           6           6
           6           6           6           8           7           6
           6           6          16           6           6           6
          16           6           8           6           6           6
           6           6           6           6           6           6
           8           6           6           6           6           1
           1           1           1           1           1           1
           1           1           1           1           1           1
           1           1           1           1           1
 search for int coords
   1 str   2   1   1.533
   2 str   3   2   1.533
   3 str   4   2   1.493
   4 str   5   4   1.412
   5 str   6   5   1.224
   6 str   7   5   1.471
   7 str   8   7   1.394
   8 str   9   8   1.383
   9 str  10   9   1.412
  10 str  11  10   1.447
  11 str  12  11   1.418
  12 str  13  12   1.372
  13 str  14  13   1.408
  14 str  15  14   1.443
  15 str  16  15   1.221
  16 str  17  15   1.455
  17 str  18  17   1.401
  18 str  19  18   1.363
  19 str  20  19   1.444
  20 str  21  20   1.707
  21 str  22  21   1.754
  22 str  23  22   1.362
  23 str  24  20   1.383
  24 str  24  21   2.550
  25 str  24  23   1.436
  26 str  25  18   1.789
  27 str  25  24   1.722
  28 str  26  17   1.426
  29 str  27  25   2.476
  30 str  27  26   1.237
  31 str  28  26   1.435
  32 str  29  28   1.408
  33 str  30  29   1.372
  34 str  31  30   1.418
  35 str  32  31   1.447
  36 str  33  32   1.412
  37 str  34  33   1.383
  38 str  35  34   1.394
  39 str  36   4   1.404
  40 str  36  35   1.472
  41 str  37  36   1.225
  42 str  38   7   1.412
  43 str  38  35   1.412
  44 str  39  10   1.428
  45 str  39  32   1.428
  46 str  39  38   1.433
  47 str  40  11   1.429
  48 str  40  31   1.430
  49 str  41  14   1.414
  50 str  41  28   1.415
  51 str  41  40   1.439
  52 str  42   1   1.094
  53 str  43   1   1.089
  54 str  44   1   1.093
  55 str  45   2   1.088
  56 str  46   3   1.089
  57 str  47   3   1.094
  58 str  48   3   1.093
  59 str  49   8   1.083
  60 str  50   9   1.081
  61 str  51  12   1.080
  62 str  52  13   1.082
  63 str  53  19   1.076
  64 str  54  22   1.078
  65 str  55  23   1.081
  66 str  56  29   1.082
  67 str  57  30   1.080
  68 str  58  33   1.081
  69 str  59  34   1.083
 nber stretches=          69
  70 ben   1   2   3
  71 prop tor   1   2   3  46
  72 prop tor   1   2   3  47
  73 prop tor   1   2   3  48
  74 ben   1   2   4
  75 prop tor   1   2   4   5
  76 prop tor   1   2   4  36
  77 ben   1   2  45
  78 ben   2   1  42
  79 ben   2   1  43
  80 ben   2   1  44
  81 ben   2   3  46
  82 ben   2   3  47
  83 ben   2   3  48
  84 ben   2   4   5
  85 prop tor   2   4   5   6
  86 prop tor   2   4   5   7
  87 ben   2   4  36
  88 prop tor   2   4  36  35
  89 prop tor   2   4  36  37
  90 ben   3   2   4
  91 prop tor   3   2   4   5
  92 prop tor   3   2   4  36
  93 ben   3   2  45
  94 prop tor   4   2   3  46
  95 prop tor   4   2   3  47
  96 prop tor   4   2   3  48
  97 ben   4   2  45
  98 ben   4   5   6
  99 ben   4   5   7
 100 prop tor   4   5   7   8
 101 prop tor   4   5   7  38
 102 ben   4  36  35
 103 ben   4  36  37
 104 ben   5   4  36
 105 prop tor   5   4  36  35
 106 prop tor   5   4  36  37
 107 ben   5   7   8
 108 prop tor   5   7   8   9
 109 prop tor   5   7   8  49
 110 ben   5   7  38
 111 prop tor   5   7  38  35
 112 prop tor   5   7  38  39
 113 ben   6   5   7
 114 prop tor   6   5   7   8
 115 prop tor   6   5   7  38
 116 ben   7   8   9
 117 prop tor   7   8   9  10
 118 prop tor   7   8   9  50
 119 ben   7   8  49
 120 ben   7  38  35
 121 ben   7  38  39
 122 prop tor   7  38  39  10
 123 prop tor   7  38  39  32
 124 ben   8   7  38
 125 prop tor   8   7  38  35
 126 prop tor   8   7  38  39
 127 ben   8   9  10
 128 prop tor   8   9  10  11
 129 prop tor   8   9  10  39
 130 ben   8   9  50
 131 ben   9   8  49
 132 ben   9  10  11
 133 prop tor   9  10  11  12
 134 prop tor   9  10  11  40
 135 ben   9  10  39
 136 prop tor   9  10  39  32
 137 prop tor   9  10  39  38
 138 ben  10   9  50
 139 ben  10  11  12
 140 prop tor  10  11  12  13
 141 prop tor  10  11  12  51
 142 ben  10  11  40
 143 prop tor  10  11  40  31
 144 prop tor  10  11  40  41
 145 ben  10  39  32
 146 ben  10  39  38
 147 ben  11  10  39
 148 prop tor  11  10  39  32
 149 prop tor  11  10  39  38
 150 ben  11  12  13
 151 prop tor  11  12  13  14
 152 prop tor  11  12  13  52
 153 ben  11  12  51
 154 ben  11  40  31
 155 ben  11  40  41
 156 prop tor  11  40  41  14
 157 prop tor  11  40  41  28
 158 ben  12  11  40
 159 prop tor  12  11  40  31
 160 prop tor  12  11  40  41
 161 ben  12  13  14
 162 prop tor  12  13  14  15
 163 prop tor  12  13  14  41
 164 ben  12  13  52
 165 ben  13  12  51
 166 ben  13  14  15
 167 prop tor  13  14  15  16
 168 prop tor  13  14  15  17
 169 ben  13  14  41
 170 prop tor  13  14  41  28
 171 prop tor  13  14  41  40
 172 ben  14  13  52
 173 ben  14  15  16
 174 ben  14  15  17
 175 prop tor  14  15  17  18
 176 prop tor  14  15  17  26
 177 ben  14  41  28
 178 ben  14  41  40
 179 ben  15  14  41
 180 prop tor  15  14  41  28
 181 prop tor  15  14  41  40
 182 ben  15  17  18
 183 prop tor  15  17  18  19
 184 prop tor  15  17  18  25
 185 ben  15  17  26
 186 prop tor  15  17  26  27
 187 prop tor  15  17  26  28
 188 ben  16  15  17
 189 prop tor  16  15  17  18
 190 prop tor  16  15  17  26
 191 ben  17  18  19
 192 prop tor  17  18  19  20
 193 prop tor  17  18  19  53
 194 ben  17  18  25
 195 prop tor  17  18  25  24
 196 prop tor  17  18  25  27
 197 ben  17  26  27
 198 prop tor  17  26  27  25
 199 ben  17  26  28
 200 prop tor  17  26  28  29
 201 prop tor  17  26  28  41
 202 ben  18  17  26
 203 prop tor  18  17  26  27
 204 prop tor  18  17  26  28
 205 ben  18  19  20
 206 prop tor  18  19  20  21
 207 prop tor  18  19  20  24
 208 ben  18  19  53
 209 ben  18  25  24
 210 ben  18  25  27
 211 prop tor  18  25  27  26
 212 ben  19  18  25
 213 prop tor  19  18  25  24
 214 prop tor  19  18  25  27
 215 ben  19  20  21
 216 prop tor  19  20  21  22
 217 prop tor  19  20  21  24
 218 ben  19  20  24
 219 prop tor  19  20  24  21
 220 prop tor  19  20  24  23
 221 prop tor  19  20  24  25
 222 ben  20  19  53
 223 ben  20  21  22
 224 prop tor  20  21  22  23
 225 prop tor  20  21  22  54
 226 ben  20  21  24
 227 prop tor  20  21  24  23
 228 prop tor  20  21  24  25
 229 ben  20  24  21
 230 ben  20  24  23
 231 ben  20  24  25
 232 prop tor  20  24  25  18
 233 prop tor  20  24  25  27
 234 ben  21  20  24
 235 prop tor  21  20  24  23
 236 prop tor  21  20  24  25
 237 ben  21  22  23
 238 prop tor  21  22  23  24
 239 prop tor  21  22  23  55
 240 ben  21  22  54
 241 ben  21  24  23
 242 ben  21  24  25
 243 prop tor  21  24  25  18
 244 prop tor  21  24  25  27
 245 ben  22  21  24
 246 prop tor  22  21  24  20
 247 prop tor  22  21  24  23
 248 prop tor  22  21  24  25
 249 ben  22  23  24
 250 prop tor  22  23  24  20
 251 prop tor  22  23  24  21
 252 prop tor  22  23  24  25
 253 ben  22  23  55
 254 ben  23  22  54
 255 ben  23  24  25
 256 prop tor  23  24  25  18
 257 prop tor  23  24  25  27
 258 prop tor  24  20  21  22
 259 prop tor  24  21  22  23
 260 prop tor  24  21  22  54
 261 ben  24  23  55
 262 ben  24  25  27
 263 prop tor  24  25  27  26
 264 prop tor  25  18  19  20
 265 prop tor  25  18  19  53
 266 ben  25  27  26
 267 prop tor  26  17  18  19
 268 prop tor  26  17  18  25
 269 ben  26  28  29
 270 prop tor  26  28  29  30
 271 prop tor  26  28  29  56
 272 ben  26  28  41
 273 prop tor  26  28  41  14
 274 prop tor  26  28  41  40
 275 ben  27  26  28
 276 prop tor  27  26  28  29
 277 prop tor  27  26  28  41
 278 prop tor  28  26  27  25
 279 ben  28  29  30
 280 prop tor  28  29  30  31
 281 prop tor  28  29  30  57
 282 ben  28  29  56
 283 ben  28  41  40
 284 ben  29  28  41
 285 prop tor  29  28  41  14
 286 prop tor  29  28  41  40
 287 ben  29  30  31
 288 prop tor  29  30  31  32
 289 prop tor  29  30  31  40
 290 ben  29  30  57
 291 ben  30  29  56
 292 ben  30  31  32
 293 prop tor  30  31  32  33
 294 prop tor  30  31  32  39
 295 ben  30  31  40
 296 prop tor  30  31  40  11
 297 prop tor  30  31  40  41
 298 ben  31  30  57
 299 ben  31  32  33
 300 prop tor  31  32  33  34
 301 prop tor  31  32  33  58
 302 ben  31  32  39
 303 prop tor  31  32  39  10
 304 prop tor  31  32  39  38
 305 ben  31  40  41
 306 prop tor  31  40  41  14
 307 prop tor  31  40  41  28
 308 ben  32  31  40
 309 prop tor  32  31  40  11
 310 prop tor  32  31  40  41
 311 ben  32  33  34
 312 prop tor  32  33  34  35
 313 prop tor  32  33  34  59
 314 ben  32  33  58
 315 ben  32  39  38
 316 ben  33  32  39
 317 prop tor  33  32  39  10
 318 prop tor  33  32  39  38
 319 ben  33  34  35
 320 prop tor  33  34  35  36
 321 prop tor  33  34  35  38
 322 ben  33  34  59
 323 ben  34  33  58
 324 ben  34  35  36
 325 prop tor  34  35  36   4
 326 prop tor  34  35  36  37
 327 ben  34  35  38
 328 prop tor  34  35  38   7
 329 prop tor  34  35  38  39
 330 ben  35  34  59
 331 ben  35  36  37
 332 ben  35  38  39
 333 prop tor  35  38  39  10
 334 prop tor  35  38  39  32
 335 prop tor  36   4   5   6
 336 prop tor  36   4   5   7
 337 ben  36  35  38
 338 prop tor  36  35  38   7
 339 prop tor  36  35  38  39
 340 prop tor  38   7   8   9
 341 prop tor  38   7   8  49
 342 prop tor  38  35  36   4
 343 prop tor  38  35  36  37
 344 prop tor  39  10  11  12
 345 prop tor  39  10  11  40
 346 prop tor  39  32  33  34
 347 prop tor  39  32  33  58
 348 prop tor  40  11  12  13
 349 prop tor  40  11  12  51
 350 prop tor  40  31  32  33
 351 prop tor  40  31  32  39
 352 prop tor  41  14  15  16
 353 prop tor  41  14  15  17
 354 prop tor  41  28  29  30
 355 prop tor  41  28  29  56
 356 prop tor  42   1   2   3
 357 prop tor  42   1   2   4
 358 prop tor  42   1   2  45
 359 ben  42   1  43
 360 ben  42   1  44
 361 prop tor  43   1   2   3
 362 prop tor  43   1   2   4
 363 prop tor  43   1   2  45
 364 ben  43   1  44
 365 prop tor  44   1   2   3
 366 prop tor  44   1   2   4
 367 prop tor  44   1   2  45
 368 prop tor  45   2   3  46
 369 prop tor  45   2   3  47
 370 prop tor  45   2   3  48
 371 prop tor  45   2   4   5
 372 prop tor  45   2   4  36
 373 ben  46   3  47
 374 ben  46   3  48
 375 ben  47   3  48
 376 prop tor  49   8   9  10
 377 prop tor  49   8   9  50
 378 prop tor  50   9  10  11
 379 prop tor  50   9  10  39
 380 prop tor  51  12  13  14
 381 prop tor  51  12  13  52
 382 prop tor  52  13  14  15
 383 prop tor  52  13  14  41
 384 prop tor  53  19  20  21
 385 prop tor  53  19  20  24
 386 prop tor  54  22  23  24
 387 prop tor  54  22  23  55
 388 prop tor  55  23  24  20
 389 prop tor  55  23  24  21
 390 prop tor  55  23  24  25
 391 prop tor  56  29  30  31
 392 prop tor  56  29  30  57
 393 prop tor  57  30  31  32
 394 prop tor  57  30  31  40
 395 prop tor  58  33  34  35
 396 prop tor  58  33  34  59
 397 prop tor  59  34  35  36
 398 prop tor  59  34  35  38
 nber bend=             124
 nber lin bend=           0
 nber prop tor=         205
 nber impr tor=           0
 nber tot redund int=         398
 Reading file: 
 ./TT-PDI_0_C0S1.log                                                            
                                          
  Entering Gaussian System, Link 0=g16                                          
  
 Gaussian format, type: g94, g98, g03= F F F
  #P Geom=AllCheck Guess=TCheck SCRF=Check GenChk RB3LYP TD(FC,Read)/6-3    
 energy type= TD      
 Original G94 input coords:
  6  1.398634  1.020819  0.549826
  6  2.480423  0.084833 -0.000419
  6  3.757951  0.817237 -0.425406
  7  2.770971 -1.040752  0.937490
  6  2.470188 -2.341923  0.482138
  8  1.994560 -2.528631 -0.629506
  6  2.754713 -3.454960  1.402793
  6  2.475673 -4.760431  0.999973
  6  2.730888 -5.828250  1.841018
  6  3.278911 -5.646424  3.130001
  6  3.550584 -6.754593  4.019405
  6  3.264731 -8.095992  3.655704
  6  3.524787 -9.141739  4.502803
  6  4.103329 -8.919672  5.768361
  6  4.349822-10.063274  6.609569
  8  4.031580-11.205557  6.351065
  7  5.046009 -9.776246  7.886957
  6  5.497158-10.817989  8.675639
  6  5.595977-12.181225  8.280144
  6  6.058480-12.970855  9.314721
 16  6.396405-14.686547  9.489305
  6  6.906793-14.417115 11.118300
  6  6.831592-13.089399 11.526435
  6  6.345429-12.276210 10.503573
 16  6.042962-10.546083 10.331375
  6  5.256117 -8.420134  8.368501
  8  5.690515 -8.282661  9.503612
  6  4.951827 -7.349839  7.461731
  6  5.209384 -6.026513  7.870682
  6  4.947888 -4.972081  7.035006
  6  4.404215 -5.166282  5.738489
  6  4.129916 -4.057775  4.850764
  6  4.394355 -2.717544  5.210011
  6  4.129208 -1.666427  4.351185
  6  3.586300 -1.899067  3.088258
  6  3.316868 -0.756125  2.198698
  8  3.555878  0.396195  2.536797
  6  3.304167 -3.220744  2.681675
  6  3.574006 -4.318825  3.562257
  6  4.117233 -6.497868  5.305627
  6  4.402594 -7.603611  6.185225
  1  1.116811  1.737777 -0.226751
  1  1.749677  1.569696  1.422635
  1  0.503674  0.455406  0.822692
  1  2.075596 -0.421232 -0.874131
  1  4.206341  1.357031  0.407579
  1  3.514424  1.531543 -1.217231
  1  4.490340  0.111510 -0.826246
  1  2.055634 -4.913914  0.014143
  1  2.500714 -6.822659  1.485757
  1  2.827107 -8.311005  2.692016
  1  3.294316-10.158895  4.213746
  1  5.312881-12.512571  7.298583
  1  7.243815-15.254750 11.710341
  1  7.120147-12.759953 12.514272
  1  5.623325 -5.862760  8.857219
  1  5.164175 -3.973069  7.383687
  1  4.817022 -2.489804  6.178275
  1  4.336848 -0.643593  4.638715
 nber atoms=          59
  Total Energy, E(TD-HF/TD-DFT) =  -2475.65019342                               
  
          32          49 "  -2475.65019342"
After scan for Atom:   Atom  AN      X      Y      Z        X      Y      Z        X      Y      Z   
After scan for Atom:   Atom  AN      X      Y      Z        X      Y      Z        X      Y      Z   
After scan for Atom:   Atom  AN      X      Y      Z        X      Y      Z        X      Y      Z   
After scan for Atom:   Atom  AN      X      Y      Z        X      Y      Z        X      Y      Z   
After scan for Atom:   Atom  AN      X      Y      Z        X      Y      Z        X      Y      Z   
After scan for Atom:   Atom  AN      X      Y      Z        X      Y      Z        X      Y      Z   
After scan for Atom:   Atom  AN      X      Y      Z        X      Y      Z        X      Y      Z   
After scan for Atom:   Atom  AN      X      Y      Z        X      Y      Z        X      Y      Z   
After scan for Atom:   Atom  AN      X      Y      Z        X      Y      Z        X      Y      Z   
After scan for Atom:   Atom  AN      X      Y      Z        X      Y      Z        X      Y      Z   
After scan for Atom:   Atom  AN      X      Y      Z        X      Y      Z        X      Y      Z   
After scan for Atom:   Atom  AN      X      Y      Z        X      Y      Z        X      Y      Z   
After scan for Atom:   Atom  AN      X      Y      Z        X      Y      Z        X      Y      Z   
After scan for Atom:   Atom  AN      X      Y      Z        X      Y      Z        X      Y      Z   
After scan for Atom:   Atom  AN      X      Y      Z        X      Y      Z        X      Y      Z   
After scan for Atom:   Atom  AN      X      Y      Z        X      Y      Z        X      Y      Z   
After scan for Atom:   Atom  AN      X      Y      Z        X      Y      Z        X      Y      Z   
After scan for Atom:   Atom  AN      X      Y      Z        X      Y      Z        X      Y      Z   
After scan for Atom:   Atom  AN      X      Y      Z        X      Y      Z        X      Y      Z   
After scan for Atom:   Atom  AN      X      Y      Z        X      Y      Z        X      Y      Z   
After scan for Atom:   Atom  AN      X      Y      Z        X      Y      Z        X      Y      Z   
After scan for Atom:   Atom  AN      X      Y      Z        X      Y      Z        X      Y      Z   
After scan for Atom:   Atom  AN      X      Y      Z        X      Y      Z        X      Y      Z   
After scan for Atom:   Atom  AN      X      Y      Z        X      Y      Z        X      Y      Z   
After scan for Atom:   Atom  AN      X      Y      Z        X      Y      Z        X      Y      Z   
After scan for Atom:   Atom  AN      X      Y      Z        X      Y      Z        X      Y      Z   
After scan for Atom:   Atom  AN      X      Y      Z        X      Y      Z        X      Y      Z   
After scan for Atom:   Atom  AN      X      Y      Z        X      Y      Z        X      Y      Z   
After scan for Atom:   Atom  AN      X      Y      Z        X      Y      Z        X      Y      Z   
After scan for Atom:   Atom  AN      X      Y      Z        X      Y      Z        X      Y      Z   
After scan for Atom:   Atom  AN      X      Y      Z        X      Y      Z        X      Y      Z   
After scan for Atom:   Atom  AN      X      Y      Z        X      Y      Z        X      Y      Z   
After scan for Atom:   Atom  AN      X      Y      Z        X      Y      Z        X      Y      Z   
After scan for Atom:   Atom  AN      X      Y      Z        X      Y      Z        X      Y      Z   
After scan for Atom:   Atom  AN      X      Y      Z        X      Y      Z        X      Y      Z   
After scan for Atom:   Atom  AN      X      Y      Z        X      Y      Z        X      Y      Z   
After scan for Atom:   Atom  AN      X      Y      Z        X      Y      Z        X      Y      Z   
After scan for Atom:   Atom  AN      X      Y      Z        X      Y      Z        X      Y      Z   
After scan for Atom:   Atom  AN      X      Y      Z        X      Y      Z        X      Y      Z   
After scan for Atom:   Atom  AN      X      Y      Z        X      Y      Z        X      Y      Z   
After scan for Atom:   Atom  AN      X      Y      Z        X      Y      Z        X      Y      Z   
After scan for Atom:   Atom  AN      X      Y      Z        X      Y      Z        X      Y      Z   
After scan for Atom:   Atom  AN      X      Y      Z        X      Y      Z        X      Y      Z   
After scan for Atom:   Atom  AN      X      Y      Z        X      Y      Z        X      Y      Z   
After scan for Atom:   Atom  AN      X      Y      Z        X      Y      Z        X      Y      Z   
After scan for Atom:   Atom  AN      X      Y      Z        X      Y      Z        X      Y      Z   
After scan for Atom:   Atom  AN      X      Y      Z        X      Y      Z        X      Y      Z   
After scan for Atom:   Atom  AN      X      Y      Z        X      Y      Z        X      Y      Z   
After scan for Atom:   Atom  AN      X      Y      Z        X      Y      Z        X      Y      Z   
After scan for Atom:   Atom  AN      X      Y      Z        X      Y      Z        X      Y      Z   
After scan for Atom:   Atom  AN      X      Y      Z        X      Y      Z        X      Y      Z   
After scan for Atom:   Atom  AN      X      Y      Z        X      Y      Z        X      Y      Z   
After scan for Atom:   Atom  AN      X      Y      Z        X      Y      Z        X      Y      Z   
After scan for Atom:   Atom  AN      X      Y      Z        X      Y      Z        X      Y      Z   
After scan for Atom:   Atom  AN      X      Y      Z        X      Y      Z        X      Y      Z   
After scan for Atom:   Atom  AN      X      Y      Z        X      Y      Z        X      Y      Z   
After scan for Atom:   Atom  AN      X      Y      Z        X      Y      Z        X      Y      Z   
 g94    frequencies=
     0.0    0.0    0.0    0.0    0.0    0.0   11.5   20.6   29.5   36.9
    53.5   57.7   60.9   84.8   91.3   95.2  111.9  132.3  149.7  167.7
   171.7  193.8  194.9  204.0  214.1  233.1  234.8  247.8  250.3  258.3
   259.3  296.1  310.3  313.4  329.4  350.2  374.6  393.0  405.0  415.4
   417.4  435.4  442.0  442.8  452.8  453.2  460.5  464.3  472.1  495.9
   500.4  504.7  511.2  515.7  540.2  575.0  577.8  579.5  591.5  595.2
   622.9  627.7  633.6  640.9  662.1  668.3  697.7  713.4  722.5  733.5
   736.7  747.4  756.6  765.0  769.1  769.9  786.2  802.8  807.5  817.2
   822.7  823.7  828.6  834.2  834.7  845.2  853.0  860.3  895.8  899.8
   902.5  925.0  944.1  955.8  956.1  972.7  973.7  976.0  986.7  989.8
   990.9 1067.1 1074.9 1093.2 1096.7 1138.0 1148.6 1155.3 1165.7 1168.1
  1174.7 1190.2 1196.5 1201.9 1218.0 1227.6 1232.1 1237.0 1252.9 1283.5
  1294.8 1297.2 1327.2 1336.3 1352.5 1363.6 1365.4 1370.2 1383.8 1391.5
  1397.6 1398.1 1399.7 1412.5 1424.0 1427.4 1441.1 1451.5 1467.2 1477.3
  1484.3 1485.4 1485.6 1496.3 1506.3 1523.3 1539.0 1548.2 1556.5 1576.1
  1588.8 1610.0 1616.3 1620.0 1638.0 1686.9 1723.2 1760.5 1815.5 3030.5
  3035.0 3087.8 3091.0 3110.1 3131.8 3141.8 3194.1 3194.4 3200.6 3201.0
  3209.6 3210.0 3224.9 3225.1 3225.2 3247.0 3294.4
 g94    symmetries=
                                                 A      A      A      A
       A      A      A      A      A      A      A      A      A      A
       A      A      A      A      A      A      A      A      A      A
       A      A      A      A      A      A      A      A      A      A
       A      A      A      A      A      A      A      A      A      A
       A      A      A      A      A      A      A      A      A      A
       A      A      A      A      A      A      A      A      A      A
       A      A      A      A      A      A      A      A      A      A
       A      A      A      A      A      A      A      A      A      A
       A      A      A      A      A      A      A      A      A      A
       A      A      A      A      A      A      A      A      A      A
       A      A      A      A      A      A      A      A      A      A
       A      A      A      A      A      A      A      A      A      A
       A      A      A      A      A      A      A      A      A      A
       A      A      A      A      A      A      A      A      A      A
       A      A      A      A      A      A      A      A      A      A
       A      A      A      A      A      A      A      A      A      A
       A      A      A      A      A      A      A
 atomic masses:
 12.0000 12.0000 12.0000 14.0031 12.0000 15.9949 12.0000 12.0000 12.0000 12.0000
 12.0000 12.0000 12.0000 12.0000 12.0000 15.9949 14.0031 12.0000 12.0000 12.0000
 31.9721 12.0000 12.0000 12.0000 31.9721 12.0000 15.9949 12.0000 12.0000 12.0000
 12.0000 12.0000 12.0000 12.0000 12.0000 12.0000 15.9949 12.0000 12.0000 12.0000
 12.0000  1.0078  1.0078  1.0078  1.0078  1.0078  1.0078  1.0078  1.0078  1.0078
  1.0078  1.0078  1.0078  1.0078  1.0078  1.0078  1.0078  1.0078  1.0078
 looking for force constants in 
 ./TT-PDI_0_C0S1.fchk                                                           
  
 Cartesian Force Constants                  R   N=       15753                  
  
 n3=         177       15753
 g94-fc frequencies=
    -1.7   -0.7   -0.0    0.0    0.0    1.9   11.5   20.6   29.5   36.9
    53.5   57.7   60.9   84.8   91.3   95.2  111.9  132.3  149.7  167.7
   171.7  193.8  194.9  204.0  214.2  233.1  234.8  247.8  250.3  258.3
   259.3  296.1  310.3  313.4  329.4  350.2  374.6  393.0  405.0  415.4
   417.5  435.4  442.0  442.8  452.8  453.2  460.5  464.3  472.2  495.9
   500.4  504.7  511.2  515.7  540.2  575.0  577.8  579.5  591.5  595.2
   622.9  627.7  633.6  640.9  662.1  668.3  697.8  713.4  722.5  733.5
   736.7  747.5  756.6  765.0  769.1  769.9  786.2  802.8  807.5  817.2
   822.8  823.8  828.6  834.2  834.7  845.2  853.0  860.3  895.8  899.8
   902.5  925.0  944.1  955.9  956.1  972.7  973.8  976.1  986.8  989.9
   991.0 1067.1 1075.0 1093.2 1096.7 1138.0 1148.7 1155.3 1165.7 1168.2
  1174.7 1190.3 1196.5 1202.0 1218.0 1227.6 1232.1 1237.0 1252.9 1283.5
  1294.8 1297.3 1327.3 1336.4 1352.5 1363.6 1365.4 1370.2 1383.9 1391.6
  1397.7 1398.1 1399.8 1412.5 1424.0 1427.5 1441.2 1451.5 1467.2 1477.3
  1484.3 1485.4 1485.7 1496.4 1506.4 1523.4 1539.0 1548.2 1556.6 1576.2
  1588.9 1610.0 1616.4 1620.1 1638.0 1686.9 1723.2 1760.6 1815.5 3030.6
  3035.1 3087.9 3091.1 3110.2 3131.9 3141.8 3194.1 3194.5 3200.7 3201.1
  3209.7 3210.0 3225.0 3225.2 3225.3 3247.0 3294.5
 at 99999: n3=         177
 symm operator            1 :  F  nop=           0
 symm operator            2 :  F  nop=           0
 symm operator            3 :  F  nop=           0
 symm operator            4 :  F  nop=           0
 symm operator            5 :  F  nop=           0
 symm operator            6 :  F  nop=           0
 symm operator            7 :  F  nop=           0
 The point group of the molecule is  C1
 Symmetry rotation matrix:
   1.00000   0.00000   0.00000
   0.00000   1.00000   0.00000
   0.00000   0.00000   1.00000

 Projecting out zero-frequency components
 generating redundant internal coords
         300        3600          59
 search for int coords
   1 str   2   1   1.533
   2 str   3   2   1.533
   3 str   4   2   1.494
   4 str   5   4   1.411
   5 str   6   5   1.223
   6 str   7   5   1.472
   7 str   8   7   1.394
   8 str   9   8   1.383
   9 str  10   9   1.412
  10 str  11  10   1.447
  11 str  12  11   1.419
  12 str  13  12   1.371
  13 str  14  13   1.409
  14 str  15  14   1.441
  15 str  16  15   1.214
  16 str  17  15   1.483
  17 str  18  17   1.382
  18 str  19  18   1.423
  19 str  20  19   1.381
  20 str  21  20   1.757
  21 str  22  21   1.728
  22 str  23  22   1.391
  23 str  24  20   1.406
  24 str  24  23   1.394
  25 str  25  18   1.764
  26 str  25  24   1.765
  27 str  26  17   1.454
  28 str  27  25   2.436
  29 str  27  26   1.223
  30 str  28  26   1.435
  31 str  29  28   1.409
  32 str  30  29   1.371
  33 str  31  30   1.419
  34 str  32  31   1.446
  35 str  33  32   1.413
  36 str  34  33   1.383
  37 str  35  34   1.394
  38 str  36   4   1.403
  39 str  36  35   1.473
  40 str  37  36   1.224
  41 str  38   7   1.411
  42 str  38  35   1.411
  43 str  39  10   1.427
  44 str  39  32   1.427
  45 str  39  38   1.433
  46 str  40  11   1.429
  47 str  40  31   1.429
  48 str  41  14   1.413
  49 str  41  28   1.413
  50 str  41  40   1.441
  51 str  42   1   1.094
  52 str  43   1   1.089
  53 str  44   1   1.093
  54 str  45   2   1.088
  55 str  46   3   1.089
  56 str  47   3   1.094
  57 str  48   3   1.093
  58 str  49   8   1.083
  59 str  50   9   1.081
  60 str  51  12   1.080
  61 str  52  13   1.082
  62 str  53  19   1.074
  63 str  54  22   1.080
  64 str  55  23   1.081
  65 str  56  29   1.082
  66 str  57  30   1.080
  67 str  58  33   1.081
  68 str  59  34   1.083
 nber stretches=          68
  69 ben   1   2   3
  70 prop tor   1   2   3  46
  71 prop tor   1   2   3  47
  72 prop tor   1   2   3  48
  73 ben   1   2   4
  74 prop tor   1   2   4   5
  75 prop tor   1   2   4  36
  76 ben   1   2  45
  77 ben   2   1  42
  78 ben   2   1  43
  79 ben   2   1  44
  80 ben   2   3  46
  81 ben   2   3  47
  82 ben   2   3  48
  83 ben   2   4   5
  84 prop tor   2   4   5   6
  85 prop tor   2   4   5   7
  86 ben   2   4  36
  87 prop tor   2   4  36  35
  88 prop tor   2   4  36  37
  89 ben   3   2   4
  90 prop tor   3   2   4   5
  91 prop tor   3   2   4  36
  92 ben   3   2  45
  93 prop tor   4   2   3  46
  94 prop tor   4   2   3  47
  95 prop tor   4   2   3  48
  96 ben   4   2  45
  97 ben   4   5   6
  98 ben   4   5   7
  99 prop tor   4   5   7   8
 100 prop tor   4   5   7  38
 101 ben   4  36  35
 102 ben   4  36  37
 103 ben   5   4  36
 104 prop tor   5   4  36  35
 105 prop tor   5   4  36  37
 106 ben   5   7   8
 107 prop tor   5   7   8   9
 108 prop tor   5   7   8  49
 109 ben   5   7  38
 110 prop tor   5   7  38  35
 111 prop tor   5   7  38  39
 112 ben   6   5   7
 113 prop tor   6   5   7   8
 114 prop tor   6   5   7  38
 115 ben   7   8   9
 116 prop tor   7   8   9  10
 117 prop tor   7   8   9  50
 118 ben   7   8  49
 119 ben   7  38  35
 120 ben   7  38  39
 121 prop tor   7  38  39  10
 122 prop tor   7  38  39  32
 123 ben   8   7  38
 124 prop tor   8   7  38  35
 125 prop tor   8   7  38  39
 126 ben   8   9  10
 127 prop tor   8   9  10  11
 128 prop tor   8   9  10  39
 129 ben   8   9  50
 130 ben   9   8  49
 131 ben   9  10  11
 132 prop tor   9  10  11  12
 133 prop tor   9  10  11  40
 134 ben   9  10  39
 135 prop tor   9  10  39  32
 136 prop tor   9  10  39  38
 137 ben  10   9  50
 138 ben  10  11  12
 139 prop tor  10  11  12  13
 140 prop tor  10  11  12  51
 141 ben  10  11  40
 142 prop tor  10  11  40  31
 143 prop tor  10  11  40  41
 144 ben  10  39  32
 145 ben  10  39  38
 146 ben  11  10  39
 147 prop tor  11  10  39  32
 148 prop tor  11  10  39  38
 149 ben  11  12  13
 150 prop tor  11  12  13  14
 151 prop tor  11  12  13  52
 152 ben  11  12  51
 153 ben  11  40  31
 154 ben  11  40  41
 155 prop tor  11  40  41  14
 156 prop tor  11  40  41  28
 157 ben  12  11  40
 158 prop tor  12  11  40  31
 159 prop tor  12  11  40  41
 160 ben  12  13  14
 161 prop tor  12  13  14  15
 162 prop tor  12  13  14  41
 163 ben  12  13  52
 164 ben  13  12  51
 165 ben  13  14  15
 166 prop tor  13  14  15  16
 167 prop tor  13  14  15  17
 168 ben  13  14  41
 169 prop tor  13  14  41  28
 170 prop tor  13  14  41  40
 171 ben  14  13  52
 172 ben  14  15  16
 173 ben  14  15  17
 174 prop tor  14  15  17  18
 175 prop tor  14  15  17  26
 176 ben  14  41  28
 177 ben  14  41  40
 178 ben  15  14  41
 179 prop tor  15  14  41  28
 180 prop tor  15  14  41  40
 181 ben  15  17  18
 182 prop tor  15  17  18  19
 183 prop tor  15  17  18  25
 184 ben  15  17  26
 185 prop tor  15  17  26  27
 186 prop tor  15  17  26  28
 187 ben  16  15  17
 188 prop tor  16  15  17  18
 189 prop tor  16  15  17  26
 190 ben  17  18  19
 191 prop tor  17  18  19  20
 192 prop tor  17  18  19  53
 193 ben  17  18  25
 194 prop tor  17  18  25  24
 195 prop tor  17  18  25  27
 196 ben  17  26  27
 197 prop tor  17  26  27  25
 198 ben  17  26  28
 199 prop tor  17  26  28  29
 200 prop tor  17  26  28  41
 201 ben  18  17  26
 202 prop tor  18  17  26  27
 203 prop tor  18  17  26  28
 204 ben  18  19  20
 205 prop tor  18  19  20  21
 206 prop tor  18  19  20  24
 207 ben  18  19  53
 208 ben  18  25  24
 209 ben  18  25  27
 210 prop tor  18  25  27  26
 211 ben  19  18  25
 212 prop tor  19  18  25  24
 213 prop tor  19  18  25  27
 214 ben  19  20  21
 215 prop tor  19  20  21  22
 216 ben  19  20  24
 217 prop tor  19  20  24  23
 218 prop tor  19  20  24  25
 219 ben  20  19  53
 220 ben  20  21  22
 221 prop tor  20  21  22  23
 222 prop tor  20  21  22  54
 223 ben  20  24  23
 224 ben  20  24  25
 225 prop tor  20  24  25  18
 226 prop tor  20  24  25  27
 227 ben  21  20  24
 228 prop tor  21  20  24  23
 229 prop tor  21  20  24  25
 230 ben  21  22  23
 231 prop tor  21  22  23  24
 232 prop tor  21  22  23  55
 233 ben  21  22  54
 234 ben  22  23  24
 235 prop tor  22  23  24  20
 236 prop tor  22  23  24  25
 237 ben  22  23  55
 238 ben  23  22  54
 239 ben  23  24  25
 240 prop tor  23  24  25  18
 241 prop tor  23  24  25  27
 242 prop tor  24  20  21  22
 243 ben  24  23  55
 244 ben  24  25  27
 245 prop tor  24  25  27  26
 246 prop tor  25  18  19  20
 247 prop tor  25  18  19  53
 248 ben  25  27  26
 249 prop tor  26  17  18  19
 250 prop tor  26  17  18  25
 251 ben  26  28  29
 252 prop tor  26  28  29  30
 253 prop tor  26  28  29  56
 254 ben  26  28  41
 255 prop tor  26  28  41  14
 256 prop tor  26  28  41  40
 257 ben  27  26  28
 258 prop tor  27  26  28  29
 259 prop tor  27  26  28  41
 260 prop tor  28  26  27  25
 261 ben  28  29  30
 262 prop tor  28  29  30  31
 263 prop tor  28  29  30  57
 264 ben  28  29  56
 265 ben  28  41  40
 266 ben  29  28  41
 267 prop tor  29  28  41  14
 268 prop tor  29  28  41  40
 269 ben  29  30  31
 270 prop tor  29  30  31  32
 271 prop tor  29  30  31  40
 272 ben  29  30  57
 273 ben  30  29  56
 274 ben  30  31  32
 275 prop tor  30  31  32  33
 276 prop tor  30  31  32  39
 277 ben  30  31  40
 278 prop tor  30  31  40  11
 279 prop tor  30  31  40  41
 280 ben  31  30  57
 281 ben  31  32  33
 282 prop tor  31  32  33  34
 283 prop tor  31  32  33  58
 284 ben  31  32  39
 285 prop tor  31  32  39  10
 286 prop tor  31  32  39  38
 287 ben  31  40  41
 288 prop tor  31  40  41  14
 289 prop tor  31  40  41  28
 290 ben  32  31  40
 291 prop tor  32  31  40  11
 292 prop tor  32  31  40  41
 293 ben  32  33  34
 294 prop tor  32  33  34  35
 295 prop tor  32  33  34  59
 296 ben  32  33  58
 297 ben  32  39  38
 298 ben  33  32  39
 299 prop tor  33  32  39  10
 300 prop tor  33  32  39  38
 301 ben  33  34  35
 302 prop tor  33  34  35  36
 303 prop tor  33  34  35  38
 304 ben  33  34  59
 305 ben  34  33  58
 306 ben  34  35  36
 307 prop tor  34  35  36   4
 308 prop tor  34  35  36  37
 309 ben  34  35  38
 310 prop tor  34  35  38   7
 311 prop tor  34  35  38  39
 312 ben  35  34  59
 313 ben  35  36  37
 314 ben  35  38  39
 315 prop tor  35  38  39  10
 316 prop tor  35  38  39  32
 317 prop tor  36   4   5   6
 318 prop tor  36   4   5   7
 319 ben  36  35  38
 320 prop tor  36  35  38   7
 321 prop tor  36  35  38  39
 322 prop tor  38   7   8   9
 323 prop tor  38   7   8  49
 324 prop tor  38  35  36   4
 325 prop tor  38  35  36  37
 326 prop tor  39  10  11  12
 327 prop tor  39  10  11  40
 328 prop tor  39  32  33  34
 329 prop tor  39  32  33  58
 330 prop tor  40  11  12  13
 331 prop tor  40  11  12  51
 332 prop tor  40  31  32  33
 333 prop tor  40  31  32  39
 334 prop tor  41  14  15  16
 335 prop tor  41  14  15  17
 336 prop tor  41  28  29  30
 337 prop tor  41  28  29  56
 338 prop tor  42   1   2   3
 339 prop tor  42   1   2   4
 340 prop tor  42   1   2  45
[...]
 229 prop tor  21  20  24  25
 230 ben  21  22  23
 231 prop tor  21  22  23  24
 232 prop tor  21  22  23  55
 233 ben  21  22  54
 234 ben  22  23  24
 235 prop tor  22  23  24  20
 236 prop tor  22  23  24  25
 237 ben  22  23  55
 238 ben  23  22  54
 239 ben  23  24  25
 240 prop tor  23  24  25  18
 241 prop tor  23  24  25  27
 242 prop tor  24  20  21  22
 243 ben  24  23  55
 244 ben  24  25  27
 245 prop tor  24  25  27  26
 246 prop tor  25  18  19  20
 247 prop tor  25  18  19  53
 248 ben  25  27  26
 249 prop tor  26  17  18  19
 250 prop tor  26  17  18  25
 251 ben  26  28  29
 252 prop tor  26  28  29  30
 253 prop tor  26  28  29  56
 254 ben  26  28  41
 255 prop tor  26  28  41  14
 256 prop tor  26  28  41  40
 257 ben  27  26  28
 258 prop tor  27  26  28  29
 259 prop tor  27  26  28  41
 260 prop tor  28  26  27  25
 261 ben  28  29  30
 262 prop tor  28  29  30  31
 263 prop tor  28  29  30  57
 264 ben  28  29  56
 265 ben  28  41  40
 266 ben  29  28  41
 267 prop tor  29  28  41  14
 268 prop tor  29  28  41  40
 269 ben  29  30  31
 270 prop tor  29  30  31  32
 271 prop tor  29  30  31  40
 272 ben  29  30  57
 273 ben  30  29  56
 274 ben  30  31  32
 275 prop tor  30  31  32  33
 276 prop tor  30  31  32  39
 277 ben  30  31  40
 278 prop tor  30  31  40  11
 279 prop tor  30  31  40  41
 280 ben  31  30  57
 281 ben  31  32  33
 282 prop tor  31  32  33  34
 283 prop tor  31  32  33  58
 284 ben  31  32  39
 285 prop tor  31  32  39  10
 286 prop tor  31  32  39  38
 287 ben  31  40  41
 288 prop tor  31  40  41  14
 289 prop tor  31  40  41  28
 290 ben  32  31  40
 291 prop tor  32  31  40  11
 292 prop tor  32  31  40  41
 293 ben  32  33  34
 294 prop tor  32  33  34  35
 295 prop tor  32  33  34  59
 296 ben  32  33  58
 297 ben  32  39  38
 298 ben  33  32  39
 299 prop tor  33  32  39  10
 300 prop tor  33  32  39  38
 301 ben  33  34  35
 302 prop tor  33  34  35  36
 303 prop tor  33  34  35  38
 304 ben  33  34  59
 305 ben  34  33  58
 306 ben  34  35  36
 307 prop tor  34  35  36   4
 308 prop tor  34  35  36  37
 309 ben  34  35  38
 310 prop tor  34  35  38   7
 311 prop tor  34  35  38  39
 312 ben  35  34  59
 313 ben  35  36  37
 314 ben  35  38  39
 315 prop tor  35  38  39  10
 316 prop tor  35  38  39  32
 317 prop tor  36   4   5   6
 318 prop tor  36   4   5   7
 319 ben  36  35  38
 320 prop tor  36  35  38   7
 321 prop tor  36  35  38  39
 322 prop tor  38   7   8   9
 323 prop tor  38   7   8  49
 324 prop tor  38  35  36   4
 325 prop tor  38  35  36  37
 326 prop tor  39  10  11  12
 327 prop tor  39  10  11  40
 328 prop tor  39  32  33  34
 329 prop tor  39  32  33  58
 330 prop tor  40  11  12  13
 331 prop tor  40  11  12  51
 332 prop tor  40  31  32  33
 333 prop tor  40  31  32  39
 334 prop tor  41  14  15  16
 335 prop tor  41  14  15  17
 336 prop tor  41  28  29  30
 337 prop tor  41  28  29  56
 338 prop tor  42   1   2   3
 339 prop tor  42   1   2   4
 340 prop tor  42   1   2  45
 341 ben  42   1  43
 342 ben  42   1  44
 343 prop tor  43   1   2   3
 344 prop tor  43   1   2   4
 345 prop tor  43   1   2  45
 346 ben  43   1  44
 347 prop tor  44   1   2   3
 348 prop tor  44   1   2   4
 349 prop tor  44   1   2  45
 350 prop tor  45   2   3  46
 351 prop tor  45   2   3  47
 352 prop tor  45   2   3  48
 353 prop tor  45   2   4   5
 354 prop tor  45   2   4  36
 355 ben  46   3  47
 356 ben  46   3  48
 357 ben  47   3  48
 358 prop tor  49   8   9  10
 359 prop tor  49   8   9  50
 360 prop tor  50   9  10  11
 361 prop tor  50   9  10  39
 362 prop tor  51  12  13  14
 363 prop tor  51  12  13  52
 364 prop tor  52  13  14  15
 365 prop tor  52  13  14  41
 366 prop tor  53  19  20  21
 367 prop tor  53  19  20  24
 368 prop tor  54  22  23  24
 369 prop tor  54  22  23  55
 370 prop tor  55  23  24  20
 371 prop tor  55  23  24  25
 372 prop tor  56  29  30  31
 373 prop tor  56  29  30  57
 374 prop tor  57  30  31  32
 375 prop tor  57  30  31  40
 376 prop tor  58  33  34  35
 377 prop tor  58  33  34  59
 378 prop tor  59  34  35  36
 379 prop tor  59  34  35  38
 nber bend=             119
 nber lin bend=           0
 nber prop tor=         192
 nber impr tor=           0
 nber tot redund int=         379
 Eigenvalues of G in red int coords
    Gval -0.00000000 -0.00000000 -0.00000000 -0.00000000 -0.00000000 -0.00000000 -0.00000000 -0.00000000
    Gval -0.00000000 -0.00000000 -0.00000000 -0.00000000 -0.00000000 -0.00000000 -0.00000000 -0.00000000
    Gval -0.00000000 -0.00000000 -0.00000000 -0.00000000 -0.00000000 -0.00000000 -0.00000000 -0.00000000
    Gval -0.00000000 -0.00000000 -0.00000000 -0.00000000 -0.00000000 -0.00000000 -0.00000000 -0.00000000
    Gval -0.00000000 -0.00000000 -0.00000000 -0.00000000 -0.00000000 -0.00000000 -0.00000000 -0.00000000
    Gval -0.00000000 -0.00000000 -0.00000000 -0.00000000 -0.00000000 -0.00000000 -0.00000000 -0.00000000
    Gval -0.00000000 -0.00000000 -0.00000000 -0.00000000 -0.00000000 -0.00000000 -0.00000000 -0.00000000
    Gval -0.00000000 -0.00000000 -0.00000000 -0.00000000 -0.00000000 -0.00000000 -0.00000000 -0.00000000
    Gval -0.00000000 -0.00000000 -0.00000000 -0.00000000 -0.00000000 -0.00000000 -0.00000000 -0.00000000
    Gval -0.00000000 -0.00000000 -0.00000000 -0.00000000 -0.00000000 -0.00000000 -0.00000000 -0.00000000
    Gval -0.00000000 -0.00000000 -0.00000000 -0.00000000 -0.00000000 -0.00000000 -0.00000000 -0.00000000
    Gval -0.00000000 -0.00000000 -0.00000000 -0.00000000 -0.00000000 -0.00000000 -0.00000000 -0.00000000
    Gval -0.00000000 -0.00000000 -0.00000000 -0.00000000 -0.00000000  0.00000000  0.00000000  0.00000000
    Gval  0.00000000  0.00000000  0.00000000  0.00000000  0.00000000  0.00000000  0.00000000  0.00000000
    Gval  0.00000000  0.00000000  0.00000000  0.00000000  0.00000000  0.00000000  0.00000000  0.00000000
    Gval  0.00000000  0.00000000  0.00000000  0.00000000  0.00000000  0.00000000  0.00000000  0.00000000
    Gval  0.00000000  0.00000000  0.00000000  0.00000000  0.00000000  0.00000000  0.00000000  0.00000000
    Gval  0.00000000  0.00000000  0.00000000  0.00000000  0.00000000  0.00000000  0.00000000  0.00000000
    Gval  0.00000000  0.00000000  0.00000000  0.00000000  0.00000000  0.00000000  0.00000000  0.00000000
    Gval  0.00000000  0.00000000  0.00000000  0.00000000  0.00000000  0.00000000  0.00000000  0.00000000
    Gval  0.00000000  0.00000000  0.00000000  0.00000000  0.00000000  0.00000000  0.00000000  0.00000000
    Gval  0.00000000  0.00000000  0.00000000  0.00000000  0.00000000  0.00000000  0.00000000  0.00000000
    Gval  0.00000000  0.00000000  0.00000000  0.00000000  0.00000000  0.00000000  0.00000000  0.00000000
    Gval  0.00000000  0.00000000  0.00000000  0.00000000  0.00000000  0.00000000  0.00000000  0.00000000
    Gval  0.00000000  0.00000000  0.00000000  0.00000000  0.00000000  0.00000000  0.00000000  0.00000000
    Gval  0.00000000  0.00000000  0.00000000  0.00000000  0.00000000  0.00000000  0.00000000  0.00000000
    Gval  0.00000047  0.00000102  0.00000154  0.00000241  0.00000465  0.00000619  0.00000719  0.00000781
    Gval  0.00000920  0.00001159  0.00001218  0.00001557  0.00001669  0.00001719  0.00001828  0.00001846
    Gval  0.00002106  0.00002164  0.00002371  0.00002423  0.00002500  0.00002685  0.00003070  0.00003170
    Gval  0.00003934  0.00003994  0.00003999  0.00004422  0.00004781  0.00004909  0.00004963  0.00005147
    Gval  0.00005257  0.00005470  0.00006016  0.00006158  0.00006306  0.00006903  0.00007064  0.00007263
    Gval  0.00007607  0.00008050  0.00008207  0.00008272  0.00008457  0.00008658  0.00009036  0.00009399
    Gval  0.00009629  0.00009783  0.00010628  0.00010958  0.00011886  0.00012168  0.00012671  0.00013614
    Gval  0.00013785  0.00013837  0.00014042  0.00015314  0.00015646  0.00015990  0.00017017  0.00017197
    Gval  0.00018352  0.00019625  0.00020075  0.00020376  0.00022437  0.00022947  0.00023562  0.00024808
    Gval  0.00026632  0.00028315  0.00029156  0.00029788  0.00030257  0.00031690  0.00034605  0.00036029
    Gval  0.00036356  0.00037538  0.00038376  0.00038921  0.00039111  0.00039899  0.00041381  0.00042133
    Gval  0.00042915  0.00043107  0.00043598  0.00044194  0.00044244  0.00045510  0.00046435  0.00047023
    Gval  0.00047248  0.00049488  0.00053068  0.00053442  0.00053726  0.00055376  0.00055536  0.00055595
    Gval  0.00055879  0.00059641  0.00059851  0.00059924  0.00059956  0.00059985  0.00060221  0.00061054
    Gval  0.00062445  0.00062670  0.00063920  0.00064149  0.00064489  0.00064574  0.00064747  0.00067099
    Gval  0.00069393  0.00069718  0.00079420  0.00080312  0.00085284  0.00096121  0.00099011  0.00108298
    Gval  0.00109387  0.00109480  0.00109549  0.00109600  0.00114187  0.00114566  0.00115792  0.00116445
    Gval  0.00116496  0.00116682  0.00116735  0.00116926  0.00116990  0.00118275  0.00124381  0.00129284
    Gval  0.00130266  0.00145293  0.00151696  0.00165200  0.00173151  0.00183952  0.00193287  0.00196832
    Gval  0.00227930  0.00234435  0.00251230  0.00252333  0.00255381  0.00262946  0.00278235  0.00292441
    Gval  0.00302251  0.00304254  0.00308261  0.00309291  0.00361732  0.00366574  0.00366854  0.00371344
    Gval  0.00371630  0.00393542  0.00395272
  4.671620538333712E-007  4.671620538333712E-007
  1.015029203658960E-006  4.671620538333712E-007
  1.536480212271747E-006  4.671620538333712E-007
  2.405127938010506E-006  4.671620538333712E-007
  4.651607552885543E-006  4.671620538333712E-007
  6.186741099837238E-006  4.671620538333712E-007
  7.187450197432266E-006  4.671620538333712E-007
  7.810196067910242E-006  4.671620538333712E-007
  9.199669717785802E-006  4.671620538333712E-007
  1.159222306664789E-005  4.671620538333712E-007
  1.217615980366368E-005  4.671620538333712E-007
  1.557066144697282E-005  4.671620538333712E-007
  1.669139252890503E-005  4.671620538333712E-007
  1.718667323881269E-005  4.671620538333712E-007
  1.828030483993925E-005  4.671620538333712E-007
  1.846378894554626E-005  4.671620538333712E-007
  2.105732623103021E-005  4.671620538333712E-007
  2.164038506065624E-005  4.671620538333712E-007
  2.370651868318964E-005  4.671620538333712E-007
  2.423333703217708E-005  4.671620538333712E-007
  2.500426839568388E-005  4.671620538333712E-007
  2.685291728605396E-005  4.671620538333712E-007
  3.069682970531626E-005  4.671620538333712E-007
  3.170472901773554E-005  4.671620538333712E-007
  3.933630978643502E-005  4.671620538333712E-007
  3.994239821065870E-005  4.671620538333712E-007
  3.999499735066978E-005  4.671620538333712E-007
  4.422375684263416E-005  4.671620538333712E-007
  4.780659856213291E-005  4.671620538333712E-007
  4.909227578621277E-005  4.671620538333712E-007
  4.963157352650567E-005  4.671620538333712E-007
  5.146670018146481E-005  4.671620538333712E-007
  5.256540043647191E-005  4.671620538333712E-007
  5.470282403966292E-005  4.671620538333712E-007
  6.015802817286714E-005  4.671620538333712E-007
  6.158242918361514E-005  4.671620538333712E-007
  6.305771000800375E-005  4.671620538333712E-007
  6.903183716146030E-005  4.671620538333712E-007
  7.063740394291367E-005  4.671620538333712E-007
  7.263142505408491E-005  4.671620538333712E-007
  7.607448626813778E-005  4.671620538333712E-007
  8.050171883521930E-005  4.671620538333712E-007
  8.207230320641371E-005  4.671620538333712E-007
  8.271798877078294E-005  4.671620538333712E-007
  8.457294594845272E-005  4.671620538333712E-007
  8.658379145496845E-005  4.671620538333712E-007
  9.036127306567519E-005  4.671620538333712E-007
  9.398717428225180E-005  4.671620538333712E-007
  9.629244929669320E-005  4.671620538333712E-007
  9.783174718024584E-005  4.671620538333712E-007
  1.062795677691510E-004  4.671620538333712E-007
  1.095782339224509E-004  4.671620538333712E-007
  1.188596233844453E-004  4.671620538333712E-007
  1.216848988357927E-004  4.671620538333712E-007
  1.267126007364980E-004  4.671620538333712E-007
  1.361382102808134E-004  4.671620538333712E-007
  1.378509676806232E-004  4.671620538333712E-007
  1.383730937875247E-004  4.671620538333712E-007
  1.404201954430812E-004  4.671620538333712E-007
  1.531362885450231E-004  4.671620538333712E-007
  1.564605624658812E-004  4.671620538333712E-007
  1.599006887974291E-004  4.671620538333712E-007
  1.701741561892417E-004  4.671620538333712E-007
  1.719708759928571E-004  4.671620538333712E-007
  1.835199786970218E-004  4.671620538333712E-007
  1.962543775743891E-004  4.671620538333712E-007
  2.007540367957266E-004  4.671620538333712E-007
  2.037579701893262E-004  4.671620538333712E-007
  2.243665279124423E-004  4.671620538333712E-007
  2.294712767020208E-004  4.671620538333712E-007
  2.356223906636784E-004  4.671620538333712E-007
  2.480810918077043E-004  4.671620538333712E-007
  2.663195041081981E-004  4.671620538333712E-007
  2.831482207861235E-004  4.671620538333712E-007
  2.915570568983293E-004  4.671620538333712E-007
  2.978840113741149E-004  4.671620538333712E-007
  3.025711546169842E-004  4.671620538333712E-007
  3.169029501227992E-004  4.671620538333712E-007
  3.460529352227158E-004  4.671620538333712E-007
  3.602934209754555E-004  4.671620538333712E-007
  3.635563240337784E-004  4.671620538333712E-007
  3.753782909070357E-004  4.671620538333712E-007
  3.837573556119585E-004  4.671620538333712E-007
  3.892115423075851E-004  4.671620538333712E-007
  3.911075480955961E-004  4.671620538333712E-007
  3.989913765664488E-004  4.671620538333712E-007
  4.138078836758447E-004  4.671620538333712E-007
  4.213316895271339E-004  4.671620538333712E-007
  4.291533426702103E-004  4.671620538333712E-007
  4.310730419243177E-004  4.671620538333712E-007
  4.359808951530312E-004  4.671620538333712E-007
  4.419444892326251E-004  4.671620538333712E-007
  4.424412380559527E-004  4.671620538333712E-007
  4.551025609248221E-004  4.671620538333712E-007
  4.643541656774435E-004  4.671620538333712E-007
  4.702330779992061E-004  4.671620538333712E-007
  4.724750923182907E-004  4.671620538333712E-007
  4.948844374371107E-004  4.671620538333712E-007
  5.306764471376464E-004  4.671620538333712E-007
  5.344167930786220E-004  4.671620538333712E-007
  5.372648935644746E-004  4.671620538333712E-007
  5.537645003326000E-004  4.671620538333712E-007
  5.553590538337216E-004  4.671620538333712E-007
  5.559538044488337E-004  4.671620538333712E-007
  5.587899322480197E-004  4.671620538333712E-007
  5.964100128123729E-004  4.671620538333712E-007
  5.985090049429472E-004  4.671620538333712E-007
  5.992379806136370E-004  4.671620538333712E-007
  5.995640137293728E-004  4.671620538333712E-007
  5.998516641442322E-004  4.671620538333712E-007
  6.022105121278904E-004  4.671620538333712E-007
  6.105414023463039E-004  4.671620538333712E-007
  6.244459117464669E-004  4.671620538333712E-007
  6.267029802031789E-004  4.671620538333712E-007
  6.391958585818874E-004  4.671620538333712E-007
  6.414889202933498E-004  4.671620538333712E-007
  6.448912314249836E-004  4.671620538333712E-007
  6.457399832521594E-004  4.671620538333712E-007
  6.474655836476164E-004  4.671620538333712E-007
  6.709857410794581E-004  4.671620538333712E-007
  6.939310603748011E-004  4.671620538333712E-007
  6.971818693764175E-004  4.671620538333712E-007
  7.941990134858521E-004  4.671620538333712E-007
  8.031209579626735E-004  4.671620538333712E-007
  8.528378005371094E-004  4.671620538333712E-007
  9.612051736127927E-004  4.671620538333712E-007
  9.901138791119639E-004  4.671620538333712E-007
  1.082980548811506E-003  4.671620538333712E-007
  1.093866420576535E-003  4.671620538333712E-007
  1.094801066568484E-003  4.671620538333712E-007
  1.095487013079557E-003  4.671620538333712E-007
  1.096003696247476E-003  4.671620538333712E-007
  1.141866881037662E-003  4.671620538333712E-007
  1.145657667225281E-003  4.671620538333712E-007
  1.157917018901612E-003  4.671620538333712E-007
  1.164447778287656E-003  4.671620538333712E-007
  1.164963893082845E-003  4.671620538333712E-007
  1.166818405868704E-003  4.671620538333712E-007
  1.167345551282628E-003  4.671620538333712E-007
  1.169257866665046E-003  4.671620538333712E-007
  1.169896006608820E-003  4.671620538333712E-007
  1.182754788225795E-003  4.671620538333712E-007
  1.243805477557376E-003  4.671620538333712E-007
  1.292842943251702E-003  4.671620538333712E-007
  1.302657703318382E-003  4.671620538333712E-007
  1.452931086522742E-003  4.671620538333712E-007
  1.516962644143605E-003  4.671620538333712E-007
  1.651996155569171E-003  4.671620538333712E-007
  1.731509900387269E-003  4.671620538333712E-007
  1.839523312622383E-003  4.671620538333712E-007
  1.932867474938726E-003  4.671620538333712E-007
  1.968319380178299E-003  4.671620538333712E-007
  2.279297646568939E-003  4.671620538333712E-007
  2.344350984204914E-003  4.671620538333712E-007
  2.512301918681601E-003  4.671620538333712E-007
  2.523330497874761E-003  4.671620538333712E-007
  2.553808934316069E-003  4.671620538333712E-007
  2.629462924007122E-003  4.671620538333712E-007
  2.782353376154147E-003  4.671620538333712E-007
  2.924408588752128E-003  4.671620538333712E-007
  3.022506373362870E-003  4.671620538333712E-007
  3.042539797844712E-003  4.671620538333712E-007
  3.082614550054754E-003  4.671620538333712E-007
  3.092908437020946E-003  4.671620538333712E-007
  3.617317301049263E-003  4.671620538333712E-007
  3.665739830295322E-003  4.671620538333712E-007
  3.668544009424531E-003  4.671620538333712E-007
  3.713437660737859E-003  4.671620538333712E-007
  3.716303683716489E-003  4.671620538333712E-007
  3.935416092631232E-003  4.671620538333712E-007
  3.952724625314629E-003  4.671620538333712E-007
 cut=1d-8, nber non-redundant internal coords=         171
 Check on Eigenvals of non-red overlap matrix:
  0.00000047  0.00000102  0.00000154  0.00000241  0.00000465  0.00000619  0.00000719  0.00000781
  0.00000920  0.00001159  0.00001218  0.00001557  0.00001669  0.00001719  0.00001828  0.00001846
  0.00002106  0.00002164  0.00002371  0.00002423  0.00002500  0.00002685  0.00003070  0.00003170
  0.00003934  0.00003994  0.00003999  0.00004422  0.00004781  0.00004909  0.00004963  0.00005147
  0.00005257  0.00005470  0.00006016  0.00006158  0.00006306  0.00006903  0.00007064  0.00007263
  0.00007607  0.00008050  0.00008207  0.00008272  0.00008457  0.00008658  0.00009036  0.00009399
  0.00009629  0.00009783  0.00010628  0.00010958  0.00011886  0.00012168  0.00012671  0.00013614
  0.00013785  0.00013837  0.00014042  0.00015314  0.00015646  0.00015990  0.00017017  0.00017197
  0.00018352  0.00019625  0.00020075  0.00020376  0.00022437  0.00022947  0.00023562  0.00024808
  0.00026632  0.00028315  0.00029156  0.00029788  0.00030257  0.00031690  0.00034605  0.00036029
  0.00036356  0.00037538  0.00038376  0.00038921  0.00039111  0.00039899  0.00041381  0.00042133
  0.00042915  0.00043107  0.00043598  0.00044194  0.00044244  0.00045510  0.00046435  0.00047023
  0.00047248  0.00049488  0.00053068  0.00053442  0.00053726  0.00055376  0.00055536  0.00055595
  0.00055879  0.00059641  0.00059851  0.00059924  0.00059956  0.00059985  0.00060221  0.00061054
  0.00062445  0.00062670  0.00063920  0.00064149  0.00064489  0.00064574  0.00064747  0.00067099
  0.00069393  0.00069718  0.00079420  0.00080312  0.00085284  0.00096121  0.00099011  0.00108298
  0.00109387  0.00109480  0.00109549  0.00109600  0.00114187  0.00114566  0.00115792  0.00116445
  0.00116496  0.00116682  0.00116735  0.00116926  0.00116990  0.00118275  0.00124381  0.00129284
  0.00130266  0.00145293  0.00151696  0.00165200  0.00173151  0.00183952  0.00193287  0.00196832
  0.00227930  0.00234435  0.00251230  0.00252333  0.00255381  0.00262946  0.00278235  0.00292441
  0.00302251  0.00304254  0.00308261  0.00309291  0.00361732  0.00366574  0.00366854  0.00371344
  0.00371630  0.00393542  0.00395272
 int defn changed for coord          24
          24          21           0           0
          24          23           0           0
