 Enter ifcurve (0=recti, 1=orth curvi, 2=apprx curvi, -1 = skip
 And atom ordering flag, 0= never changes, 1= use the first order thenceforth,
  2= deduce it (does read on fail), 3= always read it
 Reading file: 
 ./conjugated_carbonyls_1_C0S0.log                                              
                                          
  Entering Gaussian System, Link 0=g16                                          
  
 Gaussian format, type: g94, g98, g03= F F F
  #P Geom=AllCheck Guess=TCheck SCRF=Check Test GenChk RB3LYP/6-311G(d,p    
 energy type= B3LYP   
 Original G94 input coords:
  8 -1.372009 -3.053616  0.000000
  6 -0.775375 -2.001508  0.000000
  6  0.775375 -2.001508  0.000000
  8  1.372009 -3.053616  0.000000
  6  1.459043 -0.684040  0.000000
  6  2.856417 -0.642590  0.000000
  6  3.491527  0.587177  0.000000
  6  2.694120  1.734964 -0.000001
  7  1.363257  1.717959  0.000000
  6  0.745661  0.531414  0.000000
  6 -0.745661  0.531414  0.000000
  7 -1.363257  1.717959 -0.000001
  6 -2.694120  1.734964  0.000001
  6 -3.491527  0.587177  0.000000
  6 -2.856417 -0.642590  0.000000
  6 -1.459043 -0.684040  0.000000
  1  3.403726 -1.577621  0.000001
  1  4.571677  0.667686  0.000000
  1  3.152801  2.720174  0.000000
  1 -3.152801  2.720174  0.000001
  1 -4.571677  0.667686  0.000000
  1 -3.403726 -1.577621  0.000000
 nber atoms=          22
  SCF Done:  E(RB3LYP) =  -721.000661508     A.U. after    1 cycles             
  
          23          40 "  -721.000661508"
After scan for Atom:   Atom  AN      X      Y      Z        X      Y      Z        X      Y      Z   
After scan for Atom:   Atom  AN      X      Y      Z        X      Y      Z        X      Y      Z   
After scan for Atom:   Atom  AN      X      Y      Z        X      Y      Z        X      Y      Z   
After scan for Atom:   Atom  AN      X      Y      Z        X      Y      Z        X      Y      Z   
After scan for Atom:   Atom  AN      X      Y      Z        X      Y      Z        X      Y      Z   
After scan for Atom:   Atom  AN      X      Y      Z        X      Y      Z        X      Y      Z   
After scan for Atom:   Atom  AN      X      Y      Z        X      Y      Z        X      Y      Z   
After scan for Atom:   Atom  AN      X      Y      Z        X      Y      Z        X      Y      Z   
After scan for Atom:   Atom  AN      X      Y      Z        X      Y      Z        X      Y      Z   
After scan for Atom:   Atom  AN      X      Y      Z        X      Y      Z        X      Y      Z   
After scan for Atom:   Atom  AN      X      Y      Z        X      Y      Z        X      Y      Z   
After scan for Atom:   Atom  AN      X      Y      Z        X      Y      Z        X      Y      Z   
After scan for Atom:   Atom  AN      X      Y      Z        X      Y      Z        X      Y      Z   
After scan for Atom:   Atom  AN      X      Y      Z        X      Y      Z        X      Y      Z   
After scan for Atom:   Atom  AN      X      Y      Z        X      Y      Z        X      Y      Z   
After scan for Atom:   Atom  AN      X      Y      Z        X      Y      Z        X      Y      Z   
After scan for Atom:   Atom  AN      X      Y      Z        X      Y      Z        X      Y      Z   
After scan for Atom:   Atom  AN      X      Y      Z        X      Y      Z        X      Y      Z   
After scan for Atom:   Atom  AN      X      Y      Z        X      Y      Z        X      Y      Z   
After scan for Atom:   Atom  AN      X      Y      Z        X      Y      Z        X      Y      Z   
 g94    frequencies=
     0.0    0.0    0.0    0.0    0.0    0.0   36.9   84.2  110.1  154.3
   231.0  258.4  318.7  359.9  381.2  395.0  401.3  436.2  440.9  458.4
   564.0  572.3  623.4  632.1  680.1  713.3  766.0  778.8  831.2  833.1
   833.5  878.5  937.7  991.9  994.2 1019.8 1020.1 1021.7 1056.0 1079.9
  1105.4 1110.2 1133.9 1206.6 1230.3 1283.2 1295.7 1304.7 1312.7 1343.8
  1449.4 1453.7 1485.2 1490.8 1592.1 1606.3 1616.3 1628.0 1756.1 1781.3
  3148.5 3149.0 3187.7 3187.8 3201.5 3201.6
 g94    symmetries=
                                                 A      A      A      A
       A      A      A      A      A      A      A      A      A      A
       A      A      A      A      A      A      A      A      A      A
       A      A      A      A      A      A      A      A      A      A
       A      A      A      A      A      A      A      A      A      A
       A      A      A      A      A      A      A      A      A      A
       A      A      A      A      A      A
 atomic masses:
 15.9949 12.0000 12.0000 15.9949 12.0000 12.0000 12.0000 12.0000 14.0031 12.0000
 12.0000 14.0031 12.0000 12.0000 12.0000 12.0000  1.0078  1.0078  1.0078  1.0078
  1.0078  1.0078
 looking for force constants in 
 ./conjugated_carbonyls_1_C0S0.fchk                                             
  
 Cartesian Force Constants                  R   N=        2211                  
  
 n3=          66        2211
 g94-fc frequencies=
    -3.2   -3.1   -2.7   -0.0   -0.0    0.0   36.9   84.2  110.1  154.3
   231.0  258.4  318.7  359.9  381.2  395.1  401.3  436.2  440.9  458.4
   564.0  572.3  623.4  632.1  680.1  713.3  766.0  778.8  831.3  833.1
   833.5  878.6  937.7  991.9  994.2 1019.8 1020.2 1021.7 1056.0 1079.9
  1105.4 1110.2 1133.9 1206.6 1230.3 1283.3 1295.8 1304.7 1312.8 1343.9
  1449.4 1453.7 1485.2 1490.8 1592.2 1606.3 1616.3 1628.0 1756.1 1781.4
  3148.6 3149.0 3187.8 3187.9 3201.5 3201.7
 at 99999: n3=          66
 symm operator            1 :  F  nop=           0
 symm operator            2 :  T  nop=           1
 symm operator            3 :  F  nop=           1
 symm operator            4 :  F  nop=           1
 symm operator            5 :  T  nop=           2
 symm operator            6 :  F  nop=           2
 symm operator            7 :  T  nop=           3
 swap           2           3
   1  -1.37201   0.00000  -3.05362
   2  -0.77538   0.00000  -2.00151
   3   0.77538   0.00000  -2.00151
   4   1.37201   0.00000  -3.05362
   5   1.45904   0.00000  -0.68404
   6   2.85642   0.00000  -0.64259
   7   3.49153   0.00000   0.58718
   8   2.69412  -0.00000   1.73496
   9   1.36326   0.00000   1.71796
  10   0.74566   0.00000   0.53141
  11  -0.74566   0.00000   0.53141
  12  -1.36326  -0.00000   1.71796
  13  -2.69412   0.00000   1.73496
  14  -3.49153   0.00000   0.58718
  15  -2.85642   0.00000  -0.64259
  16  -1.45904   0.00000  -0.68404
  17   3.40373   0.00000  -1.57762
  18   4.57168   0.00000   0.66769
  19   3.15280   0.00000   2.72017
  20  -3.15280   0.00000   2.72017
  21  -4.57168   0.00000   0.66769
  22  -3.40373   0.00000  -1.57762
 swap           1           2
   1   0.00000  -1.37201  -3.05362
   2   0.00000  -0.77538  -2.00151
   3   0.00000   0.77538  -2.00151
   4   0.00000   1.37201  -3.05362
   5   0.00000   1.45904  -0.68404
   6   0.00000   2.85642  -0.64259
   7   0.00000   3.49153   0.58718
   8  -0.00000   2.69412   1.73496
   9   0.00000   1.36326   1.71796
  10   0.00000   0.74566   0.53141
  11   0.00000  -0.74566   0.53141
  12  -0.00000  -1.36326   1.71796
  13   0.00000  -2.69412   1.73496
  14   0.00000  -3.49153   0.58718
  15   0.00000  -2.85642  -0.64259
  16   0.00000  -1.45904  -0.68404
  17   0.00000   3.40373  -1.57762
  18   0.00000   4.57168   0.66769
  19   0.00000   3.15280   2.72017
  20   0.00000  -3.15280   2.72017
  21   0.00000  -4.57168   0.66769
  22   0.00000  -3.40373  -1.57762
 The point group of the molecule is C2V
 enforcing symm op           1  jsymt=          -1          -1           1
 enforcing symm op           6  jsymt=           1          -1           1
 enforcing symm op           7  jsymt=          -1           1           1
 cartesian coord symmetries:
 A1 :   22 A2 :   11 B1 :   11 B2 :   22
 Symmetry rotation matrix:
   0.00000   0.00000   1.00000
  -1.00000   0.00000   0.00000
   0.00000  -1.00000   0.00000

 Projecting out zero-frequency components
 generating redundant internal coords
         300        3600          22
 search for int coords
   1 str   2   1   1.210
   2 str   3   2   1.551
   3 str   4   3   1.210
   4 str   5   3   1.484
   5 str   6   5   1.398
   6 str   7   6   1.384
   7 str   8   7   1.398
   8 str   9   8   1.331
   9 str  10   5   1.409
  10 str  10   9   1.338
  11 str  11  10   1.491
  12 str  12  11   1.338
  13 str  13  12   1.331
  14 str  14  13   1.398
  15 str  15  14   1.384
  16 str  16   2   1.484
  17 str  16  11   1.409
  18 str  16  15   1.398
  19 str  17   6   1.083
  20 str  18   7   1.083
  21 str  19   8   1.087
  22 str  20  13   1.087
  23 str  21  14   1.083
  24 str  22  15   1.083
 nber stretches=          24
  25 ben   1   2   3
  26 prop tor   1   2   3   4
  27 prop tor   1   2   3   5
  28 ben   1   2  16
  29 prop tor   1   2  16  11
  30 prop tor   1   2  16  15
  31 ben   2   3   4
  32 ben   2   3   5
  33 prop tor   2   3   5   6
  34 prop tor   2   3   5  10
  35 ben   2  16  11
  36 ben   2  16  15
  37 ben   3   2  16
  38 prop tor   3   2  16  11
  39 prop tor   3   2  16  15
  40 ben   3   5   6
  41 prop tor   3   5   6   7
  42 prop tor   3   5   6  17
  43 ben   3   5  10
  44 prop tor   3   5  10   9
  45 prop tor   3   5  10  11
  46 ben   4   3   5
  47 prop tor   4   3   5   6
  48 prop tor   4   3   5  10
  49 ben   5   6   7
  50 prop tor   5   6   7   8
  51 prop tor   5   6   7  18
  52 ben   5   6  17
  53 ben   5  10   9
  54 ben   5  10  11
  55 prop tor   5  10  11  12
  56 prop tor   5  10  11  16
  57 ben   6   5  10
  58 prop tor   6   5  10   9
  59 prop tor   6   5  10  11
  60 ben   6   7   8
  61 prop tor   6   7   8   9
  62 prop tor   6   7   8  19
  63 ben   6   7  18
  64 ben   7   6  17
  65 ben   7   8   9
  66 prop tor   7   8   9  10
  67 ben   7   8  19
  68 ben   8   7  18
  69 ben   8   9  10
  70 prop tor   8   9  10   5
  71 prop tor   8   9  10  11
  72 ben   9   8  19
  73 ben   9  10  11
  74 prop tor   9  10  11  12
  75 prop tor   9  10  11  16
  76 prop tor  10   5   6   7
  77 prop tor  10   5   6  17
  78 ben  10  11  12
  79 prop tor  10  11  12  13
  80 ben  10  11  16
  81 prop tor  10  11  16   2
  82 prop tor  10  11  16  15
  83 ben  11  12  13
  84 prop tor  11  12  13  14
  85 prop tor  11  12  13  20
  86 ben  11  16  15
  87 ben  12  11  16
  88 prop tor  12  11  16   2
  89 prop tor  12  11  16  15
  90 ben  12  13  14
  91 prop tor  12  13  14  15
  92 prop tor  12  13  14  21
  93 ben  12  13  20
  94 ben  13  14  15
  95 prop tor  13  14  15  16
  96 prop tor  13  14  15  22
  97 ben  13  14  21
  98 ben  14  13  20
  99 ben  14  15  16
 100 prop tor  14  15  16   2
 101 prop tor  14  15  16  11
 102 ben  14  15  22
 103 ben  15  14  21
 104 prop tor  16   2   3   4
 105 prop tor  16   2   3   5
 106 prop tor  16  11  12  13
 107 ben  16  15  22
 108 prop tor  17   6   7   8
 109 prop tor  17   6   7  18
 110 prop tor  18   7   8   9
 111 prop tor  18   7   8  19
 112 prop tor  19   8   9  10
 113 prop tor  20  13  14  15
 114 prop tor  20  13  14  21
 115 prop tor  21  14  15  16
 116 prop tor  21  14  15  22
 117 prop tor  22  15  16   2
 118 prop tor  22  15  16  11
 nber bend=              38
 nber lin bend=           0
 nber prop tor=          56
 nber impr tor=           0
 nber tot redund int=         118
 Eigenvalues of G in red int coords
    Gval -0.00000000 -0.00000000 -0.00000000 -0.00000000 -0.00000000 -0.00000000 -0.00000000 -0.00000000
    Gval -0.00000000 -0.00000000 -0.00000000 -0.00000000 -0.00000000 -0.00000000 -0.00000000 -0.00000000
    Gval -0.00000000 -0.00000000 -0.00000000 -0.00000000 -0.00000000 -0.00000000 -0.00000000 -0.00000000
    Gval -0.00000000 -0.00000000 -0.00000000 -0.00000000 -0.00000000 -0.00000000 -0.00000000 -0.00000000
    Gval -0.00000000  0.00000000  0.00000000  0.00000000  0.00000000  0.00000000  0.00000000  0.00000000
    Gval  0.00000000  0.00000000  0.00000000  0.00000000  0.00000000  0.00000000  0.00000000  0.00000000
    Gval  0.00000000  0.00000000  0.00000000  0.00000000  0.00000000  0.00000000  0.00000000  0.00000000
    Gval  0.00000000  0.00000000  0.00000701  0.00001113  0.00001201  0.00002002  0.00002155  0.00002609
    Gval  0.00003416  0.00004315  0.00004660  0.00005006  0.00005418  0.00005862  0.00006036  0.00007438
    Gval  0.00007778  0.00010079  0.00010129  0.00011065  0.00011534  0.00012558  0.00013379  0.00013440
    Gval  0.00015174  0.00019713  0.00024237  0.00024323  0.00027152  0.00028590  0.00031893  0.00036678
    Gval  0.00038046  0.00041068  0.00041987  0.00044306  0.00044882  0.00059389  0.00059390  0.00060642
    Gval  0.00060706  0.00061304  0.00064620  0.00064629  0.00068927  0.00089346  0.00091201  0.00106413
    Gval  0.00106446  0.00113490  0.00113491  0.00117435  0.00117440  0.00120594  0.00155935  0.00163063
    Gval  0.00175450  0.00214430  0.00274943  0.00276863  0.00390519  0.00390603
  7.008948385494513E-006  7.008948385494513E-006
  1.113371242894905E-005  7.008948385494513E-006
  1.200715153585285E-005  7.008948385494513E-006
  2.002459125187453E-005  7.008948385494513E-006
  2.154756938723744E-005  7.008948385494513E-006
  2.609081450955228E-005  7.008948385494513E-006
  3.416118081382953E-005  7.008948385494513E-006
  4.315344805499716E-005  7.008948385494513E-006
  4.660483535270615E-005  7.008948385494513E-006
  5.005542711302460E-005  7.008948385494513E-006
  5.417547686712922E-005  7.008948385494513E-006
  5.861880664677866E-005  7.008948385494513E-006
  6.036281814339447E-005  7.008948385494513E-006
  7.437803229640111E-005  7.008948385494513E-006
  7.777951166139731E-005  7.008948385494513E-006
  1.007898039244538E-004  7.008948385494513E-006
  1.012945221700040E-004  7.008948385494513E-006
  1.106535691367035E-004  7.008948385494513E-006
  1.153363065561977E-004  7.008948385494513E-006
  1.255792845346793E-004  7.008948385494513E-006
  1.337852155971010E-004  7.008948385494513E-006
  1.344026845666893E-004  7.008948385494513E-006
  1.517358584302593E-004  7.008948385494513E-006
  1.971311062219893E-004  7.008948385494513E-006
  2.423746727335284E-004  7.008948385494513E-006
  2.432338503613381E-004  7.008948385494513E-006
  2.715229150512017E-004  7.008948385494513E-006
  2.859040266009948E-004  7.008948385494513E-006
  3.189337871289251E-004  7.008948385494513E-006
  3.667844716297601E-004  7.008948385494513E-006
  3.804566177431583E-004  7.008948385494513E-006
  4.106770468195681E-004  7.008948385494513E-006
  4.198741917882376E-004  7.008948385494513E-006
  4.430639819780731E-004  7.008948385494513E-006
  4.488175016478287E-004  7.008948385494513E-006
  5.938900205782296E-004  7.008948385494513E-006
  5.939022141205637E-004  7.008948385494513E-006
  6.064166338605618E-004  7.008948385494513E-006
  6.070577034301853E-004  7.008948385494513E-006
  6.130424950960940E-004  7.008948385494513E-006
  6.461975177294942E-004  7.008948385494513E-006
  6.462852024155412E-004  7.008948385494513E-006
  6.892711805613125E-004  7.008948385494513E-006
  8.934577604512691E-004  7.008948385494513E-006
  9.120084555327421E-004  7.008948385494513E-006
  1.064134526060973E-003  7.008948385494513E-006
  1.064458957169261E-003  7.008948385494513E-006
  1.134904277866598E-003  7.008948385494513E-006
  1.134909087225895E-003  7.008948385494513E-006
  1.174348893980218E-003  7.008948385494513E-006
  1.174400441403786E-003  7.008948385494513E-006
  1.205936038501897E-003  7.008948385494513E-006
  1.559345526538462E-003  7.008948385494513E-006
  1.630631377783793E-003  7.008948385494513E-006
  1.754498816801798E-003  7.008948385494513E-006
  2.144303770679323E-003  7.008948385494513E-006
  2.749426539848702E-003  7.008948385494513E-006
  2.768631387947843E-003  7.008948385494513E-006
  3.905190074070343E-003  7.008948385494513E-006
  3.906027435324884E-003  7.008948385494513E-006
 cut=1d-8, nber non-redundant internal coords=          60
 Check on Eigenvals of non-red overlap matrix:
  0.00000701  0.00001113  0.00001201  0.00002002  0.00002155  0.00002609  0.00003416  0.00004315
  0.00004660  0.00005006  0.00005418  0.00005862  0.00006036  0.00007438  0.00007778  0.00010079
  0.00010129  0.00011065  0.00011534  0.00012558  0.00013379  0.00013440  0.00015174  0.00019713
  0.00024237  0.00024323  0.00027152  0.00028590  0.00031893  0.00036678  0.00038046  0.00041068
  0.00041987  0.00044306  0.00044882  0.00059389  0.00059390  0.00060642  0.00060706  0.00061304
  0.00064620  0.00064629  0.00068927  0.00089346  0.00091201  0.00106413  0.00106446  0.00113490
  0.00113491  0.00117435  0.00117440  0.00120594  0.00155935  0.00163063  0.00175450  0.00214430
  0.00274943  0.00276863  0.00390519  0.00390603
 Checking for correct frequencies
 recalc frequencies=
    -0.0   -0.0   -0.0    0.0    0.0    0.0   36.9   84.2  110.1  154.3
   231.0  258.4  318.7  359.9  381.2  395.1  401.3  436.2  440.9  458.4
   564.0  572.3  623.4  632.1  680.1  713.3  766.0  778.8  831.3  833.1
   833.5  878.6  937.7  991.9  994.2 1019.8 1020.2 1021.7 1056.0 1079.9
  1105.4 1110.2 1133.9 1206.6 1230.3 1283.3 1295.8 1304.7 1312.8 1343.9
  1449.4 1453.7 1485.2 1490.8 1592.2 1606.3 1616.3 1628.0 1756.1 1781.4
  3148.6 3149.0 3187.8 3187.9 3201.5 3201.7
 recalc symmetries=
     B2     B2     B1     A1     A2     B1     A2     B1     A2     B1 
     A1     A2     B2     A1     B1     B2     A1     A2     B1     A1 
     B1     A2     B2     B2     A1     B2     B1     A2     A1     B1 
     A2     A2     B2     B1     A2     A1     B1     A2     B2     A1 
     B2     A1     B2     A1     B2     B2     A1     A1     B2     A1 
     B2     A1     A1     B2     A1     B2     A1     B2     A1     B2 
     B2     A1     B2     A1     B2     A1 
 recalc freqs check OK
 Zero-point lengths:
 10.0000 10.0000 10.0000 10.0000 10.0000 10.0000 40.8380 27.0235 23.6216 19.9560
 16.3128 15.4221 13.8864 13.0676 12.6972 12.4729 12.3760 11.8700 11.8066 11.5795
 10.4391 10.3628  9.9293  9.8607  9.5063  9.2823  8.9573  8.8832  8.5986  8.5889
  8.5871  8.3640  8.0959  7.8716  7.8626  7.7632  7.7618  7.7558  7.6288  7.5441
  7.4566  7.4402  7.3622  7.1368  7.0679  6.9205  6.8870  6.8633  6.8423  6.7626
  6.5118  6.5021  6.4328  6.4208  6.2130  6.1856  6.1664  6.1443  5.9159  5.8738
  4.4181  4.4178  4.3909  4.3908  4.3814  4.3813
 highest evec of mol 1
  0.0000 -0.0014 -0.0009
  0.0000  0.0017  0.0021
  0.0000 -0.0017  0.0021
  0.0000  0.0014 -0.0009
  0.0000  0.0054  0.0004
  0.0000 -0.0813  0.1465
  0.0000 -0.1235 -0.0154
  0.0000 -0.0038 -0.0220
  0.0000  0.0008  0.0005
  0.0000  0.0011 -0.0008
  0.0000 -0.0011 -0.0008
  0.0000 -0.0008  0.0005
  0.0000  0.0038 -0.0220
  0.0000  0.1235 -0.0154
  0.0000  0.0813  0.1465
  0.0000 -0.0054  0.0004
  0.0000  0.2781 -0.4671
  0.0000  0.3947  0.0306
  0.0000  0.0229  0.0555
  0.0000 -0.0229  0.0555
  0.0000 -0.3947  0.0306
  0.0000 -0.2781 -0.4671
 generating redundant internal coords
         300        3600          22
 Adding extra bonds for z output only
           8           6           6           8           6           6
           6           6           7           6           6           7
           6           6           6           6           1           1
           1           1           1           1
 search for int coords
   1 str   2   1   1.210
   2 str   3   2   1.551
   3 str   4   3   1.210
   4 str   5   3   1.484
   5 str   6   5   1.398
   6 str   7   6   1.384
   7 str   8   7   1.398
   8 str   9   8   1.331
   9 str  10   5   1.409
  10 str  10   9   1.338
  11 str  11  10   1.491
  12 str  12  11   1.338
  13 str  13  12   1.331
  14 str  14  13   1.398
  15 str  15  14   1.384
  16 str  16   2   1.484
  17 str  16  11   1.409
  18 str  16  15   1.398
  19 str  17   6   1.083
  20 str  18   7   1.083
  21 str  19   8   1.087
  22 str  20  13   1.087
  23 str  21  14   1.083
  24 str  22  15   1.083
 nber stretches=          24
  25 ben   1   2   3
  26 prop tor   1   2   3   4
  27 prop tor   1   2   3   5
  28 ben   1   2  16
  29 prop tor   1   2  16  11
  30 prop tor   1   2  16  15
  31 ben   2   3   4
  32 ben   2   3   5
  33 prop tor   2   3   5   6
  34 prop tor   2   3   5  10
  35 ben   2  16  11
  36 ben   2  16  15
  37 ben   3   2  16
  38 prop tor   3   2  16  11
  39 prop tor   3   2  16  15
  40 ben   3   5   6
  41 prop tor   3   5   6   7
  42 prop tor   3   5   6  17
  43 ben   3   5  10
  44 prop tor   3   5  10   9
  45 prop tor   3   5  10  11
  46 ben   4   3   5
  47 prop tor   4   3   5   6
  48 prop tor   4   3   5  10
  49 ben   5   6   7
  50 prop tor   5   6   7   8
  51 prop tor   5   6   7  18
  52 ben   5   6  17
  53 ben   5  10   9
  54 ben   5  10  11
  55 prop tor   5  10  11  12
  56 prop tor   5  10  11  16
  57 ben   6   5  10
  58 prop tor   6   5  10   9
  59 prop tor   6   5  10  11
  60 ben   6   7   8
  61 prop tor   6   7   8   9
  62 prop tor   6   7   8  19
  63 ben   6   7  18
  64 ben   7   6  17
  65 ben   7   8   9
  66 prop tor   7   8   9  10
  67 ben   7   8  19
  68 ben   8   7  18
  69 ben   8   9  10
  70 prop tor   8   9  10   5
  71 prop tor   8   9  10  11
  72 ben   9   8  19
  73 ben   9  10  11
  74 prop tor   9  10  11  12
  75 prop tor   9  10  11  16
  76 prop tor  10   5   6   7
  77 prop tor  10   5   6  17
  78 ben  10  11  12
  79 prop tor  10  11  12  13
  80 ben  10  11  16
  81 prop tor  10  11  16   2
  82 prop tor  10  11  16  15
  83 ben  11  12  13
  84 prop tor  11  12  13  14
  85 prop tor  11  12  13  20
  86 ben  11  16  15
  87 ben  12  11  16
  88 prop tor  12  11  16   2
  89 prop tor  12  11  16  15
  90 ben  12  13  14
  91 prop tor  12  13  14  15
  92 prop tor  12  13  14  21
  93 ben  12  13  20
  94 ben  13  14  15
  95 prop tor  13  14  15  16
  96 prop tor  13  14  15  22
  97 ben  13  14  21
  98 ben  14  13  20
  99 ben  14  15  16
 100 prop tor  14  15  16   2
 101 prop tor  14  15  16  11
 102 ben  14  15  22
 103 ben  15  14  21
 104 prop tor  16   2   3   4
 105 prop tor  16   2   3   5
 106 prop tor  16  11  12  13
 107 ben  16  15  22
 108 prop tor  17   6   7   8
 109 prop tor  17   6   7  18
 110 prop tor  18   7   8   9
 111 prop tor  18   7   8  19
 112 prop tor  19   8   9  10
 113 prop tor  20  13  14  15
 114 prop tor  20  13  14  21
 115 prop tor  21  14  15  16
 116 prop tor  21  14  15  22
 117 prop tor  22  15  16   2
 118 prop tor  22  15  16  11
 nber bend=              38
 nber lin bend=           0
 nber prop tor=          56
 nber impr tor=           0
 nber tot redund int=         118
 Reading file: 
 ./conjugated_carbonyls_1_C-3S0.log                                             
                                          
  Entering Gaussian System, Link 0=g16                                          
  
 Gaussian format, type: g94, g98, g03= F F F
  #P Geom=AllCheck Guess=TCheck SCRF=Check Test GenChk UB3LYP/6-311G(d,p    
 energy type= B3LYP   
 Original G94 input coords:
  8 -1.393847 -3.086058  0.000000
  6 -0.756489 -1.977858  0.000000
  6  0.756489 -1.977858  0.000000
  8  1.393847 -3.086058  0.000000
  6  1.438815 -0.700458  0.000000
  6  2.878825 -0.669500  0.000000
  6  3.534548  0.585911  0.000000
  6  2.759113  1.739536  0.000000
  7  1.398074  1.780222  0.000000
  6  0.725522  0.560764  0.000000
  6 -0.725522  0.560764  0.000000
  7 -1.398074  1.780222  0.000000
  6 -2.759113  1.739536  0.000000
  6 -3.534548  0.585911  0.000000
  6 -2.878825 -0.669500  0.000000
  6 -1.438815 -0.700458  0.000000
  1  3.405848 -1.618844  0.000000
  1  4.630635  0.662647  0.000000
  1  3.259132  2.723638  0.000000
  1 -3.259132  2.723638  0.000000
  1 -4.630635  0.662647  0.000000
  1 -3.405848 -1.618844  0.000000
 nber atoms=          22
  SCF Done:  E(UB3LYP) =  -720.659125064     A.U. after    1 cycles             
  
          23          40 "  -720.659125064"
After scan for Atom:   Atom  AN      X      Y      Z        X      Y      Z        X      Y      Z   
After scan for Atom:   Atom  AN      X      Y      Z        X      Y      Z        X      Y      Z   
After scan for Atom:   Atom  AN      X      Y      Z        X      Y      Z        X      Y      Z   
After scan for Atom:   Atom  AN      X      Y      Z        X      Y      Z        X      Y      Z   
After scan for Atom:   Atom  AN      X      Y      Z        X      Y      Z        X      Y      Z   
After scan for Atom:   Atom  AN      X      Y      Z        X      Y      Z        X      Y      Z   
After scan for Atom:   Atom  AN      X      Y      Z        X      Y      Z        X      Y      Z   
After scan for Atom:   Atom  AN      X      Y      Z        X      Y      Z        X      Y      Z   
After scan for Atom:   Atom  AN      X      Y      Z        X      Y      Z        X      Y      Z   
After scan for Atom:   Atom  AN      X      Y      Z        X      Y      Z        X      Y      Z   
After scan for Atom:   Atom  AN      X      Y      Z        X      Y      Z        X      Y      Z   
After scan for Atom:   Atom  AN      X      Y      Z        X      Y      Z        X      Y      Z   
After scan for Atom:   Atom  AN      X      Y      Z        X      Y      Z        X      Y      Z   
After scan for Atom:   Atom  AN      X      Y      Z        X      Y      Z        X      Y      Z   
After scan for Atom:   Atom  AN      X      Y      Z        X      Y      Z        X      Y      Z   
After scan for Atom:   Atom  AN      X      Y      Z        X      Y      Z        X      Y      Z   
After scan for Atom:   Atom  AN      X      Y      Z        X      Y      Z        X      Y      Z   
After scan for Atom:   Atom  AN      X      Y      Z        X      Y      Z        X      Y      Z   
After scan for Atom:   Atom  AN      X      Y      Z        X      Y      Z        X      Y      Z   
After scan for Atom:   Atom  AN      X      Y      Z        X      Y      Z        X      Y      Z   
 g94    frequencies=
     0.0    0.0    0.0    0.0    0.0    0.0   66.3   91.7  122.7  141.5
   191.4  231.7  292.0  316.6  367.9  377.2  403.6  403.7  443.9  456.6
   486.1  507.1  549.1  568.1  576.5  592.8  622.5  633.8  637.4  671.7
   688.2  696.8  735.2  737.4  780.5  821.7  896.1  977.1  977.3  992.1
  1020.8 1038.2 1042.8 1106.5 1155.4 1217.3 1224.1 1258.0 1264.3 1298.0
  1340.3 1365.5 1399.2 1417.8 1424.2 1449.7 1489.6 1493.8 1507.9 1543.0
  2896.3 2898.9 2976.6 2979.3 3136.8 3137.1
 g94    symmetries=
                                                 A      A      A      A
       A      A      A      A      A      A      A      A      A      A
       A      A      A      A      A      A      A      A      A      A
       A      A      A      A      A      A      A      A      A      A
       A      A      A      A      A      A      A      A      A      A
       A      A      A      A      A      A      A      A      A      A
       A      A      A      A      A      A
 atomic masses:
 15.9949 12.0000 12.0000 15.9949 12.0000 12.0000 12.0000 12.0000 14.0031 12.0000
 12.0000 14.0031 12.0000 12.0000 12.0000 12.0000  1.0078  1.0078  1.0078  1.0078
  1.0078  1.0078
 looking for force constants in 
 ./conjugated_carbonyls_1_C-3S0.fchk                                            
  
 Cartesian Force Constants                  R   N=        2211                  
  
 n3=          66        2211
 g94-fc frequencies=
    -4.2   -3.2   -1.1   -0.0   -0.0    0.0   66.3   91.7  122.7  141.5
   191.4  231.7  292.0  316.6  367.9  377.2  403.6  403.7  443.9  456.6
   486.1  507.1  549.1  568.1  576.5  592.9  622.5  633.8  637.4  671.7
   688.2  696.8  735.2  737.4  780.5  821.7  896.1  977.1  977.3  992.1
  1020.9 1038.2 1042.9 1106.6 1155.4 1217.3 1224.1 1258.0 1264.4 1298.0
  1340.3 1365.5 1399.2 1417.8 1424.2 1449.7 1489.6 1493.8 1507.9 1543.0
  2896.3 2899.0 2976.7 2979.4 3136.8 3137.1
 at 99999: n3=          66
 symm operator            1 :  F  nop=           0
 symm operator            2 :  T  nop=           1
 symm operator            3 :  F  nop=           1
 symm operator            4 :  F  nop=           1
 symm operator            5 :  T  nop=           2
 symm operator            6 :  F  nop=           2
 symm operator            7 :  T  nop=           3
 swap           2           3
   1  -1.39385   0.00000  -3.08606
   2  -0.75649   0.00000  -1.97786
   3   0.75649   0.00000  -1.97786
   4   1.39385   0.00000  -3.08606
   5   1.43881   0.00000  -0.70046
   6   2.87882   0.00000  -0.66950
   7   3.53455   0.00000   0.58591
   8   2.75911   0.00000   1.73954
   9   1.39807   0.00000   1.78022
  10   0.72552   0.00000   0.56076
  11  -0.72552   0.00000   0.56076
  12  -1.39807   0.00000   1.78022
  13  -2.75911   0.00000   1.73954
  14  -3.53455   0.00000   0.58591
  15  -2.87882   0.00000  -0.66950
  16  -1.43881   0.00000  -0.70046
  17   3.40585   0.00000  -1.61884
  18   4.63063   0.00000   0.66265
  19   3.25913   0.00000   2.72364
  20  -3.25913   0.00000   2.72364
  21  -4.63063   0.00000   0.66265
  22  -3.40585   0.00000  -1.61884
 swap           1           2
   1   0.00000  -1.39385  -3.08606
   2   0.00000  -0.75649  -1.97786
   3   0.00000   0.75649  -1.97786
   4   0.00000   1.39385  -3.08606
   5   0.00000   1.43881  -0.70046
   6   0.00000   2.87882  -0.66950
   7   0.00000   3.53455   0.58591
   8   0.00000   2.75911   1.73954
   9   0.00000   1.39807   1.78022
  10   0.00000   0.72552   0.56076
  11   0.00000  -0.72552   0.56076
  12   0.00000  -1.39807   1.78022
  13   0.00000  -2.75911   1.73954
  14   0.00000  -3.53455   0.58591
  15   0.00000  -2.87882  -0.66950
  16   0.00000  -1.43881  -0.70046
  17   0.00000   3.40585  -1.61884
  18   0.00000   4.63063   0.66265
  19   0.00000   3.25913   2.72364
  20   0.00000  -3.25913   2.72364
  21   0.00000  -4.63063   0.66265
  22   0.00000  -3.40585  -1.61884
 The point group of the molecule is C2V
 enforcing symm op           1  jsymt=          -1          -1           1
 enforcing symm op           6  jsymt=           1          -1           1
 enforcing symm op           7  jsymt=          -1           1           1
 cartesian coord symmetries:
 A1 :   22 A2 :   11 B1 :   11 B2 :   22
 Symmetry rotation matrix:
   0.00000   0.00000   1.00000
  -1.00000   0.00000   0.00000
   0.00000  -1.00000   0.00000

 Projecting out zero-frequency components
 generating redundant internal coords
         300        3600          22
 search for int coords
   1 str   2   1   1.278
   2 str   3   2   1.513
   3 str   4   3   1.278
   4 str   5   3   1.448
   5 str   6   5   1.440
   6 str   7   6   1.416
   7 str   8   7   1.390
   8 str   9   8   1.362
   9 str  10   5   1.449
  10 str  10   9   1.393
  11 str  11  10   1.451
  12 str  12  11   1.393
  13 str  13  12   1.362
  14 str  14  13   1.390
  15 str  15  14   1.416
  16 str  16   2   1.448
  17 str  16  11   1.449
  18 str  16  15   1.440
  19 str  17   6   1.086
  20 str  18   7   1.099
  21 str  19   8   1.104
  22 str  20  13   1.104
  23 str  21  14   1.099
  24 str  22  15   1.086
 nber stretches=          24
  25 ben   1   2   3
  26 prop tor   1   2   3   4
  27 prop tor   1   2   3   5
  28 ben   1   2  16
  29 prop tor   1   2  16  11
  30 prop tor   1   2  16  15
  31 ben   2   3   4
  32 ben   2   3   5
  33 prop tor   2   3   5   6
  34 prop tor   2   3   5  10
  35 ben   2  16  11
  36 ben   2  16  15
  37 ben   3   2  16
  38 prop tor   3   2  16  11
  39 prop tor   3   2  16  15
  40 ben   3   5   6
  41 prop tor   3   5   6   7
  42 prop tor   3   5   6  17
  43 ben   3   5  10
  44 prop tor   3   5  10   9
  45 prop tor   3   5  10  11
  46 ben   4   3   5
  47 prop tor   4   3   5   6
  48 prop tor   4   3   5  10
  49 ben   5   6   7
  50 prop tor   5   6   7   8
  51 prop tor   5   6   7  18
  52 ben   5   6  17
  53 ben   5  10   9
  54 ben   5  10  11
  55 prop tor   5  10  11  12
  56 prop tor   5  10  11  16
  57 ben   6   5  10
  58 prop tor   6   5  10   9
  59 prop tor   6   5  10  11
  60 ben   6   7   8
  61 prop tor   6   7   8   9
  62 prop tor   6   7   8  19
  63 ben   6   7  18
  64 ben   7   6  17
  65 ben   7   8   9
  66 prop tor   7   8   9  10
  67 ben   7   8  19
  68 ben   8   7  18
  69 ben   8   9  10
  70 prop tor   8   9  10   5
  71 prop tor   8   9  10  11
  72 ben   9   8  19
  73 ben   9  10  11
  74 prop tor   9  10  11  12
  75 prop tor   9  10  11  16
  76 prop tor  10   5   6   7
  77 prop tor  10   5   6  17
  78 ben  10  11  12
  79 prop tor  10  11  12  13
  80 ben  10  11  16
  81 prop tor  10  11  16   2
  82 prop tor  10  11  16  15
  83 ben  11  12  13
  84 prop tor  11  12  13  14
  85 prop tor  11  12  13  20
  86 ben  11  16  15
  87 ben  12  11  16
  88 prop tor  12  11  16   2
  89 prop tor  12  11  16  15
  90 ben  12  13  14
  91 prop tor  12  13  14  15
  92 prop tor  12  13  14  21
  93 ben  12  13  20
  94 ben  13  14  15
  95 prop tor  13  14  15  16
  96 prop tor  13  14  15  22
  97 ben  13  14  21
  98 ben  14  13  20
  99 ben  14  15  16
 100 prop tor  14  15  16   2
 101 prop tor  14  15  16  11
 102 ben  14  15  22
 103 ben  15  14  21
 104 prop tor  16   2   3   4
 105 prop tor  16   2   3   5
 106 prop tor  16  11  12  13
 107 ben  16  15  22
 108 prop tor  17   6   7   8
 109 prop tor  17   6   7  18
 110 prop tor  18   7   8   9
 111 prop tor  18   7   8  19
 112 prop tor  19   8   9  10
 113 prop tor  20  13  14  15
 114 prop tor  20  13  14  21
 115 prop tor  21  14  15  16
 116 prop tor  21  14  15  22
 117 prop tor  22  15  16   2
 118 prop tor  22  15  16  11
 nber bend=              38
 nber lin bend=           0
 nber prop tor=          56
 nber impr tor=           0
 nber tot redund int=         118
 Eigenvalues of G in red int coords
    Gval -0.00000000 -0.00000000 -0.00000000 -0.00000000 -0.00000000 -0.00000000 -0.00000000 -0.00000000
    Gval -0.00000000 -0.00000000 -0.00000000 -0.00000000 -0.00000000 -0.00000000 -0.00000000 -0.00000000
    Gval -0.00000000 -0.00000000 -0.00000000 -0.00000000 -0.00000000 -0.00000000 -0.00000000 -0.00000000
    Gval -0.00000000 -0.00000000 -0.00000000  0.00000000  0.00000000  0.00000000  0.00000000  0.00000000
    Gval  0.00000000  0.00000000  0.00000000  0.00000000  0.00000000  0.00000000  0.00000000  0.00000000
    Gval  0.00000000  0.00000000  0.00000000  0.00000000  0.00000000  0.00000000  0.00000000  0.00000000
    Gval  0.00000000  0.00000000  0.00000000  0.00000000  0.00000000  0.00000000  0.00000000  0.00000000
    Gval  0.00000000  0.00000000  0.00000690  0.00001099  0.00001162  0.00002004  0.00002094  0.00002554
    Gval  0.00003449  0.00004137  0.00004631  0.00004863  0.00005343  0.00005796  0.00005972  0.00007356
    Gval  0.00007761  0.00009595  0.00009968  0.00010910  0.00011365  0.00012492  0.00012889  0.00013064
    Gval  0.00014882  0.00019174  0.00023785  0.00023808  0.00026099  0.00028177  0.00031335  0.00035598
    Gval  0.00037042  0.00038701  0.00042812  0.00043884  0.00043966  0.00058338  0.00059372  0.00059373
    Gval  0.00060533  0.00060594  0.00064291  0.00064306  0.00066088  0.00089642  0.00090512  0.00103681
    Gval  0.00103710  0.00111086  0.00111087  0.00115090  0.00115097  0.00120169  0.00149440  0.00157226
    Gval  0.00168387  0.00209082  0.00267189  0.00269160  0.00382453  0.00382548
  6.897923562134155E-006  6.897923562134155E-006
  1.098990884793689E-005  6.897923562134155E-006
  1.162310375077219E-005  6.897923562134155E-006
  2.003729991780123E-005  6.897923562134155E-006
  2.094068817037462E-005  6.897923562134155E-006
  2.553944417922098E-005  6.897923562134155E-006
  3.448655646827430E-005  6.897923562134155E-006
  4.137308874398233E-005  6.897923562134155E-006
  4.630873615188708E-005  6.897923562134155E-006
  4.863343247535661E-005  6.897923562134155E-006
  5.342774868510422E-005  6.897923562134155E-006
  5.795835123524135E-005  6.897923562134155E-006
  5.971999244202577E-005  6.897923562134155E-006
  7.355988235351418E-005  6.897923562134155E-006
  7.760749243838180E-005  6.897923562134155E-006
  9.595306992828967E-005  6.897923562134155E-006
  9.967931835926708E-005  6.897923562134155E-006
  1.090976397117629E-004  6.897923562134155E-006
  1.136526755027536E-004  6.897923562134155E-006
  1.249197531010664E-004  6.897923562134155E-006
  1.288879994970767E-004  6.897923562134155E-006
  1.306407349416218E-004  6.897923562134155E-006
  1.488239052786273E-004  6.897923562134155E-006
  1.917373098461357E-004  6.897923562134155E-006
  2.378495675840873E-004  6.897923562134155E-006
  2.380813751495496E-004  6.897923562134155E-006
  2.609911984109567E-004  6.897923562134155E-006
  2.817691514702564E-004  6.897923562134155E-006
  3.133517367110307E-004  6.897923562134155E-006
  3.559766212677524E-004  6.897923562134155E-006
  3.704204000723523E-004  6.897923562134155E-006
  3.870063142301698E-004  6.897923562134155E-006
  4.281241087653561E-004  6.897923562134155E-006
  4.388447144382046E-004  6.897923562134155E-006
  4.396605812019988E-004  6.897923562134155E-006
  5.833796284649439E-004  6.897923562134155E-006
  5.937195410558821E-004  6.897923562134155E-006
  5.937251615499305E-004  6.897923562134155E-006
  6.053314532847322E-004  6.897923562134155E-006
  6.059403126199849E-004  6.897923562134155E-006
  6.429050004627068E-004  6.897923562134155E-006
  6.430648298208084E-004  6.897923562134155E-006
  6.608817991889782E-004  6.897923562134155E-006
  8.964231506859068E-004  6.897923562134155E-006
  9.051205424034024E-004  6.897923562134155E-006
  1.036812231137384E-003  6.897923562134155E-006
  1.037098713443805E-003  6.897923562134155E-006
  1.110856126923010E-003  6.897923562134155E-006
  1.110869168158182E-003  6.897923562134155E-006
  1.150895566415388E-003  6.897923562134155E-006
  1.150967767940064E-003  6.897923562134155E-006
  1.201691579715431E-003  6.897923562134155E-006
  1.494400218524584E-003  6.897923562134155E-006
  1.572257326853758E-003  6.897923562134155E-006
  1.683866350255936E-003  6.897923562134155E-006
  2.090821467549751E-003  6.897923562134155E-006
  2.671891399456448E-003  6.897923562134155E-006
  2.691597334276680E-003  6.897923562134155E-006
  3.824528002550567E-003  6.897923562134155E-006
  3.825479822776191E-003  6.897923562134155E-006
 cut=1d-8, nber non-redundant internal coords=          60
 Check on Eigenvals of non-red overlap matrix:
  0.00000690  0.00001099  0.00001162  0.00002004  0.00002094  0.00002554  0.00003449  0.00004137
  0.00004631  0.00004863  0.00005343  0.00005796  0.00005972  0.00007356  0.00007761  0.00009595
  0.00009968  0.00010910  0.00011365  0.00012492  0.00012889  0.00013064  0.00014882  0.00019174
  0.00023785  0.00023808  0.00026099  0.00028177  0.00031335  0.00035598  0.00037042  0.00038701
  0.00042812  0.00043884  0.00043966  0.00058338  0.00059372  0.00059373  0.00060533  0.00060594
  0.00064291  0.00064306  0.00066088  0.00089642  0.00090512  0.00103681  0.00103710  0.00111086
  0.00111087  0.00115090  0.00115097  0.00120169  0.00149440  0.00157226  0.00168387  0.00209082
  0.00267189  0.00269160  0.00382453  0.00382548
 Checking for correct frequencies
 recalc frequencies=
    -0.0   -0.0   -0.0   -0.0    0.0    0.0   66.3   91.7  122.7  141.5
   191.4  231.7  292.0  316.6  367.9  377.2  403.6  403.7  443.9  456.6
   486.1  507.1  549.1  568.1  576.5  592.9  622.5  633.8  637.4  671.7
   688.2  696.8  735.2  737.4  780.5  821.7  896.1  977.1  977.3  992.1
  1020.9 1038.2 1042.9 1106.6 1155.4 1217.3 1224.1 1258.0 1264.4 1298.0
  1340.3 1365.5 1399.2 1417.8 1424.2 1449.7 1489.6 1493.8 1507.9 1543.0
  2896.3 2899.0 2976.7 2979.4 3136.8 3137.1
 recalc symmetries=
     A1     B2     A2     B1     B1     B2     A2     B1     A2     B1 
     A2     A1     B1     B2     A1     A2     A1     B2     B1     A1 
     B1     A2     A2     B1     B2     B2     B1     A2     A1     B1 
     A2     B2     A2     B1     A2     A1     B2     B2     A1     A1 
     B2     A1     B2     A1     B2     B2     A1     A1     B2     A1 
     B2     A1     B2     B2     A1     A1     A1     A1     B2     B2 
     B2     A1     B2     A1     B2     A1 
 recalc freqs check OK
 Zero-point lengths:
 10.0000 10.0000 10.0000 10.0000 10.0000 10.0000 30.4443 25.8927 22.3833 20.8410
 17.9213 16.2879 14.5089 13.9336 12.9253 12.7652 12.3396 12.3381 11.7661 11.6022
 11.2439 11.0093 10.5793 10.4015 10.3248 10.1817  9.9360  9.8476  9.8194  9.5653
  9.4503  9.3917  9.1432  9.1293  8.8740  8.6486  8.2818  7.9309  7.9300  7.8707
  7.7592  7.6941  7.6769  7.4526  7.2934  7.1056  7.0858  6.9896  6.9720  6.8811
  6.7716  6.7088  6.6275  6.5839  6.5691  6.5111  6.4233  6.4143  6.3842  6.3112
  4.6065  4.6044  4.5439  4.5418  4.4264  4.4262
 highest evec of mol 2
  0.0000 -0.0028 -0.0014
  0.0000  0.0022  0.0034
  0.0000 -0.0022  0.0034
  0.0000  0.0028 -0.0014
  0.0000  0.0012  0.0044
  0.0000 -0.0954  0.1728
  0.0000 -0.0231 -0.0054
  0.0000 -0.0007 -0.0079
  0.0000  0.0010  0.0010
  0.0000  0.0013 -0.0028
  0.0000 -0.0013 -0.0028
  0.0000 -0.0010  0.0010
  0.0000  0.0007 -0.0079
  0.0000  0.0231 -0.0054
  0.0000  0.0954  0.1728
  0.0000 -0.0012  0.0044
  0.0000  0.3313 -0.5885
  0.0000  0.0625  0.0067
  0.0000  0.0057  0.0154
  0.0000 -0.0057  0.0154
  0.0000 -0.0625  0.0067
  0.0000 -0.3313 -0.5885
 Enter nber and list of atoms to keep of mol #2
 keep list:          22           1           2           3           4
           5           6           7           8           9          10
          11          12          13          14          15          16
          17          18          19          20          21          22
 reordering atoms
           1  -1.39384700000000     
           2 -0.756489000000000     
           3  0.756489000000000     
           4   1.39384700000000     
           5   1.43881500000000     
           6   2.87882500000000     
           7   3.53454800000000     
           8   2.75911300000000     
           9   1.39807400000000     
          10  0.725522000000000     
          11 -0.725522000000000     
          12  -1.39807400000000     
          13  -2.75911300000000     
          14  -3.53454800000000     
          15  -2.87882500000000     
          16  -1.43881500000000     
          17   3.40584800000000     
          18   4.63063500000000     
          19   3.25913200000000     
          20  -3.25913200000000     
          21  -4.63063500000000     
          22  -3.40584800000000     
           1           1
           2           2
           3           3
           4           4
           5           5
           6           6
           7           7
           8           8
           9           9
          10          10
          11          11
          12          12
          13          13
          14          14
          15          15
          16          16
          17          17
          18          18
          19          19
          20          20
          21          21
          22          22
 initial cartes coords mol 1
   8  -0.00000   2.75478   1.37201
   6  -0.00000   1.70267   0.77538
   6   0.00000   1.70267  -0.77537
   8   0.00000   2.75478  -1.37201
   6   0.00000   0.38520  -1.45904
   6   0.00000   0.34375  -2.85642
   6   0.00000  -0.88601  -3.49153
   6  -0.00000  -2.03380  -2.69412
   7   0.00000  -2.01679  -1.36326
   6   0.00000  -0.83025  -0.74566
   6   0.00000  -0.83025   0.74566
   7  -0.00000  -2.01679   1.36326
   6   0.00000  -2.03380   2.69412
   6  -0.00000  -0.88601   3.49153
   6  -0.00000   0.34375   2.85642
   6  -0.00000   0.38520   1.45904
   1   0.00000   1.27879  -3.40373
   1   0.00000  -0.96652  -4.57168
   1   0.00000  -3.01901  -3.15280
   1   0.00000  -3.01901   3.15280
   1  -0.00000  -0.96652   4.57168
   1  -0.00000   1.27879   3.40373
 initial cartes coords mol 2
   8   0.00000   2.79221  -1.39385
   6   0.00000   1.68401  -0.75649
   6   0.00000   1.68401   0.75649
   8   0.00000   2.79221   1.39385
   6   0.00000   0.40661   1.43881
   6   0.00000   0.37565   2.87882
   6   0.00000  -0.87976   3.53455
   6   0.00000  -2.03338   2.75911
   7   0.00000  -2.07407   1.39807
   6   0.00000  -0.85461   0.72552
   6   0.00000  -0.85461  -0.72552
   7   0.00000  -2.07407  -1.39807
   6   0.00000  -2.03338  -2.75911
   6   0.00000  -0.87976  -3.53455
   6   0.00000   0.37565  -2.87882
   6   0.00000   0.40661  -1.43881
   1   0.00000   1.32500   3.40585
   1   0.00000  -0.95650   4.63063
   1   0.00000  -3.01749   3.25913
   1   0.00000  -3.01749  -3.25913
   1   0.00000  -0.95650  -4.63063
   1   0.00000   1.32500  -3.40585
 loop 1 0
 mod cartes coords mol 2
   8   0.00000   2.79221  -1.39385
   6   0.00000   1.68401  -0.75649
   6   0.00000   1.68401   0.75649
   8   0.00000   2.79221   1.39385
   6   0.00000   0.40661   1.43881
   6   0.00000   0.37565   2.87882
   6   0.00000  -0.87976   3.53455
   6   0.00000  -2.03338   2.75911
   7   0.00000  -2.07407   1.39807
   6   0.00000  -0.85461   0.72552
   6   0.00000  -0.85461  -0.72552
   7   0.00000  -2.07407  -1.39807
   6   0.00000  -2.03338  -2.75911
   6   0.00000  -0.87976  -3.53455
   6   0.00000   0.37565  -2.87882
   6   0.00000   0.40661  -1.43881
   1   0.00000   1.32500   3.40585
   1   0.00000  -0.95650   4.63063
   1   0.00000  -3.01749   3.25913
   1   0.00000  -3.01749  -3.25913
   1   0.00000  -0.95650  -4.63063
   1   0.00000   1.32500  -3.40585
 read in order, maxerr=  9.20 for atom  18
 loop 1 1
 mod cartes coords mol 2
   8   0.00000   2.79221  -1.39385
   6   0.00000   1.68401  -0.75649
   6   0.00000   1.68401   0.75649
   8   0.00000   2.79221   1.39385
   6   0.00000   0.40661   1.43881
   6   0.00000   0.37565   2.87882
   6   0.00000  -0.87976   3.53455
   6   0.00000  -2.03338   2.75911
   7   0.00000  -2.07407   1.39807
   6   0.00000  -0.85461   0.72552
   6   0.00000  -0.85461  -0.72552
   7   0.00000  -2.07407  -1.39807
   6   0.00000  -2.03338  -2.75911
   6   0.00000  -0.87976  -3.53455
   6   0.00000   0.37565  -2.87882
   6   0.00000   0.40661  -1.43881
   1   0.00000   1.32500   3.40585
   1   0.00000  -0.95650   4.63063
   1   0.00000  -3.01749   3.25913
   1   0.00000  -3.01749  -3.25913
   1   0.00000  -0.95650  -4.63063
   1   0.00000   1.32500  -3.40585
 read in order, maxerr=  9.20 for atom  18
 loop 1 2
 mod cartes coords mol 2
   8   0.00000  -2.79221  -1.39385
   6   0.00000  -1.68401  -0.75649
   6   0.00000  -1.68401   0.75649
   8   0.00000  -2.79221   1.39385
   6   0.00000  -0.40661   1.43881
   6   0.00000  -0.37565   2.87882
   6   0.00000   0.87976   3.53455
   6   0.00000   2.03338   2.75911
   7   0.00000   2.07407   1.39807
   6   0.00000   0.85461   0.72552
   6   0.00000   0.85461  -0.72552
   7   0.00000   2.07407  -1.39807
   6   0.00000   2.03338  -2.75911
   6   0.00000   0.87976  -3.53455
   6   0.00000  -0.37565  -2.87882
   6   0.00000  -0.40661  -1.43881
   1   0.00000  -1.32500   3.40585
   1   0.00000   0.95650   4.63063
   1   0.00000   3.01749   3.25913
   1   0.00000   3.01749  -3.25913
   1   0.00000   0.95650  -4.63063
   1   0.00000  -1.32500  -3.40585
 read in order, maxerr=  9.40 for atom  21
 loop 1 3
 mod cartes coords mol 2
   8   0.00000  -2.79221  -1.39385
   6   0.00000  -1.68401  -0.75649
   6   0.00000  -1.68401   0.75649
   8   0.00000  -2.79221   1.39385
   6   0.00000  -0.40661   1.43881
   6   0.00000  -0.37565   2.87882
   6   0.00000   0.87976   3.53455
   6   0.00000   2.03338   2.75911
   7   0.00000   2.07407   1.39807
   6   0.00000   0.85461   0.72552
   6   0.00000   0.85461  -0.72552
   7   0.00000   2.07407  -1.39807
   6   0.00000   2.03338  -2.75911
   6   0.00000   0.87976  -3.53455
   6   0.00000  -0.37565  -2.87882
   6   0.00000  -0.40661  -1.43881
   1   0.00000  -1.32500   3.40585
   1   0.00000   0.95650   4.63063
   1   0.00000   3.01749   3.25913
   1   0.00000   3.01749  -3.25913
   1   0.00000   0.95650  -4.63063
   1   0.00000  -1.32500  -3.40585
 read in order, maxerr=  9.40 for atom  21
 loop 1 4
 mod cartes coords mol 2
   8   0.00000   2.79221   1.39385
   6   0.00000   1.68401   0.75649
   6   0.00000   1.68401  -0.75649
   8   0.00000   2.79221  -1.39385
   6   0.00000   0.40661  -1.43881
   6   0.00000   0.37565  -2.87882
   6   0.00000  -0.87976  -3.53455
   6   0.00000  -2.03338  -2.75911
   7   0.00000  -2.07407  -1.39807
   6   0.00000  -0.85461  -0.72552
   6   0.00000  -0.85461   0.72552
   7   0.00000  -2.07407   1.39807
   6   0.00000  -2.03338   2.75911
   6   0.00000  -0.87976   3.53455
   6   0.00000   0.37565   2.87882
   6   0.00000   0.40661   1.43881
   1   0.00000   1.32500  -3.40585
   1   0.00000  -0.95650  -4.63063
   1   0.00000  -3.01749  -3.25913
   1   0.00000  -3.01749   3.25913
   1   0.00000  -0.95650   4.63063
   1   0.00000   1.32500   3.40585
 read in order, maxerr=  0.11 for atom  20
 final axis swaps:           1           1          -1
 final xyz swap pattern=           1
 reorder list:
   1   2   3   4   5   6   7   8   9  10  11  12  13  14  15  16  17  18  19  20
  21  22
 axis signs=           1           1          -1
  8     0.000000  2.792210  1.393847    -0.000000  2.754781  1.372009
  6     0.000000  1.684010  0.756489    -0.000000  1.702673  0.775375
  6     0.000000  1.684010 -0.756489     0.000000  1.702673 -0.775375
  8     0.000000  2.792210 -1.393847     0.000000  2.754781 -1.372009
  6     0.000000  0.406610 -1.438815     0.000000  0.385205 -1.459043
  6     0.000000  0.375652 -2.878825     0.000000  0.343755 -2.856417
  6     0.000000 -0.879759 -3.534548     0.000000 -0.886012 -3.491527
  6     0.000000 -2.033384 -2.759113    -0.000001 -2.033799 -2.694120
  7     0.000000 -2.074070 -1.398074     0.000000 -2.016794 -1.363257
  6     0.000000 -0.854612 -0.725522     0.000000 -0.830249 -0.745661
  6     0.000000 -0.854612  0.725522     0.000000 -0.830249  0.745661
  7     0.000000 -2.074070  1.398074    -0.000001 -2.016794  1.363257
  6     0.000000 -2.033384  2.759113     0.000001 -2.033799  2.694120
  6     0.000000 -0.879759  3.534548    -0.000000 -0.886012  3.491527
  6     0.000000  0.375652  2.878825    -0.000000  0.343755  2.856417
  6     0.000000  0.406610  1.438815    -0.000000  0.385205  1.459043
  1     0.000000  1.324996 -3.405848     0.000001  1.278786 -3.403726
  1     0.000000 -0.956495 -4.630635     0.000000 -0.966521 -4.571677
  1     0.000000 -3.017486 -3.259132     0.000000 -3.019009 -3.152801
  1     0.000000 -3.017486  3.259132     0.000001 -3.019009  3.152801
  1     0.000000 -0.956495  4.630635    -0.000000 -0.966521  4.571677
  1     0.000000  1.324996  3.405848    -0.000000  1.278786  3.403726
 generating redundant internal coords
         300        3600          22
 Adding extra bonds for z output only
           8           6           6           8           6           6
           6           6           7           6           6           7
           6           6           6           6           1           1
           1           1           1           1
 search for int coords
   1 str   2   1   1.278
   2 str   3   2   1.513
   3 str   4   3   1.278
   4 str   5   3   1.448
   5 str   6   5   1.440
   6 str   7   6   1.416
   7 str   8   7   1.390
   8 str   9   8   1.362
   9 str  10   5   1.449
  10 str  10   9   1.393
  11 str  11  10   1.451
  12 str  12  11   1.393
  13 str  13  12   1.362
  14 str  14  13   1.390
  15 str  15  14   1.416
  16 str  16   2   1.448
  17 str  16  11   1.449
  18 str  16  15   1.440
  19 str  17   6   1.086
  20 str  18   7   1.099
  21 str  19   8   1.104
  22 str  20  13   1.104
  23 str  21  14   1.099
  24 str  22  15   1.086
 nber stretches=          24
  25 ben   1   2   3
  26 prop tor   1   2   3   4
  27 prop tor   1   2   3   5
  28 ben   1   2  16
  29 prop tor   1   2  16  11
  30 prop tor   1   2  16  15
  31 ben   2   3   4
  32 ben   2   3   5
  33 prop tor   2   3   5   6
  34 prop tor   2   3   5  10
  35 ben   2  16  11
  36 ben   2  16  15
  37 ben   3   2  16
  38 prop tor   3   2  16  11
  39 prop tor   3   2  16  15
  40 ben   3   5   6
  41 prop tor   3   5   6   7
  42 prop tor   3   5   6  17
  43 ben   3   5  10
  44 prop tor   3   5  10   9
  45 prop tor   3   5  10  11
  46 ben   4   3   5
  47 prop tor   4   3   5   6
  48 prop tor   4   3   5  10
  49 ben   5   6   7
  50 prop tor   5   6   7   8
  51 prop tor   5   6   7  18
  52 ben   5   6  17
  53 ben   5  10   9
  54 ben   5  10  11
  55 prop tor   5  10  11  12
  56 prop tor   5  10  11  16
  57 ben   6   5  10
  58 prop tor   6   5  10   9
  59 prop tor   6   5  10  11
  60 ben   6   7   8
  61 prop tor   6   7   8   9
  62 prop tor   6   7   8  19
  63 ben   6   7  18
  64 ben   7   6  17
  65 ben   7   8   9
  66 prop tor   7   8   9  10
  67 ben   7   8  19
  68 ben   8   7  18
  69 ben   8   9  10
  70 prop tor   8   9  10   5
  71 prop tor   8   9  10  11
  72 ben   9   8  19
  73 ben   9  10  11
  74 prop tor   9  10  11  12
  75 prop tor   9  10  11  16
  76 prop tor  10   5   6   7
  77 prop tor  10   5   6  17
  78 ben  10  11  12
  79 prop tor  10  11  12  13
  80 ben  10  11  16
  81 prop tor  10  11  16   2
  82 prop tor  10  11  16  15
  83 ben  11  12  13
  84 prop tor  11  12  13  14
  85 prop tor  11  12  13  20
  86 ben  11  16  15
  87 ben  12  11  16
  88 prop tor  12  11  16   2
  89 prop tor  12  11  16  15
  90 ben  12  13  14
  91 prop tor  12  13  14  15
  92 prop tor  12  13  14  21
  93 ben  12  13  20
  94 ben  13  14  15
  95 prop tor  13  14  15  16
  96 prop tor  13  14  15  22
  97 ben  13  14  21
  98 ben  14  13  20
  99 ben  14  15  16
 100 prop tor  14  15  16   2
 101 prop tor  14  15  16  11
 102 ben  14  15  22
 103 ben  15  14  21
 104 prop tor  16   2   3   4
 105 prop tor  16   2   3   5
 106 prop tor  16  11  12  13
 107 ben  16  15  22
 108 prop tor  17   6   7   8
 109 prop tor  17   6   7  18
 110 prop tor  18   7   8   9
 111 prop tor  18   7   8  19
 112 prop tor  19   8   9  10
 113 prop tor  20  13  14  15
 114 prop tor  20  13  14  21
 115 prop tor  21  14  15  16
 116 prop tor  21  14  15  22
 117 prop tor  22  15  16   2
 118 prop tor  22  15  16  11
 nber bend=              38
 nber lin bend=           0
 nber prop tor=          56
 nber impr tor=           0
 nber tot redund int=         118
 generating redundant internal coords
         300        3600          22
 search for int coords
   1 str   2   1   1.210
   2 str   3   2   1.551
   3 str   4   3   1.210
   4 str   5   3   1.484
   5 str   6   5   1.398
   6 str   7   6   1.384
   7 str   8   7   1.398
   8 str   9   8   1.331
   9 str  10   5   1.409
  10 str  10   9   1.338
  11 str  11  10   1.491
  12 str  12  11   1.338
  13 str  13  12   1.331
  14 str  14  13   1.398
  15 str  15  14   1.384
  16 str  16   2   1.484
  17 str  16  11   1.409
  18 str  16  15   1.398
  19 str  17   6   1.083
  20 str  18   7   1.083
  21 str  19   8   1.087
  22 str  20  13   1.087
  23 str  21  14   1.083
  24 str  22  15   1.083
 nber stretches=          24
  25 ben   1   2   3
  26 prop tor   1   2   3   4
  27 prop tor   1   2   3   5
  28 ben   1   2  16
  29 prop tor   1   2  16  11
  30 prop tor   1   2  16  15
  31 ben   2   3   4
  32 ben   2   3   5
  33 prop tor   2   3   5   6
  34 prop tor   2   3   5  10
  35 ben   2  16  11
  36 ben   2  16  15
  37 ben   3   2  16
  38 prop tor   3   2  16  11
  39 prop tor   3   2  16  15
  40 ben   3   5   6
  41 prop tor   3   5   6   7
  42 prop tor   3   5   6  17
  43 ben   3   5  10
  44 prop tor   3   5  10   9
  45 prop tor   3   5  10  11
  46 ben   4   3   5
  47 prop tor   4   3   5   6
  48 prop tor   4   3   5  10
  49 ben   5   6   7
  50 prop tor   5   6   7   8
  51 prop tor   5   6   7  18
  52 ben   5   6  17
  53 ben   5  10   9
  54 ben   5  10  11
  55 prop tor   5  10  11  12
  56 prop tor   5  10  11  16
  57 ben   6   5  10
  58 prop tor   6   5  10   9
  59 prop tor   6   5  10  11
  60 ben   6   7   8
  61 prop tor   6   7   8   9
  62 prop tor   6   7   8  19
  63 ben   6   7  18
  64 ben   7   6  17
  65 ben   7   8   9
  66 prop tor   7   8   9  10
  67 ben   7   8  19
  68 ben   8   7  18
  69 ben   8   9  10
  70 prop tor   8   9  10   5
  71 prop tor   8   9  10  11
  72 ben   9   8  19
  73 ben   9  10  11
  74 prop tor   9  10  11  12
  75 prop tor   9  10  11  16
  76 prop tor  10   5   6   7
  77 prop tor  10   5   6  17
  78 ben  10  11  12
  79 prop tor  10  11  12  13
  80 ben  10  11  16
  81 prop tor  10  11  16   2
  82 prop tor  10  11  16  15
  83 ben  11  12  13
  84 prop tor  11  12  13  14
  85 prop tor  11  12  13  20
  86 ben  11  16  15
  87 ben  12  11  16
  88 prop tor  12  11  16   2
  89 prop tor  12  11  16  15
  90 ben  12  13  14
  91 prop tor  12  13  14  15
  92 prop tor  12  13  14  21
  93 ben  12  13  20
  94 ben  13  14  15
  95 prop tor  13  14  15  16
  96 prop tor  13  14  15  22
  97 ben  13  14  21
  98 ben  14  13  20
  99 ben  14  15  16
 100 prop tor  14  15  16   2
 101 prop tor  14  15  16  11
 102 ben  14  15  22
 103 ben  15  14  21
 104 prop tor  16   2   3   4
 105 prop tor  16   2   3   5
 106 prop tor  16  11  12  13
 107 ben  16  15  22
 108 prop tor  17   6   7   8
 109 prop tor  17   6   7  18
 110 prop tor  18   7   8   9
 111 prop tor  18   7   8  19
 112 prop tor  19   8   9  10
 113 prop tor  20  13  14  15
 114 prop tor  20  13  14  21
 115 prop tor  21  14  15  16
 116 prop tor  21  14  15  22
 117 prop tor  22  15  16   2
 118 prop tor  22  15  16  11
 nber bend=              38
 nber lin bend=           0
 nber prop tor=          56
 nber impr tor=           0
 nber tot redund int=         118
 Eigenvalues of G in red int coords
    Gval -0.00000000 -0.00000000 -0.00000000 -0.00000000 -0.00000000 -0.00000000 -0.00000000 -0.00000000
    Gval -0.00000000 -0.00000000 -0.00000000 -0.00000000 -0.00000000 -0.00000000 -0.00000000 -0.00000000
    Gval -0.00000000 -0.00000000 -0.00000000 -0.00000000 -0.00000000 -0.00000000 -0.00000000 -0.00000000
    Gval -0.00000000 -0.00000000 -0.00000000 -0.00000000 -0.00000000  0.00000000  0.00000000  0.00000000
    Gval  0.00000000  0.00000000  0.00000000  0.00000000  0.00000000  0.00000000  0.00000000  0.00000000
    Gval  0.00000000  0.00000000  0.00000000  0.00000000  0.00000000  0.00000000  0.00000000  0.00000000
    Gval  0.00000000  0.00000000  0.00000000  0.00000000  0.00000000  0.00000000  0.00000000  0.00000000
    Gval  0.00000000  0.00000000  0.00000701  0.00001113  0.00001201  0.00002002  0.00002155  0.00002609
    Gval  0.00003416  0.00004315  0.00004660  0.00005006  0.00005418  0.00005862  0.00006036  0.00007438
    Gval  0.00007778  0.00010079  0.00010129  0.00011065  0.00011534  0.00012558  0.00013379  0.00013440
    Gval  0.00015174  0.00019713  0.00024237  0.00024323  0.00027152  0.00028590  0.00031893  0.00036678
    Gval  0.00038046  0.00041068  0.00041987  0.00044306  0.00044882  0.00059389  0.00059390  0.00060642
    Gval  0.00060706  0.00061304  0.00064620  0.00064629  0.00068927  0.00089346  0.00091201  0.00106413
    Gval  0.00106446  0.00113490  0.00113491  0.00117435  0.00117440  0.00120594  0.00155935  0.00163063
    Gval  0.00175450  0.00214430  0.00274943  0.00276863  0.00390519  0.00390603
  7.008948385494419E-006  7.008948385494419E-006
  1.113371242894896E-005  7.008948385494419E-006
  1.200715153585279E-005  7.008948385494419E-006
  2.002459125187451E-005  7.008948385494419E-006
  2.154756938723743E-005  7.008948385494419E-006
  2.609081450955213E-005  7.008948385494419E-006
  3.416118081382941E-005  7.008948385494419E-006
  4.315344805499712E-005  7.008948385494419E-006
  4.660483535270609E-005  7.008948385494419E-006
  5.005542711302449E-005  7.008948385494419E-006
  5.417547686712918E-005  7.008948385494419E-006
  5.861880664677864E-005  7.008948385494419E-006
  6.036281814339441E-005  7.008948385494419E-006
  7.437803229640108E-005  7.008948385494419E-006
  7.777951166139732E-005  7.008948385494419E-006
  1.007898039244536E-004  7.008948385494419E-006
  1.012945221700040E-004  7.008948385494419E-006
  1.106535691367035E-004  7.008948385494419E-006
  1.153363065561977E-004  7.008948385494419E-006
  1.255792845346794E-004  7.008948385494419E-006
  1.337852155971010E-004  7.008948385494419E-006
  1.344026845666891E-004  7.008948385494419E-006
  1.517358584302594E-004  7.008948385494419E-006
  1.971311062219892E-004  7.008948385494419E-006
  2.423746727335285E-004  7.008948385494419E-006
  2.432338503613379E-004  7.008948385494419E-006
  2.715229150512018E-004  7.008948385494419E-006
  2.859040266009946E-004  7.008948385494419E-006
  3.189337871289253E-004  7.008948385494419E-006
  3.667844716297600E-004  7.008948385494419E-006
  3.804566177431579E-004  7.008948385494419E-006
  4.106770468195678E-004  7.008948385494419E-006
  4.198741917882378E-004  7.008948385494419E-006
  4.430639819780735E-004  7.008948385494419E-006
  4.488175016478281E-004  7.008948385494419E-006
  5.938900205782305E-004  7.008948385494419E-006
  5.939022141205645E-004  7.008948385494419E-006
  6.064166338605634E-004  7.008948385494419E-006
  6.070577034301848E-004  7.008948385494419E-006
  6.130424950960943E-004  7.008948385494419E-006
  6.461975177294940E-004  7.008948385494419E-006
  6.462852024155409E-004  7.008948385494419E-006
  6.892711805613125E-004  7.008948385494419E-006
  8.934577604512704E-004  7.008948385494419E-006
  9.120084555327422E-004  7.008948385494419E-006
  1.064134526060972E-003  7.008948385494419E-006
  1.064458957169260E-003  7.008948385494419E-006
  1.134904277866596E-003  7.008948385494419E-006
  1.134909087225893E-003  7.008948385494419E-006
  1.174348893980217E-003  7.008948385494419E-006
  1.174400441403784E-003  7.008948385494419E-006
  1.205936038501899E-003  7.008948385494419E-006
  1.559345526538459E-003  7.008948385494419E-006
  1.630631377783793E-003  7.008948385494419E-006
  1.754498816801797E-003  7.008948385494419E-006
  2.144303770679326E-003  7.008948385494419E-006
  2.749426539848708E-003  7.008948385494419E-006
  2.768631387947848E-003  7.008948385494419E-006
  3.905190074070343E-003  7.008948385494419E-006
  3.906027435324884E-003  7.008948385494419E-006
 cut=1d-8, nber non-redundant internal coords=          60
 Check on Eigenvals of non-red overlap matrix:
  0.00000701  0.00001113  0.00001201  0.00002002  0.00002155  0.00002609  0.00003416  0.00004315
  0.00004660  0.00005006  0.00005418  0.00005862  0.00006036  0.00007438  0.00007778  0.00010079
  0.00010129  0.00011065  0.00011534  0.00012558  0.00013379  0.00013440  0.00015174  0.00019713
  0.00024237  0.00024323  0.00027152  0.00028590  0.00031893  0.00036678  0.00038046  0.00041068
  0.00041987  0.00044306  0.00044882  0.00059389  0.00059390  0.00060642  0.00060706  0.00061304
  0.00064620  0.00064629  0.00068927  0.00089346  0.00091201  0.00106413  0.00106446  0.00113490
  0.00113491  0.00117435  0.00117440  0.00120594  0.00155935  0.00163063  0.00175450  0.00214430
  0.00274943  0.00276863  0.00390519  0.00390603
 generating redundant internal coords
         300        3600          22
 search for int coords
   1 str   2   1   1.278
   2 str   3   2   1.513
   3 str   4   3   1.278
   4 str   5   3   1.448
   5 str   6   5   1.440
   6 str   7   6   1.416
   7 str   8   7   1.390
   8 str   9   8   1.362
   9 str  10   5   1.449
  10 str  10   9   1.393
  11 str  11  10   1.451
  12 str  12  11   1.393
  13 str  13  12   1.362
  14 str  14  13   1.390
  15 str  15  14   1.416
  16 str  16   2   1.448
  17 str  16  11   1.449
  18 str  16  15   1.440
  19 str  17   6   1.086
  20 str  18   7   1.099
  21 str  19   8   1.104
  22 str  20  13   1.104
  23 str  21  14   1.099
  24 str  22  15   1.086
 nber stretches=          24
  25 ben   1   2   3
  26 prop tor   1   2   3   4
  27 prop tor   1   2   3   5
  28 ben   1   2  16
  29 prop tor   1   2  16  11
  30 prop tor   1   2  16  15
  31 ben   2   3   4
  32 ben   2   3   5
  33 prop tor   2   3   5   6
  34 prop tor   2   3   5  10
  35 ben   2  16  11
  36 ben   2  16  15
  37 ben   3   2  16
  38 prop tor   3   2  16  11
  39 prop tor   3   2  16  15
  40 ben   3   5   6
  41 prop tor   3   5   6   7
  42 prop tor   3   5   6  17
  43 ben   3   5  10
  44 prop tor   3   5  10   9
  45 prop tor   3   5  10  11
  46 ben   4   3   5
  47 prop tor   4   3   5   6
  48 prop tor   4   3   5  10
  49 ben   5   6   7
  50 prop tor   5   6   7   8
  51 prop tor   5   6   7  18
  52 ben   5   6  17
  53 ben   5  10   9
  54 ben   5  10  11
  55 prop tor   5  10  11  12
  56 prop tor   5  10  11  16
  57 ben   6   5  10
  58 prop tor   6   5  10   9
  59 prop tor   6   5  10  11
  60 ben   6   7   8
  61 prop tor   6   7   8   9
  62 prop tor   6   7   8  19
  63 ben   6   7  18
  64 ben   7   6  17
  65 ben   7   8   9
  66 prop tor   7   8   9  10
  67 ben   7   8  19
  68 ben   8   7  18
  69 ben   8   9  10
  70 prop tor   8   9  10   5
  71 prop tor   8   9  10  11
  72 ben   9   8  19
  73 ben   9  10  11
  74 prop tor   9  10  11  12
  75 prop tor   9  10  11  16
  76 prop tor  10   5   6   7
  77 prop tor  10   5   6  17
  78 ben  10  11  12
  79 prop tor  10  11  12  13
  80 ben  10  11  16
  81 prop tor  10  11  16   2
  82 prop tor  10  11  16  15
  83 ben  11  12  13
  84 prop tor  11  12  13  14
  85 prop tor  11  12  13  20
  86 ben  11  16  15
  87 ben  12  11  16
  88 prop tor  12  11  16   2
  89 prop tor  12  11  16  15
  90 ben  12  13  14
  91 prop tor  12  13  14  15
  92 prop tor  12  13  14  21
  93 ben  12  13  20
  94 ben  13  14  15
  95 prop tor  13  14  15  16
  96 prop tor  13  14  15  22
  97 ben  13  14  21
  98 ben  14  13  20
  99 ben  14  15  16
 100 prop tor  14  15  16   2
 101 prop tor  14  15  16  11
 102 ben  14  15  22
 103 ben  15  14  21
 104 prop tor  16   2   3   4
 105 prop tor  16   2   3   5
 106 prop tor  16  11  12  13
 107 ben  16  15  22
 108 prop tor  17   6   7   8
 109 prop tor  17   6   7  18
 110 prop tor  18   7   8   9
 111 prop tor  18   7   8  19
 112 prop tor  19   8   9  10
 113 prop tor  20  13  14  15
 114 prop tor  20  13  14  21
 115 prop tor  21  14  15  16
 116 prop tor  21  14  15  22
 117 prop tor  22  15  16   2
 118 prop tor  22  15  16  11
 nber bend=              38
 nber lin bend=           0
 nber prop tor=          56
 nber impr tor=           0
 nber tot redund int=         118
 Eigenvalues of G in red int coords
    Gval -0.00000000 -0.00000000 -0.00000000 -0.00000000 -0.00000000 -0.00000000 -0.00000000 -0.00000000
    Gval -0.00000000 -0.00000000 -0.00000000 -0.00000000 -0.00000000 -0.00000000 -0.00000000 -0.00000000
    Gval -0.00000000 -0.00000000 -0.00000000 -0.00000000 -0.00000000 -0.00000000 -0.00000000 -0.00000000
    Gval -0.00000000  0.00000000  0.00000000  0.00000000  0.00000000  0.00000000  0.00000000  0.00000000
    Gval  0.00000000  0.00000000  0.00000000  0.00000000  0.00000000  0.00000000  0.00000000  0.00000000
    Gval  0.00000000  0.00000000  0.00000000  0.00000000  0.00000000  0.00000000  0.00000000  0.00000000
    Gval  0.00000000  0.00000000  0.00000000  0.00000000  0.00000000  0.00000000  0.00000000  0.00000000
    Gval  0.00000000  0.00000000  0.00000690  0.00001099  0.00001162  0.00002004  0.00002094  0.00002554
    Gval  0.00003449  0.00004137  0.00004631  0.00004863  0.00005343  0.00005796  0.00005972  0.00007356
    Gval  0.00007761  0.00009595  0.00009968  0.00010910  0.00011365  0.00012492  0.00012889  0.00013064
    Gval  0.00014882  0.00019174  0.00023785  0.00023808  0.00026099  0.00028177  0.00031335  0.00035598
    Gval  0.00037042  0.00038701  0.00042812  0.00043884  0.00043966  0.00058338  0.00059372  0.00059373
    Gval  0.00060533  0.00060594  0.00064291  0.00064306  0.00066088  0.00089642  0.00090512  0.00103681
    Gval  0.00103710  0.00111086  0.00111087  0.00115090  0.00115097  0.00120169  0.00149440  0.00157226
    Gval  0.00168387  0.00209082  0.00267189  0.00269160  0.00382453  0.00382548
  6.897923562134362E-006  6.897923562134362E-006
  1.098990884793694E-005  6.897923562134362E-006
  1.162310375077225E-005  6.897923562134362E-006
  2.003729991780137E-005  6.897923562134362E-006
  2.094068817037468E-005  6.897923562134362E-006
  2.553944417922111E-005  6.897923562134362E-006
  3.448655646827452E-005  6.897923562134362E-006
  4.137308874398229E-005  6.897923562134362E-006
  4.630873615188710E-005  6.897923562134362E-006
  4.863343247535641E-005  6.897923562134362E-006
  5.342774868510413E-005  6.897923562134362E-006
  5.795835123524131E-005  6.897923562134362E-006
  5.971999244202577E-005  6.897923562134362E-006
  7.355988235351425E-005  6.897923562134362E-006
  7.760749243838173E-005  6.897923562134362E-006
  9.595306992828969E-005  6.897923562134362E-006
  9.967931835926716E-005  6.897923562134362E-006
  1.090976397117629E-004  6.897923562134362E-006
  1.136526755027537E-004  6.897923562134362E-006
  1.249197531010667E-004  6.897923562134362E-006
  1.288879994970764E-004  6.897923562134362E-006
  1.306407349416218E-004  6.897923562134362E-006
  1.488239052786270E-004  6.897923562134362E-006
  1.917373098461358E-004  6.897923562134362E-006
  2.378495675840868E-004  6.897923562134362E-006
  2.380813751495499E-004  6.897923562134362E-006
  2.609911984109572E-004  6.897923562134362E-006
  2.817691514702567E-004  6.897923562134362E-006
  3.133517367110305E-004  6.897923562134362E-006
  3.559766212677523E-004  6.897923562134362E-006
  3.704204000723520E-004  6.897923562134362E-006
  3.870063142301692E-004  6.897923562134362E-006
  4.281241087653567E-004  6.897923562134362E-006
  4.388447144382050E-004  6.897923562134362E-006
  4.396605812019986E-004  6.897923562134362E-006
  5.833796284649454E-004  6.897923562134362E-006
  5.937195410558831E-004  6.897923562134362E-006
  5.937251615499314E-004  6.897923562134362E-006
  6.053314532847331E-004  6.897923562134362E-006
  6.059403126199861E-004  6.897923562134362E-006
  6.429050004627068E-004  6.897923562134362E-006
  6.430648298208084E-004  6.897923562134362E-006
  6.608817991889785E-004  6.897923562134362E-006
  8.964231506859047E-004  6.897923562134362E-006
  9.051205424033999E-004  6.897923562134362E-006
  1.036812231137383E-003  6.897923562134362E-006
  1.037098713443804E-003  6.897923562134362E-006
  1.110856126923009E-003  6.897923562134362E-006
  1.110869168158181E-003  6.897923562134362E-006
  1.150895566415387E-003  6.897923562134362E-006
  1.150967767940063E-003  6.897923562134362E-006
  1.201691579715434E-003  6.897923562134362E-006
  1.494400218524579E-003  6.897923562134362E-006
  1.572257326853761E-003  6.897923562134362E-006
  1.683866350255932E-003  6.897923562134362E-006
  2.090821467549746E-003  6.897923562134362E-006
  2.671891399456438E-003  6.897923562134362E-006
  2.691597334276671E-003  6.897923562134362E-006
  3.824528002550563E-003  6.897923562134362E-006
  3.825479822776187E-003  6.897923562134362E-006
 cut=1d-8, nber non-redundant internal coords=          60
 Check on Eigenvals of non-red overlap matrix:
  0.00000690  0.00001099  0.00001162  0.00002004  0.00002094  0.00002554  0.00003449  0.00004137
  0.00004631  0.00004863  0.00005343  0.00005796  0.00005972  0.00007356  0.00007761  0.00009595
  0.00009968  0.00010910  0.00011365  0.00012492  0.00012889  0.00013064  0.00014882  0.00019174
  0.00023785  0.00023808  0.00026099  0.00028177  0.00031335  0.00035598  0.00037042  0.00038701
  0.00042812  0.00043884  0.00043966  0.00058338  0.00059372  0.00059373  0.00060533  0.00060594
  0.00064291  0.00064306  0.00066088  0.00089642  0.00090512  0.00103681  0.00103710  0.00111086
  0.00111087  0.00115090  0.00115097  0.00120169  0.00149440  0.00157226  0.00168387  0.00209082
  0.00267189  0.00269160  0.00382453  0.00382548
 d1=
  16.9 -13.3  -0.0  -0.0  -8.0  -6.8   0.0  -0.0   0.0   0.0   5.5   0.0  -3.1  -0.0   8.6  -0.0   3.1   0.0   0.0   1.6
  -9.4  -0.0   7.3   0.0   0.0  -0.0   0.8   0.9  -0.0  -0.0  -1.7   0.0  -0.0   0.0  -1.3  -0.0  -1.2   0.9  -0.0   0.0
  -0.4  -0.0  -0.0  -0.0   0.0   0.7   0.0   0.7   0.0   0.6  -0.0  -0.0  -0.0   0.0   0.0   0.0  -0.0   0.0  -0.0   0.0
 d2=
  16.7 -13.3   0.0  -0.0  -6.8   8.3  -0.0  -0.0   0.0   0.0   5.5  -0.0  -3.1   0.0   8.4  -0.0   2.6  -0.0   0.0  -0.0
   0.0  -9.4   7.8  -0.0  -0.0   0.0   0.9   0.8   0.0   0.0   1.6  -0.0  -0.0   1.5   0.0  -0.0   0.0   1.2  -0.8  -0.0
  -0.4  -0.0   0.0  -0.0   0.0  -0.5   0.0   0.6   0.0  -0.8   0.0   0.0   0.0  -0.0  -0.0  -0.0   0.0  -0.0   0.0  -0.0
 curvilinear- renormalizn of Dush matrix done
  mol 1 sym            1  -> mol 2 sym            1
  mol 1 sym            2  -> mol 2 sym            2
  mol 1 sym            3  -> mol 2 sym            3
  mol 1 sym            4  -> mol 2 sym            4

 Dushinsky matrix, ncs 2 in terms of ncs 1

   mode   freq    coeff     %      %tot     of    at

   1 A1     -0.  0.0000     0.0     0.0  11 A1    231.
   2 B2     -0.  0.0000     0.0     0.0  13 B2    319.
   3 A2     -0.  0.0000     0.0     0.0   9 A2    110.
   4 B1     -0. -0.0000     0.0     0.0  10 B1    154.
   5 B1      0. -0.0000     0.0     0.0   8 B1     84.
   6 B2      0.  0.0000     0.0     0.0  16 B2    395.
   7 A2     66.  0.9613    92.4    96.2   7 A2     37.
   8 B1     92. -0.9972    99.4    96.2   8 B1     84.
   9 A2    123. -0.9493    90.1    96.3   9 A2    110.
  10 B1    141.  0.9562    91.4    96.9  10 B1    154.
  11 A2    191.  0.9243    85.4    97.2  12 A2    258.
                 0.3300    10.9          18 A2    436.
  12 A1    232. -0.9983    99.7    97.1  11 A1    231.
  13 B1    292. -0.8463    71.6    92.8  15 B1    381.
                 0.4313    18.6          19 B1    441.
  14 B2    317. -0.9991    99.8    93.5  13 B2    319.
  15 A1    368.  0.9968    99.4    93.4  14 A1    360.
  16 A2    377. -0.3390    11.5    97.6  12 A2    258.
                 0.9158    83.9          18 A2    436.
  17 A1    404.  0.9961    99.2    95.9  17 A1    401.
  18 B2    404. -0.9964    99.3   103.1  16 B2    395.
  19 B1    444.  0.4154    17.3    97.1  15 B1    381.
                 0.8235    67.8          19 B1    441.
                 0.3372    11.4          37 B1   1020.
  20 A1    457. -0.9934    98.7    98.9  20 A1    458.
  21 B1    486.  0.6592    43.5    96.9  21 B1    564.
                -0.4138    17.1          34 B1    992.
                -0.5053    25.5          37 B1   1020.
  22 A2    507. -0.7096    50.4    99.3  22 A2    572.
                -0.5889    34.7          38 A2   1022.
  23 A2    549. -0.5508    30.3   100.3  22 A2    572.
                 0.4039    16.3          31 A2    833.
                 0.5968    35.6          35 A2    994.
  24 B1    568.  0.4369    19.1    98.8  21 B1    564.
                 0.6440    41.5          27 B1    766.
                 0.5344    28.6          34 B1    992.
  25 B2    577. -0.9434    89.0    97.0  23 B2    623.
                 0.3210    10.3          24 B2    632.
  26 B2    593. -0.3472    12.1    99.8  23 B2    623.
                -0.9252    85.6          24 B2    632.
  27 B1    623. -0.4566    20.8    97.0  21 B1    564.
                 0.4537    20.6          27 B1    766.
                 0.5283    27.9          30 B1    833.
                -0.4064    16.5          34 B1    992.
                -0.3702    13.7          37 B1   1020.
  28 A2    634. -0.5843    34.1    97.1  28 A2    779.
                 0.5213    27.2          31 A2    833.
                 0.3714    13.8          32 A2    879.
                -0.4551    20.7          35 A2    994.
  29 A1    637. -0.9908    98.2    97.3  25 A1    680.
  30 B1    672.  0.3743    14.0    97.1  21 B1    564.
                -0.3211    10.3          27 B1    766.
                 0.6408    41.1          30 B1    833.
                -0.3468    12.0          34 B1    992.
                 0.4509    20.3          37 B1   1020.
  31 A2    688.  0.4287    18.4    97.0  22 A2    572.
                 0.3565    12.7          28 A2    779.
                 0.5594    31.3          31 A2    833.
                 0.3930    15.4          35 A2    994.
                -0.4699    22.1          38 A2   1022.
  32 B2    697. -0.9931    98.6    97.7  26 B2    713.
  33 A2    735.  0.6195    38.4    98.8  28 A2    779.
                 0.3346    11.2          31 A2    833.
                 0.3544    12.6          32 A2    879.
                 0.5273    27.8          38 A2   1022.
  34 B1    737.  0.4861    23.6    95.6  27 B1    766.
                -0.4279    18.3          30 B1    833.
                -0.4970    24.7          34 B1    992.
                 0.5431    29.5          37 B1   1020.
  35 A2    780.  0.3485    12.1    99.5  31 A2    833.
                -0.8539    72.9          32 A2    879.
                -0.3448    11.9          35 A2    994.
  36 A1    822.  0.9897    97.9    99.3  29 A1    831.
  37 B2    896. -0.9582    91.8    98.8  33 B2    938.
  38 B2    977.  0.4700    22.1    98.5  39 B2   1056.
                 0.7669    58.8          43 B2   1134.
  39 A1    977.  0.9533    90.9    98.5  36 A1   1020.
  40 A1    992. -0.5261    27.7    97.6  40 A1   1080.
                -0.8061    65.0          42 A1   1110.
  41 B2   1021. -0.8376    70.2    97.7  39 B2   1056.
                 0.4422    19.6          43 B2   1134.
  42 A1   1038. -0.8225    67.6    98.2  40 A1   1080.
                 0.5413    29.3          42 A1   1110.
  43 B2   1043.  0.9668    93.5    97.4  41 B2   1105.
  44 A1   1107. -0.8103    65.7    98.4  44 A1   1207.
                 0.4046    16.4          47 A1   1296.
  45 B2   1155.  0.7086    50.2   100.0  45 B2   1230.
                 0.4679    21.9          49 B2   1313.
                 0.3179    10.1          58 B2   1628.
  46 B2   1217. -0.3604    13.0    98.8  43 B2   1134.
                -0.5624    31.6          46 B2   1283.
                -0.4116    16.9          49 B2   1313.
                 0.3189    10.2          51 B2   1449.
                 0.4353    18.9          58 B2   1628.
  47 A1   1224.  0.4426    19.6    99.4  44 A1   1207.
                 0.5403    29.2          47 A1   1296.
                 0.3541    12.5          50 A1   1344.
                 0.3288    10.8          52 A1   1454.
                 0.3818    14.6          55 A1   1592.
  48 A1   1258. -0.6366    40.5    99.6  47 A1   1296.
                -0.4569    20.9          48 A1   1305.
                 0.4885    23.9          50 A1   1344.
  49 B2   1264.  0.5552    30.8    98.9  45 B2   1230.
                -0.6218    38.7          49 B2   1313.
                -0.4050    16.4          51 B2   1449.
  50 A1   1298.  0.5612    31.5    99.3  48 A1   1305.
                 0.5873    34.5          50 A1   1344.
                -0.3280    10.8          55 A1   1592.
  51 B2   1340. -0.6348    40.3   100.2  46 B2   1283.
                 0.4357    19.0          49 B2   1313.
                -0.4601    21.2          51 B2   1449.
                 0.3505    12.3          56 B2   1606.
  52 A1   1365.  0.3181    10.1    98.2  48 A1   1305.
                 0.8558    73.2          52 A1   1454.
  53 B2   1399.  0.4290    18.4    97.7  51 B2   1449.
                -0.7359    54.2          54 B2   1491.
                -0.3806    14.5          58 B2   1628.
  54 B2   1418. -0.4373    19.1    99.2  51 B2   1449.
                -0.6077    36.9          54 B2   1491.
                 0.4769    22.7          58 B2   1628.
                 0.4312    18.6          60 B2   1781.
  55 A1   1424. -0.8435    71.1    98.2  53 A1   1485.
                 0.3288    10.8          57 A1   1616.
  56 A1   1450.  0.4269    18.2    99.2  50 A1   1344.
                -0.6656    44.3          57 A1   1616.
                -0.4608    21.2          59 A1   1756.
  57 A1   1490. -0.6057    36.7    99.2  55 A1   1592.
                -0.5085    25.9          57 A1   1616.
                 0.4360    19.0          59 A1   1756.
  58 A1   1494.  0.4961    24.6    99.9  55 A1   1592.
                 0.7337    53.8          59 A1   1756.
  59 B2   1508. -0.5690    32.4   100.0  56 B2   1606.
                -0.6846    46.9          60 B2   1781.
  60 B2   1543.  0.7170    51.4   100.0  56 B2   1606.
[...]
 nber times 1st assigned=          24           0
 nber times 1st assigned=          25           0
 nber times 1st assigned=          26           0
 nber times 1st assigned=          27           0
 nber times 1st assigned=          28           0
 nber times 1st assigned=          29           0
 nber times 1st assigned=          30           0
 nber times 1st assigned=          31           0
 nber times 1st assigned=          32           0
 nber times 1st assigned=          33           0
 nber times 1st assigned=          34           0
 nber times 1st assigned=          35           0
 nber times 1st assigned=          36           0
 nber times 1st assigned=          37           0
 nber times 1st assigned=          38           0
 nber times 1st assigned=          39           0
 nber times 1st assigned=          40           0
 nber times 1st assigned=          41           0
 nber times 1st assigned=          42           0
 nber times 1st assigned=          43           0
 nber times 1st assigned=          44           0
 nber times 1st assigned=          45           0
 nber times 1st assigned=          46           0
 nber times 1st assigned=          47           0
 nber times 1st assigned=          48           0
 nber times 1st assigned=          49           0
 nber times 1st assigned=          50           0
 nber times 1st assigned=          51           0
 nber times 1st assigned=          52           0
 nber times 1st assigned=          53           0
 nber times 1st assigned=          54           0
 nber times 1st assigned=          55           0
 nber times 1st assigned=          56           0
 nber times 1st assigned=          57           0
 nber times 1st assigned=          58           0
 nber times 1st assigned=          59           0
 nber times 1st assigned=          60           0
 nber times 1st assigned=          61           0
 nber times 1st assigned=          62           0
 nber times 1st assigned=          63           0
 nber times 1st assigned=          64           0
 nber times 1st assigned=          65           0
 nber times 1st assigned=          66           0
 Dushinsky matrix written to .out file
 modes represented=   58.9351991267455     

 Dushinsky matrix, ncs 1 in terms of ncs 2

   mode   freq    coeff     %      %tot     of    at

   7 A2     37.  0.9613    92.4    98.1   7 A2     66.
   8 B1     84. -0.9972    99.4    97.0   8 B1     92.
   9 A2    110. -0.9493    90.1    97.1   9 A2    123.
  10 B1    154.  0.9562    91.4    96.0  10 B1    141.
  11 A1    231. -0.9983    99.7    97.5  12 A1    232.
  12 A2    258.  0.9243    85.4    99.6  11 A2    191.
                -0.3390    11.5          16 A2    377.
  13 B2    319. -0.9991    99.8    94.2  14 B2    317.
  14 A1    360.  0.9968    99.4    94.3  15 A1    368.
  15 B1    381. -0.8463    71.6    94.5  13 B1    292.
                 0.4154    17.3          19 B1    444.
  16 B2    395. -0.9964    99.3   103.9  18 B2    404.
  17 A1    401.  0.9961    99.2    96.9  17 A1    404.
  18 A2    436.  0.3300    10.9    95.3  11 A2    191.
                 0.9158    83.9          16 A2    377.
  19 B1    441.  0.4313    18.6    95.8  13 B1    292.
                 0.8235    67.8          19 B1    444.
  20 A1    458. -0.9934    98.7    99.2  20 A1    457.
  21 B1    564.  0.6592    43.5    98.4  21 B1    486.
                 0.4369    19.1          24 B1    568.
                -0.4566    20.8          27 B1    623.
                 0.3743    14.0          30 B1    672.
  22 A2    572. -0.7096    50.4   100.3  22 A2    507.
                -0.5508    30.3          23 A2    549.
                 0.4287    18.4          31 A2    688.
  23 B2    623. -0.9434    89.0    99.8  25 B2    577.
                -0.3472    12.1          26 B2    593.
  24 B2    632.  0.3210    10.3    97.4  25 B2    577.
                -0.9252    85.6          26 B2    593.
  25 A1    680. -0.9908    98.2    96.7  29 A1    637.
  26 B2    713. -0.9931    98.6    97.6  32 B2    697.
  27 B1    766.  0.6440    41.5    95.0  24 B1    568.
                 0.4537    20.6          27 B1    623.
                -0.3211    10.3          30 B1    672.
                 0.4861    23.6          34 B1    737.
  28 A2    779. -0.5843    34.1    98.1  28 A2    634.
                 0.3565    12.7          31 A2    688.
                 0.6195    38.4          33 A2    735.
  29 A1    831.  0.9897    97.9    99.2  36 A1    822.
  30 B1    833.  0.5283    27.9    96.4  27 B1    623.
                 0.6408    41.1          30 B1    672.
                -0.4279    18.3          34 B1    737.
  31 A2    833.  0.4039    16.3    96.9  23 A2    549.
                 0.5213    27.2          28 A2    634.
                 0.5594    31.3          31 A2    688.
                 0.3346    11.2          33 A2    735.
                 0.3485    12.1          35 A2    780.
  32 A2    879.  0.3714    13.8    98.9  28 A2    634.
                 0.3544    12.6          33 A2    735.
                -0.8539    72.9          35 A2    780.
  33 B2    938. -0.9582    91.8    98.2  37 B2    896.
  34 B1    992. -0.4138    17.1    96.9  21 B1    486.
                 0.5344    28.6          24 B1    568.
                -0.4064    16.5          27 B1    623.
                -0.3468    12.0          30 B1    672.
                -0.4970    24.7          34 B1    737.
  35 A2    994.  0.5968    35.6    97.0  23 A2    549.
                -0.4551    20.7          28 A2    634.
                 0.3930    15.4          31 A2    688.
                -0.3448    11.9          35 A2    780.
  36 A1   1020.  0.9533    90.9    98.2  39 A1    977.
  37 B1   1020.  0.3372    11.4    98.3  19 B1    444.
                -0.5053    25.5          21 B1    486.
                -0.3702    13.7          27 B1    623.
                 0.4509    20.3          30 B1    672.
                 0.5431    29.5          34 B1    737.
  38 A2   1022. -0.5889    34.7    98.3  22 A2    507.
                -0.4699    22.1          31 A2    688.
                 0.5273    27.8          33 A2    735.
  39 B2   1056.  0.4700    22.1    97.6  38 B2    977.
                -0.8376    70.2          41 B2   1021.
  40 A1   1080. -0.5261    27.7    97.8  40 A1    992.
                -0.8225    67.6          42 A1   1038.
  41 B2   1105.  0.9668    93.5    97.3  43 B2   1043.
  42 A1   1110. -0.8061    65.0    97.9  40 A1    992.
                 0.5413    29.3          42 A1   1038.
  43 B2   1134.  0.7669    58.8    99.0  38 B2    977.
                 0.4422    19.6          41 B2   1021.
                -0.3604    13.0          46 B2   1217.
  44 A1   1207. -0.8103    65.7    98.2  44 A1   1107.
                 0.4426    19.6          47 A1   1224.
  45 B2   1230.  0.7086    50.2    99.4  45 B2   1155.
                 0.5552    30.8          49 B2   1264.
  46 B2   1283. -0.5624    31.6    99.4  46 B2   1217.
                -0.6348    40.3          51 B2   1340.
  47 A1   1296.  0.4046    16.4    99.4  44 A1   1107.
                 0.5403    29.2          47 A1   1224.
                -0.6366    40.5          48 A1   1258.
  48 A1   1305. -0.4569    20.9    99.6  48 A1   1258.
                 0.5612    31.5          50 A1   1298.
                 0.3181    10.1          52 A1   1365.
  49 B2   1313.  0.4679    21.9    98.9  45 B2   1155.
                -0.4116    16.9          46 B2   1217.
                -0.6218    38.7          49 B2   1264.
                 0.4357    19.0          51 B2   1340.
  50 A1   1344.  0.3541    12.5    98.2  47 A1   1224.
                 0.4885    23.9          48 A1   1258.
                 0.5873    34.5          50 A1   1298.
                 0.4269    18.2          56 A1   1450.
  51 B2   1449.  0.3189    10.2    98.0  46 B2   1217.
                -0.4050    16.4          49 B2   1264.
                -0.4601    21.2          51 B2   1340.
                 0.4290    18.4          53 B2   1399.
                -0.4373    19.1          54 B2   1418.
  52 A1   1454.  0.3288    10.8    98.1  47 A1   1224.
                 0.8558    73.2          52 A1   1365.
  53 A1   1485. -0.8435    71.1    98.1  55 A1   1424.
  54 B2   1491. -0.7359    54.2    98.1  53 B2   1399.
                -0.6077    36.9          54 B2   1418.
  55 A1   1592.  0.3818    14.6    99.2  47 A1   1224.
                -0.3280    10.8          50 A1   1298.
                -0.6057    36.7          57 A1   1490.
                 0.4961    24.6          58 A1   1494.
  56 B2   1606.  0.3505    12.3    99.7  51 B2   1340.
                -0.5690    32.4          59 B2   1508.
                 0.7170    51.4          60 B2   1543.
  57 A1   1616.  0.3288    10.8    99.1  55 A1   1424.
                -0.6656    44.3          56 A1   1450.
                -0.5085    25.9          57 A1   1490.
  58 B2   1628.  0.3179    10.1    99.3  45 B2   1155.
                 0.4353    18.9          46 B2   1217.
                -0.3806    14.5          53 B2   1399.
                 0.4769    22.7          54 B2   1418.
                 0.3886    15.1          60 B2   1543.
  59 A1   1756. -0.4608    21.2   100.1  56 A1   1450.
                 0.4360    19.0          57 A1   1490.
                 0.7337    53.8          58 A1   1494.
  60 B2   1781.  0.4312    18.6   100.4  54 B2   1418.
                -0.6846    46.9          59 B2   1508.
                -0.5023    25.2          60 B2   1543.
  61 B2   3149. -0.9960    99.2   100.0  61 B2   2896.
  62 A1   3149. -0.9944    98.9   100.0  62 A1   2899.
  63 B2   3188.  0.8539    72.9   100.0  63 B2   2977.
                -0.5180    26.8          65 B2   3137.
  64 A1   3188.  0.8570    73.4   100.0  64 A1   2979.
                -0.5113    26.1          66 A1   3137.
  65 B2   3201.  0.5150    26.5   100.0  63 B2   2977.
                 0.8546    73.0          65 B2   3137.
  66 A1   3202.  0.5067    25.7   100.0  64 A1   2979.
                 0.8584    73.7          66 A1   3137.
 nber times 1st assigned=           1           0
 nber times 1st assigned=           2           0
 nber times 1st assigned=           3           0
 nber times 1st assigned=           4           0
 nber times 1st assigned=           5           0
 nber times 1st assigned=           6           0
 nber times 1st assigned=           7           0
 nber times 1st assigned=           8           0
 nber times 1st assigned=           9           0
 nber times 1st assigned=          10           0
 nber times 1st assigned=          11           0
 nber times 1st assigned=          12           0
 nber times 1st assigned=          13           0
 nber times 1st assigned=          14           0
 nber times 1st assigned=          15           0
 nber times 1st assigned=          16           0
 nber times 1st assigned=          17           0
 nber times 1st assigned=          18           0
 nber times 1st assigned=          19           0
 nber times 1st assigned=          20           0
 nber times 1st assigned=          21           0
 nber times 1st assigned=          22           0
 nber times 1st assigned=          23           0
 nber times 1st assigned=          24           0
 nber times 1st assigned=          25           0
 nber times 1st assigned=          26           0
 nber times 1st assigned=          27           0
 nber times 1st assigned=          28           0
 nber times 1st assigned=          29           0
 nber times 1st assigned=          30           0
 nber times 1st assigned=          31           0
 nber times 1st assigned=          32           0
 nber times 1st assigned=          33           0
 nber times 1st assigned=          34           0
 nber times 1st assigned=          35           0
 nber times 1st assigned=          36           0
 nber times 1st assigned=          37           0
 nber times 1st assigned=          38           0
 nber times 1st assigned=          39           0
 nber times 1st assigned=          40           0
 nber times 1st assigned=          41           0
 nber times 1st assigned=          42           0
 nber times 1st assigned=          43           0
 nber times 1st assigned=          44           0
 nber times 1st assigned=          45           0
 nber times 1st assigned=          46           0
 nber times 1st assigned=          47           0
 nber times 1st assigned=          48           0
 nber times 1st assigned=          49           0
 nber times 1st assigned=          50           0
 nber times 1st assigned=          51           0
 nber times 1st assigned=          52           0
 nber times 1st assigned=          53           0
 nber times 1st assigned=          54           0
 nber times 1st assigned=          55           0
 nber times 1st assigned=          56           0
 nber times 1st assigned=          57           0
 nber times 1st assigned=          58           0
 nber times 1st assigned=          59           0
 nber times 1st assigned=          60           0
 nber times 1st assigned=          61           0
 nber times 1st assigned=          62           0
 nber times 1st assigned=          63           0
 nber times 1st assigned=          64           0
 nber times 1st assigned=          65           0
 nber times 1st assigned=          66           0
 modes represented=   58.9351991267455     
 p1=
   -0.    0.   -0.   -0.    0.    0.    0.   -0.    0.    0.  -15.   -0.    0.   -2.    0.    0.   -5.   -0.   -0.  -13.
   -0.   -0.    0.    0.    9.    0.   -0.    0.    1.    0.    0.   -0.   -0.    0.    0.    9.   -0.   -0.   -0.   -1.
    0.    1.   -0.    3.    0.    0.    6.    6.    0.   -4.   -0.    4.    2.   -0.   -4.    0.   -1.   -0.   11.   -0.
   -0.   -1.    0.   -1.   -0.   -1.
 p2=
    0.   -0.   -0.   -0.   -0.   -0.   -0.   -0.    0.   -0.    0.  -16.    0.   -0.    2.    0.    5.   -0.    0.  -13.
    0.   -0.   -0.    0.   -0.   -0.   -0.    0.   10.    0.   -0.   -0.   -0.    0.   -0.   -1.    0.   -0.   -8.    1.
    0.   -1.    0.    1.    0.   -0.   -1.    6.    0.   -3.   -0.   -3.    0.    0.    0.    7.   -8.   -7.   -0.    0.
    0.   -1.   -0.    1.   -0.    0.

 Displacement: in terms of nc of 1 THEN of nc of 2

   1 B2  freq=    -0. Q= -0.000 lam=    -0.0 A1  freq=    -0. Q= -0.000 lam=    -0.0
   2 B2  freq=    -0. Q=  0.000 lam=    -0.0 B2  freq=    -0. Q=  0.000 lam=    -0.0
   3 B1  freq=    -0. Q= -0.000 lam=    -0.0 A2  freq=    -0. Q= -0.000 lam=    -0.0
   4 A1  freq=     0. Q= -0.000 lam=     0.0 B1  freq=    -0. Q= -0.000 lam=    -0.0
   5 A2  freq=     0. Q=  0.000 lam=     0.0 B1  freq=     0. Q=  0.000 lam=     0.0
   6 B1  freq=     0. Q=  0.000 lam=     0.0 B2  freq=     0. Q=  0.000 lam=     0.0
   7 A2  freq=    37. Q=  0.000 lam=     0.0 A2  freq=    66. Q=  0.000 lam=     0.0
   8 B1  freq=    84. Q= -0.000 lam=     0.0 B1  freq=    92. Q= -0.000 lam=     0.0
   9 A2  freq=   110. Q=  0.000 lam=     0.0 A2  freq=   123. Q=  0.000 lam=     0.0
  10 B1  freq=   154. Q=  0.000 lam=     0.0 B1  freq=   141. Q=  0.000 lam=     0.0
  11 A1  freq=   231. Q= -0.936 lam=   101.2 A2  freq=   191. Q= -0.000 lam=     0.0
  12 A2  freq=   258. Q= -0.000 lam=     0.0 A1  freq=   232. Q= -0.956 lam=   105.8
  13 B2  freq=   319. Q=  0.000 lam=     0.0 B1  freq=   292. Q=  0.000 lam=     0.0
  14 A1  freq=   360. Q= -0.127 lam=     2.9 B2  freq=   317. Q= -0.000 lam=     0.0
  15 B1  freq=   381. Q=  0.000 lam=     0.0 A1  freq=   368. Q=  0.126 lam=     2.9
  16 B2  freq=   395. Q=  0.000 lam=     0.0 A2  freq=   377. Q=  0.000 lam=     0.0
  17 A1  freq=   401. Q= -0.416 lam=    34.7 A1  freq=   404. Q= -0.413 lam=    34.4
  18 A2  freq=   436. Q= -0.000 lam=     0.0 B2  freq=   404. Q= -0.000 lam=     0.0
  19 B1  freq=   441. Q= -0.000 lam=     0.0 B1  freq=   444. Q= -0.000 lam=     0.0
  20 A1  freq=   458. Q= -1.133 lam=   293.9 A1  freq=   457. Q= -1.136 lam=   294.7
  21 B1  freq=   564. Q= -0.000 lam=     0.0 B1  freq=   486. Q= -0.000 lam=     0.0
  22 A2  freq=   572. Q= -0.000 lam=     0.0 A2  freq=   507. Q= -0.000 lam=     0.0
  23 B2  freq=   623. Q=  0.000 lam=     0.0 A2  freq=   549. Q=  0.000 lam=     0.0
  24 B2  freq=   632. Q=  0.000 lam=     0.0 B1  freq=   568. Q=  0.000 lam=     0.0
  25 A1  freq=   680. Q=  0.915 lam=   284.7 B2  freq=   577. Q=  0.000 lam=     0.0
  26 B2  freq=   713. Q=  0.000 lam=     0.0 B2  freq=   593. Q=  0.000 lam=     0.0
  27 B1  freq=   766. Q= -0.000 lam=     0.0 B1  freq=   623. Q= -0.000 lam=     0.0
  28 A2  freq=   779. Q=  0.000 lam=     0.0 A2  freq=   634. Q=  0.000 lam=     0.0
  29 A1  freq=   831. Q=  0.140 lam=     8.2 A1  freq=   637. Q=  1.062 lam=   359.7
  30 B1  freq=   833. Q=  0.000 lam=     0.0 B1  freq=   672. Q=  0.000 lam=     0.0
  31 A2  freq=   833. Q=  0.000 lam=     0.0 A2  freq=   688. Q=  0.000 lam=     0.0
  32 A2  freq=   879. Q= -0.000 lam=     0.0 B2  freq=   697. Q= -0.000 lam=     0.0
  33 B2  freq=   938. Q= -0.000 lam=     0.0 A2  freq=   735. Q= -0.000 lam=     0.0
  34 B1  freq=   992. Q=  0.000 lam=     0.0 B1  freq=   737. Q=  0.000 lam=     0.0
  35 A2  freq=   994. Q=  0.000 lam=     0.0 A2  freq=   780. Q=  0.000 lam=     0.0
  36 A1  freq=  1020. Q=  1.127 lam=   647.5 A1  freq=   822. Q=  0.061 lam=     1.6
  37 B1  freq=  1020. Q= -0.000 lam=     0.0 B2  freq=   896. Q= -0.000 lam=     0.0
  38 A2  freq=  1022. Q= -0.000 lam=     0.0 B2  freq=   977. Q= -0.000 lam=     0.0
  39 B2  freq=  1056. Q= -0.000 lam=     0.0 A1  freq=   977. Q= -1.070 lam=   559.7
  40 A1  freq=  1080. Q= -0.171 lam=    15.8 A1  freq=   992. Q= -0.121 lam=     7.3
  41 B2  freq=  1105. Q=  0.000 lam=     0.0 B2  freq=  1021. Q=  0.000 lam=     0.0
  42 A1  freq=  1110. Q=  0.085 lam=     4.0 A1  freq=  1038. Q=  0.141 lam=    10.3
  43 B2  freq=  1134. Q= -0.000 lam=     0.0 B2  freq=  1043. Q= -0.000 lam=     0.0
  44 A1  freq=  1207. Q=  0.398 lam=    95.7 A1  freq=  1107. Q=  0.094 lam=     4.9
  45 B2  freq=  1230. Q=  0.000 lam=     0.0 B2  freq=  1155. Q=  0.000 lam=     0.0
  46 B2  freq=  1283. Q=  0.000 lam=     0.0 B2  freq=  1217. Q=  0.000 lam=     0.0
  47 A1  freq=  1296. Q=  0.941 lam=   574.2 A1  freq=  1224. Q=  0.104 lam=     6.6
  48 A1  freq=  1305. Q=  0.908 lam=   537.8 A1  freq=  1258. Q=  0.878 lam=   484.7
  49 B2  freq=  1313. Q=  0.000 lam=     0.0 B2  freq=  1264. Q=  0.000 lam=     0.0
  50 A1  freq=  1344. Q= -0.577 lam=   224.0 A1  freq=  1298. Q= -0.371 lam=    89.1
  51 B2  freq=  1449. Q= -0.000 lam=     0.0 B2  freq=  1340. Q= -0.000 lam=     0.0
  52 A1  freq=  1454. Q=  0.657 lam=   313.3 A1  freq=  1365. Q=  0.416 lam=   117.9
  53 A1  freq=  1485. Q=  0.307 lam=    70.1 B2  freq=  1399. Q=  0.000 lam=     0.0
  54 B2  freq=  1491. Q= -0.000 lam=     0.0 B2  freq=  1418. Q= -0.000 lam=     0.0
  55 A1  freq=  1592. Q= -0.626 lam=   311.8 A1  freq=  1424. Q= -0.005 lam=     0.0
  56 B2  freq=  1606. Q=  0.000 lam=     0.0 A1  freq=  1450. Q=  1.087 lam=   856.7
  57 A1  freq=  1616. Q= -0.180 lam=    26.3 A1  freq=  1490. Q= -1.275 lam=  1210.1
  58 B2  freq=  1628. Q= -0.000 lam=     0.0 A1  freq=  1494. Q= -1.078 lam=   867.8
  59 A1  freq=  1756. Q=  1.801 lam=  2847.4 B2  freq=  1508. Q=  0.000 lam=     0.0
  60 B2  freq=  1781. Q= -0.000 lam=     0.0 B2  freq=  1543. Q= -0.000 lam=     0.0
  61 B2  freq=  3149. Q= -0.000 lam=     0.0 B2  freq=  2896. Q= -0.000 lam=     0.0
  62 A1  freq=  3149. Q= -0.177 lam=    49.2 A1  freq=  2899. Q= -0.159 lam=    36.7
  63 B2  freq=  3188. Q=  0.000 lam=     0.0 B2  freq=  2977. Q=  0.000 lam=     0.0
  64 A1  freq=  3188. Q= -0.182 lam=    53.0 A1  freq=  2979. Q= -0.243 lam=    88.1
  65 B2  freq=  3201. Q= -0.000 lam=     0.0 B2  freq=  3137. Q= -0.000 lam=     0.0
  66 A1  freq=  3202. Q= -0.129 lam=    26.5 A1  freq=  3137. Q= -0.048 lam=     3.6

 total reorg energy (cm**-1, kcal/mol)=     6522.     5142.     18.65     14.70
 Nber of molecules processed=           2
