 Enter ifcurve (0=recti, 1=orth curvi, 2=apprx curvi, -1 = skip
 And atom ordering flag, 0= never changes, 1= use the first order thenceforth,
  2= deduce it (does read on fail), 3= always read it
 Reading file: 
 ./IDTBx_1_C-1S0.log                                                            
                                          
  Entering Gaussian System, Link 0=g16                                          
  
 Gaussian format, type: g94, g98, g03= F F F
  #P Geom=AllCheck Guess=TCheck SCRF=Check GenChk UB3LYP/6-311G(d,p) Fre    
 energy type= B3LYP   
 Original G94 input coords:
  6  1.122328  1.891394  0.717331
  6  2.457149  1.443421  0.123127
  7  2.294599  0.380531 -0.875153
  6  2.097969  0.734179 -2.240458
  8  2.068183  1.896400 -2.603511
  6  1.952009 -0.468894 -3.056211
  6  1.755974 -0.380880 -4.407899
  6  1.589325 -1.378395 -5.406727
  6  1.594332 -2.771619 -5.205493
  6  1.425334 -3.700161 -6.226885
  6  1.229756 -3.356116 -7.579135
  6  1.059046 -4.351456 -8.598152
  6  1.056431 -5.741959 -8.425627
  6  0.866769 -6.448203 -9.612942
  6  0.720954 -5.627185-10.723616
 16  0.813683 -3.947632-10.316175
  6  0.529253 -6.400315-11.917741
  6  0.337188 -6.030476-13.261251
  6  0.177131 -7.032803-14.196807
  6  0.206401 -8.405294-13.814495
  6  0.398472 -8.775131-12.470983
  6  0.558530 -7.772805-11.535426
  6  0.778478 -7.901557-10.028739
  6  2.011913 -8.739226 -9.649486
  6  0.014698 -9.178417-15.008626
 16 -0.078190-10.857966-15.416062
  6 -0.323515-10.454132-17.134088
  6 -0.494182-11.449458-18.153126
  6 -0.689272-11.105403-19.505443
  6 -0.858314-12.033928-20.526842
  6 -0.853837-13.427144-20.325550
  6 -1.020610-14.424635-21.324378
  6 -1.216020-14.336590-22.676154
 16 -1.332280-12.899353-23.703475
  6 -1.570392-13.859867-25.168054
 16 -1.778036-13.167892-26.664810
  7 -1.558164-15.185944-24.857310
  6 -1.721075-16.248784-25.855587
  6 -0.386371-16.697553-26.449456
  6 -1.362438-15.539627-23.491877
  8 -1.333629-16.701837-23.128719
  6 -0.658251-13.839150-18.955896
  7 -0.618543-15.098055-18.530607
 16 -0.375536-15.056751-16.899541
  7 -0.313814-13.421102-16.690932
  6 -0.481261-12.865149-17.888020
  6 -0.320848 -9.063627-17.306607
  6 -0.131121 -8.357393-16.119296
  6 -0.042821 -6.904044-15.703491
  6 -1.276257 -6.066373-16.082735
  6  1.216331 -1.940421 -7.844187
  7  1.048416 -1.384474 -9.041213
 16  1.109660  0.251189 -8.832571
  7  1.353059  0.292501 -7.201562
  6  1.393268 -0.966405 -6.776320
 16  2.069719 -1.906128 -2.029050
  6  2.307886 -0.945560 -0.564511
 16  2.516672 -1.637508  0.932096
  1  1.293044  2.683840  1.451514
  1  0.621554  1.061668  1.219685
  1  0.468038  2.284653 -0.063235
  1  3.121148  1.059348  0.897157
  1  2.939706  2.271092 -0.397046
  1  1.724331  0.643980 -4.767385
  1  1.737177 -3.162880 -4.206747
  1  1.448180 -4.747013 -5.952976
  1  1.187426 -6.205602 -7.457635
  1  0.317398 -4.984037-13.547650
  1  0.418241 -9.821570-12.184584
  1 -0.108823 -8.364168 -9.576477
  1  2.916161 -8.309985-10.087055
  1  1.912617 -9.767189-10.007572
  1  2.139066 -8.771415 -8.564056
  1 -0.711637-10.058555-19.779409
  1 -1.000811-11.642658-21.525634
  1 -0.989648-15.449488-20.964817
  1 -2.384684-15.864390-26.629794
  1 -2.204211-17.076145-25.335461
  1  0.115039-15.868113-26.951644
  1 -0.557376-17.489863-27.183717
  1  0.267478-17.091228-25.668728
  1 -0.451918 -8.599977-18.274585
  1  0.844478 -6.441424-16.155748
  1 -1.176887 -5.038369-15.724787
  1 -1.403511 -6.034318-17.168156
  1 -2.180481 -6.495522-15.645025
 nber atoms=          86
  SCF Done:  E(UB3LYP) =  -5282.62400919     A.U. after    1 cycles             
  
          23          40 "  -5282.62400919"
After scan for Atom:   Atom  AN      X      Y      Z        X      Y      Z        X      Y      Z   
After scan for Atom:   Atom  AN      X      Y      Z        X      Y      Z        X      Y      Z   
After scan for Atom:   Atom  AN      X      Y      Z        X      Y      Z        X      Y      Z   
After scan for Atom:   Atom  AN      X      Y      Z        X      Y      Z        X      Y      Z   
After scan for Atom:   Atom  AN      X      Y      Z        X      Y      Z        X      Y      Z   
After scan for Atom:   Atom  AN      X      Y      Z        X      Y      Z        X      Y      Z   
After scan for Atom:   Atom  AN      X      Y      Z        X      Y      Z        X      Y      Z   
After scan for Atom:   Atom  AN      X      Y      Z        X      Y      Z        X      Y      Z   
After scan for Atom:   Atom  AN      X      Y      Z        X      Y      Z        X      Y      Z   
After scan for Atom:   Atom  AN      X      Y      Z        X      Y      Z        X      Y      Z   
After scan for Atom:   Atom  AN      X      Y      Z        X      Y      Z        X      Y      Z   
After scan for Atom:   Atom  AN      X      Y      Z        X      Y      Z        X      Y      Z   
After scan for Atom:   Atom  AN      X      Y      Z        X      Y      Z        X      Y      Z   
After scan for Atom:   Atom  AN      X      Y      Z        X      Y      Z        X      Y      Z   
After scan for Atom:   Atom  AN      X      Y      Z        X      Y      Z        X      Y      Z   
After scan for Atom:   Atom  AN      X      Y      Z        X      Y      Z        X      Y      Z   
After scan for Atom:   Atom  AN      X      Y      Z        X      Y      Z        X      Y      Z   
After scan for Atom:   Atom  AN      X      Y      Z        X      Y      Z        X      Y      Z   
After scan for Atom:   Atom  AN      X      Y      Z        X      Y      Z        X      Y      Z   
After scan for Atom:   Atom  AN      X      Y      Z        X      Y      Z        X      Y      Z   
After scan for Atom:   Atom  AN      X      Y      Z        X      Y      Z        X      Y      Z   
After scan for Atom:   Atom  AN      X      Y      Z        X      Y      Z        X      Y      Z   
After scan for Atom:   Atom  AN      X      Y      Z        X      Y      Z        X      Y      Z   
After scan for Atom:   Atom  AN      X      Y      Z        X      Y      Z        X      Y      Z   
After scan for Atom:   Atom  AN      X      Y      Z        X      Y      Z        X      Y      Z   
After scan for Atom:   Atom  AN      X      Y      Z        X      Y      Z        X      Y      Z   
After scan for Atom:   Atom  AN      X      Y      Z        X      Y      Z        X      Y      Z   
After scan for Atom:   Atom  AN      X      Y      Z        X      Y      Z        X      Y      Z   
After scan for Atom:   Atom  AN      X      Y      Z        X      Y      Z        X      Y      Z   
After scan for Atom:   Atom  AN      X      Y      Z        X      Y      Z        X      Y      Z   
After scan for Atom:   Atom  AN      X      Y      Z        X      Y      Z        X      Y      Z   
After scan for Atom:   Atom  AN      X      Y      Z        X      Y      Z        X      Y      Z   
After scan for Atom:   Atom  AN      X      Y      Z        X      Y      Z        X      Y      Z   
After scan for Atom:   Atom  AN      X      Y      Z        X      Y      Z        X      Y      Z   
After scan for Atom:   Atom  AN      X      Y      Z        X      Y      Z        X      Y      Z   
After scan for Atom:   Atom  AN      X      Y      Z        X      Y      Z        X      Y      Z   
After scan for Atom:   Atom  AN      X      Y      Z        X      Y      Z        X      Y      Z   
After scan for Atom:   Atom  AN      X      Y      Z        X      Y      Z        X      Y      Z   
After scan for Atom:   Atom  AN      X      Y      Z        X      Y      Z        X      Y      Z   
After scan for Atom:   Atom  AN      X      Y      Z        X      Y      Z        X      Y      Z   
After scan for Atom:   Atom  AN      X      Y      Z        X      Y      Z        X      Y      Z   
After scan for Atom:   Atom  AN      X      Y      Z        X      Y      Z        X      Y      Z   
After scan for Atom:   Atom  AN      X      Y      Z        X      Y      Z        X      Y      Z   
After scan for Atom:   Atom  AN      X      Y      Z        X      Y      Z        X      Y      Z   
After scan for Atom:   Atom  AN      X      Y      Z        X      Y      Z        X      Y      Z   
After scan for Atom:   Atom  AN      X      Y      Z        X      Y      Z        X      Y      Z   
After scan for Atom:   Atom  AN      X      Y      Z        X      Y      Z        X      Y      Z   
After scan for Atom:   Atom  AN      X      Y      Z        X      Y      Z        X      Y      Z   
After scan for Atom:   Atom  AN      X      Y      Z        X      Y      Z        X      Y      Z   
After scan for Atom:   Atom  AN      X      Y      Z        X      Y      Z        X      Y      Z   
After scan for Atom:   Atom  AN      X      Y      Z        X      Y      Z        X      Y      Z   
After scan for Atom:   Atom  AN      X      Y      Z        X      Y      Z        X      Y      Z   
After scan for Atom:   Atom  AN      X      Y      Z        X      Y      Z        X      Y      Z   
After scan for Atom:   Atom  AN      X      Y      Z        X      Y      Z        X      Y      Z   
After scan for Atom:   Atom  AN      X      Y      Z        X      Y      Z        X      Y      Z   
After scan for Atom:   Atom  AN      X      Y      Z        X      Y      Z        X      Y      Z   
After scan for Atom:   Atom  AN      X      Y      Z        X      Y      Z        X      Y      Z   
After scan for Atom:   Atom  AN      X      Y      Z        X      Y      Z        X      Y      Z   
After scan for Atom:   Atom  AN      X      Y      Z        X      Y      Z        X      Y      Z   
After scan for Atom:   Atom  AN      X      Y      Z        X      Y      Z        X      Y      Z   
After scan for Atom:   Atom  AN      X      Y      Z        X      Y      Z        X      Y      Z   
After scan for Atom:   Atom  AN      X      Y      Z        X      Y      Z        X      Y      Z   
After scan for Atom:   Atom  AN      X      Y      Z        X      Y      Z        X      Y      Z   
After scan for Atom:   Atom  AN      X      Y      Z        X      Y      Z        X      Y      Z   
After scan for Atom:   Atom  AN      X      Y      Z        X      Y      Z        X      Y      Z   
After scan for Atom:   Atom  AN      X      Y      Z        X      Y      Z        X      Y      Z   
After scan for Atom:   Atom  AN      X      Y      Z        X      Y      Z        X      Y      Z   
After scan for Atom:   Atom  AN      X      Y      Z        X      Y      Z        X      Y      Z   
After scan for Atom:   Atom  AN      X      Y      Z        X      Y      Z        X      Y      Z   
After scan for Atom:   Atom  AN      X      Y      Z        X      Y      Z        X      Y      Z   
After scan for Atom:   Atom  AN      X      Y      Z        X      Y      Z        X      Y      Z   
After scan for Atom:   Atom  AN      X      Y      Z        X      Y      Z        X      Y      Z   
After scan for Atom:   Atom  AN      X      Y      Z        X      Y      Z        X      Y      Z   
After scan for Atom:   Atom  AN      X      Y      Z        X      Y      Z        X      Y      Z   
After scan for Atom:   Atom  AN      X      Y      Z        X      Y      Z        X      Y      Z   
After scan for Atom:   Atom  AN      X      Y      Z        X      Y      Z        X      Y      Z   
After scan for Atom:   Atom  AN      X      Y      Z        X      Y      Z        X      Y      Z   
After scan for Atom:   Atom  AN      X      Y      Z        X      Y      Z        X      Y      Z   
After scan for Atom:   Atom  AN      X      Y      Z        X      Y      Z        X      Y      Z   
After scan for Atom:   Atom  AN      X      Y      Z        X      Y      Z        X      Y      Z   
After scan for Atom:   Atom  AN      X      Y      Z        X      Y      Z        X      Y      Z   
After scan for Atom:   Atom  AN      X      Y      Z        X      Y      Z        X      Y      Z   
After scan for Atom:   Atom  AN      X      Y      Z        X      Y      Z        X      Y      Z   
After scan for Atom:   Atom  AN      X      Y      Z        X      Y      Z        X      Y      Z   
 g94    frequencies=
     0.0    0.0    0.0    0.0    0.0    0.0    4.1    8.7   11.4   13.3
    17.3   21.1   25.7   25.7   28.3   39.1   49.3   52.9   54.2   61.7
    62.9   68.5   73.2   93.2   94.4   99.3  105.3  108.3  118.0  122.9
   126.5  142.1  150.0  152.4  153.5  159.5  162.4  162.9  175.6  182.0
   183.3  204.6  210.3  212.9  217.4  223.4  231.1  231.5  242.4  243.8
   250.4  267.1  268.2  275.6  309.3  315.1  328.6  335.1  341.9  348.4
   348.8  378.4  388.6  388.6  392.7  408.2  418.3  419.8  424.9  430.5
   430.9  449.9  464.1  481.0  484.0  485.3  490.2  503.3  505.5  510.9
   524.4  525.6  525.7  530.5  555.0  555.1  566.3  567.9  569.8  586.0
   588.8  594.0  599.4  599.8  600.3  617.3  639.8  641.3  643.8  647.3
   694.1  694.2  694.8  697.8  698.6  716.6  717.5  729.3  737.1  737.4
   743.9  743.9  760.3  767.0  781.3  781.4  786.7  786.7  813.0  813.0
   816.3  819.5  831.5  831.6  833.3  833.5  836.2  837.3  861.3  870.0
   872.6  881.8  889.3  895.2  895.8  933.0  933.0  943.1  948.1  960.6
   960.6  992.0  992.0 1001.6 1001.8 1004.1 1027.4 1028.1 1045.9 1046.0
  1074.4 1078.7 1089.7 1090.4 1103.0 1103.8 1106.0 1106.1 1139.1 1139.3
  1151.2 1152.0 1155.7 1166.7 1192.8 1193.9 1223.6 1226.7 1232.3 1234.9
  1245.5 1252.6 1271.2 1271.3 1288.6 1294.0 1305.1 1307.8 1315.5 1316.9
  1317.6 1319.8 1341.4 1341.5 1348.2 1349.4 1360.5 1370.6 1373.5 1373.6
  1382.9 1384.5 1386.2 1392.2 1401.5 1403.6 1407.9 1407.9 1409.1 1412.6
  1427.7 1427.8 1470.0 1471.6 1474.9 1475.2 1489.4 1495.8 1495.8 1496.4
  1497.6 1498.8 1498.9 1505.5 1505.5 1510.0 1513.5 1520.4 1520.6 1532.9
  1543.6 1553.6 1563.4 1566.1 1573.9 1584.3 1588.4 1633.5 1734.3 1737.4
  3001.9 3002.0 3028.0 3028.0 3034.8 3034.8 3075.0 3075.0 3091.3 3091.3
  3101.6 3101.6 3102.7 3102.8 3109.5 3109.5 3133.5 3133.5 3159.0 3159.0
  3162.5 3163.7 3183.2 3183.4 3200.1 3200.1 3209.1 3209.2
 g94    symmetries=
                                                 A      A      A      A
       A      A      A      A      A      A      A      A      A      A
       A      A      A      A      A      A      A      A      A      A
       A      A      A      A      A      A      A      A      A      A
       A      A      A      A      A      A      A      A      A      A
       A      A      A      A      A      A      A      A      A      A
       A      A      A      A      A      A      A      A      A      A
       A      A      A      A      A      A      A      A      A      A
       A      A      A      A      A      A      A      A      A      A
       A      A      A      A      A      A      A      A      A      A
       A      A      A      A      A      A      A      A      A      A
       A      A      A      A      A      A      A      A      A      A
       A      A      A      A      A      A      A      A      A      A
       A      A      A      A      A      A      A      A      A      A
       A      A      A      A      A      A      A      A      A      A
       A      A      A      A      A      A      A      A      A      A
       A      A      A      A      A      A      A      A      A      A
       A      A      A      A      A      A      A      A      A      A
       A      A      A      A      A      A      A      A      A      A
       A      A      A      A      A      A      A      A      A      A
       A      A      A      A      A      A      A      A      A      A
       A      A      A      A      A      A      A      A      A      A
       A      A      A      A      A      A      A      A      A      A
       A      A      A      A      A      A      A      A      A      A
       A      A      A      A      A      A      A      A      A      A
       A      A      A      A      A      A      A      A
 atomic masses:
 12.0000 12.0000 14.0031 12.0000 15.9949 12.0000 12.0000 12.0000 12.0000 12.0000
 12.0000 12.0000 12.0000 12.0000 12.0000 31.9721 12.0000 12.0000 12.0000 12.0000
 12.0000 12.0000 12.0000 12.0000 12.0000 31.9721 12.0000 12.0000 12.0000 12.0000
 12.0000 12.0000 12.0000 31.9721 12.0000 31.9721 14.0031 12.0000 12.0000 12.0000
 15.9949 12.0000 14.0031 31.9721 14.0031 12.0000 12.0000 12.0000 12.0000 12.0000
 12.0000 14.0031 31.9721 14.0031 12.0000 31.9721 12.0000 31.9721  1.0078  1.0078
  1.0078  1.0078  1.0078  1.0078  1.0078  1.0078  1.0078  1.0078  1.0078  1.0078
  1.0078  1.0078  1.0078  1.0078  1.0078  1.0078  1.0078  1.0078  1.0078  1.0078
  1.0078  1.0078  1.0078  1.0078  1.0078  1.0078
 looking for force constants in 
 ./IDTBx_1_C-1S0.fchk                                                           
  
 Cartesian Force Constants                  R   N=       33411                  
  
 n3=         258       33411
 g94-fc frequencies=
    -1.2   -0.4   -0.0   -0.0   -0.0    0.3    4.1    8.7   11.4   13.3
    17.3   21.1   25.7   25.7   28.3   39.1   49.3   52.9   54.2   61.7
    62.9   68.5   73.2   93.2   94.4   99.3  105.3  108.3  118.0  122.9
   126.5  142.1  150.0  152.4  153.5  159.5  162.4  162.9  175.6  182.0
   183.3  204.6  210.3  212.9  217.5  223.4  231.1  231.5  242.4  243.8
   250.4  267.1  268.2  275.6  309.3  315.1  328.6  335.1  341.9  348.4
   348.8  378.4  388.6  388.7  392.7  408.2  418.3  419.8  424.9  430.5
   430.9  449.9  464.1  481.0  484.1  485.3  490.3  503.3  505.6  510.9
   524.4  525.6  525.8  530.5  555.0  555.1  566.3  567.9  569.8  586.0
   588.8  594.1  599.5  599.8  600.3  617.3  639.8  641.3  643.8  647.3
   694.2  694.2  694.8  697.8  698.6  716.6  717.6  729.3  737.2  737.4
   743.9  743.9  760.3  767.0  781.3  781.4  786.7  786.7  813.0  813.0
   816.4  819.5  831.5  831.6  833.3  833.6  836.2  837.4  861.3  870.0
   872.6  881.9  889.3  895.2  895.8  933.0  933.0  943.1  948.1  960.7
   960.7  992.0  992.1 1001.7 1001.8 1004.2 1027.4 1028.2 1045.9 1046.1
  1074.4 1078.7 1089.7 1090.4 1103.0 1103.9 1106.0 1106.2 1139.1 1139.3
  1151.2 1152.0 1155.7 1166.8 1192.8 1194.0 1223.6 1226.8 1232.3 1234.9
  1245.6 1252.6 1271.2 1271.3 1288.6 1294.1 1305.2 1307.8 1315.5 1316.9
  1317.7 1319.9 1341.5 1341.5 1348.2 1349.4 1360.5 1370.7 1373.6 1373.7
  1383.0 1384.5 1386.2 1392.2 1401.5 1403.6 1407.9 1407.9 1409.2 1412.6
  1427.8 1427.8 1470.0 1471.6 1474.9 1475.2 1489.4 1495.8 1495.8 1496.4
  1497.6 1498.8 1498.9 1505.5 1505.5 1510.1 1513.5 1520.4 1520.7 1532.9
  1543.6 1553.6 1563.4 1566.1 1573.9 1584.3 1588.4 1633.5 1734.3 1737.4
  3002.0 3002.1 3028.0 3028.1 3034.9 3034.9 3075.1 3075.1 3091.3 3091.4
  3101.6 3101.7 3102.8 3102.8 3109.6 3109.6 3133.6 3133.6 3159.0 3159.1
  3162.5 3163.8 3183.3 3183.4 3200.1 3200.1 3209.2 3209.3
 at 99999: n3=         258
 symm operator            1 :  F  nop=           0
 symm operator            2 :  F  nop=           0
 symm operator            3 :  F  nop=           0
 symm operator            4 :  F  nop=           0
 symm operator            5 :  F  nop=           0
 symm operator            6 :  F  nop=           0
 symm operator            7 :  F  nop=           0
 The point group of the molecule is  C1
 Symmetry rotation matrix:
   1.00000   0.00000   0.00000
   0.00000   1.00000   0.00000
   0.00000   0.00000   1.00000

 Projecting out zero-frequency components
 generating redundant internal coords
         300        3600          86
 search for int coords
   1 str   2   1   1.528
   2 str   3   2   1.467
   3 str   4   3   1.424
   4 str   5   4   1.218
   5 str   6   4   1.461
   6 str   7   6   1.369
   7 str   8   7   1.421
   8 str   9   8   1.408
   9 str  10   9   1.391
  10 str  11  10   1.409
  11 str  12  11   1.435
  12 str  13  12   1.401
  13 str  14  13   1.394
  14 str  15  14   1.389
  15 str  16  12   1.782
  16 str  16  15   1.731
  17 str  17  15   1.435
  18 str  18  17   1.407
  19 str  19  18   1.380
  20 str  20  19   1.425
  21 str  21  20   1.407
  22 str  22  17   1.425
  23 str  22  21   1.380
  24 str  23  14   1.514
  25 str  23  22   1.528
  26 str  24  23   1.538
  27 str  25  20   1.435
  28 str  26  25   1.731
  29 str  27  26   1.782
  30 str  28  27   1.435
  31 str  29  28   1.409
  32 str  30  29   1.391
  33 str  31  30   1.408
  34 str  32  31   1.421
  35 str  33  32   1.369
  36 str  34  33   1.770
  37 str  35  34   1.768
  38 str  36  35   1.662
  39 str  37  35   1.362
  40 str  38  37   1.467
  41 str  39  38   1.528
  42 str  40  33   1.461
  43 str  40  37   1.424
  44 str  41  40   1.218
  45 str  42  31   1.444
  46 str  43  42   1.329
  47 str  44  42   2.406
  48 str  44  43   1.650
  49 str  45  44   1.650
  50 str  46  28   1.440
  51 str  46  42   1.456
  52 str  46  44   2.407
  53 str  46  45   1.330
  54 str  47  27   1.401
  55 str  48  25   1.389
  56 str  48  47   1.394
  57 str  49  19   1.528
  58 str  49  48   1.514
  59 str  50  49   1.538
  60 str  51  11   1.440
  61 str  52  51   1.330
  62 str  53  51   2.407
  63 str  53  52   1.650
  64 str  54  53   1.650
  65 str  55   8   1.444
  66 str  55  51   1.456
  67 str  55  53   2.406
  68 str  55  54   1.329
  69 str  56   6   1.770
  70 str  57   3   1.362
  71 str  57  56   1.768
  72 str  58  57   1.662
  73 str  59   1   1.094
  74 str  60   1   1.092
  75 str  61   1   1.092
  76 str  62   2   1.090
  77 str  63   2   1.090
  78 str  64   7   1.087
  79 str  65   9   1.082
  80 str  66  10   1.082
  81 str  67  13   1.081
  82 str  68  18   1.085
  83 str  69  21   1.085
  84 str  70  23   1.098
  85 str  71  24   1.092
  86 str  72  24   1.093
  87 str  73  24   1.093
  88 str  74  29   1.082
  89 str  75  30   1.082
  90 str  76  32   1.087
  91 str  77  38   1.090
  92 str  78  38   1.090
  93 str  79  39   1.092
  94 str  80  39   1.094
  95 str  81  39   1.092
  96 str  82  47   1.081
  97 str  83  49   1.098
  98 str  84  50   1.093
  99 str  85  50   1.093
 100 str  86  50   1.092
 nber stretches=         100
 101 ben   1   2   3
 102 prop tor   1   2   3   4
 103 prop tor   1   2   3  57
 104 ben   1   2  62
 105 ben   1   2  63
 106 ben   2   1  59
 107 ben   2   1  60
 108 ben   2   1  61
 109 ben   2   3   4
 110 prop tor   2   3   4   5
 111 prop tor   2   3   4   6
 112 ben   2   3  57
 113 prop tor   2   3  57  56
 114 prop tor   2   3  57  58
 115 ben   3   2  62
 116 ben   3   2  63
 117 ben   3   4   5
 118 ben   3   4   6
 119 prop tor   3   4   6   7
 120 prop tor   3   4   6  56
 121 ben   3  57  56
 122 ben   3  57  58
 123 ben   4   3  57
 124 prop tor   4   3  57  56
 125 prop tor   4   3  57  58
 126 ben   4   6   7
 127 prop tor   4   6   7   8
 128 prop tor   4   6   7  64
 129 ben   4   6  56
 130 prop tor   4   6  56  57
 131 ben   5   4   6
 132 prop tor   5   4   6   7
 133 prop tor   5   4   6  56
 134 ben   6   7   8
 135 prop tor   6   7   8   9
 136 prop tor   6   7   8  55
 137 ben   6   7  64
 138 ben   6  56  57
 139 prop tor   6  56  57   3
 140 prop tor   6  56  57  58
 141 ben   7   6  56
 142 prop tor   7   6  56  57
 143 ben   7   8   9
 144 prop tor   7   8   9  10
 145 prop tor   7   8   9  65
 146 ben   7   8  55
 147 prop tor   7   8  55  51
 148 prop tor   7   8  55  53
 149 prop tor   7   8  55  54
 150 ben   8   7  64
 151 ben   8   9  10
 152 prop tor   8   9  10  11
 153 prop tor   8   9  10  66
 154 ben   8   9  65
 155 ben   8  55  51
 156 ben   8  55  53
 157 ben   8  55  54
 158 ben   9   8  55
 159 prop tor   9   8  55  51
 160 prop tor   9   8  55  53
 161 prop tor   9   8  55  54
 162 ben   9  10  11
 163 prop tor   9  10  11  12
 164 prop tor   9  10  11  51
 165 ben   9  10  66
 166 ben  10   9  65
 167 ben  10  11  12
 168 prop tor  10  11  12  13
 169 prop tor  10  11  12  16
 170 ben  10  11  51
 171 prop tor  10  11  51  52
 172 prop tor  10  11  51  53
 173 prop tor  10  11  51  55
 174 ben  11  10  66
 175 ben  11  12  13
 176 prop tor  11  12  13  14
 177 prop tor  11  12  13  67
 178 ben  11  12  16
 179 prop tor  11  12  16  15
 180 ben  11  51  52
 181 prop tor  11  51  52  53
 182 ben  11  51  53
 183 prop tor  11  51  53  52
 184 prop tor  11  51  53  54
 185 prop tor  11  51  53  55
 186 ben  11  51  55
 187 prop tor  11  51  55   8
 188 prop tor  11  51  55  53
 189 prop tor  11  51  55  54
 190 ben  12  11  51
 191 prop tor  12  11  51  52
 192 prop tor  12  11  51  53
 193 prop tor  12  11  51  55
 194 ben  12  13  14
 195 prop tor  12  13  14  15
 196 prop tor  12  13  14  23
 197 ben  12  13  67
 198 ben  12  16  15
 199 ben  13  12  16
 200 prop tor  13  12  16  15
 201 ben  13  14  15
 202 prop tor  13  14  15  16
 203 prop tor  13  14  15  17
 204 ben  13  14  23
 205 prop tor  13  14  23  22
 206 prop tor  13  14  23  24
 207 prop tor  13  14  23  70
 208 ben  14  13  67
 209 ben  14  15  16
 210 prop tor  14  15  16  12
 211 ben  14  15  17
 212 prop tor  14  15  17  18
 213 prop tor  14  15  17  22
 214 ben  14  23  22
 215 ben  14  23  24
 216 prop tor  14  23  24  71
 217 prop tor  14  23  24  72
 218 prop tor  14  23  24  73
 219 ben  14  23  70
 220 ben  15  14  23
 221 prop tor  15  14  23  22
 222 prop tor  15  14  23  24
 223 prop tor  15  14  23  70
 224 ben  15  17  18
 225 prop tor  15  17  18  19
 226 prop tor  15  17  18  68
 227 ben  15  17  22
 228 prop tor  15  17  22  21
 229 prop tor  15  17  22  23
 230 prop tor  16  12  13  14
 231 prop tor  16  12  13  67
 232 ben  16  15  17
 233 prop tor  16  15  17  18
 234 prop tor  16  15  17  22
 235 prop tor  17  15  16  12
 236 ben  17  18  19
 237 prop tor  17  18  19  20
 238 prop tor  17  18  19  49
 239 ben  17  18  68
 240 ben  17  22  21
 241 ben  17  22  23
 242 prop tor  17  22  23  14
 243 prop tor  17  22  23  24
 244 prop tor  17  22  23  70
 245 ben  18  17  22
 246 prop tor  18  17  22  21
 247 prop tor  18  17  22  23
 248 ben  18  19  20
 249 prop tor  18  19  20  21
 250 prop tor  18  19  20  25
 251 ben  18  19  49
 252 prop tor  18  19  49  48
 253 prop tor  18  19  49  50
 254 prop tor  18  19  49  83
 255 ben  19  18  68
 256 ben  19  20  21
 257 prop tor  19  20  21  22
 258 prop tor  19  20  21  69
 259 ben  19  20  25
 260 prop tor  19  20  25  26
 261 prop tor  19  20  25  48
 262 ben  19  49  48
 263 ben  19  49  50
 264 prop tor  19  49  50  84
 265 prop tor  19  49  50  85
 266 prop tor  19  49  50  86
 267 ben  19  49  83
 268 ben  20  19  49
 269 prop tor  20  19  49  48
 270 prop tor  20  19  49  50
 271 prop tor  20  19  49  83
 272 ben  20  21  22
 273 prop tor  20  21  22  17
 274 prop tor  20  21  22  23
 275 ben  20  21  69
 276 ben  20  25  26
 277 prop tor  20  25  26  27
 278 ben  20  25  48
 279 prop tor  20  25  48  47
 280 prop tor  20  25  48  49
 281 ben  21  20  25
 282 prop tor  21  20  25  26
 283 prop tor  21  20  25  48
 284 ben  21  22  23
 285 prop tor  21  22  23  14
 286 prop tor  21  22  23  24
 287 prop tor  21  22  23  70
 288 prop tor  22  17  18  19
 289 prop tor  22  17  18  68
 290 ben  22  21  69
 291 ben  22  23  24
 292 prop tor  22  23  24  71
 293 prop tor  22  23  24  72
 294 prop tor  22  23  24  73
 295 ben  22  23  70
 296 prop tor  23  14  15  16
 297 prop tor  23  14  15  17
 298 ben  23  24  71
 299 ben  23  24  72
 300 ben  23  24  73
 301 ben  24  23  70
 302 prop tor  25  20  21  22
 303 prop tor  25  20  21  69
 304 ben  25  26  27
 305 prop tor  25  26  27  28
 306 prop tor  25  26  27  47
 307 ben  25  48  47
 308 ben  25  48  49
 309 prop tor  25  48  49  19
 310 prop tor  25  48  49  50
 311 prop tor  25  48  49  83
 312 ben  26  25  48
 313 prop tor  26  25  48  47
 314 prop tor  26  25  48  49
 315 ben  26  27  28
 316 prop tor  26  27  28  29
 317 prop tor  26  27  28  46
 318 ben  26  27  47
 319 prop tor  26  27  47  48
 320 prop tor  26  27  47  82
 321 ben  27  28  29
 322 prop tor  27  28  29  30
 323 prop tor  27  28  29  74
 324 ben  27  28  46
 325 prop tor  27  28  46  42
 326 prop tor  27  28  46  44
 327 prop tor  27  28  46  45
 328 ben  27  47  48
 329 prop tor  27  47  48  25
 330 prop tor  27  47  48  49
 331 ben  27  47  82
 332 ben  28  27  47
 333 prop tor  28  27  47  48
 334 prop tor  28  27  47  82
 335 ben  28  29  30
 336 prop tor  28  29  30  31
 337 prop tor  28  29  30  75
 338 ben  28  29  74
 339 ben  28  46  42
 340 ben  28  46  44
 341 ben  28  46  45
 342 ben  29  28  46
 343 prop tor  29  28  46  42
 344 prop tor  29  28  46  44
 345 prop tor  29  28  46  45
 346 ben  29  30  31
 347 prop tor  29  30  31  32
 348 prop tor  29  30  31  42
 349 ben  29  30  75
 350 ben  30  29  74
 351 ben  30  31  32
 352 prop tor  30  31  32  33
 353 prop tor  30  31  32  76
 354 ben  30  31  42
 355 prop tor  30  31  42  43
 356 prop tor  30  31  42  44
 357 prop tor  30  31  42  46
 358 ben  31  30  75
 359 ben  31  32  33
 360 prop tor  31  32  33  34
 361 prop tor  31  32  33  40
 362 ben  31  32  76
 363 ben  31  42  43
 364 prop tor  31  42  43  44
 365 ben  31  42  44
 366 prop tor  31  42  44  43
 367 prop tor  31  42  44  45
 368 prop tor  31  42  44  46
 369 ben  31  42  46
 370 prop tor  31  42  46  28
 371 prop tor  31  42  46  44
 372 prop tor  31  42  46  45
 373 ben  32  31  42
 374 prop tor  32  31  42  43
 375 prop tor  32  31  42  44
 376 prop tor  32  31  42  46
 377 ben  32  33  34
 378 prop tor  32  33  34  35
 379 ben  32  33  40
 380 prop tor  32  33  40  37
 381 prop tor  32  33  40  41
 382 ben  33  32  76
 383 ben  33  34  35
 384 prop tor  33  34  35  36
 385 prop tor  33  34  35  37
 386 ben  33  40  37
 387 ben  33  40  41
 388 ben  34  33  40
 389 prop tor  34  33  40  37
 390 prop tor  34  33  40  41
 391 ben  34  35  36
 392 ben  34  35  37
 393 prop tor  34  35  37  38
 394 prop tor  34  35  37  40
 395 ben  35  37  38
 396 prop tor  35  37  38  39
 397 prop tor  35  37  38  77
 398 prop tor  35  37  38  78
 399 ben  35  37  40
 400 prop tor  35  37  40  33
 401 prop tor  35  37  40  41
 402 ben  36  35  37
 403 prop tor  36  35  37  38
 404 prop tor  36  35  37  40
 405 ben  37  38  39
 406 prop tor  37  38  39  79
 407 prop tor  37  38  39  80
 408 prop tor  37  38  39  81
 409 ben  37  38  77
 410 ben  37  38  78
 411 ben  37  40  41
 412 ben  38  37  40
 413 prop tor  38  37  40  33
 414 prop tor  38  37  40  41
 415 ben  38  39  79
 416 ben  38  39  80
 417 ben  38  39  81
 418 ben  39  38  77
 419 ben  39  38  78
 420 prop tor  40  33  34  35
 421 prop tor  40  37  38  39
 422 prop tor  40  37  38  77
 423 prop tor  40  37  38  78
 424 prop tor  42  31  32  33
 425 prop tor  42  31  32  76
 426 ben  42  43  44
 427 prop tor  42  43  44  45
 428 prop tor  42  43  44  46
 429 ben  42  44  43
 430 ben  42  44  45
 431 prop tor  42  44  45  46
 432 ben  42  44  46
 433 prop tor  42  44  46  28
 434 prop tor  42  44  46  45
 435 ben  42  46  44
 436 ben  42  46  45
 437 ben  43  42  44
 438 prop tor  43  42  44  45
 439 prop tor  43  42  44  46
 440 ben  43  42  46
 441 prop tor  43  42  46  28
 442 prop tor  43  42  46  44
 443 prop tor  43  42  46  45
 444 ben  43  44  45
 445 prop tor  43  44  45  46
 446 ben  43  44  46
 447 prop tor  43  44  46  28
 448 prop tor  43  44  46  42
 449 prop tor  43  44  46  45
 450 ben  44  42  46
 451 prop tor  44  42  46  28
 452 prop tor  44  42  46  45
 453 ben  44  45  46
 454 prop tor  44  45  46  28
 455 prop tor  44  45  46  42
 456 ben  44  46  45
 457 ben  45  44  46
 458 prop tor  45  44  46  28
 459 prop tor  45  44  46  42
 460 prop tor  46  28  29  30
 461 prop tor  46  28  29  74
 462 prop tor  46  42  43  44
 463 prop tor  46  42  44  43
 464 prop tor  46  42  44  45
 465 prop tor  47  27  28  29
 466 prop tor  47  27  28  46
 467 ben  47  48  49
 468 prop tor  47  48  49  19
 469 prop tor  47  48  49  50
 470 prop tor  47  48  49  83
 471 prop tor  48  25  26  27
 472 ben  48  47  82
 473 ben  48  49  50
 474 prop tor  48  49  50  84
 475 prop tor  48  49  50  85
 476 prop tor  48  49  50  86
 477 ben  48  49  83
 478 prop tor  49  19  20  21
 479 prop tor  49  19  20  25
 480 ben  49  50  84
 481 ben  49  50  85
 482 ben  49  50  86
 483 ben  50  49  83
 484 prop tor  51  11  12  13
 485 prop tor  51  11  12  16
 486 ben  51  52  53
 487 prop tor  51  52  53  54
 488 prop tor  51  52  53  55
 489 ben  51  53  52
 490 ben  51  53  54
 491 prop tor  51  53  54  55
 492 ben  51  53  55
 493 prop tor  51  53  55   8
 494 prop tor  51  53  55  54
 495 ben  51  55  53
 496 ben  51  55  54
 497 ben  52  51  53
 498 prop tor  52  51  53  54
 499 prop tor  52  51  53  55
 500 ben  52  51  55
 501 prop tor  52  51  55   8
 502 prop tor  52  51  55  53
 503 prop tor  52  51  55  54
 504 ben  52  53  54
 505 prop tor  52  53  54  55
 506 ben  52  53  55
 507 prop tor  52  53  55   8
 508 prop tor  52  53  55  51
 509 prop tor  52  53  55  54
 510 ben  53  51  55
 511 prop tor  53  51  55   8
 512 prop tor  53  51  55  54
 513 ben  53  54  55
 514 prop tor  53  54  55   8
 515 prop tor  53  54  55  51
 516 ben  53  55  54
 517 ben  54  53  55
 518 prop tor  54  53  55   8
 519 prop tor  54  53  55  51
 520 prop tor  55   8   9  10
 521 prop tor  55   8   9  65
 522 prop tor  55  51  52  53
 523 prop tor  55  51  53  52
 524 prop tor  55  51  53  54
 525 prop tor  56   6   7   8
 526 prop tor  56   6   7  64
 527 ben  56  57  58
 528 prop tor  57   3   4   5
 529 prop tor  57   3   4   6
 530 prop tor  59   1   2   3
 531 prop tor  59   1   2  62
 532 prop tor  59   1   2  63
 533 ben  59   1  60
 534 ben  59   1  61
 535 prop tor  60   1   2   3
 536 prop tor  60   1   2  62
 537 prop tor  60   1   2  63
 538 ben  60   1  61
 539 prop tor  61   1   2   3
 540 prop tor  61   1   2  62
 541 prop tor  61   1   2  63
 542 prop tor  62   2   3   4
 543 prop tor  62   2   3  57
 544 ben  62   2  63
 545 prop tor  63   2   3   4
 546 prop tor  63   2   3  57
 547 prop tor  64   7   8   9
 548 prop tor  64   7   8  55
 549 prop tor  65   9  10  11
 550 prop tor  65   9  10  66
 551 prop tor  66  10  11  12
 552 prop tor  66  10  11  51
 553 prop tor  67  13  14  15
 554 prop tor  67  13  14  23
 555 prop tor  68  18  19  20
 556 prop tor  68  18  19  49
 557 prop tor  69  21  22  17
 558 prop tor  69  21  22  23
 559 prop tor  70  23  24  71
 560 prop tor  70  23  24  72
 561 prop tor  70  23  24  73
 562 ben  71  24  72
 563 ben  71  24  73
 564 ben  72  24  73
 565 prop tor  74  29  30  31
 566 prop tor  74  29  30  75
 567 prop tor  75  30  31  32
 568 prop tor  75  30  31  42
 569 prop tor  76  32  33  34
 570 prop tor  76  32  33  40
 571 prop tor  77  38  39  79
 572 prop tor  77  38  39  80
 573 prop tor  77  38  39  81
 574 ben  77  38  78
 575 prop tor  78  38  39  79
 576 prop tor  78  38  39  80
 577 prop tor  78  38  39  81
 578 ben  79  39  80
 579 ben  79  39  81
 580 ben  80  39  81
 581 prop tor  82  47  48  25
 582 prop tor  82  47  48  49
 583 prop tor  83  49  50  84
 584 prop tor  83  49  50  85
 585 prop tor  83  49  50  86
 586 ben  84  50  85
 587 ben  84  50  86
 588 ben  85  50  86
 nber bend=             188
 nber lin bend=           0
 nber prop tor=         300
 nber impr tor=           0
 nber tot redund int=         588
 Eigenvalues of G in red int coords
    Gval -0.00000000 -0.00000000 -0.00000000 -0.00000000 -0.00000000 -0.00000000 -0.00000000 -0.00000000
    Gval -0.00000000 -0.00000000 -0.00000000 -0.00000000 -0.00000000 -0.00000000 -0.00000000 -0.00000000
    Gval -0.00000000 -0.00000000 -0.00000000 -0.00000000 -0.00000000 -0.00000000 -0.00000000 -0.00000000
    Gval -0.00000000 -0.00000000 -0.00000000 -0.00000000 -0.00000000 -0.00000000 -0.00000000 -0.00000000
    Gval -0.00000000 -0.00000000 -0.00000000 -0.00000000 -0.00000000 -0.00000000 -0.00000000 -0.00000000
    Gval -0.00000000 -0.00000000 -0.00000000 -0.00000000 -0.00000000 -0.00000000 -0.00000000 -0.00000000
    Gval -0.00000000 -0.00000000 -0.00000000 -0.00000000 -0.00000000 -0.00000000 -0.00000000 -0.00000000
    Gval -0.00000000 -0.00000000 -0.00000000 -0.00000000 -0.00000000 -0.00000000 -0.00000000 -0.00000000
    Gval -0.00000000 -0.00000000 -0.00000000 -0.00000000 -0.00000000 -0.00000000 -0.00000000 -0.00000000
    Gval -0.00000000 -0.00000000 -0.00000000 -0.00000000 -0.00000000 -0.00000000 -0.00000000 -0.00000000
    Gval -0.00000000 -0.00000000 -0.00000000 -0.00000000 -0.00000000 -0.00000000 -0.00000000 -0.00000000
    Gval -0.00000000 -0.00000000 -0.00000000 -0.00000000 -0.00000000 -0.00000000 -0.00000000 -0.00000000
    Gval -0.00000000 -0.00000000 -0.00000000 -0.00000000 -0.00000000 -0.00000000 -0.00000000 -0.00000000
    Gval -0.00000000 -0.00000000 -0.00000000 -0.00000000 -0.00000000 -0.00000000 -0.00000000 -0.00000000
    Gval -0.00000000 -0.00000000 -0.00000000 -0.00000000 -0.00000000 -0.00000000 -0.00000000 -0.00000000
    Gval -0.00000000 -0.00000000 -0.00000000 -0.00000000 -0.00000000 -0.00000000 -0.00000000 -0.00000000
    Gval -0.00000000 -0.00000000 -0.00000000 -0.00000000 -0.00000000 -0.00000000 -0.00000000 -0.00000000
    Gval -0.00000000 -0.00000000 -0.00000000 -0.00000000 -0.00000000 -0.00000000 -0.00000000 -0.00000000
    Gval -0.00000000 -0.00000000 -0.00000000 -0.00000000 -0.00000000 -0.00000000 -0.00000000 -0.00000000
    Gval -0.00000000 -0.00000000 -0.00000000 -0.00000000 -0.00000000 -0.00000000 -0.00000000 -0.00000000
    Gval -0.00000000 -0.00000000 -0.00000000 -0.00000000 -0.00000000 -0.00000000  0.00000000  0.00000000
    Gval  0.00000000  0.00000000  0.00000000  0.00000000  0.00000000  0.00000000  0.00000000  0.00000000
    Gval  0.00000000  0.00000000  0.00000000  0.00000000  0.00000000  0.00000000  0.00000000  0.00000000
    Gval  0.00000000  0.00000000  0.00000000  0.00000000  0.00000000  0.00000000  0.00000000  0.00000000
    Gval  0.00000000  0.00000000  0.00000000  0.00000000  0.00000000  0.00000000  0.00000000  0.00000000
    Gval  0.00000000  0.00000000  0.00000000  0.00000000  0.00000000  0.00000000  0.00000000  0.00000000
    Gval  0.00000000  0.00000000  0.00000000  0.00000000  0.00000000  0.00000000  0.00000000  0.00000000
    Gval  0.00000000  0.00000000  0.00000000  0.00000000  0.00000000  0.00000000  0.00000000  0.00000000
    Gval  0.00000000  0.00000000  0.00000000  0.00000000  0.00000000  0.00000000  0.00000000  0.00000000
    Gval  0.00000000  0.00000000  0.00000000  0.00000000  0.00000000  0.00000000  0.00000000  0.00000000
    Gval  0.00000000  0.00000000  0.00000000  0.00000000  0.00000000  0.00000000  0.00000000  0.00000000
    Gval  0.00000000  0.00000000  0.00000000  0.00000000  0.00000000  0.00000000  0.00000000  0.00000000
    Gval  0.00000000  0.00000000  0.00000000  0.00000000  0.00000000  0.00000000  0.00000000  0.00000000
    Gval  0.00000000  0.00000000  0.00000000  0.00000000  0.00000000  0.00000000  0.00000000  0.00000000
    Gval  0.00000000  0.00000000  0.00000000  0.00000000  0.00000000  0.00000000  0.00000000  0.00000000
    Gval  0.00000000  0.00000000  0.00000000  0.00000000  0.00000000  0.00000000  0.00000000  0.00000000
    Gval  0.00000000  0.00000000  0.00000000  0.00000000  0.00000000  0.00000000  0.00000000  0.00000000
    Gval  0.00000000  0.00000000  0.00000000  0.00000000  0.00000000  0.00000000  0.00000000  0.00000000
    Gval  0.00000000  0.00000000  0.00000000  0.00000000  0.00000000  0.00000000  0.00000000  0.00000000
    Gval  0.00000000  0.00000000  0.00000000  0.00000000  0.00000000  0.00000000  0.00000000  0.00000000
    Gval  0.00000000  0.00000000  0.00000000  0.00000000  0.00000000  0.00000000  0.00000000  0.00000000
    Gval  0.00000000  0.00000000  0.00000000  0.00000000  0.00000000  0.00000000  0.00000000  0.00000000
    Gval  0.00000003  0.00000011  0.00000013  0.00000035  0.00000047  0.00000081  0.00000086  0.00000135
    Gval  0.00000162  0.00000223  0.00000256  0.00000297  0.00000309  0.00000339  0.00000483  0.00000563
    Gval  0.00000609  0.00000677  0.00000737  0.00000802  0.00000808  0.00000954  0.00001049  0.00001120
    Gval  0.00001299  0.00001418  0.00001490  0.00001505  0.00001598  0.00001760  0.00001840  0.00001887
    Gval  0.00001907  0.00001973  0.00002267  0.00002495  0.00002539  0.00002543  0.00002662  0.00002770
    Gval  0.00002850  0.00003144  0.00003449  0.00003532  0.00003783  0.00003857  0.00004202  0.00004236
    Gval  0.00004648  0.00004676  0.00004799  0.00004881  0.00004928  0.00005009  0.00005238  0.00005337
    Gval  0.00005371  0.00005567  0.00005774  0.00006150  0.00006337  0.00006406  0.00006817  0.00007363
    Gval  0.00007787  0.00007865  0.00008139  0.00008312  0.00008928  0.00009116  0.00009194  0.00009543
    Gval  0.00009595  0.00009779  0.00009802  0.00010075  0.00010182  0.00010291  0.00010826  0.00011204
    Gval  0.00011850  0.00012071  0.00012124  0.00012518  0.00013026  0.00013184  0.00013315  0.00013354
    Gval  0.00013936  0.00013975  0.00014252  0.00014373  0.00014589  0.00014680  0.00014681  0.00015549
    Gval  0.00015645  0.00017054  0.00017149  0.00018627  0.00018784  0.00019869  0.00020212  0.00021813
    Gval  0.00021938  0.00023263  0.00023762  0.00024114  0.00024725  0.00025029  0.00025314  0.00026520
    Gval  0.00026636  0.00027664  0.00028291  0.00028967  0.00030973  0.00031914  0.00032982  0.00033498
    Gval  0.00033659  0.00034084  0.00036053  0.00038718  0.00038760  0.00039922  0.00040102  0.00041267
    Gval  0.00042282  0.00042289  0.00042605  0.00043529  0.00043969  0.00044424  0.00044886  0.00046427
    Gval  0.00046758  0.00046811  0.00050293  0.00051157  0.00051161  0.00052499  0.00053401  0.00053407
    Gval  0.00053989  0.00054035  0.00054035  0.00054104  0.00054789  0.00054821  0.00055304  0.00055304
    Gval  0.00055578  0.00055578  0.00055633  0.00055635  0.00056296  0.00056317  0.00057835  0.00057836
    Gval  0.00059863  0.00059863  0.00060753  0.00060819  0.00061834  0.00062708  0.00062852  0.00063048
    Gval  0.00063525  0.00063543  0.00063613  0.00063725  0.00065080  0.00065081  0.00066162  0.00066163
    Gval  0.00068980  0.00068980  0.00069715  0.00069856  0.00077345  0.00077346  0.00085996  0.00087849
    Gval  0.00088275  0.00092846  0.00095361  0.00096324  0.00101203  0.00102042  0.00108854  0.00108854
    Gval  0.00110928  0.00110928  0.00111550  0.00112603  0.00113053  0.00114113  0.00114279  0.00115579
    Gval  0.00115579  0.00116715  0.00116715  0.00117264  0.00118015  0.00118017  0.00123650  0.00124378
    Gval  0.00139025  0.00141798  0.00146119  0.00146276  0.00151720  0.00151783  0.00161622  0.00162384
    Gval  0.00176595  0.00179469  0.00179475  0.00183505  0.00202770  0.00215173  0.00238396  0.00238433
    Gval  0.00252731  0.00254582  0.00275866  0.00275868  0.00301284  0.00301358  0.00301958  0.00301959
    Gval  0.00302654  0.00302655  0.00305456  0.00305462  0.00336124  0.00336124  0.00339891  0.00341587
    Gval  0.00354321  0.00356157  0.00357710  0.00358100  0.00362058  0.00362058  0.00370046  0.00370394
    Gval  0.00837307  0.00837331  0.00977178  0.00977201
  2.989720791167796E-008  2.989720791167796E-008
  1.083491236075980E-007  2.989720791167796E-008
  1.347357499820673E-007  2.989720791167796E-008
  3.475712558419834E-007  2.989720791167796E-008
  4.745594358654074E-007  2.989720791167796E-008
  8.094730402639952E-007  2.989720791167796E-008
  8.550528089135401E-007  2.989720791167796E-008
  1.354423491960304E-006  2.989720791167796E-008
  1.618355098597961E-006  2.989720791167796E-008
  2.226406100889483E-006  2.989720791167796E-008
  2.562636493706294E-006  2.989720791167796E-008
  2.965835296535635E-006  2.989720791167796E-008
  3.088980133580948E-006  2.989720791167796E-008
  3.393430793424580E-006  2.989720791167796E-008
  4.826248919136550E-006  2.989720791167796E-008
  5.625487197139908E-006  2.989720791167796E-008
  6.091033987390426E-006  2.989720791167796E-008
  6.768396724931659E-006  2.989720791167796E-008
  7.373900462737944E-006  2.989720791167796E-008
  8.024892063923576E-006  2.989720791167796E-008
  8.083034889566664E-006  2.989720791167796E-008
  9.540629044756825E-006  2.989720791167796E-008
  1.049282856908337E-005  2.989720791167796E-008
  1.119875781959053E-005  2.989720791167796E-008
  1.298723635181664E-005  2.989720791167796E-008
  1.418268709433987E-005  2.989720791167796E-008
  1.490212122495509E-005  2.989720791167796E-008
  1.505071523879512E-005  2.989720791167796E-008
  1.598107655304864E-005  2.989720791167796E-008
  1.760360704521699E-005  2.989720791167796E-008
  1.840412778399674E-005  2.989720791167796E-008
  1.887388928226404E-005  2.989720791167796E-008
  1.906791936800810E-005  2.989720791167796E-008
  1.973084359781292E-005  2.989720791167796E-008
  2.266593494841940E-005  2.989720791167796E-008
  2.495251038531834E-005  2.989720791167796E-008
  2.538885474611234E-005  2.989720791167796E-008
  2.542946415738361E-005  2.989720791167796E-008
  2.662338074944695E-005  2.989720791167796E-008
  2.769569827184572E-005  2.989720791167796E-008
  2.849518751875683E-005  2.989720791167796E-008
  3.144087735368955E-005  2.989720791167796E-008
  3.449413962215052E-005  2.989720791167796E-008
  3.532476787613266E-005  2.989720791167796E-008
  3.783241077851379E-005  2.989720791167796E-008
  3.857032767388888E-005  2.989720791167796E-008
  4.202371093106379E-005  2.989720791167796E-008
  4.235786059328893E-005  2.989720791167796E-008
  4.647619848020150E-005  2.989720791167796E-008
  4.676456060925124E-005  2.989720791167796E-008
  4.799054266223250E-005  2.989720791167796E-008
  4.880565762201579E-005  2.989720791167796E-008
  4.928495109587121E-005  2.989720791167796E-008
  5.009072410201216E-005  2.989720791167796E-008
  5.237572513902666E-005  2.989720791167796E-008
  5.337254593257023E-005  2.989720791167796E-008
  5.370866246502648E-005  2.989720791167796E-008
  5.566631533737467E-005  2.989720791167796E-008
  5.773509705101226E-005  2.989720791167796E-008
  6.149817700348664E-005  2.989720791167796E-008
  6.336976833941668E-005  2.989720791167796E-008
  6.405684215505053E-005  2.989720791167796E-008
  6.817374479826478E-005  2.989720791167796E-008
  7.363325838026660E-005  2.989720791167796E-008
  7.787469412035125E-005  2.989720791167796E-008
  7.865046512737265E-005  2.989720791167796E-008
  8.139210538745984E-005  2.989720791167796E-008
  8.311718822802404E-005  2.989720791167796E-008
  8.927914753823372E-005  2.989720791167796E-008
  9.116434169621320E-005  2.989720791167796E-008
  9.193878249836957E-005  2.989720791167796E-008
  9.543457866964688E-005  2.989720791167796E-008
  9.594794729820722E-005  2.989720791167796E-008
  9.778724237746240E-005  2.989720791167796E-008
  9.801802758266880E-005  2.989720791167796E-008
  1.007520315313635E-004  2.989720791167796E-008
  1.018241123846291E-004  2.989720791167796E-008
  1.029088116457013E-004  2.989720791167796E-008
  1.082605801538159E-004  2.989720791167796E-008
  1.120447758140577E-004  2.989720791167796E-008
  1.185003548648622E-004  2.989720791167796E-008
  1.207108714801870E-004  2.989720791167796E-008
  1.212408610091491E-004  2.989720791167796E-008
  1.251759490271856E-004  2.989720791167796E-008
  1.302646286229171E-004  2.989720791167796E-008
  1.318366979698289E-004  2.989720791167796E-008
  1.331457817518681E-004  2.989720791167796E-008
  1.335371156804298E-004  2.989720791167796E-008
  1.393587614826449E-004  2.989720791167796E-008
  1.397471582557038E-004  2.989720791167796E-008
  1.425221012815870E-004  2.989720791167796E-008
  1.437349703664008E-004  2.989720791167796E-008
  1.458926707130110E-004  2.989720791167796E-008
  1.467951640655011E-004  2.989720791167796E-008
  1.468073370541033E-004  2.989720791167796E-008
  1.554936689736926E-004  2.989720791167796E-008
  1.564450137264435E-004  2.989720791167796E-008
  1.705444180594400E-004  2.989720791167796E-008
  1.714873056796244E-004  2.989720791167796E-008
  1.862738472785199E-004  2.989720791167796E-008
  1.878366644343980E-004  2.989720791167796E-008
  1.986852543852880E-004  2.989720791167796E-008
  2.021236751766302E-004  2.989720791167796E-008
  2.181321833238304E-004  2.989720791167796E-008
  2.193841650815576E-004  2.989720791167796E-008
  2.326341426895521E-004  2.989720791167796E-008
  2.376247123083858E-004  2.989720791167796E-008
  2.411431113686966E-004  2.989720791167796E-008
  2.472513121165298E-004  2.989720791167796E-008
  2.502931752837900E-004  2.989720791167796E-008
  2.531419361017498E-004  2.989720791167796E-008
  2.651954593097774E-004  2.989720791167796E-008
  2.663606899223099E-004  2.989720791167796E-008
  2.766422355664260E-004  2.989720791167796E-008
  2.829084874702051E-004  2.989720791167796E-008
  2.896680170520075E-004  2.989720791167796E-008
  3.097299076289815E-004  2.989720791167796E-008
  3.191411457361384E-004  2.989720791167796E-008
  3.298168057915648E-004  2.989720791167796E-008
  3.349822844158551E-004  2.989720791167796E-008
  3.365861702768784E-004  2.989720791167796E-008
  3.408408227799037E-004  2.989720791167796E-008
  3.605330920015916E-004  2.989720791167796E-008
  3.871782695483977E-004  2.989720791167796E-008
  3.876002423362723E-004  2.989720791167796E-008
  3.992205420345442E-004  2.989720791167796E-008
  4.010243774756425E-004  2.989720791167796E-008
  4.126673784428663E-004  2.989720791167796E-008
  4.228157524558501E-004  2.989720791167796E-008
  4.228943638689961E-004  2.989720791167796E-008
  4.260495558707251E-004  2.989720791167796E-008
  4.352919244302620E-004  2.989720791167796E-008
  4.396851578894054E-004  2.989720791167796E-008
  4.442412198618974E-004  2.989720791167796E-008
  4.488633755267224E-004  2.989720791167796E-008
  4.642716182498558E-004  2.989720791167796E-008
  4.675775609206071E-004  2.989720791167796E-008
  4.681116209185734E-004  2.989720791167796E-008
  5.029287268573194E-004  2.989720791167796E-008
  5.115711722558635E-004  2.989720791167796E-008
  5.116076406675656E-004  2.989720791167796E-008
  5.249900910506212E-004  2.989720791167796E-008
  5.340146153130575E-004  2.989720791167796E-008
  5.340719190744332E-004  2.989720791167796E-008
  5.398942759701644E-004  2.989720791167796E-008
  5.403507365651810E-004  2.989720791167796E-008
  5.403514717515922E-004  2.989720791167796E-008
  5.410359991815870E-004  2.989720791167796E-008
  5.478907322260179E-004  2.989720791167796E-008
  5.482075814763837E-004  2.989720791167796E-008
  5.530417279815551E-004  2.989720791167796E-008
  5.530429743029901E-004  2.989720791167796E-008
  5.557766994788889E-004  2.989720791167796E-008
  5.557767804553923E-004  2.989720791167796E-008
  5.563340458908878E-004  2.989720791167796E-008
  5.563497069236349E-004  2.989720791167796E-008
  5.629566850873143E-004  2.989720791167796E-008
  5.631681117796810E-004  2.989720791167796E-008
  5.783512964259246E-004  2.989720791167796E-008
  5.783572103879498E-004  2.989720791167796E-008
  5.986261195153521E-004  2.989720791167796E-008
  5.986268448194695E-004  2.989720791167796E-008
  6.075260717981846E-004  2.989720791167796E-008
  6.081862540698143E-004  2.989720791167796E-008
  6.183443515127609E-004  2.989720791167796E-008
  6.270832909306937E-004  2.989720791167796E-008
  6.285151446043215E-004  2.989720791167796E-008
  6.304754407035585E-004  2.989720791167796E-008
  6.352477424243196E-004  2.989720791167796E-008
  6.354301798739251E-004  2.989720791167796E-008
  6.361271384897954E-004  2.989720791167796E-008
  6.372504069288702E-004  2.989720791167796E-008
  6.508048690996529E-004  2.989720791167796E-008
  6.508082581386760E-004  2.989720791167796E-008
  6.616202623415037E-004  2.989720791167796E-008
  6.616289957141159E-004  2.989720791167796E-008
  6.897974502648876E-004  2.989720791167796E-008
  6.897991791327964E-004  2.989720791167796E-008
  6.971473083160362E-004  2.989720791167796E-008
  6.985574664679287E-004  2.989720791167796E-008
  7.734453051186552E-004  2.989720791167796E-008
  7.734564259094185E-004  2.989720791167796E-008
  8.599591033017059E-004  2.989720791167796E-008
  8.784931348014493E-004  2.989720791167796E-008
  8.827513200370506E-004  2.989720791167796E-008
  9.284631742559185E-004  2.989720791167796E-008
  9.536066208171778E-004  2.989720791167796E-008
  9.632413886291628E-004  2.989720791167796E-008
  1.012030820530320E-003  2.989720791167796E-008
  1.020421108660609E-003  2.989720791167796E-008
  1.088540128014000E-003  2.989720791167796E-008
  1.088541074011405E-003  2.989720791167796E-008
  1.109277632007265E-003  2.989720791167796E-008
  1.109280435324460E-003  2.989720791167796E-008
  1.115497708628689E-003  2.989720791167796E-008
  1.126026853492511E-003  2.989720791167796E-008
  1.130532724147846E-003  2.989720791167796E-008
  1.141125221175387E-003  2.989720791167796E-008
  1.142791053896192E-003  2.989720791167796E-008
  1.155785365297803E-003  2.989720791167796E-008
  1.155785599951471E-003  2.989720791167796E-008
  1.167146665303273E-003  2.989720791167796E-008
  1.167152344530833E-003  2.989720791167796E-008
  1.172635068703780E-003  2.989720791167796E-008
  1.180145209747476E-003  2.989720791167796E-008
  1.180174916759034E-003  2.989720791167796E-008
  1.236501807159805E-003  2.989720791167796E-008
  1.243782877517655E-003  2.989720791167796E-008
  1.390250821401646E-003  2.989720791167796E-008
  1.417983204670908E-003  2.989720791167796E-008
  1.461190781436233E-003  2.989720791167796E-008
  1.462757588546557E-003  2.989720791167796E-008
  1.517196524439875E-003  2.989720791167796E-008
  1.517829381466577E-003  2.989720791167796E-008
  1.616218704974835E-003  2.989720791167796E-008
  1.623844288991352E-003  2.989720791167796E-008
  1.765946566973988E-003  2.989720791167796E-008
  1.794689288171115E-003  2.989720791167796E-008
  1.794746889326241E-003  2.989720791167796E-008
  1.835046815865321E-003  2.989720791167796E-008
  2.027703149244764E-003  2.989720791167796E-008
  2.151727633431342E-003  2.989720791167796E-008
  2.383961463128167E-003  2.989720791167796E-008
  2.384333053592402E-003  2.989720791167796E-008
  2.527306048330375E-003  2.989720791167796E-008
  2.545821849804966E-003  2.989720791167796E-008
  2.758663584189682E-003  2.989720791167796E-008
  2.758679336267403E-003  2.989720791167796E-008
  3.012838359200338E-003  2.989720791167796E-008
  3.013578475951319E-003  2.989720791167796E-008
  3.019584717022088E-003  2.989720791167796E-008
  3.019589174475012E-003  2.989720791167796E-008
  3.026539120756909E-003  2.989720791167796E-008
  3.026547213810736E-003  2.989720791167796E-008
  3.054558896085983E-003  2.989720791167796E-008
  3.054624364653019E-003  2.989720791167796E-008
  3.361236670835760E-003  2.989720791167796E-008
  3.361238054374183E-003  2.989720791167796E-008
  3.398908536108080E-003  2.989720791167796E-008
  3.415870322221634E-003  2.989720791167796E-008
  3.543206839626826E-003  2.989720791167796E-008
  3.561570377017514E-003  2.989720791167796E-008
  3.577098183468391E-003  2.989720791167796E-008
  3.581003105625687E-003  2.989720791167796E-008
  3.620578917332764E-003  2.989720791167796E-008
  3.620582759713354E-003  2.989720791167796E-008
  3.700460016982875E-003  2.989720791167796E-008
  3.703941677701240E-003  2.989720791167796E-008
  8.373070338311070E-003  2.989720791167796E-008
  8.373312582309372E-003  2.989720791167796E-008
  9.771778398627896E-003  2.989720791167796E-008
  9.772006825772473E-003  2.989720791167796E-008
 cut=1d-8, nber non-redundant internal coords=         252
 Check on Eigenvals of non-red overlap matrix:
  0.00000003  0.00000011  0.00000013  0.00000035  0.00000047  0.00000081  0.00000086  0.00000135
  0.00000162  0.00000223  0.00000256  0.00000297  0.00000309  0.00000339  0.00000483  0.00000563
  0.00000609  0.00000677  0.00000737  0.00000802  0.00000808  0.00000954  0.00001049  0.00001120
  0.00001299  0.00001418  0.00001490  0.00001505  0.00001598  0.00001760  0.00001840  0.00001887
  0.00001907  0.00001973  0.00002267  0.00002495  0.00002539  0.00002543  0.00002662  0.00002770
  0.00002850  0.00003144  0.00003449  0.00003532  0.00003783  0.00003857  0.00004202  0.00004236
  0.00004648  0.00004676  0.00004799  0.00004881  0.00004928  0.00005009  0.00005238  0.00005337
  0.00005371  0.00005567  0.00005774  0.00006150  0.00006337  0.00006406  0.00006817  0.00007363
  0.00007787  0.00007865  0.00008139  0.00008312  0.00008928  0.00009116  0.00009194  0.00009543
  0.00009595  0.00009779  0.00009802  0.00010075  0.00010182  0.00010291  0.00010826  0.00011204
  0.00011850  0.00012071  0.00012124  0.00012518  0.00013026  0.00013184  0.00013315  0.00013354
  0.00013936  0.00013975  0.00014252  0.00014373  0.00014589  0.00014680  0.00014681  0.00015549
  0.00015645  0.00017054  0.00017149  0.00018627  0.00018784  0.00019869  0.00020212  0.00021813
  0.00021938  0.00023263  0.00023762  0.00024114  0.00024725  0.00025029  0.00025314  0.00026520
  0.00026636  0.00027664  0.00028291  0.00028967  0.00030973  0.00031914  0.00032982  0.00033498
  0.00033659  0.00034084  0.00036053  0.00038718  0.00038760  0.00039922  0.00040102  0.00041267
  0.00042282  0.00042289  0.00042605  0.00043529  0.00043969  0.00044424  0.00044886  0.00046427
  0.00046758  0.00046811  0.00050293  0.00051157  0.00051161  0.00052499  0.00053401  0.00053407
  0.00053989  0.00054035  0.00054035  0.00054104  0.00054789  0.00054821  0.00055304  0.00055304
  0.00055578  0.00055578  0.00055633  0.00055635  0.00056296  0.00056317  0.00057835  0.00057836
  0.00059863  0.00059863  0.00060753  0.00060819  0.00061834  0.00062708  0.00062852  0.00063048
  0.00063525  0.00063543  0.00063613  0.00063725  0.00065080  0.00065081  0.00066162  0.00066163
  0.00068980  0.00068980  0.00069715  0.00069856  0.00077345  0.00077346  0.00085996  0.00087849
  0.00088275  0.00092846  0.00095361  0.00096324  0.00101203  0.00102042  0.00108854  0.00108854
  0.00110928  0.00110928  0.00111550  0.00112603  0.00113053  0.00114113  0.00114279  0.00115579
  0.00115579  0.00116715  0.00116715  0.00117264  0.00118015  0.00118017  0.00123650  0.00124378
  0.00139025  0.00141798  0.00146119  0.00146276  0.00151720  0.00151783  0.00161622  0.00162384
  0.00176595  0.00179469  0.00179475  0.00183505  0.00202770  0.00215173  0.00238396  0.00238433
  0.00252731  0.00254582  0.00275866  0.00275868  0.00301284  0.00301358  0.00301958  0.00301959
  0.00302654  0.00302655  0.00305456  0.00305462  0.00336124  0.00336124  0.00339891  0.00341587
  0.00354321  0.00356157  0.00357710  0.00358100  0.00362058  0.00362058  0.00370046  0.00370394
  0.00837307  0.00837331  0.00977178  0.00977201
 Checking for correct frequencies
 recalc frequencies=
    -0.0   -0.0   -0.0   -0.0    0.0    0.0    4.1    8.7   11.4   13.3
    17.3   21.1   25.7   25.7   28.3   39.1   49.3   52.9   54.2   61.7
    62.9   68.5   73.2   93.2   94.4   99.3  105.3  108.3  118.0  122.9
   126.5  142.1  150.0  152.4  153.5  159.5  162.4  162.9  175.6  182.0
   183.3  204.6  210.3  212.9  217.5  223.4  231.1  231.5  242.4  243.8
   250.4  267.1  268.2  275.6  309.3  315.1  328.6  335.1  341.9  348.4
   348.8  378.4  388.6  388.7  392.7  408.2  418.3  419.8  424.9  430.5
   430.9  449.9  464.1  481.0  484.1  485.3  490.3  503.3  505.6  510.9
   524.4  525.6  525.8  530.5  555.0  555.1  566.3  567.9  569.8  586.0
   588.8  594.1  599.5  599.8  600.3  617.3  639.8  641.3  643.8  647.3
   694.2  694.2  694.8  697.8  698.6  716.6  717.6  729.3  737.2  737.4
   743.9  743.9  760.3  767.0  781.3  781.4  786.7  786.7  813.0  813.0
   816.4  819.5  831.5  831.6  833.3  833.6  836.2  837.4  861.3  870.0
   872.6  881.9  889.3  895.2  895.8  933.0  933.0  943.1  948.1  960.7
   960.7  992.0  992.1 1001.7 1001.8 1004.2 1027.4 1028.2 1045.9 1046.1
  1074.4 1078.7 1089.7 1090.4 1103.0 1103.9 1106.0 1106.2 1139.1 1139.3
  1151.2 1152.0 1155.7 1166.8 1192.8 1194.0 1223.6 1226.8 1232.3 1234.9
  1245.6 1252.6 1271.2 1271.3 1288.6 1294.1 1305.2 1307.8 1315.5 1316.9
  1317.7 1319.9 1341.5 1341.5 1348.2 1349.4 1360.5 1370.7 1373.6 1373.7
  1383.0 1384.5 1386.2 1392.2 1401.5 1403.6 1407.9 1407.9 1409.2 1412.6
  1427.8 1427.8 1470.0 1471.6 1474.9 1475.2 1489.4 1495.8 1495.8 1496.4
  1497.6 1498.8 1498.9 1505.5 1505.5 1510.1 1513.5 1520.4 1520.7 1532.9
  1543.6 1553.6 1563.4 1566.1 1573.9 1584.3 1588.4 1633.5 1734.3 1737.4
  3002.0 3002.1 3028.0 3028.1 3034.9 3034.9 3075.1 3075.1 3091.3 3091.4
  3101.6 3101.7 3102.8 3102.8 3109.6 3109.6 3133.6 3133.6 3159.0 3159.1
  3162.5 3163.8 3183.3 3183.4 3200.1 3200.1 3209.2 3209.3
 recalc symmetries=
                                                                       
                                                                       
                                                                       
                                                                       
                                                                       
                                                                       
                                                                       
                                                                       
                                                                       
                                                                       
                                                                       
                                                                       
                                                                       
                                                                       
                                                                       
                                                                       
                                                                       
                                                                       
                                                                       
                                                                       
                                                                       
                                                                       
                                                                       
                                                                       
                                                                       
                                                         
 recalc freqs check OK
 Zero-point lengths:
 10.0000 10.0000 10.0000 10.0000 10.0000 10.0000122.1397 84.0691 73.3740 68.0699
 59.5753 53.9819 48.9170 48.8829 46.5792 39.6705 35.3093 34.0938 33.6846 31.5671
 31.2665 29.9497 28.9680 25.6853 25.5094 24.8836 24.1619 23.8223 22.8226 22.3608
 22.0416 20.7937 20.2425 20.0827 20.0117 19.6297 19.4516 19.4224 18.7078 18.3786
 18.3124 17.3334 17.0962 16.9915 16.8118 16.5870 16.3087 16.2924 15.9224 15.8779
 15.6654 15.1701 15.1385 14.9326 14.0958 13.9651 13.6755 13.5420 13.4073 13.2813
 13.2734 12.7441 12.5762 12.5752 12.5104 12.2703 12.1207 12.0990 12.0263 11.9482
 11.9427 11.6878 11.5076 11.3042 11.2680 11.2540 11.1966 11.0504 11.0258 10.9675
 10.8255 10.8136 10.8120 10.7631 10.5228 10.5221 10.4180 10.4033 10.3855 10.2407
 10.2168 10.1714 10.1255 10.1228 10.1187  9.9780  9.8013  9.7898  9.7705  9.7439
  9.4096  9.4091  9.4048  9.3846  9.3793  9.2610  9.2548  9.1798  9.1309  9.1295
  9.0895  9.0895  8.9907  8.9515  8.8692  8.8688  8.8386  8.8386  8.6946  8.6945
  8.6767  8.6602  8.5971  8.5967  8.5879  8.5867  8.5730  8.5672  8.4471  8.4047
  8.3926  8.3483  8.3132  8.2859  8.2829  8.1161  8.1161  8.0726  8.0513  7.9985
  7.9985  7.8710  7.8710  7.8331  7.8326  7.8233  7.7345  7.7315  7.6657  7.6651
  7.5633  7.5482  7.5100  7.5075  7.4646  7.4617  7.4545  7.4540  7.3453  7.3447
  7.3066  7.3040  7.2925  7.2578  7.1781  7.1746  7.0872  7.0781  7.0621  7.0547
  7.0245  7.0046  6.9532  6.9530  6.9062  6.8916  6.8622  6.8553  6.8352  6.8316
  6.8296  6.8239  6.7687  6.7687  6.7517  6.7487  6.7212  6.6963  6.6891  6.6889
  6.6664  6.6627  6.6586  6.6442  6.6220  6.6171  6.6071  6.6071  6.6041  6.5961
  6.5609  6.5608  6.4660  6.4625  6.4552  6.4546  6.4237  6.4100  6.4099  6.4087
  6.4061  6.4035  6.4034  6.3894  6.3894  6.3796  6.3724  6.3580  6.3574  6.3319
  6.3099  6.2896  6.2699  6.2645  6.2489  6.2284  6.2204  6.1339  5.9529  5.9476
  4.5247  4.5246  4.5052  4.5052  4.5001  4.5001  4.4706  4.4706  4.4588  4.4588
  4.4514  4.4514  4.4506  4.4506  4.4457  4.4457  4.4287  4.4287  4.4108  4.4108
  4.4084  4.4075  4.3940  4.3939  4.3824  4.3824  4.3762  4.3762
 highest evec of mol 1
 -0.0000 -0.0000 -0.0000
 -0.0000 -0.0000  0.0000
  0.0000 -0.0001  0.0001
 -0.0000 -0.0002 -0.0002
  0.0000  0.0001  0.0000
  0.0000  0.0003  0.0003
 -0.0000 -0.0005 -0.0002
 -0.0000 -0.0021  0.0001
 -0.0069  0.0161 -0.0479
 -0.0016  0.0824 -0.0201
  0.0002  0.0005  0.0015
 -0.0002 -0.0054 -0.0009
 -0.0215  0.0743 -0.1585
  0.0010  0.0053  0.0062
  0.0001 -0.0006  0.0013
  0.0001 -0.0004  0.0009
 -0.0000  0.0000 -0.0001
  0.0000 -0.0007  0.0002
  0.0000  0.0003  0.0002
  0.0000 -0.0000  0.0001
 -0.0000  0.0007 -0.0002
 -0.0000 -0.0003 -0.0002
  0.0003  0.0003 -0.0008
 -0.0000 -0.0001 -0.0016
 -0.0001  0.0006 -0.0013
 -0.0001  0.0005 -0.0009
  0.0002  0.0055  0.0009
 -0.0002 -0.0005 -0.0015
  0.0016 -0.0834  0.0204
  0.0070 -0.0163  0.0485
  0.0000  0.0022 -0.0001
  0.0000  0.0005  0.0002
 -0.0000 -0.0003 -0.0003
  0.0000  0.0001  0.0002
  0.0000  0.0000  0.0001
 -0.0000  0.0000 -0.0000
 -0.0000  0.0001 -0.0001
  0.0000  0.0000 -0.0000
  0.0000 -0.0000  0.0000
  0.0000  0.0002  0.0002
 -0.0000 -0.0001 -0.0000
 -0.0000  0.0003 -0.0002
 -0.0000 -0.0001 -0.0001
  0.0000 -0.0000  0.0001
 -0.0000 -0.0001 -0.0000
 -0.0001  0.0003 -0.0005
  0.0217 -0.0752  0.1604
 -0.0011 -0.0054 -0.0063
 -0.0003 -0.0003  0.0008
  0.0000  0.0001  0.0016
  0.0001 -0.0003  0.0005
  0.0000  0.0001  0.0000
 -0.0000  0.0000 -0.0001
  0.0000  0.0001  0.0001
  0.0000 -0.0003  0.0002
 -0.0000 -0.0001 -0.0002
 -0.0000 -0.0000 -0.0001
  0.0000 -0.0000  0.0000
  0.0000  0.0001  0.0001
 -0.0000 -0.0000  0.0000
  0.0000 -0.0000  0.0000
  0.0000 -0.0000  0.0000
  0.0000  0.0000 -0.0001
 -0.0000  0.0020 -0.0004
  0.0221 -0.0585  0.1546
  0.0056 -0.2773  0.0696
  0.0715 -0.2465  0.5268
 -0.0000  0.0020 -0.0005
  0.0000 -0.0020  0.0005
 -0.0017 -0.0013  0.0005
 -0.0007 -0.0003  0.0003
  0.0003  0.0005  0.0003
  0.0007 -0.0004  0.0051
 -0.0056  0.2807 -0.0704
 -0.0223  0.0592 -0.1564
  0.0000 -0.0020  0.0004
 -0.0000  0.0000 -0.0000
 -0.0000 -0.0000  0.0001
  0.0000  0.0000 -0.0000
 -0.0000 -0.0001 -0.0001
 -0.0000  0.0000 -0.0000
 -0.0724  0.2494 -0.5331
  0.0017  0.0013 -0.0005
 -0.0003 -0.0005 -0.0003
 -0.0007  0.0004 -0.0052
  0.0007  0.0003 -0.0003
 generating redundant internal coords
         300        3600          86
 Adding extra bonds for z output only
           6           6           7           6           8           6
           6           6           6           6           6           6
           6           6           6          16           6           6
           6           6           6           6           6           6
           6          16           6           6           6           6
           6           6           6          16           6          16
           7           6           6           6           8           6
           7          16           7           6           6           6
           6           6           6           7          16           7
           6          16           6          16           1           1
           1           1           1           1           1           1
           1           1           1           1           1           1
           1           1           1           1           1           1
           1           1           1           1           1           1
           1           1
 search for int coords
   1 str   2   1   1.528
   2 str   3   2   1.467
   3 str   4   3   1.424
   4 str   5   4   1.218
   5 str   6   4   1.461
   6 str   7   6   1.369
   7 str   8   7   1.421
   8 str   9   8   1.408
   9 str  10   9   1.391
  10 str  11  10   1.409
  11 str  12  11   1.435
  12 str  13  12   1.401
  13 str  14  13   1.394
  14 str  15  14   1.389
  15 str  16  12   1.782
  16 str  16  15   1.731
  17 str  17  15   1.435
  18 str  18  17   1.407
  19 str  19  18   1.380
  20 str  20  19   1.425
  21 str  21  20   1.407
  22 str  22  17   1.425
  23 str  22  21   1.380
  24 str  23  14   1.514
  25 str  23  22   1.528
  26 str  24  23   1.538
  27 str  25  20   1.435
  28 str  26  25   1.731
  29 str  27  26   1.782
  30 str  28  27   1.435
  31 str  29  28   1.409
  32 str  30  29   1.391
  33 str  31  30   1.408
  34 str  32  31   1.421
  35 str  33  32   1.369
  36 str  34  33   1.770
  37 str  35  34   1.768
  38 str  36  35   1.662
  39 str  37  35   1.362
  40 str  38  37   1.467
  41 str  39  38   1.528
  42 str  40  33   1.461
  43 str  40  37   1.424
  44 str  41  40   1.218
  45 str  42  31   1.444
  46 str  43  42   1.329
  47 str  44  42   2.406
  48 str  44  43   1.650
  49 str  45  44   1.650
  50 str  46  28   1.440
  51 str  46  42   1.456
  52 str  46  44   2.407
  53 str  46  45   1.330
  54 str  47  27   1.401
  55 str  48  25   1.389
  56 str  48  47   1.394
  57 str  49  19   1.528
  58 str  49  48   1.514
  59 str  50  49   1.538
  60 str  51  11   1.440
  61 str  52  51   1.330
  62 str  53  51   2.407
  63 str  53  52   1.650
  64 str  54  53   1.650
  65 str  55   8   1.444
  66 str  55  51   1.456
  67 str  55  53   2.406
  68 str  55  54   1.329
  69 str  56   6   1.770
  70 str  57   3   1.362
  71 str  57  56   1.768
  72 str  58  57   1.662
  73 str  59   1   1.094
  74 str  60   1   1.092
  75 str  61   1   1.092
  76 str  62   2   1.090
  77 str  63   2   1.090
  78 str  64   7   1.087
  79 str  65   9   1.082
  80 str  66  10   1.082
  81 str  67  13   1.081
  82 str  68  18   1.085
  83 str  69  21   1.085
  84 str  70  23   1.098
  85 str  71  24   1.092
  86 str  72  24   1.093
  87 str  73  24   1.093
  88 str  74  29   1.082
  89 str  75  30   1.082
  90 str  76  32   1.087
  91 str  77  38   1.090
  92 str  78  38   1.090
  93 str  79  39   1.092
  94 str  80  39   1.094
  95 str  81  39   1.092
  96 str  82  47   1.081
  97 str  83  49   1.098
  98 str  84  50   1.093
  99 str  85  50   1.093
 100 str  86  50   1.092
 nber stretches=         100
 101 ben   1   2   3
 102 prop tor   1   2   3   4
 103 prop tor   1   2   3  57
 104 ben   1   2  62
 105 ben   1   2  63
 106 ben   2   1  59
 107 ben   2   1  60
 108 ben   2   1  61
 109 ben   2   3   4
 110 prop tor   2   3   4   5
 111 prop tor   2   3   4   6
 112 ben   2   3  57
 113 prop tor   2   3  57  56
 114 prop tor   2   3  57  58
 115 ben   3   2  62
 116 ben   3   2  63
 117 ben   3   4   5
 118 ben   3   4   6
 119 prop tor   3   4   6   7
 120 prop tor   3   4   6  56
 121 ben   3  57  56
 122 ben   3  57  58
 123 ben   4   3  57
 124 prop tor   4   3  57  56
 125 prop tor   4   3  57  58
 126 ben   4   6   7
 127 prop tor   4   6   7   8
 128 prop tor   4   6   7  64
 129 ben   4   6  56
 130 prop tor   4   6  56  57
 131 ben   5   4   6
 132 prop tor   5   4   6   7
 133 prop tor   5   4   6  56
 134 ben   6   7   8
 135 prop tor   6   7   8   9
 136 prop tor   6   7   8  55
 137 ben   6   7  64
 138 ben   6  56  57
 139 prop tor   6  56  57   3
 140 prop tor   6  56  57  58
 141 ben   7   6  56
 142 prop tor   7   6  56  57
 143 ben   7   8   9
 144 prop tor   7   8   9  10
 145 prop tor   7   8   9  65
 146 ben   7   8  55
 147 prop tor   7   8  55  51
 148 prop tor   7   8  55  53
 149 prop tor   7   8  55  54
 150 ben   8   7  64
 151 ben   8   9  10
 152 prop tor   8   9  10  11
 153 prop tor   8   9  10  66
 154 ben   8   9  65
 155 ben   8  55  51
 156 ben   8  55  53
 157 ben   8  55  54
 158 ben   9   8  55
 159 prop tor   9   8  55  51
 160 prop tor   9   8  55  53
 161 prop tor   9   8  55  54
 162 ben   9  10  11
 163 prop tor   9  10  11  12
 164 prop tor   9  10  11  51
 165 ben   9  10  66
 166 ben  10   9  65
 167 ben  10  11  12
 168 prop tor  10  11  12  13
 169 prop tor  10  11  12  16
 170 ben  10  11  51
 171 prop tor  10  11  51  52
 172 prop tor  10  11  51  53
 173 prop tor  10  11  51  55
 174 ben  11  10  66
 175 ben  11  12  13
 176 prop tor  11  12  13  14
 177 prop tor  11  12  13  67
 178 ben  11  12  16
 179 prop tor  11  12  16  15
 180 ben  11  51  52
 181 prop tor  11  51  52  53
 182 ben  11  51  53
 183 prop tor  11  51  53  52
 184 prop tor  11  51  53  54
 185 prop tor  11  51  53  55
 186 ben  11  51  55
 187 prop tor  11  51  55   8
 188 prop tor  11  51  55  53
 189 prop tor  11  51  55  54
 190 ben  12  11  51
 191 prop tor  12  11  51  52
 192 prop tor  12  11  51  53
 193 prop tor  12  11  51  55
 194 ben  12  13  14
 195 prop tor  12  13  14  15
 196 prop tor  12  13  14  23
 197 ben  12  13  67
 198 ben  12  16  15
 199 ben  13  12  16
 200 prop tor  13  12  16  15
 201 ben  13  14  15
 202 prop tor  13  14  15  16
 203 prop tor  13  14  15  17
 204 ben  13  14  23
 205 prop tor  13  14  23  22
 206 prop tor  13  14  23  24
 207 prop tor  13  14  23  70
 208 ben  14  13  67
 209 ben  14  15  16
 210 prop tor  14  15  16  12
 211 ben  14  15  17
 212 prop tor  14  15  17  18
 213 prop tor  14  15  17  22
 214 ben  14  23  22
 215 ben  14  23  24
 216 prop tor  14  23  24  71
 217 prop tor  14  23  24  72
 218 prop tor  14  23  24  73
 219 ben  14  23  70
 220 ben  15  14  23
 221 prop tor  15  14  23  22
 222 prop tor  15  14  23  24
 223 prop tor  15  14  23  70
 224 ben  15  17  18
 225 prop tor  15  17  18  19
 226 prop tor  15  17  18  68
 227 ben  15  17  22
 228 prop tor  15  17  22  21
 229 prop tor  15  17  22  23
 230 prop tor  16  12  13  14
 231 prop tor  16  12  13  67
 232 ben  16  15  17
 233 prop tor  16  15  17  18
 234 prop tor  16  15  17  22
 235 prop tor  17  15  16  12
 236 ben  17  18  19
 237 prop tor  17  18  19  20
 238 prop tor  17  18  19  49
 239 ben  17  18  68
 240 ben  17  22  21
 241 ben  17  22  23
 242 prop tor  17  22  23  14
 243 prop tor  17  22  23  24
 244 prop tor  17  22  23  70
 245 ben  18  17  22
 246 prop tor  18  17  22  21
 247 prop tor  18  17  22  23
 248 ben  18  19  20
 249 prop tor  18  19  20  21
 250 prop tor  18  19  20  25
 251 ben  18  19  49
 252 prop tor  18  19  49  48
 253 prop tor  18  19  49  50
 254 prop tor  18  19  49  83
 255 ben  19  18  68
 256 ben  19  20  21
 257 prop tor  19  20  21  22
 258 prop tor  19  20  21  69
 259 ben  19  20  25
 260 prop tor  19  20  25  26
 261 prop tor  19  20  25  48
 262 ben  19  49  48
 263 ben  19  49  50
 264 prop tor  19  49  50  84
 265 prop tor  19  49  50  85
 266 prop tor  19  49  50  86
 267 ben  19  49  83
 268 ben  20  19  49
 269 prop tor  20  19  49  48
 270 prop tor  20  19  49  50
 271 prop tor  20  19  49  83
 272 ben  20  21  22
 273 prop tor  20  21  22  17
 274 prop tor  20  21  22  23
 275 ben  20  21  69
 276 ben  20  25  26
 277 prop tor  20  25  26  27
 278 ben  20  25  48
 279 prop tor  20  25  48  47
 280 prop tor  20  25  48  49
 281 ben  21  20  25
 282 prop tor  21  20  25  26
 283 prop tor  21  20  25  48
 284 ben  21  22  23
 285 prop tor  21  22  23  14
 286 prop tor  21  22  23  24
 287 prop tor  21  22  23  70
 288 prop tor  22  17  18  19
 289 prop tor  22  17  18  68
 290 ben  22  21  69
 291 ben  22  23  24
 292 prop tor  22  23  24  71
 293 prop tor  22  23  24  72
 294 prop tor  22  23  24  73
 295 ben  22  23  70
 296 prop tor  23  14  15  16
 297 prop tor  23  14  15  17
 298 ben  23  24  71
 299 ben  23  24  72
 300 ben  23  24  73
 301 ben  24  23  70
 302 prop tor  25  20  21  22
 303 prop tor  25  20  21  69
 304 ben  25  26  27
 305 prop tor  25  26  27  28
 306 prop tor  25  26  27  47
 307 ben  25  48  47
 308 ben  25  48  49
 309 prop tor  25  48  49  19
 310 prop tor  25  48  49  50
 311 prop tor  25  48  49  83
 312 ben  26  25  48
 313 prop tor  26  25  48  47
 314 prop tor  26  25  48  49
 315 ben  26  27  28
 316 prop tor  26  27  28  29
 317 prop tor  26  27  28  46
 318 ben  26  27  47
 319 prop tor  26  27  47  48
 320 prop tor  26  27  47  82
 321 ben  27  28  29
 322 prop tor  27  28  29  30
 323 prop tor  27  28  29  74
 324 ben  27  28  46
 325 prop tor  27  28  46  42
 326 prop tor  27  28  46  44
 327 prop tor  27  28  46  45
 328 ben  27  47  48
 329 prop tor  27  47  48  25
 330 prop tor  27  47  48  49
 331 ben  27  47  82
 332 ben  28  27  47
 333 prop tor  28  27  47  48
 334 prop tor  28  27  47  82
 335 ben  28  29  30
 336 prop tor  28  29  30  31
 337 prop tor  28  29  30  75
 338 ben  28  29  74
 339 ben  28  46  42
 340 ben  28  46  44
 341 ben  28  46  45
 342 ben  29  28  46
 343 prop tor  29  28  46  42
 344 prop tor  29  28  46  44
 345 prop tor  29  28  46  45
 346 ben  29  30  31
 347 prop tor  29  30  31  32
 348 prop tor  29  30  31  42
 349 ben  29  30  75
 350 ben  30  29  74
 351 ben  30  31  32
 352 prop tor  30  31  32  33
 353 prop tor  30  31  32  76
 354 ben  30  31  42
 355 prop tor  30  31  42  43
 356 prop tor  30  31  42  44
 357 prop tor  30  31  42  46
 358 ben  31  30  75
 359 ben  31  32  33
 360 prop tor  31  32  33  34
 361 prop tor  31  32  33  40
 362 ben  31  32  76
 363 ben  31  42  43
 364 prop tor  31  42  43  44
 365 ben  31  42  44
 366 prop tor  31  42  44  43
 367 prop tor  31  42  44  45
 368 prop tor  31  42  44  46
 369 ben  31  42  46
 370 prop tor  31  42  46  28
 371 prop tor  31  42  46  44
 372 prop tor  31  42  46  45
 373 ben  32  31  42
 374 prop tor  32  31  42  43
 375 prop tor  32  31  42  44
 376 prop tor  32  31  42  46
 377 ben  32  33  34
 378 prop tor  32  33  34  35
 379 ben  32  33  40
 380 prop tor  32  33  40  37
 381 prop tor  32  33  40  41
 382 ben  33  32  76
 383 ben  33  34  35
 384 prop tor  33  34  35  36
 385 prop tor  33  34  35  37
 386 ben  33  40  37
 387 ben  33  40  41
 388 ben  34  33  40
 389 prop tor  34  33  40  37
 390 prop tor  34  33  40  41
 391 ben  34  35  36
 392 ben  34  35  37
 393 prop tor  34  35  37  38
 394 prop tor  34  35  37  40
 395 ben  35  37  38
 396 prop tor  35  37  38  39
 397 prop tor  35  37  38  77
 398 prop tor  35  37  38  78
 399 ben  35  37  40
 400 prop tor  35  37  40  33
 401 prop tor  35  37  40  41
 402 ben  36  35  37
 403 prop tor  36  35  37  38
 404 prop tor  36  35  37  40
 405 ben  37  38  39
 406 prop tor  37  38  39  79
 407 prop tor  37  38  39  80
 408 prop tor  37  38  39  81
 409 ben  37  38  77
 410 ben  37  38  78
 411 ben  37  40  41
 412 ben  38  37  40
 413 prop tor  38  37  40  33
 414 prop tor  38  37  40  41
 415 ben  38  39  79
 416 ben  38  39  80
 417 ben  38  39  81
 418 ben  39  38  77
 419 ben  39  38  78
 420 prop tor  40  33  34  35
 421 prop tor  40  37  38  39
 422 prop tor  40  37  38  77
 423 prop tor  40  37  38  78
 424 prop tor  42  31  32  33
 425 prop tor  42  31  32  76
 426 ben  42  43  44
 427 prop tor  42  43  44  45
 428 prop tor  42  43  44  46
 429 ben  42  44  43
 430 ben  42  44  45
 431 prop tor  42  44  45  46
 432 ben  42  44  46
 433 prop tor  42  44  46  28
 434 prop tor  42  44  46  45
 435 ben  42  46  44
 436 ben  42  46  45
 437 ben  43  42  44
 438 prop tor  43  42  44  45
 439 prop tor  43  42  44  46
 440 ben  43  42  46
 441 prop tor  43  42  46  28
 442 prop tor  43  42  46  44
 443 prop tor  43  42  46  45
 444 ben  43  44  45
 445 prop tor  43  44  45  46
 446 ben  43  44  46
 447 prop tor  43  44  46  28
 448 prop tor  43  44  46  42
 449 prop tor  43  44  46  45
 450 ben  44  42  46
 451 prop tor  44  42  46  28
 452 prop tor  44  42  46  45
 453 ben  44  45  46
 454 prop tor  44  45  46  28
 455 prop tor  44  45  46  42
 456 ben  44  46  45
 457 ben  45  44  46
 458 prop tor  45  44  46  28
 459 prop tor  45  44  46  42
 460 prop tor  46  28  29  30
 461 prop tor  46  28  29  74
 462 prop tor  46  42  43  44
 463 prop tor  46  42  44  43
 464 prop tor  46  42  44  45
 465 prop tor  47  27  28  29
 466 prop tor  47  27  28  46
 467 ben  47  48  49
 468 prop tor  47  48  49  19
 469 prop tor  47  48  49  50
 470 prop tor  47  48  49  83
 471 prop tor  48  25  26  27
 472 ben  48  47  82
[...]
  26     freq=    99. Q= -0.001 lam=     0.0     freq=    97. Q= -0.000 lam=     0.0
  27     freq=   105. Q= -0.111 lam=     0.6     freq=   105. Q= -0.101 lam=     0.5
  28     freq=   108. Q=  0.008 lam=     0.0     freq=   107. Q=  0.040 lam=     0.1
  29     freq=   118. Q=  0.001 lam=     0.0     freq=   117. Q=  0.000 lam=     0.0
  30     freq=   123. Q=  0.001 lam=     0.0     freq=   122. Q=  0.000 lam=     0.0
  31     freq=   127. Q= -0.043 lam=     0.1     freq=   128. Q= -0.042 lam=     0.1
  32     freq=   142. Q= -0.000 lam=     0.0     freq=   143. Q= -0.000 lam=     0.0
  33     freq=   150. Q=  0.000 lam=     0.0     freq=   149. Q=  0.000 lam=     0.0
  34     freq=   152. Q=  0.367 lam=    10.3     freq=   152. Q=  0.345 lam=     9.0
  35     freq=   153. Q=  0.000 lam=     0.0     freq=   154. Q=  0.001 lam=     0.0
  36     freq=   159. Q=  0.130 lam=     1.3     freq=   157. Q=  0.195 lam=     3.0
  37     freq=   162. Q=  0.035 lam=     0.1     freq=   161. Q=  0.015 lam=     0.0
  38     freq=   163. Q=  0.000 lam=     0.0     freq=   161. Q=  0.000 lam=     0.0
  39     freq=   176. Q= -0.040 lam=     0.1     freq=   174. Q= -0.038 lam=     0.1
  40     freq=   182. Q=  0.001 lam=     0.0     freq=   181. Q=  0.001 lam=     0.0
  41     freq=   183. Q= -0.097 lam=     0.9     freq=   182. Q= -0.098 lam=     0.9
  42     freq=   205. Q= -0.000 lam=     0.0     freq=   206. Q= -0.000 lam=     0.0
  43     freq=   210. Q= -0.042 lam=     0.2     freq=   209. Q= -0.031 lam=     0.1
  44     freq=   213. Q=  0.012 lam=     0.0     freq=   214. Q=  0.013 lam=     0.0
  45     freq=   217. Q= -0.000 lam=     0.0     freq=   216. Q= -0.000 lam=     0.0
  46     freq=   223. Q= -0.046 lam=     0.2     freq=   223. Q= -0.039 lam=     0.2
  47     freq=   231. Q=  0.000 lam=     0.0     freq=   230. Q=  0.000 lam=     0.0
  48     freq=   232. Q= -0.003 lam=     0.0     freq=   233. Q= -0.007 lam=     0.0
  49     freq=   242. Q=  0.022 lam=     0.1     freq=   242. Q=  0.024 lam=     0.1
  50     freq=   244. Q=  0.000 lam=     0.0     freq=   243. Q=  0.000 lam=     0.0
  51     freq=   250. Q= -0.026 lam=     0.1     freq=   250. Q= -0.028 lam=     0.1
  52     freq=   267. Q= -0.000 lam=     0.0     freq=   268. Q= -0.000 lam=     0.0
  53     freq=   268. Q= -0.098 lam=     1.3     freq=   269. Q= -0.094 lam=     1.2
  54     freq=   276. Q=  0.001 lam=     0.0     freq=   276. Q=  0.000 lam=     0.0
  55     freq=   309. Q= -0.000 lam=     0.0     freq=   310. Q= -0.000 lam=     0.0
  56     freq=   315. Q= -0.000 lam=     0.0     freq=   315. Q= -0.000 lam=     0.0
  57     freq=   329. Q=  0.191 lam=     6.0     freq=   327. Q=  0.190 lam=     5.9
  58     freq=   335. Q=  0.124 lam=     2.6     freq=   342. Q=  0.192 lam=     6.3
  59     freq=   342. Q=  0.000 lam=     0.0     freq=   345. Q=  0.000 lam=     0.0
  60     freq=   348. Q= -0.211 lam=     7.8     freq=   348. Q= -0.140 lam=     3.4
  61     freq=   349. Q=  0.002 lam=     0.0     freq=   351. Q=  0.001 lam=     0.0
  62     freq=   378. Q=  0.000 lam=     0.0     freq=   378. Q=  0.000 lam=     0.0
  63     freq=   389. Q= -0.237 lam=    10.9     freq=   388. Q= -0.234 lam=    10.6
  64     freq=   389. Q= -0.020 lam=     0.1     freq=   389. Q= -0.001 lam=     0.0
  65     freq=   393. Q=  0.256 lam=    12.9     freq=   393. Q=  0.260 lam=    13.3
  66     freq=   408. Q=  0.077 lam=     1.2     freq=   410. Q=  0.078 lam=     1.2
  67     freq=   418. Q=  0.000 lam=     0.0     freq=   422. Q=  0.000 lam=     0.0
  68     freq=   420. Q= -0.204 lam=     8.7     freq=   423. Q= -0.209 lam=     9.2
  69     freq=   425. Q= -0.000 lam=     0.0     freq=   428. Q= -0.000 lam=     0.0
  70     freq=   431. Q= -0.000 lam=     0.0     freq=   445. Q= -0.000 lam=     0.0
  71     freq=   431. Q=  0.054 lam=     0.6     freq=   448. Q=  0.077 lam=     1.3
  72     freq=   450. Q= -0.000 lam=     0.0     freq=   453. Q= -0.000 lam=     0.0
  73     freq=   464. Q=  0.112 lam=     2.9     freq=   466. Q=  0.111 lam=     2.9
  74     freq=   481. Q= -0.000 lam=     0.0     freq=   486. Q= -0.000 lam=     0.0
  75     freq=   484. Q=  0.047 lam=     0.5     freq=   492. Q=  0.062 lam=     0.9
  76     freq=   485. Q= -0.000 lam=     0.0     freq=   502. Q= -0.001 lam=     0.0
  77     freq=   490. Q= -0.111 lam=     3.0     freq=   503. Q= -0.189 lam=     9.0
  78     freq=   503. Q= -0.001 lam=     0.0     freq=   504. Q= -0.004 lam=     0.0
  79     freq=   506. Q= -0.515 lam=    67.0     freq=   505. Q= -0.466 lam=    54.8
  80     freq=   511. Q=  0.079 lam=     1.6     freq=   515. Q=  0.075 lam=     1.5
  81     freq=   524. Q=  0.001 lam=     0.0     freq=   528. Q=  0.002 lam=     0.0
  82     freq=   526. Q=  0.006 lam=     0.0     freq=   531. Q=  0.164 lam=     7.1
  83     freq=   526. Q= -0.173 lam=     7.9     freq=   532. Q= -0.009 lam=     0.0
  84     freq=   531. Q= -0.022 lam=     0.1     freq=   533. Q= -0.160 lam=     6.8
  85     freq=   555. Q=  0.000 lam=     0.0     freq=   554. Q=  0.002 lam=     0.0
  86     freq=   555. Q=  0.062 lam=     1.1     freq=   554. Q=  0.093 lam=     2.4
  87     freq=   566. Q= -0.000 lam=     0.0     freq=   569. Q= -0.000 lam=     0.0
  88     freq=   568. Q= -0.017 lam=     0.1     freq=   570. Q= -0.021 lam=     0.1
  89     freq=   570. Q=  0.000 lam=     0.0     freq=   572. Q=  0.000 lam=     0.0
  90     freq=   586. Q=  0.000 lam=     0.0     freq=   587. Q=  0.000 lam=     0.0
  91     freq=   589. Q= -0.086 lam=     2.2     freq=   590. Q= -0.072 lam=     1.5
  92     freq=   594. Q= -0.032 lam=     0.3     freq=   593. Q= -0.000 lam=     0.0
  93     freq=   599. Q=  0.000 lam=     0.0     freq=   593. Q=  0.030 lam=     0.3
  94     freq=   600. Q= -0.003 lam=     0.0     freq=   596. Q= -0.035 lam=     0.4
  95     freq=   600. Q= -0.000 lam=     0.0     freq=   600. Q= -0.000 lam=     0.0
  96     freq=   617. Q=  0.094 lam=     2.7     freq=   622. Q=  0.078 lam=     1.9
  97     freq=   640. Q=  0.020 lam=     0.1     freq=   645. Q=  0.027 lam=     0.2
  98     freq=   641. Q= -0.000 lam=     0.0     freq=   650. Q= -0.000 lam=     0.0
  99     freq=   644. Q= -0.020 lam=     0.1     freq=   658. Q= -0.000 lam=     0.0
 100     freq=   647. Q= -0.000 lam=     0.0     freq=   659. Q= -0.001 lam=     0.0
 101     freq=   694. Q=  0.000 lam=     0.0     freq=   697. Q=  0.000 lam=     0.0
 102     freq=   694. Q= -0.000 lam=     0.0     freq=   697. Q= -0.000 lam=     0.0
 103     freq=   695. Q= -0.000 lam=     0.0     freq=   699. Q= -0.000 lam=     0.0
 104     freq=   698. Q=  0.000 lam=     0.0     freq=   702. Q=  0.000 lam=     0.0
 105     freq=   699. Q=  0.076 lam=     2.0     freq=   703. Q=  0.079 lam=     2.2
 106     freq=   717. Q= -0.004 lam=     0.0     freq=   720. Q= -0.012 lam=     0.1
 107     freq=   718. Q=  0.000 lam=     0.0     freq=   720. Q=  0.000 lam=     0.0
 108     freq=   729. Q=  0.077 lam=     2.1     freq=   734. Q=  0.081 lam=     2.4
 109     freq=   737. Q= -0.041 lam=     0.6     freq=   740. Q= -0.045 lam=     0.7
 110     freq=   737. Q= -0.001 lam=     0.0     freq=   740. Q= -0.000 lam=     0.0
 111     freq=   744. Q=  0.001 lam=     0.0     freq=   750. Q=  0.000 lam=     0.0
 112     freq=   744. Q= -0.001 lam=     0.0     freq=   750. Q= -0.001 lam=     0.0
 113     freq=   760. Q=  0.000 lam=     0.0     freq=   762. Q=  0.000 lam=     0.0
 114     freq=   767. Q= -0.015 lam=     0.1     freq=   771. Q= -0.016 lam=     0.1
 115     freq=   781. Q=  0.000 lam=     0.0     freq=   786. Q=  0.000 lam=     0.0
 116     freq=   781. Q= -0.000 lam=     0.0     freq=   787. Q= -0.003 lam=     0.0
 117     freq=   787. Q= -0.007 lam=     0.0     freq=   790. Q= -0.012 lam=     0.1
 118     freq=   787. Q=  0.033 lam=     0.4     freq=   790. Q=  0.044 lam=     0.8
 119     freq=   813. Q= -0.001 lam=     0.0     freq=   828. Q= -0.001 lam=     0.0
 120     freq=   813. Q=  0.000 lam=     0.0     freq=   829. Q=  0.000 lam=     0.0
 121     freq=   816. Q=  0.000 lam=     0.0     freq=   843. Q=  0.103 lam=     4.5
 122     freq=   819. Q= -0.213 lam=    18.6     freq=   843. Q= -0.001 lam=     0.0
 123     freq=   832. Q= -0.000 lam=     0.0     freq=   844. Q= -0.191 lam=    15.3
 124     freq=   832. Q= -0.009 lam=     0.0     freq=   844. Q= -0.000 lam=     0.0
 125     freq=   833. Q= -0.000 lam=     0.0     freq=   853. Q= -0.005 lam=     0.0
 126     freq=   834. Q=  0.043 lam=     0.8     freq=   853. Q=  0.082 lam=     2.9
 127     freq=   836. Q= -0.000 lam=     0.0     freq=   855. Q= -0.203 lam=    17.7
 128     freq=   837. Q= -0.169 lam=    11.9     freq=   856. Q= -0.002 lam=     0.0
 129     freq=   861. Q=  0.008 lam=     0.0     freq=   864. Q=  0.005 lam=     0.0
 130     freq=   870. Q= -0.049 lam=     1.1     freq=   876. Q= -0.013 lam=     0.1
 131     freq=   873. Q=  0.000 lam=     0.0     freq=   879. Q=  0.000 lam=     0.0
 132     freq=   882. Q= -0.000 lam=     0.0     freq=   891. Q= -0.000 lam=     0.0
 133     freq=   889. Q= -0.005 lam=     0.0     freq=   895. Q= -0.000 lam=     0.0
 134     freq=   895. Q= -0.000 lam=     0.0     freq=   895. Q= -0.111 lam=     5.5
 135     freq=   896. Q=  0.136 lam=     8.3     freq=   898. Q=  0.006 lam=     0.0
 136     freq=   933. Q=  0.000 lam=     0.0     freq=   946. Q=  0.000 lam=     0.0
 137     freq=   933. Q=  0.000 lam=     0.0     freq=   951. Q=  0.053 lam=     1.4
 138     freq=   943. Q=  0.000 lam=     0.0     freq=   952. Q=  0.001 lam=     0.0
 139     freq=   948. Q=  0.052 lam=     1.3     freq=   952. Q=  0.001 lam=     0.0
 140     freq=   961. Q=  0.002 lam=     0.0     freq=   964. Q=  0.001 lam=     0.0
 141     freq=   961. Q=  0.000 lam=     0.0     freq=   964. Q=  0.000 lam=     0.0
 142     freq=   992. Q=  0.008 lam=     0.0     freq=   999. Q=  0.001 lam=     0.0
 143     freq=   992. Q=  0.010 lam=     0.0     freq=   999. Q=  0.020 lam=     0.2
 144     freq=  1002. Q=  0.000 lam=     0.0     freq=  1007. Q=  0.000 lam=     0.0
 145     freq=  1002. Q= -0.032 lam=     0.5     freq=  1008. Q= -0.032 lam=     0.5
 146     freq=  1004. Q= -0.000 lam=     0.0     freq=  1008. Q= -0.000 lam=     0.0
 147     freq=  1027. Q=  0.032 lam=     0.5     freq=  1031. Q=  0.000 lam=     0.0
 148     freq=  1028. Q=  0.000 lam=     0.0     freq=  1032. Q=  0.014 lam=     0.1
 149     freq=  1046. Q= -0.162 lam=    13.8     freq=  1049. Q= -0.000 lam=     0.0
 150     freq=  1046. Q=  0.001 lam=     0.0     freq=  1049. Q=  0.162 lam=    13.7
 151     freq=  1074. Q= -0.004 lam=     0.0     freq=  1075. Q= -0.001 lam=     0.0
 152     freq=  1079. Q=  0.000 lam=     0.0     freq=  1079. Q=  0.000 lam=     0.0
 153     freq=  1090. Q= -0.000 lam=     0.0     freq=  1092. Q= -0.000 lam=     0.0
 154     freq=  1090. Q= -0.100 lam=     5.5     freq=  1093. Q= -0.123 lam=     8.2
 155     freq=  1103. Q=  0.002 lam=     0.0     freq=  1104. Q=  0.000 lam=     0.0
 156     freq=  1104. Q=  0.000 lam=     0.0     freq=  1104. Q=  0.007 lam=     0.0
 157     freq=  1106. Q= -0.013 lam=     0.1     freq=  1107. Q= -0.000 lam=     0.0
 158     freq=  1106. Q=  0.000 lam=     0.0     freq=  1108. Q=  0.037 lam=     0.8
 159     freq=  1139. Q=  0.000 lam=     0.0     freq=  1133. Q=  0.002 lam=     0.0
 160     freq=  1139. Q=  0.035 lam=     0.7     freq=  1133. Q=  0.063 lam=     2.2
 161     freq=  1151. Q=  0.000 lam=     0.0     freq=  1154. Q=  0.082 lam=     3.8
 162     freq=  1152. Q=  0.076 lam=     3.4     freq=  1155. Q=  0.000 lam=     0.0
 163     freq=  1156. Q= -0.268 lam=    41.6     freq=  1156. Q= -0.195 lam=    21.9
 164     freq=  1167. Q= -0.000 lam=     0.0     freq=  1170. Q= -0.000 lam=     0.0
 165     freq=  1193. Q=  0.125 lam=     9.4     freq=  1193. Q=  0.000 lam=     0.0
 166     freq=  1194. Q=  0.000 lam=     0.0     freq=  1197. Q=  0.070 lam=     3.0
 167     freq=  1224. Q=  0.200 lam=    24.4     freq=  1225. Q=  0.124 lam=     9.4
 168     freq=  1227. Q=  0.000 lam=     0.0     freq=  1225. Q=  0.000 lam=     0.0
 169     freq=  1232. Q=  0.000 lam=     0.0     freq=  1234. Q=  0.000 lam=     0.0
 170     freq=  1235. Q=  0.009 lam=     0.1     freq=  1237. Q=  0.070 lam=     3.1
 171     freq=  1246. Q= -0.000 lam=     0.0     freq=  1262. Q= -0.001 lam=     0.0
 172     freq=  1253. Q=  0.289 lam=    52.4     freq=  1263. Q=  0.278 lam=    48.8
 173     freq=  1271. Q= -0.126 lam=    10.0     freq=  1270. Q= -0.000 lam=     0.0
 174     freq=  1271. Q=  0.000 lam=     0.0     freq=  1275. Q=  0.080 lam=     4.1
 175     freq=  1289. Q= -0.375 lam=    90.6     freq=  1307. Q= -0.091 lam=     5.4
 176     freq=  1294. Q=  0.000 lam=     0.0     freq=  1308. Q=  0.000 lam=     0.0
 177     freq=  1305. Q=  0.034 lam=     0.7     freq=  1310. Q=  0.000 lam=     0.0
 178     freq=  1308. Q=  0.000 lam=     0.0     freq=  1312. Q=  0.188 lam=    23.2
 179     freq=  1315. Q= -0.000 lam=     0.0     freq=  1320. Q= -0.000 lam=     0.0
 180     freq=  1317. Q= -0.114 lam=     8.6     freq=  1321. Q= -0.278 lam=    50.9
 181     freq=  1318. Q= -0.112 lam=     8.3     freq=  1332. Q= -0.149 lam=    14.7
 182     freq=  1320. Q=  0.000 lam=     0.0     freq=  1332. Q=  0.001 lam=     0.0
 183     freq=  1341. Q= -0.049 lam=     1.6     freq=  1341. Q= -0.000 lam=     0.0
 184     freq=  1341. Q=  0.010 lam=     0.1     freq=  1341. Q=  0.060 lam=     2.4
 185     freq=  1348. Q=  0.009 lam=     0.1     freq=  1350. Q=  0.000 lam=     0.0
 186     freq=  1349. Q=  0.000 lam=     0.0     freq=  1352. Q=  0.170 lam=    19.6
 187     freq=  1360. Q= -0.116 lam=     9.2     freq=  1360. Q= -0.116 lam=     9.2
 188     freq=  1371. Q=  0.000 lam=     0.0     freq=  1363. Q=  0.000 lam=     0.0
 189     freq=  1374. Q=  0.000 lam=     0.0     freq=  1364. Q=  0.000 lam=     0.0
 190     freq=  1374. Q= -0.033 lam=     0.8     freq=  1365. Q= -0.163 lam=    18.1
 191     freq=  1383. Q= -0.000 lam=     0.0     freq=  1384. Q= -0.002 lam=     0.0
 192     freq=  1384. Q=  0.053 lam=     2.0     freq=  1384. Q=  0.087 lam=     5.3
 193     freq=  1386. Q=  0.000 lam=     0.0     freq=  1394. Q=  0.000 lam=     0.0
 194     freq=  1392. Q=  0.257 lam=    46.1     freq=  1395. Q=  0.321 lam=    71.7
 195     freq=  1402. Q=  0.073 lam=     3.8     freq=  1408. Q=  0.000 lam=     0.0
 196     freq=  1404. Q=  0.000 lam=     0.0     freq=  1411. Q=  0.025 lam=     0.4
 197     freq=  1408. Q=  0.013 lam=     0.1     freq=  1411. Q=  0.001 lam=     0.0
 198     freq=  1408. Q= -0.017 lam=     0.2     freq=  1411. Q= -0.011 lam=     0.1
 199     freq=  1409. Q=  0.023 lam=     0.4     freq=  1418. Q=  0.000 lam=     0.0
 200     freq=  1413. Q=  0.000 lam=     0.0     freq=  1423. Q=  0.060 lam=     2.6
 201     freq=  1428. Q= -0.001 lam=     0.0     freq=  1424. Q= -0.000 lam=     0.0
 202     freq=  1428. Q= -0.019 lam=     0.3     freq=  1425. Q= -0.013 lam=     0.1
 203     freq=  1470. Q=  0.074 lam=     4.1     freq=  1468. Q=  0.000 lam=     0.0
 204     freq=  1472. Q= -0.000 lam=     0.0     freq=  1468. Q= -0.155 lam=    17.6
 205     freq=  1475. Q=  0.000 lam=     0.0     freq=  1479. Q=  0.000 lam=     0.0
 206     freq=  1475. Q=  0.049 lam=     1.8     freq=  1479. Q=  0.039 lam=     1.1
 207     freq=  1489. Q=  0.000 lam=     0.0     freq=  1491. Q=  0.000 lam=     0.0
 208     freq=  1496. Q=  0.001 lam=     0.0     freq=  1497. Q=  0.010 lam=     0.1
 209     freq=  1496. Q=  0.016 lam=     0.2     freq=  1497. Q=  0.004 lam=     0.0
 210     freq=  1496. Q= -0.005 lam=     0.0     freq=  1498. Q= -0.039 lam=     1.1
 211     freq=  1498. Q= -0.000 lam=     0.0     freq=  1500. Q= -0.000 lam=     0.0
 212     freq=  1499. Q=  0.000 lam=     0.0     freq=  1500. Q=  0.016 lam=     0.2
 213     freq=  1499. Q=  0.001 lam=     0.0     freq=  1501. Q=  0.000 lam=     0.0
 214     freq=  1505. Q= -0.000 lam=     0.0     freq=  1505. Q= -0.001 lam=     0.0
 215     freq=  1505. Q=  0.003 lam=     0.0     freq=  1505. Q=  0.001 lam=     0.0
 216     freq=  1510. Q=  0.153 lam=    17.7     freq=  1506. Q=  0.000 lam=     0.0
 217     freq=  1513. Q=  0.000 lam=     0.0     freq=  1522. Q=  0.114 lam=     9.9
 218     freq=  1520. Q=  0.000 lam=     0.0     freq=  1527. Q=  0.000 lam=     0.0
 219     freq=  1521. Q=  0.053 lam=     2.1     freq=  1537. Q=  0.086 lam=     5.7
 220     freq=  1533. Q= -0.000 lam=     0.0     freq=  1544. Q= -0.000 lam=     0.0
 221     freq=  1544. Q=  0.000 lam=     0.0     freq=  1553. Q=  0.000 lam=     0.0
 222     freq=  1554. Q=  0.261 lam=    52.8     freq=  1555. Q=  0.332 lam=    85.6
 223     freq=  1563. Q=  0.000 lam=     0.0     freq=  1583. Q=  0.012 lam=     0.1
 224     freq=  1566. Q=  0.202 lam=    31.9     freq=  1599. Q=  0.000 lam=     0.0
 225     freq=  1574. Q=  0.079 lam=     4.9     freq=  1599. Q=  0.083 lam=     5.5
 226     freq=  1584. Q= -0.000 lam=     0.0     freq=  1625. Q= -0.000 lam=     0.0
 227     freq=  1588. Q=  0.201 lam=    32.0     freq=  1625. Q=  0.224 lam=    40.7
 228     freq=  1633. Q= -0.064 lam=     3.3     freq=  1641. Q= -0.105 lam=     9.0
 229     freq=  1734. Q= -0.000 lam=     0.0     freq=  1769. Q= -0.001 lam=     0.0
 230     freq=  1737. Q=  0.156 lam=    21.0     freq=  1770. Q=  0.145 lam=    18.6
 231     freq=  3002. Q=  0.004 lam=     0.0     freq=  3006. Q=  0.003 lam=     0.0
 232     freq=  3002. Q=  0.000 lam=     0.0     freq=  3006. Q=  0.000 lam=     0.0
 233     freq=  3028. Q= -0.000 lam=     0.0     freq=  3032. Q= -0.000 lam=     0.0
 234     freq=  3028. Q= -0.009 lam=     0.1     freq=  3032. Q= -0.009 lam=     0.1
 235     freq=  3035. Q=  0.001 lam=     0.0     freq=  3040. Q=  0.002 lam=     0.0
 236     freq=  3035. Q=  0.009 lam=     0.1     freq=  3040. Q=  0.008 lam=     0.1
 237     freq=  3075. Q= -0.001 lam=     0.0     freq=  3081. Q= -0.001 lam=     0.0
 238     freq=  3075. Q=  0.005 lam=     0.0     freq=  3081. Q=  0.005 lam=     0.0
 239     freq=  3091. Q= -0.000 lam=     0.0     freq=  3097. Q= -0.000 lam=     0.0
 240     freq=  3091. Q= -0.000 lam=     0.0     freq=  3097. Q= -0.000 lam=     0.0
 241     freq=  3102. Q= -0.001 lam=     0.0     freq=  3107. Q= -0.004 lam=     0.0
 242     freq=  3102. Q=  0.008 lam=     0.1     freq=  3107. Q=  0.000 lam=     0.0
 243     freq=  3103. Q= -0.004 lam=     0.0     freq=  3108. Q= -0.002 lam=     0.0
 244     freq=  3103. Q= -0.000 lam=     0.0     freq=  3108. Q= -0.008 lam=     0.1
 245     freq=  3110. Q= -0.000 lam=     0.0     freq=  3113. Q= -0.001 lam=     0.0
 246     freq=  3110. Q=  0.001 lam=     0.0     freq=  3113. Q=  0.002 lam=     0.0
 247     freq=  3134. Q=  0.000 lam=     0.0     freq=  3138. Q=  0.000 lam=     0.0
 248     freq=  3134. Q= -0.000 lam=     0.0     freq=  3138. Q= -0.000 lam=     0.0
 249     freq=  3159. Q= -0.000 lam=     0.0     freq=  3164. Q= -0.000 lam=     0.0
 250     freq=  3159. Q= -0.000 lam=     0.0     freq=  3164. Q= -0.001 lam=     0.0
 251     freq=  3162. Q=  0.000 lam=     0.0     freq=  3168. Q=  0.000 lam=     0.0
 252     freq=  3164. Q= -0.004 lam=     0.0     freq=  3169. Q= -0.003 lam=     0.0
 253     freq=  3183. Q= -0.000 lam=     0.0     freq=  3191. Q= -0.000 lam=     0.0
 254     freq=  3183. Q= -0.004 lam=     0.0     freq=  3191. Q= -0.003 lam=     0.0
 255     freq=  3200. Q= -0.000 lam=     0.0     freq=  3205. Q= -0.000 lam=     0.0
 256     freq=  3200. Q=  0.003 lam=     0.0     freq=  3205. Q=  0.001 lam=     0.0
 257     freq=  3209. Q=  0.000 lam=     0.0     freq=  3212. Q=  0.000 lam=     0.0
 258     freq=  3209. Q= -0.002 lam=     0.0     freq=  3212. Q= -0.001 lam=     0.0
 nber of displ modes=         252         251

 total reorg energy (cm**-1, kcal/mol)=      713.      752.      2.04      2.15
 Nber of molecules processed=           2
