 Enter ifcurve (0=recti, 1=orth curvi, 2=apprx curvi, -1 = skip
 And atom ordering flag, 0= never changes, 1= use the first order thenceforth,
  2= deduce it (does read on fail), 3= always read it
 Reading file: 
 ./benz-b-imbal_3_C0S0.log                                                      
                                          
  Entering Gaussian System, Link 0=g16                                          
  
 Gaussian format, type: g94, g98, g03= F F F
  #P Geom=AllCheck Guess=TCheck SCRF=Check GenChk RB3LYP/6-311G(d,p) Fre    
 energy type= B3LYP   
 Original G94 input coords:
  6 -1.408128 -0.069838  0.485714
  6 -0.951106  0.915642 -0.386772
  6  0.402713  1.005465 -0.696105
  6  1.330372  0.112093 -0.140352
  6  2.774979  0.208139 -0.470550
  6  3.202893  0.498964 -1.773617
  6  4.556194  0.589011 -2.082779
  6  5.533393  0.391908 -1.100893
  6  6.989291  0.488725 -1.433605
  6  7.666411  1.717116 -1.275165
  6  7.013127  2.901126 -0.805526
  6  7.694750  4.077504 -0.661771
  6  9.079737  4.158348 -0.977250
  6  9.743645  3.054527 -1.430701
  6  9.071150  1.804709 -1.596596
  6  9.740051  0.671497 -2.061945
  6  9.084103 -0.549739 -2.224643
  6  9.770025 -1.709350 -2.700685
  6  9.120023 -2.900511 -2.853825
  6  7.736826 -3.003620 -2.536982
  6  7.042405 -1.918614 -2.079082
  6  7.679850 -0.648816 -1.904432
  6  5.110535  0.101521  0.200925
  6  3.757291  0.011169  0.510238
  6  0.855045 -0.874479  0.736160
  6 -0.498689 -0.964541  1.045801
  1 -2.462725 -0.139891  0.726819
  1 -1.649131  1.622432 -0.821670
  1  0.749942  1.791959 -1.356533
  1  2.468323  0.632106 -2.559796
  1  4.862082  0.806965 -3.100096
  1  5.959369  2.853222 -0.563014
  1  7.177613  4.960929 -0.304240
  1  9.602676  5.100333 -0.856189
  1 10.799571  3.106956 -1.674921
  1 10.796333  0.741658 -2.303218
  1 10.825027 -1.621553 -2.938669
  1  9.653106 -3.772367 -3.215971
  1  7.231640 -3.955010 -2.660843
  1  5.990648 -2.010541 -1.840619
  1  5.851123 -0.046740  0.979097
  1  3.458323 -0.190896  1.532583
  1  1.549678 -1.591759  1.158418
  1 -0.844773 -1.740677  1.719422
 nber atoms=          44
  SCF Done:  E(RB3LYP) =  -1001.86788914     A.U. after    1 cycles             
  
          23          40 "  -1001.86788914"
After scan for Atom:   Atom  AN      X      Y      Z        X      Y      Z        X      Y      Z   
After scan for Atom:   Atom  AN      X      Y      Z        X      Y      Z        X      Y      Z   
After scan for Atom:   Atom  AN      X      Y      Z        X      Y      Z        X      Y      Z   
After scan for Atom:   Atom  AN      X      Y      Z        X      Y      Z        X      Y      Z   
After scan for Atom:   Atom  AN      X      Y      Z        X      Y      Z        X      Y      Z   
After scan for Atom:   Atom  AN      X      Y      Z        X      Y      Z        X      Y      Z   
After scan for Atom:   Atom  AN      X      Y      Z        X      Y      Z        X      Y      Z   
After scan for Atom:   Atom  AN      X      Y      Z        X      Y      Z        X      Y      Z   
After scan for Atom:   Atom  AN      X      Y      Z        X      Y      Z        X      Y      Z   
After scan for Atom:   Atom  AN      X      Y      Z        X      Y      Z        X      Y      Z   
After scan for Atom:   Atom  AN      X      Y      Z        X      Y      Z        X      Y      Z   
After scan for Atom:   Atom  AN      X      Y      Z        X      Y      Z        X      Y      Z   
After scan for Atom:   Atom  AN      X      Y      Z        X      Y      Z        X      Y      Z   
After scan for Atom:   Atom  AN      X      Y      Z        X      Y      Z        X      Y      Z   
After scan for Atom:   Atom  AN      X      Y      Z        X      Y      Z        X      Y      Z   
After scan for Atom:   Atom  AN      X      Y      Z        X      Y      Z        X      Y      Z   
After scan for Atom:   Atom  AN      X      Y      Z        X      Y      Z        X      Y      Z   
After scan for Atom:   Atom  AN      X      Y      Z        X      Y      Z        X      Y      Z   
After scan for Atom:   Atom  AN      X      Y      Z        X      Y      Z        X      Y      Z   
After scan for Atom:   Atom  AN      X      Y      Z        X      Y      Z        X      Y      Z   
After scan for Atom:   Atom  AN      X      Y      Z        X      Y      Z        X      Y      Z   
After scan for Atom:   Atom  AN      X      Y      Z        X      Y      Z        X      Y      Z   
After scan for Atom:   Atom  AN      X      Y      Z        X      Y      Z        X      Y      Z   
After scan for Atom:   Atom  AN      X      Y      Z        X      Y      Z        X      Y      Z   
After scan for Atom:   Atom  AN      X      Y      Z        X      Y      Z        X      Y      Z   
After scan for Atom:   Atom  AN      X      Y      Z        X      Y      Z        X      Y      Z   
After scan for Atom:   Atom  AN      X      Y      Z        X      Y      Z        X      Y      Z   
After scan for Atom:   Atom  AN      X      Y      Z        X      Y      Z        X      Y      Z   
After scan for Atom:   Atom  AN      X      Y      Z        X      Y      Z        X      Y      Z   
After scan for Atom:   Atom  AN      X      Y      Z        X      Y      Z        X      Y      Z   
After scan for Atom:   Atom  AN      X      Y      Z        X      Y      Z        X      Y      Z   
After scan for Atom:   Atom  AN      X      Y      Z        X      Y      Z        X      Y      Z   
After scan for Atom:   Atom  AN      X      Y      Z        X      Y      Z        X      Y      Z   
After scan for Atom:   Atom  AN      X      Y      Z        X      Y      Z        X      Y      Z   
After scan for Atom:   Atom  AN      X      Y      Z        X      Y      Z        X      Y      Z   
After scan for Atom:   Atom  AN      X      Y      Z        X      Y      Z        X      Y      Z   
After scan for Atom:   Atom  AN      X      Y      Z        X      Y      Z        X      Y      Z   
After scan for Atom:   Atom  AN      X      Y      Z        X      Y      Z        X      Y      Z   
After scan for Atom:   Atom  AN      X      Y      Z        X      Y      Z        X      Y      Z   
After scan for Atom:   Atom  AN      X      Y      Z        X      Y      Z        X      Y      Z   
After scan for Atom:   Atom  AN      X      Y      Z        X      Y      Z        X      Y      Z   
After scan for Atom:   Atom  AN      X      Y      Z        X      Y      Z        X      Y      Z   
 g94    frequencies=
     0.0    0.0    0.0    0.0    0.0    0.0    9.2   25.5   46.7   65.8
    80.7   90.8  114.9  119.0  153.2  207.4  230.7  234.2  269.2  319.3
   346.6  387.9  402.0  410.7  413.7  420.3  426.7  440.0  483.6  505.2
   515.5  553.9  566.9  598.2  627.1  629.1  635.0  638.1  655.3  670.1
   690.7  714.6  749.7  754.6  756.5  759.9  770.9  782.4  806.8  844.1
   845.6  856.2  857.4  862.2  868.0  882.0  902.7  933.0  944.8  949.4
   971.7  974.3  979.8  981.6  984.6  997.5  998.2 1002.2 1015.1 1024.6
  1036.8 1037.7 1043.1 1062.6 1103.7 1128.3 1133.5 1164.8 1167.6 1182.6
  1191.1 1202.7 1203.9 1208.6 1215.8 1248.8 1287.8 1287.8 1302.6 1310.6
  1313.7 1336.3 1340.8 1356.0 1379.9 1402.1 1414.2 1426.9 1438.6 1476.8
  1477.9 1482.9 1516.9 1522.9 1548.3 1557.9 1586.3 1596.6 1615.1 1620.8
  1644.0 1650.2 1659.2 1669.6 3154.3 3157.8 3159.1 3159.2 3164.3 3165.6
  3167.4 3168.5 3168.8 3175.5 3180.0 3182.8 3183.2 3183.4 3184.1 3190.0
  3198.7 3199.3
 g94    symmetries=
                                                 A      A      A      A
       A      A      A      A      A      A      A      A      A      A
       A      A      A      A      A      A      A      A      A      A
       A      A      A      A      A      A      A      A      A      A
       A      A      A      A      A      A      A      A      A      A
       A      A      A      A      A      A      A      A      A      A
       A      A      A      A      A      A      A      A      A      A
       A      A      A      A      A      A      A      A      A      A
       A      A      A      A      A      A      A      A      A      A
       A      A      A      A      A      A      A      A      A      A
       A      A      A      A      A      A      A      A      A      A
       A      A      A      A      A      A      A      A      A      A
       A      A      A      A      A      A      A      A      A      A
       A      A
 atomic masses:
 12.0000 12.0000 12.0000 12.0000 12.0000 12.0000 12.0000 12.0000 12.0000 12.0000
 12.0000 12.0000 12.0000 12.0000 12.0000 12.0000 12.0000 12.0000 12.0000 12.0000
 12.0000 12.0000 12.0000 12.0000 12.0000 12.0000  1.0078  1.0078  1.0078  1.0078
  1.0078  1.0078  1.0078  1.0078  1.0078  1.0078  1.0078  1.0078  1.0078  1.0078
  1.0078  1.0078  1.0078  1.0078
 looking for force constants in 
 ./benz-b-imbal_3_C0S0.fchk                                                     
  
 Cartesian Force Constants                  R   N=        8778                  
  
 n3=         132        8778
 g94-fc frequencies=
    -2.5   -0.0   -0.0    0.0    1.9    3.5    9.2   25.5   46.8   65.8
    80.7   90.8  114.9  119.0  153.2  207.4  230.7  234.2  269.2  319.3
   346.6  387.9  402.0  410.7  413.7  420.3  426.7  440.0  483.6  505.2
   515.5  554.0  566.9  598.2  627.1  629.1  635.0  638.1  655.3  670.1
   690.7  714.6  749.7  754.6  756.5  759.9  770.9  782.4  806.8  844.1
   845.7  856.2  857.4  862.2  868.0  882.0  902.7  933.0  944.9  949.4
   971.7  974.4  979.8  981.6  984.7  997.5  998.2 1002.2 1015.2 1024.6
  1036.8 1037.7 1043.1 1062.6 1103.7 1128.4 1133.5 1164.9 1167.6 1182.6
  1191.1 1202.7 1204.0 1208.6 1215.8 1248.8 1287.8 1287.9 1302.6 1310.7
  1313.8 1336.4 1340.8 1356.0 1380.0 1402.2 1414.2 1426.9 1438.6 1476.9
  1477.9 1483.0 1517.0 1522.9 1548.4 1558.0 1586.3 1596.6 1615.2 1620.8
  1644.1 1650.3 1659.2 1669.6 3154.4 3157.9 3159.2 3159.3 3164.3 3165.6
  3167.4 3168.6 3168.9 3175.5 3180.1 3182.8 3183.2 3183.5 3184.1 3190.0
  3198.8 3199.4
 at 99999: n3=         132
 symm operator            1 :  F  nop=           0
 symm operator            2 :  F  nop=           0
 symm operator            3 :  F  nop=           0
 symm operator            4 :  F  nop=           0
 symm operator            5 :  F  nop=           0
 symm operator            6 :  F  nop=           0
 symm operator            7 :  F  nop=           0
 The point group of the molecule is  C1
 Symmetry rotation matrix:
   1.00000   0.00000   0.00000
   0.00000   1.00000   0.00000
   0.00000   0.00000   1.00000

 Projecting out zero-frequency components
 generating redundant internal coords
         300        3600          44
 search for int coords
   1 str   2   1   1.393
   2 str   3   2   1.392
   3 str   4   3   1.403
   4 str   5   4   1.485
   5 str   6   5   1.402
   6 str   7   6   1.391
   7 str   8   7   1.399
   8 str   9   8   1.497
   9 str  10   9   1.412
  10 str  11  10   1.432
  11 str  12  11   1.367
  12 str  13  12   1.423
  13 str  14  13   1.366
  14 str  15  10   1.444
  15 str  15  14   1.429
  16 str  16  15   1.396
  17 str  17  16   1.396
  18 str  18  17   1.429
  19 str  19  18   1.366
  20 str  20  19   1.423
  21 str  21  20   1.367
  22 str  22   9   1.412
  23 str  22  17   1.444
  24 str  22  21   1.432
  25 str  23   8   1.399
  26 str  24   5   1.402
  27 str  24  23   1.391
  28 str  25   4   1.403
  29 str  26   1   1.393
  30 str  26  25   1.392
  31 str  27   1   1.084
  32 str  28   2   1.084
  33 str  29   3   1.084
  34 str  30   6   1.084
  35 str  31   7   1.084
  36 str  32  11   1.082
  37 str  33  12   1.084
  38 str  34  13   1.084
  39 str  35  14   1.085
  40 str  36  16   1.086
  41 str  37  18   1.085
  42 str  38  19   1.084
  43 str  39  20   1.084
  44 str  40  21   1.082
  45 str  41  23   1.084
  46 str  42  24   1.084
  47 str  43  25   1.084
  48 str  44  26   1.084
 nber stretches=          48
  49 ben   1   2   3
  50 prop tor   1   2   3   4
  51 prop tor   1   2   3  29
  52 ben   1   2  28
  53 ben   1  26  25
  54 ben   1  26  44
  55 ben   2   1  26
  56 prop tor   2   1  26  25
  57 prop tor   2   1  26  44
  58 ben   2   1  27
  59 ben   2   3   4
  60 prop tor   2   3   4   5
  61 prop tor   2   3   4  25
  62 ben   2   3  29
  63 ben   3   2  28
  64 ben   3   4   5
  65 prop tor   3   4   5   6
  66 prop tor   3   4   5  24
  67 ben   3   4  25
  68 prop tor   3   4  25  26
  69 prop tor   3   4  25  43
  70 ben   4   3  29
  71 ben   4   5   6
  72 prop tor   4   5   6   7
  73 prop tor   4   5   6  30
  74 ben   4   5  24
  75 prop tor   4   5  24  23
  76 prop tor   4   5  24  42
  77 ben   4  25  26
  78 prop tor   4  25  26   1
  79 prop tor   4  25  26  44
  80 ben   4  25  43
  81 ben   5   4  25
  82 prop tor   5   4  25  26
  83 prop tor   5   4  25  43
  84 ben   5   6   7
  85 prop tor   5   6   7   8
  86 prop tor   5   6   7  31
  87 ben   5   6  30
  88 ben   5  24  23
  89 ben   5  24  42
  90 ben   6   5  24
  91 prop tor   6   5  24  23
  92 prop tor   6   5  24  42
  93 ben   6   7   8
  94 prop tor   6   7   8   9
  95 prop tor   6   7   8  23
  96 ben   6   7  31
  97 ben   7   6  30
  98 ben   7   8   9
  99 prop tor   7   8   9  10
 100 prop tor   7   8   9  22
 101 ben   7   8  23
 102 prop tor   7   8  23  24
 103 prop tor   7   8  23  41
 104 ben   8   7  31
 105 ben   8   9  10
 106 prop tor   8   9  10  11
 107 prop tor   8   9  10  15
 108 ben   8   9  22
 109 prop tor   8   9  22  17
 110 prop tor   8   9  22  21
 111 ben   8  23  24
 112 prop tor   8  23  24   5
 113 prop tor   8  23  24  42
 114 ben   8  23  41
 115 ben   9   8  23
 116 prop tor   9   8  23  24
 117 prop tor   9   8  23  41
 118 ben   9  10  11
 119 prop tor   9  10  11  12
 120 prop tor   9  10  11  32
 121 ben   9  10  15
 122 prop tor   9  10  15  14
 123 prop tor   9  10  15  16
 124 ben   9  22  17
 125 ben   9  22  21
 126 ben  10   9  22
 127 prop tor  10   9  22  17
 128 prop tor  10   9  22  21
 129 ben  10  11  12
 130 prop tor  10  11  12  13
 131 prop tor  10  11  12  33
 132 ben  10  11  32
 133 ben  10  15  14
 134 ben  10  15  16
 135 prop tor  10  15  16  17
 136 prop tor  10  15  16  36
 137 ben  11  10  15
 138 prop tor  11  10  15  14
 139 prop tor  11  10  15  16
 140 ben  11  12  13
 141 prop tor  11  12  13  14
 142 prop tor  11  12  13  34
 143 ben  11  12  33
 144 ben  12  11  32
 145 ben  12  13  14
 146 prop tor  12  13  14  15
 147 prop tor  12  13  14  35
 148 ben  12  13  34
 149 ben  13  12  33
 150 ben  13  14  15
 151 prop tor  13  14  15  10
 152 prop tor  13  14  15  16
 153 ben  13  14  35
 154 ben  14  13  34
 155 ben  14  15  16
 156 prop tor  14  15  16  17
 157 prop tor  14  15  16  36
 158 prop tor  15  10  11  12
 159 prop tor  15  10  11  32
 160 ben  15  14  35
 161 ben  15  16  17
 162 prop tor  15  16  17  18
 163 prop tor  15  16  17  22
 164 ben  15  16  36
 165 ben  16  17  18
 166 prop tor  16  17  18  19
 167 prop tor  16  17  18  37
 168 ben  16  17  22
 169 prop tor  16  17  22   9
 170 prop tor  16  17  22  21
 171 ben  17  16  36
 172 ben  17  18  19
 173 prop tor  17  18  19  20
 174 prop tor  17  18  19  38
 175 ben  17  18  37
 176 ben  17  22  21
 177 ben  18  17  22
 178 prop tor  18  17  22   9
 179 prop tor  18  17  22  21
 180 ben  18  19  20
 181 prop tor  18  19  20  21
 182 prop tor  18  19  20  39
 183 ben  18  19  38
 184 ben  19  18  37
 185 ben  19  20  21
 186 prop tor  19  20  21  22
 187 prop tor  19  20  21  40
 188 ben  19  20  39
 189 ben  20  19  38
 190 ben  20  21  22
 191 prop tor  20  21  22   9
 192 prop tor  20  21  22  17
 193 ben  20  21  40
 194 ben  21  20  39
 195 prop tor  22   9  10  11
 196 prop tor  22   9  10  15
 197 prop tor  22  17  18  19
 198 prop tor  22  17  18  37
 199 ben  22  21  40
 200 prop tor  23   8   9  10
 201 prop tor  23   8   9  22
 202 ben  23  24  42
 203 prop tor  24   5   6   7
 204 prop tor  24   5   6  30
 205 ben  24  23  41
 206 prop tor  25   4   5   6
 207 prop tor  25   4   5  24
 208 ben  25  26  44
 209 prop tor  26   1   2   3
 210 prop tor  26   1   2  28
 211 ben  26   1  27
 212 ben  26  25  43
 213 prop tor  27   1   2   3
 214 prop tor  27   1   2  28
 215 prop tor  27   1  26  25
 216 prop tor  27   1  26  44
 217 prop tor  28   2   3   4
 218 prop tor  28   2   3  29
 219 prop tor  29   3   4   5
 220 prop tor  29   3   4  25
 221 prop tor  30   6   7   8
 222 prop tor  30   6   7  31
 223 prop tor  31   7   8   9
 224 prop tor  31   7   8  23
 225 prop tor  32  11  12  13
 226 prop tor  32  11  12  33
 227 prop tor  33  12  13  14
 228 prop tor  33  12  13  34
 229 prop tor  34  13  14  15
 230 prop tor  34  13  14  35
 231 prop tor  35  14  15  10
 232 prop tor  35  14  15  16
 233 prop tor  36  16  17  18
 234 prop tor  36  16  17  22
 235 prop tor  37  18  19  20
 236 prop tor  37  18  19  38
 237 prop tor  38  19  20  21
 238 prop tor  38  19  20  39
 239 prop tor  39  20  21  22
 240 prop tor  39  20  21  40
 241 prop tor  40  21  22   9
 242 prop tor  40  21  22  17
 243 prop tor  41  23  24   5
 244 prop tor  41  23  24  42
 245 prop tor  43  25  26   1
 246 prop tor  43  25  26  44
 nber bend=              78
 nber lin bend=           0
 nber prop tor=         120
 nber impr tor=           0
 nber tot redund int=         246
 Eigenvalues of G in red int coords
    Gval -0.00000000 -0.00000000 -0.00000000 -0.00000000 -0.00000000 -0.00000000 -0.00000000 -0.00000000
    Gval -0.00000000 -0.00000000 -0.00000000 -0.00000000 -0.00000000 -0.00000000 -0.00000000 -0.00000000
    Gval -0.00000000 -0.00000000 -0.00000000 -0.00000000 -0.00000000 -0.00000000 -0.00000000 -0.00000000
    Gval -0.00000000 -0.00000000 -0.00000000 -0.00000000 -0.00000000 -0.00000000 -0.00000000 -0.00000000
    Gval -0.00000000 -0.00000000 -0.00000000 -0.00000000 -0.00000000 -0.00000000 -0.00000000 -0.00000000
    Gval -0.00000000 -0.00000000 -0.00000000 -0.00000000 -0.00000000 -0.00000000 -0.00000000 -0.00000000
    Gval -0.00000000 -0.00000000 -0.00000000 -0.00000000 -0.00000000 -0.00000000 -0.00000000 -0.00000000
    Gval -0.00000000  0.00000000  0.00000000  0.00000000  0.00000000  0.00000000  0.00000000  0.00000000
    Gval  0.00000000  0.00000000  0.00000000  0.00000000  0.00000000  0.00000000  0.00000000  0.00000000
    Gval  0.00000000  0.00000000  0.00000000  0.00000000  0.00000000  0.00000000  0.00000000  0.00000000
    Gval  0.00000000  0.00000000  0.00000000  0.00000000  0.00000000  0.00000000  0.00000000  0.00000000
    Gval  0.00000000  0.00000000  0.00000000  0.00000000  0.00000000  0.00000000  0.00000000  0.00000000
    Gval  0.00000000  0.00000000  0.00000000  0.00000000  0.00000000  0.00000000  0.00000000  0.00000000
    Gval  0.00000000  0.00000000  0.00000000  0.00000000  0.00000000  0.00000000  0.00000000  0.00000000
    Gval  0.00000000  0.00000000  0.00000000  0.00000000  0.00000000  0.00000000  0.00000000  0.00000000
    Gval  0.00000085  0.00000149  0.00000211  0.00000672  0.00000822  0.00000914  0.00000977  0.00001154
    Gval  0.00001451  0.00002441  0.00002802  0.00002947  0.00003726  0.00004290  0.00004350  0.00004655
    Gval  0.00004972  0.00005170  0.00005398  0.00005692  0.00005890  0.00005931  0.00006298  0.00006649
    Gval  0.00007160  0.00007605  0.00007628  0.00008778  0.00009361  0.00010045  0.00010299  0.00011050
    Gval  0.00011808  0.00012126  0.00012183  0.00012488  0.00012863  0.00014693  0.00015913  0.00017607
    Gval  0.00020959  0.00021598  0.00023613  0.00024881  0.00025943  0.00026537  0.00028878  0.00029615
    Gval  0.00031800  0.00033135  0.00036240  0.00036751  0.00038010  0.00038663  0.00039573  0.00040786
    Gval  0.00041735  0.00046003  0.00050349  0.00052101  0.00053217  0.00058102  0.00059306  0.00059314
    Gval  0.00059315  0.00059354  0.00059699  0.00059708  0.00059743  0.00060034  0.00060445  0.00061392
    Gval  0.00061754  0.00062336  0.00063567  0.00063623  0.00065005  0.00065428  0.00065795  0.00066095
    Gval  0.00075005  0.00077589  0.00084205  0.00097940  0.00098938  0.00104078  0.00105136  0.00105305
    Gval  0.00107336  0.00110620  0.00110911  0.00111456  0.00111626  0.00112327  0.00113735  0.00114936
    Gval  0.00116231  0.00116240  0.00116809  0.00117003  0.00117087  0.00117088  0.00117231  0.00124208
    Gval  0.00143019  0.00163174  0.00177442  0.00179308  0.00179366  0.00187069  0.00220651  0.00233137
    Gval  0.00234584  0.00246070  0.00264994  0.00267490  0.00311796  0.00312053  0.00350714  0.00356879
    Gval  0.00361735  0.00371862  0.00373457  0.00400194  0.00400928  0.00406740
  8.486298817296198E-007  8.486298817296198E-007
  1.492178397553315E-006  8.486298817296198E-007
  2.107370238721813E-006  8.486298817296198E-007
  6.717541372918285E-006  8.486298817296198E-007
  8.219483273810348E-006  8.486298817296198E-007
  9.141983319799715E-006  8.486298817296198E-007
  9.769336959455082E-006  8.486298817296198E-007
  1.154435890436084E-005  8.486298817296198E-007
  1.450725113018389E-005  8.486298817296198E-007
  2.441164278074718E-005  8.486298817296198E-007
  2.802074420519598E-005  8.486298817296198E-007
  2.946665384914936E-005  8.486298817296198E-007
  3.725761612731673E-005  8.486298817296198E-007
  4.290140651863152E-005  8.486298817296198E-007
  4.350194690929909E-005  8.486298817296198E-007
  4.654795000468101E-005  8.486298817296198E-007
  4.972033442933528E-005  8.486298817296198E-007
  5.170342773354689E-005  8.486298817296198E-007
  5.397548565077500E-005  8.486298817296198E-007
  5.691785502505749E-005  8.486298817296198E-007
  5.890466565009643E-005  8.486298817296198E-007
  5.931049725812569E-005  8.486298817296198E-007
  6.298472825797115E-005  8.486298817296198E-007
  6.649010724803186E-005  8.486298817296198E-007
  7.160018230696068E-005  8.486298817296198E-007
  7.604915452108210E-005  8.486298817296198E-007
  7.628085065542976E-005  8.486298817296198E-007
  8.778344246003855E-005  8.486298817296198E-007
  9.360825309041777E-005  8.486298817296198E-007
  1.004513501337930E-004  8.486298817296198E-007
  1.029898272210822E-004  8.486298817296198E-007
  1.104974660289939E-004  8.486298817296198E-007
  1.180810289672494E-004  8.486298817296198E-007
  1.212617448452809E-004  8.486298817296198E-007
  1.218303261803932E-004  8.486298817296198E-007
  1.248783597355756E-004  8.486298817296198E-007
  1.286334230739418E-004  8.486298817296198E-007
  1.469255044681405E-004  8.486298817296198E-007
  1.591311144493270E-004  8.486298817296198E-007
  1.760738791716189E-004  8.486298817296198E-007
  2.095907880252933E-004  8.486298817296198E-007
  2.159809730605133E-004  8.486298817296198E-007
  2.361320845682195E-004  8.486298817296198E-007
  2.488110726497180E-004  8.486298817296198E-007
  2.594306333065928E-004  8.486298817296198E-007
  2.653729156490014E-004  8.486298817296198E-007
  2.887812160825874E-004  8.486298817296198E-007
  2.961540951878577E-004  8.486298817296198E-007
  3.179998380477121E-004  8.486298817296198E-007
  3.313515537690302E-004  8.486298817296198E-007
  3.624000998431946E-004  8.486298817296198E-007
  3.675121770031243E-004  8.486298817296198E-007
  3.800999642553730E-004  8.486298817296198E-007
  3.866267034654334E-004  8.486298817296198E-007
  3.957277369706010E-004  8.486298817296198E-007
  4.078607047452647E-004  8.486298817296198E-007
  4.173469614397617E-004  8.486298817296198E-007
  4.600283234604238E-004  8.486298817296198E-007
  5.034872573654997E-004  8.486298817296198E-007
  5.210071532030121E-004  8.486298817296198E-007
  5.321697239908353E-004  8.486298817296198E-007
  5.810177977908223E-004  8.486298817296198E-007
  5.930622552343707E-004  8.486298817296198E-007
  5.931443774299830E-004  8.486298817296198E-007
  5.931504659241168E-004  8.486298817296198E-007
  5.935441664562688E-004  8.486298817296198E-007
  5.969912506179296E-004  8.486298817296198E-007
  5.970843882303989E-004  8.486298817296198E-007
  5.974318768072842E-004  8.486298817296198E-007
  6.003359579204108E-004  8.486298817296198E-007
  6.044543293919896E-004  8.486298817296198E-007
  6.139176825830563E-004  8.486298817296198E-007
  6.175401435148977E-004  8.486298817296198E-007
  6.233646806201124E-004  8.486298817296198E-007
  6.356676486339905E-004  8.486298817296198E-007
  6.362257425749734E-004  8.486298817296198E-007
  6.500466272888172E-004  8.486298817296198E-007
  6.542761883027232E-004  8.486298817296198E-007
  6.579486466315881E-004  8.486298817296198E-007
  6.609534936890031E-004  8.486298817296198E-007
  7.500520593013286E-004  8.486298817296198E-007
  7.758893887817793E-004  8.486298817296198E-007
  8.420527616538141E-004  8.486298817296198E-007
  9.794036475428152E-004  8.486298817296198E-007
  9.893837542762597E-004  8.486298817296198E-007
  1.040777164323294E-003  8.486298817296198E-007
  1.051357086653839E-003  8.486298817296198E-007
  1.053049816981037E-003  8.486298817296198E-007
  1.073358975060838E-003  8.486298817296198E-007
  1.106195734630502E-003  8.486298817296198E-007
  1.109111816779605E-003  8.486298817296198E-007
  1.114556038568168E-003  8.486298817296198E-007
  1.116258068618451E-003  8.486298817296198E-007
  1.123272869421553E-003  8.486298817296198E-007
  1.137347500845155E-003  8.486298817296198E-007
  1.149362612152979E-003  8.486298817296198E-007
  1.162309605190016E-003  8.486298817296198E-007
  1.162399046757362E-003  8.486298817296198E-007
  1.168088306472195E-003  8.486298817296198E-007
  1.170030134733413E-003  8.486298817296198E-007
  1.170870056704022E-003  8.486298817296198E-007
  1.170876872437247E-003  8.486298817296198E-007
  1.172313245887313E-003  8.486298817296198E-007
  1.242081744823709E-003  8.486298817296198E-007
  1.430186261256860E-003  8.486298817296198E-007
  1.631739052213281E-003  8.486298817296198E-007
  1.774424119876700E-003  8.486298817296198E-007
  1.793081353443921E-003  8.486298817296198E-007
  1.793660044317684E-003  8.486298817296198E-007
  1.870686900498505E-003  8.486298817296198E-007
  2.206510580967925E-003  8.486298817296198E-007
  2.331373194896850E-003  8.486298817296198E-007
  2.345836085879256E-003  8.486298817296198E-007
  2.460700830657116E-003  8.486298817296198E-007
  2.649944823922319E-003  8.486298817296198E-007
  2.674900118056422E-003  8.486298817296198E-007
  3.117960609635180E-003  8.486298817296198E-007
  3.120529621823799E-003  8.486298817296198E-007
  3.507143356343961E-003  8.486298817296198E-007
  3.568789223531657E-003  8.486298817296198E-007
  3.617350445700049E-003  8.486298817296198E-007
  3.718617209825627E-003  8.486298817296198E-007
  3.734566270723175E-003  8.486298817296198E-007
  4.001943496723966E-003  8.486298817296198E-007
  4.009278327847159E-003  8.486298817296198E-007
  4.067398141669789E-003  8.486298817296198E-007
 cut=1d-8, nber non-redundant internal coords=         126
 Check on Eigenvals of non-red overlap matrix:
  0.00000085  0.00000149  0.00000211  0.00000672  0.00000822  0.00000914  0.00000977  0.00001154
  0.00001451  0.00002441  0.00002802  0.00002947  0.00003726  0.00004290  0.00004350  0.00004655
  0.00004972  0.00005170  0.00005398  0.00005692  0.00005890  0.00005931  0.00006298  0.00006649
  0.00007160  0.00007605  0.00007628  0.00008778  0.00009361  0.00010045  0.00010299  0.00011050
  0.00011808  0.00012126  0.00012183  0.00012488  0.00012863  0.00014693  0.00015913  0.00017607
  0.00020959  0.00021598  0.00023613  0.00024881  0.00025943  0.00026537  0.00028878  0.00029615
  0.00031800  0.00033135  0.00036240  0.00036751  0.00038010  0.00038663  0.00039573  0.00040786
  0.00041735  0.00046003  0.00050349  0.00052101  0.00053217  0.00058102  0.00059306  0.00059314
  0.00059315  0.00059354  0.00059699  0.00059708  0.00059743  0.00060034  0.00060445  0.00061392
  0.00061754  0.00062336  0.00063567  0.00063623  0.00065005  0.00065428  0.00065795  0.00066095
  0.00075005  0.00077589  0.00084205  0.00097940  0.00098938  0.00104078  0.00105136  0.00105305
  0.00107336  0.00110620  0.00110911  0.00111456  0.00111626  0.00112327  0.00113735  0.00114936
  0.00116231  0.00116240  0.00116809  0.00117003  0.00117087  0.00117088  0.00117231  0.00124208
  0.00143019  0.00163174  0.00177442  0.00179308  0.00179366  0.00187069  0.00220651  0.00233137
  0.00234584  0.00246070  0.00264994  0.00267490  0.00311796  0.00312053  0.00350714  0.00356879
  0.00361735  0.00371862  0.00373457  0.00400194  0.00400928  0.00406740
 Checking for correct frequencies
 recalc frequencies=
    -0.0   -0.0   -0.0    0.0    0.0    0.0    9.2   25.5   46.7   65.8
    80.7   90.8  114.9  119.0  153.2  207.4  230.7  234.2  269.2  319.3
   346.6  387.9  402.0  410.7  413.7  420.3  426.7  440.0  483.6  505.2
   515.5  554.0  566.9  598.2  627.1  629.1  635.0  638.1  655.3  670.1
   690.7  714.6  749.7  754.6  756.5  759.9  770.9  782.4  806.8  844.1
   845.7  856.2  857.4  862.2  868.0  882.0  902.7  933.0  944.9  949.4
   971.7  974.4  979.8  981.6  984.7  997.5  998.2 1002.2 1015.2 1024.6
  1036.8 1037.7 1043.1 1062.6 1103.7 1128.4 1133.5 1164.9 1167.6 1182.6
  1191.1 1202.7 1204.0 1208.6 1215.8 1248.8 1287.8 1287.9 1302.6 1310.7
  1313.8 1336.4 1340.8 1356.0 1380.0 1402.2 1414.2 1426.9 1438.6 1476.9
  1477.9 1483.0 1517.0 1522.9 1548.4 1558.0 1586.3 1596.6 1615.2 1620.8
  1644.1 1650.3 1659.2 1669.6 3154.4 3157.9 3159.2 3159.3 3164.3 3165.6
  3167.4 3168.6 3168.9 3175.5 3180.1 3182.8 3183.2 3183.5 3184.1 3190.0
  3198.8 3199.4
 recalc symmetries=
                                                                       
                                                                       
                                                                       
                                                                       
                                                                       
                                                                       
                                                                       
                                                                       
                                                                       
                                                                       
                                                                       
                                                                       
                                                                       
               
 recalc freqs check OK
 Zero-point lengths:
 10.0000 10.0000 10.0000 10.0000 10.0000 10.0000 81.9329 49.0964 36.2586 30.5563
 27.5965 26.0215 23.1303 22.7273 20.0263 17.2144 16.3219 16.1982 15.1109 13.8736
 13.3158 12.5870 12.3647 12.2335 12.1883 12.0930 12.0015 11.8182 11.2736 11.0295
 10.9187 10.5332 10.4123 10.1359  9.8999  9.8843  9.8383  9.8140  9.6843  9.5766
  9.4328  9.2739  9.0540  9.0249  9.0134  8.9934  8.9287  8.8630  8.7278  8.5329
  8.5251  8.4725  8.4665  8.4429  8.4148  8.3476  8.2512  8.1161  8.0651  8.0456
  7.9528  7.9421  7.9199  7.9126  7.9004  7.8493  7.8467  7.8310  7.7808  7.7450
  7.6993  7.6959  7.6759  7.6052  7.4623  7.3802  7.3635  7.2637  7.2551  7.2091
  7.1833  7.1485  7.1448  7.1309  7.1099  7.0153  6.9082  6.9082  6.8689  6.8478
  6.8397  6.7816  6.7703  6.7322  6.6736  6.6206  6.5923  6.5629  6.5361  6.4510
  6.4486  6.4377  6.3651  6.3527  6.3003  6.2809  6.2244  6.2043  6.1686  6.1579
  6.1142  6.1027  6.0862  6.0671  4.4140  4.4116  4.4107  4.4106  4.4071  4.4062
  4.4050  4.4042  4.4040  4.3993  4.3962  4.3943  4.3940  4.3938  4.3934  4.3893
  4.3833  4.3829
 highest evec of mol 1
  0.0001  0.0000 -0.0000
  0.0001 -0.0001  0.0000
 -0.0000 -0.0001  0.0001
 -0.0000 -0.0000  0.0000
  0.0003  0.0000 -0.0001
  0.0008 -0.0002  0.0010
 -0.0010 -0.0008  0.0032
  0.0000 -0.0001 -0.0000
  0.0020  0.0001 -0.0005
 -0.0014  0.0048  0.0016
  0.1721  0.0122 -0.0384
  0.0288 -0.0621 -0.0233
 -0.0164 -0.0244 -0.0025
 -0.0130  0.0005  0.0033
 -0.0011  0.0006  0.0004
 -0.0017 -0.0001  0.0004
 -0.0012 -0.0008  0.0001
 -0.0145 -0.0025  0.0029
 -0.0188  0.0251  0.0113
  0.0317  0.0746  0.0117
  0.1954  0.0121 -0.0456
 -0.0015 -0.0056 -0.0011
 -0.0023  0.0005 -0.0023
  0.0003  0.0003 -0.0013
 -0.0001  0.0001 -0.0001
  0.0000  0.0001 -0.0001
 -0.0003 -0.0000  0.0001
 -0.0002  0.0002 -0.0001
  0.0001  0.0003 -0.0003
 -0.0030  0.0005 -0.0031
  0.0034  0.0025 -0.0110
 -0.5668 -0.0269  0.1302
 -0.1052  0.1826  0.0735
  0.0450  0.0788  0.0098
  0.0398  0.0015 -0.0093
  0.0073  0.0005 -0.0017
  0.0443  0.0042 -0.0099
  0.0517 -0.0820 -0.0345
 -0.1163 -0.2224 -0.0294
 -0.6434 -0.0549  0.1462
  0.0078 -0.0016  0.0081
 -0.0013 -0.0008  0.0041
  0.0003 -0.0003  0.0002
 -0.0001 -0.0002  0.0002
 generating redundant internal coords
         300        3600          44
 Adding extra bonds for z output only
           6           6           6           6           6           6
           6           6           6           6           6           6
           6           6           6           6           6           6
           6           6           6           6           6           6
           6           6           1           1           1           1
           1           1           1           1           1           1
           1           1           1           1           1           1
           1           1
 search for int coords
   1 str   2   1   1.393
   2 str   3   2   1.392
   3 str   4   3   1.403
   4 str   5   4   1.485
   5 str   6   5   1.402
   6 str   7   6   1.391
   7 str   8   7   1.399
   8 str   9   8   1.497
   9 str  10   9   1.412
  10 str  11  10   1.432
  11 str  12  11   1.367
  12 str  13  12   1.423
  13 str  14  13   1.366
  14 str  15  10   1.444
  15 str  15  14   1.429
  16 str  16  15   1.396
  17 str  17  16   1.396
  18 str  18  17   1.429
  19 str  19  18   1.366
  20 str  20  19   1.423
  21 str  21  20   1.367
  22 str  22   9   1.412
  23 str  22  17   1.444
  24 str  22  21   1.432
  25 str  23   8   1.399
  26 str  24   5   1.402
  27 str  24  23   1.391
  28 str  25   4   1.403
  29 str  26   1   1.393
  30 str  26  25   1.392
  31 str  27   1   1.084
  32 str  28   2   1.084
  33 str  29   3   1.084
  34 str  30   6   1.084
  35 str  31   7   1.084
  36 str  32  11   1.082
  37 str  33  12   1.084
  38 str  34  13   1.084
  39 str  35  14   1.085
  40 str  36  16   1.086
  41 str  37  18   1.085
  42 str  38  19   1.084
  43 str  39  20   1.084
  44 str  40  21   1.082
  45 str  41  23   1.084
  46 str  42  24   1.084
  47 str  43  25   1.084
  48 str  44  26   1.084
 nber stretches=          48
  49 ben   1   2   3
  50 prop tor   1   2   3   4
  51 prop tor   1   2   3  29
  52 ben   1   2  28
  53 ben   1  26  25
  54 ben   1  26  44
  55 ben   2   1  26
  56 prop tor   2   1  26  25
  57 prop tor   2   1  26  44
  58 ben   2   1  27
  59 ben   2   3   4
  60 prop tor   2   3   4   5
  61 prop tor   2   3   4  25
  62 ben   2   3  29
  63 ben   3   2  28
  64 ben   3   4   5
  65 prop tor   3   4   5   6
  66 prop tor   3   4   5  24
  67 ben   3   4  25
  68 prop tor   3   4  25  26
  69 prop tor   3   4  25  43
  70 ben   4   3  29
  71 ben   4   5   6
  72 prop tor   4   5   6   7
  73 prop tor   4   5   6  30
  74 ben   4   5  24
  75 prop tor   4   5  24  23
  76 prop tor   4   5  24  42
  77 ben   4  25  26
  78 prop tor   4  25  26   1
  79 prop tor   4  25  26  44
  80 ben   4  25  43
  81 ben   5   4  25
  82 prop tor   5   4  25  26
  83 prop tor   5   4  25  43
  84 ben   5   6   7
  85 prop tor   5   6   7   8
  86 prop tor   5   6   7  31
  87 ben   5   6  30
  88 ben   5  24  23
  89 ben   5  24  42
  90 ben   6   5  24
  91 prop tor   6   5  24  23
  92 prop tor   6   5  24  42
  93 ben   6   7   8
  94 prop tor   6   7   8   9
  95 prop tor   6   7   8  23
  96 ben   6   7  31
  97 ben   7   6  30
  98 ben   7   8   9
  99 prop tor   7   8   9  10
 100 prop tor   7   8   9  22
 101 ben   7   8  23
 102 prop tor   7   8  23  24
 103 prop tor   7   8  23  41
 104 ben   8   7  31
 105 ben   8   9  10
 106 prop tor   8   9  10  11
 107 prop tor   8   9  10  15
 108 ben   8   9  22
 109 prop tor   8   9  22  17
 110 prop tor   8   9  22  21
 111 ben   8  23  24
 112 prop tor   8  23  24   5
 113 prop tor   8  23  24  42
 114 ben   8  23  41
 115 ben   9   8  23
 116 prop tor   9   8  23  24
 117 prop tor   9   8  23  41
 118 ben   9  10  11
 119 prop tor   9  10  11  12
 120 prop tor   9  10  11  32
 121 ben   9  10  15
 122 prop tor   9  10  15  14
 123 prop tor   9  10  15  16
 124 ben   9  22  17
 125 ben   9  22  21
 126 ben  10   9  22
 127 prop tor  10   9  22  17
 128 prop tor  10   9  22  21
 129 ben  10  11  12
 130 prop tor  10  11  12  13
 131 prop tor  10  11  12  33
 132 ben  10  11  32
 133 ben  10  15  14
 134 ben  10  15  16
 135 prop tor  10  15  16  17
 136 prop tor  10  15  16  36
 137 ben  11  10  15
 138 prop tor  11  10  15  14
 139 prop tor  11  10  15  16
 140 ben  11  12  13
 141 prop tor  11  12  13  14
 142 prop tor  11  12  13  34
 143 ben  11  12  33
 144 ben  12  11  32
 145 ben  12  13  14
 146 prop tor  12  13  14  15
 147 prop tor  12  13  14  35
 148 ben  12  13  34
 149 ben  13  12  33
 150 ben  13  14  15
 151 prop tor  13  14  15  10
 152 prop tor  13  14  15  16
 153 ben  13  14  35
 154 ben  14  13  34
 155 ben  14  15  16
 156 prop tor  14  15  16  17
 157 prop tor  14  15  16  36
 158 prop tor  15  10  11  12
 159 prop tor  15  10  11  32
 160 ben  15  14  35
 161 ben  15  16  17
 162 prop tor  15  16  17  18
 163 prop tor  15  16  17  22
 164 ben  15  16  36
 165 ben  16  17  18
 166 prop tor  16  17  18  19
 167 prop tor  16  17  18  37
 168 ben  16  17  22
 169 prop tor  16  17  22   9
 170 prop tor  16  17  22  21
 171 ben  17  16  36
 172 ben  17  18  19
 173 prop tor  17  18  19  20
 174 prop tor  17  18  19  38
 175 ben  17  18  37
 176 ben  17  22  21
 177 ben  18  17  22
 178 prop tor  18  17  22   9
 179 prop tor  18  17  22  21
 180 ben  18  19  20
 181 prop tor  18  19  20  21
 182 prop tor  18  19  20  39
 183 ben  18  19  38
 184 ben  19  18  37
 185 ben  19  20  21
 186 prop tor  19  20  21  22
 187 prop tor  19  20  21  40
 188 ben  19  20  39
 189 ben  20  19  38
 190 ben  20  21  22
 191 prop tor  20  21  22   9
 192 prop tor  20  21  22  17
 193 ben  20  21  40
 194 ben  21  20  39
 195 prop tor  22   9  10  11
 196 prop tor  22   9  10  15
 197 prop tor  22  17  18  19
 198 prop tor  22  17  18  37
 199 ben  22  21  40
 200 prop tor  23   8   9  10
 201 prop tor  23   8   9  22
 202 ben  23  24  42
 203 prop tor  24   5   6   7
 204 prop tor  24   5   6  30
 205 ben  24  23  41
 206 prop tor  25   4   5   6
 207 prop tor  25   4   5  24
 208 ben  25  26  44
 209 prop tor  26   1   2   3
 210 prop tor  26   1   2  28
 211 ben  26   1  27
 212 ben  26  25  43
 213 prop tor  27   1   2   3
 214 prop tor  27   1   2  28
 215 prop tor  27   1  26  25
 216 prop tor  27   1  26  44
 217 prop tor  28   2   3   4
 218 prop tor  28   2   3  29
 219 prop tor  29   3   4   5
 220 prop tor  29   3   4  25
 221 prop tor  30   6   7   8
 222 prop tor  30   6   7  31
 223 prop tor  31   7   8   9
 224 prop tor  31   7   8  23
 225 prop tor  32  11  12  13
 226 prop tor  32  11  12  33
 227 prop tor  33  12  13  14
 228 prop tor  33  12  13  34
 229 prop tor  34  13  14  15
 230 prop tor  34  13  14  35
 231 prop tor  35  14  15  10
 232 prop tor  35  14  15  16
 233 prop tor  36  16  17  18
 234 prop tor  36  16  17  22
 235 prop tor  37  18  19  20
 236 prop tor  37  18  19  38
 237 prop tor  38  19  20  21
 238 prop tor  38  19  20  39
 239 prop tor  39  20  21  22
 240 prop tor  39  20  21  40
 241 prop tor  40  21  22   9
 242 prop tor  40  21  22  17
 243 prop tor  41  23  24   5
 244 prop tor  41  23  24  42
 245 prop tor  43  25  26   1
 246 prop tor  43  25  26  44
 nber bend=              78
 nber lin bend=           0
 nber prop tor=         120
 nber impr tor=           0
 nber tot redund int=         246
 Reading file: 
 ./benz-b-imbal_3_C0S1.log                                                      
                                          
  Entering Gaussian System, Link 0=g16                                          
  
 Gaussian format, type: g94, g98, g03= F F F
  #P Geom=AllCheck Guess=TCheck SCRF=Check GenChk RB3LYP TD(FC,Read)/6-3    
 energy type= TD      
 Original G94 input coords:
  6 -1.422392 -0.070192  0.486070
  6 -0.874816  1.142283  0.069957
  6  0.477879  1.232474 -0.238818
  6  1.320594  0.112067 -0.138966
  6  2.758666  0.207560 -0.466674
  6  3.223321  1.058339 -1.486208
  6  4.571654  1.156648 -1.787454
  6  5.538305  0.391843 -1.100366
  6  6.968625  0.486735 -1.427066
  6  7.620475  1.773133 -1.424829
  6  6.985014  2.963098 -1.021832
  6  7.643852  4.205167 -1.049192
  6  8.971477  4.284175 -1.447366
  6  9.653012  3.113386 -1.798651
  6  9.015965  1.854686 -1.779119
  6  9.723513  0.670473 -2.059832
  6  9.120087 -0.601228 -2.038794
  6  9.855631 -1.768363 -2.334326
  6  9.243250 -3.025657 -2.387275
  6  7.876463 -3.126614 -2.165691
  6  7.120108 -1.978945 -1.868479
  6  7.711444 -0.706872 -1.748565
  6  5.067455 -0.468171 -0.085451
  6  3.720614 -0.548587  0.227678
  6  0.751795 -1.102133  0.282474
  6 -0.601168 -1.191724  0.590244
  1 -2.477080 -0.140267  0.726405
  1 -1.501945  2.023725 -0.005596
  1  0.894108  2.188928 -0.533108
  1  2.510300  1.623374 -2.075534
  1  4.889987  1.801291 -2.598218
  1  5.964656  2.927017 -0.666191
  1  7.107130  5.097074 -0.747473
  1  9.483975  5.238677 -1.473600
  1 10.699070  3.160043 -2.082307
  1 10.779643  0.740902 -2.302584
  1 10.917496 -1.674240 -2.535462
  1  9.832228 -3.906688 -2.613784
  1  7.379519 -4.087681 -2.228963
  1  6.051188 -2.082455 -1.743546
  1  5.782692 -1.044259  0.489702
  1  3.408926 -1.181617  1.050550
  1  1.370920 -1.989792  0.340732
  1 -1.017927 -2.142532  0.903629
 nber atoms=          44
  Total Energy, E(TD-HF/TD-DFT) =  -1001.76152713                               
  
          32          49 "  -1001.76152713"
After scan for Atom:   Atom  AN      X      Y      Z        X      Y      Z        X      Y      Z   
After scan for Atom:   Atom  AN      X      Y      Z        X      Y      Z        X      Y      Z   
After scan for Atom:   Atom  AN      X      Y      Z        X      Y      Z        X      Y      Z   
After scan for Atom:   Atom  AN      X      Y      Z        X      Y      Z        X      Y      Z   
After scan for Atom:   Atom  AN      X      Y      Z        X      Y      Z        X      Y      Z   
After scan for Atom:   Atom  AN      X      Y      Z        X      Y      Z        X      Y      Z   
After scan for Atom:   Atom  AN      X      Y      Z        X      Y      Z        X      Y      Z   
After scan for Atom:   Atom  AN      X      Y      Z        X      Y      Z        X      Y      Z   
After scan for Atom:   Atom  AN      X      Y      Z        X      Y      Z        X      Y      Z   
After scan for Atom:   Atom  AN      X      Y      Z        X      Y      Z        X      Y      Z   
After scan for Atom:   Atom  AN      X      Y      Z        X      Y      Z        X      Y      Z   
After scan for Atom:   Atom  AN      X      Y      Z        X      Y      Z        X      Y      Z   
After scan for Atom:   Atom  AN      X      Y      Z        X      Y      Z        X      Y      Z   
After scan for Atom:   Atom  AN      X      Y      Z        X      Y      Z        X      Y      Z   
After scan for Atom:   Atom  AN      X      Y      Z        X      Y      Z        X      Y      Z   
After scan for Atom:   Atom  AN      X      Y      Z        X      Y      Z        X      Y      Z   
After scan for Atom:   Atom  AN      X      Y      Z        X      Y      Z        X      Y      Z   
After scan for Atom:   Atom  AN      X      Y      Z        X      Y      Z        X      Y      Z   
After scan for Atom:   Atom  AN      X      Y      Z        X      Y      Z        X      Y      Z   
After scan for Atom:   Atom  AN      X      Y      Z        X      Y      Z        X      Y      Z   
After scan for Atom:   Atom  AN      X      Y      Z        X      Y      Z        X      Y      Z   
After scan for Atom:   Atom  AN      X      Y      Z        X      Y      Z        X      Y      Z   
After scan for Atom:   Atom  AN      X      Y      Z        X      Y      Z        X      Y      Z   
After scan for Atom:   Atom  AN      X      Y      Z        X      Y      Z        X      Y      Z   
After scan for Atom:   Atom  AN      X      Y      Z        X      Y      Z        X      Y      Z   
After scan for Atom:   Atom  AN      X      Y      Z        X      Y      Z        X      Y      Z   
After scan for Atom:   Atom  AN      X      Y      Z        X      Y      Z        X      Y      Z   
After scan for Atom:   Atom  AN      X      Y      Z        X      Y      Z        X      Y      Z   
After scan for Atom:   Atom  AN      X      Y      Z        X      Y      Z        X      Y      Z   
After scan for Atom:   Atom  AN      X      Y      Z        X      Y      Z        X      Y      Z   
After scan for Atom:   Atom  AN      X      Y      Z        X      Y      Z        X      Y      Z   
After scan for Atom:   Atom  AN      X      Y      Z        X      Y      Z        X      Y      Z   
After scan for Atom:   Atom  AN      X      Y      Z        X      Y      Z        X      Y      Z   
After scan for Atom:   Atom  AN      X      Y      Z        X      Y      Z        X      Y      Z   
After scan for Atom:   Atom  AN      X      Y      Z        X      Y      Z        X      Y      Z   
After scan for Atom:   Atom  AN      X      Y      Z        X      Y      Z        X      Y      Z   
After scan for Atom:   Atom  AN      X      Y      Z        X      Y      Z        X      Y      Z   
After scan for Atom:   Atom  AN      X      Y      Z        X      Y      Z        X      Y      Z   
After scan for Atom:   Atom  AN      X      Y      Z        X      Y      Z        X      Y      Z   
After scan for Atom:   Atom  AN      X      Y      Z        X      Y      Z        X      Y      Z   
After scan for Atom:   Atom  AN      X      Y      Z        X      Y      Z        X      Y      Z   
After scan for Atom:   Atom  AN      X      Y      Z        X      Y      Z        X      Y      Z   
 g94    frequencies=
     0.0    0.0    0.0    0.0    0.0    0.0   28.4   37.6   39.7   76.7
    77.3   97.8  118.2  119.6  161.9  199.4  234.7  247.4  270.9  297.1
   332.2  379.5  385.2  406.8  410.2  414.8  425.2  429.6  449.6  493.7
   514.8  521.7  551.8  588.4  612.4  617.3  620.1  633.0  650.4  654.4
   686.9  710.4  716.0  726.6  732.7  740.7  752.9  754.7  783.9  811.4
   835.6  844.7  852.7  853.1  853.3  874.6  880.7  912.5  914.5  928.9
   938.5  941.9  950.8  950.9  981.0  984.5  989.2 1000.6 1012.7 1018.9
  1037.5 1058.6 1060.0 1065.7 1099.6 1105.7 1133.7 1143.0 1176.8 1181.0
  1182.7 1189.4 1205.0 1210.7 1212.2 1271.3 1279.8 1284.9 1299.8 1303.5
  1305.0 1325.5 1340.6 1351.5 1357.6 1381.6 1392.7 1425.8 1440.0 1454.3
  1464.5 1477.2 1513.9 1527.6 1528.2 1539.2 1548.0 1557.0 1573.1 1586.6
  1596.7 1613.4 1623.1 1643.2 3153.0 3159.8 3161.6 3162.7 3165.6 3169.1
  3170.6 3172.5 3172.9 3177.9 3182.7 3186.6 3187.8 3188.7 3189.1 3191.1
  3206.1 3206.6
 g94    symmetries=
                                                 A      A      A      A
       A      A      A      A      A      A      A      A      A      A
       A      A      A      A      A      A      A      A      A      A
       A      A      A      A      A      A      A      A      A      A
       A      A      A      A      A      A      A      A      A      A
       A      A      A      A      A      A      A      A      A      A
       A      A      A      A      A      A      A      A      A      A
       A      A      A      A      A      A      A      A      A      A
       A      A      A      A      A      A      A      A      A      A
       A      A      A      A      A      A      A      A      A      A
       A      A      A      A      A      A      A      A      A      A
       A      A      A      A      A      A      A      A      A      A
       A      A      A      A      A      A      A      A      A      A
       A      A
 atomic masses:
 12.0000 12.0000 12.0000 12.0000 12.0000 12.0000 12.0000 12.0000 12.0000 12.0000
 12.0000 12.0000 12.0000 12.0000 12.0000 12.0000 12.0000 12.0000 12.0000 12.0000
 12.0000 12.0000 12.0000 12.0000 12.0000 12.0000  1.0078  1.0078  1.0078  1.0078
  1.0078  1.0078  1.0078  1.0078  1.0078  1.0078  1.0078  1.0078  1.0078  1.0078
  1.0078  1.0078  1.0078  1.0078
 looking for force constants in 
 ./benz-b-imbal_3_C0S1.fchk                                                     
  
 Cartesian Force Constants                  R   N=        8778                  
  
 n3=         132        8778
 g94-fc frequencies=
    -1.4   -0.0    0.0    0.0    1.9    3.3   28.4   37.6   39.7   76.7
    77.3   97.8  118.2  119.6  161.9  199.4  234.7  247.4  270.9  297.1
   332.2  379.5  385.3  406.8  410.2  414.8  425.2  429.6  449.7  493.7
   514.8  521.7  551.9  588.4  612.4  617.3  620.1  633.0  650.4  654.4
   686.9  710.4  716.0  726.7  732.7  740.7  753.0  754.8  784.0  811.4
   835.6  844.7  852.7  853.1  853.4  874.6  880.7  912.5  914.6  928.9
   938.5  941.9  950.8  951.0  981.0  984.5  989.2 1000.7 1012.7 1018.9
  1037.5 1058.6 1060.0 1065.7 1099.6 1105.7 1133.7 1143.0 1176.8 1181.1
  1182.8 1189.4 1205.0 1210.7 1212.3 1271.3 1279.8 1284.9 1299.8 1303.6
  1305.0 1325.5 1340.6 1351.6 1357.6 1381.6 1392.7 1425.9 1440.1 1454.3
  1464.6 1477.3 1513.9 1527.6 1528.3 1539.3 1548.0 1557.1 1573.2 1586.6
  1596.7 1613.5 1623.1 1643.2 3153.1 3159.9 3161.7 3162.8 3165.7 3169.1
  3170.7 3172.5 3172.9 3178.0 3182.8 3186.7 3187.9 3188.8 3189.2 3191.2
  3206.1 3206.7
 at 99999: n3=         132
 symm operator            1 :  F  nop=           0
 symm operator            2 :  F  nop=           0
 symm operator            3 :  F  nop=           0
 symm operator            4 :  F  nop=           0
 symm operator            5 :  F  nop=           0
 symm operator            6 :  F  nop=           0
 symm operator            7 :  F  nop=           0
 The point group of the molecule is  C1
 Symmetry rotation matrix:
   1.00000   0.00000   0.00000
   0.00000   1.00000   0.00000
   0.00000   0.00000   1.00000

 Projecting out zero-frequency components
 generating redundant internal coords
         300        3600          44
 search for int coords
   1 str   2   1   1.394
   2 str   3   2   1.390
   3 str   4   3   1.406
   4 str   5   4   1.478
   5 str   6   5   1.407
   6 str   7   6   1.385
   7 str   8   7   1.411
   8 str   9   8   1.470
   9 str  10   9   1.442
  10 str  11  10   1.408
  11 str  12  11   1.406
  12 str  13  12   1.388
  13 str  14  13   1.400
  14 str  15  10   1.442
  15 str  15  14   1.411
  16 str  16  15   1.408
  17 str  17  16   1.408
  18 str  18  17   1.411
  19 str  19  18   1.400
  20 str  20  19   1.388
  21 str  21  20   1.406
  22 str  22   9   1.442
  23 str  22  17   1.442
  24 str  22  21   1.408
  25 str  23   8   1.411
  26 str  24   5   1.407
  27 str  24  23   1.385
  28 str  25   4   1.405
  29 str  26   1   1.394
  30 str  26  25   1.390
  31 str  27   1   1.084
  32 str  28   2   1.084
  33 str  29   3   1.084
  34 str  30   6   1.084
  35 str  31   7   1.084
  36 str  32  11   1.081
  37 str  33  12   1.084
  38 str  34  13   1.084
  39 str  35  14   1.085
  40 str  36  16   1.086
  41 str  37  18   1.085
  42 str  38  19   1.084
  43 str  39  20   1.084
  44 str  40  21   1.081
  45 str  41  23   1.084
  46 str  42  24   1.084
  47 str  43  25   1.084
  48 str  44  26   1.084
 nber stretches=          48
  49 ben   1   2   3
  50 prop tor   1   2   3   4
  51 prop tor   1   2   3  29
  52 ben   1   2  28
  53 ben   1  26  25
  54 ben   1  26  44
  55 ben   2   1  26
  56 prop tor   2   1  26  25
  57 prop tor   2   1  26  44
  58 ben   2   1  27
  59 ben   2   3   4
  60 prop tor   2   3   4   5
  61 prop tor   2   3   4  25
  62 ben   2   3  29
  63 ben   3   2  28
  64 ben   3   4   5
  65 prop tor   3   4   5   6
  66 prop tor   3   4   5  24
  67 ben   3   4  25
  68 prop tor   3   4  25  26
  69 prop tor   3   4  25  43
  70 ben   4   3  29
  71 ben   4   5   6
  72 prop tor   4   5   6   7
  73 prop tor   4   5   6  30
  74 ben   4   5  24
  75 prop tor   4   5  24  23
  76 prop tor   4   5  24  42
  77 ben   4  25  26
  78 prop tor   4  25  26   1
  79 prop tor   4  25  26  44
  80 ben   4  25  43
  81 ben   5   4  25
  82 prop tor   5   4  25  26
  83 prop tor   5   4  25  43
  84 ben   5   6   7
  85 prop tor   5   6   7   8
  86 prop tor   5   6   7  31
  87 ben   5   6  30
  88 ben   5  24  23
  89 ben   5  24  42
  90 ben   6   5  24
  91 prop tor   6   5  24  23
  92 prop tor   6   5  24  42
  93 ben   6   7   8
  94 prop tor   6   7   8   9
  95 prop tor   6   7   8  23
  96 ben   6   7  31
  97 ben   7   6  30
  98 ben   7   8   9
  99 prop tor   7   8   9  10
 100 prop tor   7   8   9  22
 101 ben   7   8  23
 102 prop tor   7   8  23  24
 103 prop tor   7   8  23  41
 104 ben   8   7  31
 105 ben   8   9  10
 106 prop tor   8   9  10  11
 107 prop tor   8   9  10  15
 108 ben   8   9  22
 109 prop tor   8   9  22  17
 110 prop tor   8   9  22  21
 111 ben   8  23  24
 112 prop tor   8  23  24   5
 113 prop tor   8  23  24  42
 114 ben   8  23  41
 115 ben   9   8  23
 116 prop tor   9   8  23  24
 117 prop tor   9   8  23  41
 118 ben   9  10  11
 119 prop tor   9  10  11  12
 120 prop tor   9  10  11  32
 121 ben   9  10  15
 122 prop tor   9  10  15  14
 123 prop tor   9  10  15  16
 124 ben   9  22  17
 125 ben   9  22  21
 126 ben  10   9  22
 127 prop tor  10   9  22  17
 128 prop tor  10   9  22  21
 129 ben  10  11  12
 130 prop tor  10  11  12  13
 131 prop tor  10  11  12  33
 132 ben  10  11  32
 133 ben  10  15  14
 134 ben  10  15  16
 135 prop tor  10  15  16  17
 136 prop tor  10  15  16  36
 137 ben  11  10  15
 138 prop tor  11  10  15  14
 139 prop tor  11  10  15  16
 140 ben  11  12  13
 141 prop tor  11  12  13  14
 142 prop tor  11  12  13  34
 143 ben  11  12  33
 144 ben  12  11  32
 145 ben  12  13  14
 146 prop tor  12  13  14  15
 147 prop tor  12  13  14  35
 148 ben  12  13  34
 149 ben  13  12  33
 150 ben  13  14  15
 151 prop tor  13  14  15  10
 152 prop tor  13  14  15  16
 153 ben  13  14  35
 154 ben  14  13  34
 155 ben  14  15  16
 156 prop tor  14  15  16  17
 157 prop tor  14  15  16  36
 158 prop tor  15  10  11  12
 159 prop tor  15  10  11  32
 160 ben  15  14  35
 161 ben  15  16  17
 162 prop tor  15  16  17  18
 163 prop tor  15  16  17  22
 164 ben  15  16  36
 165 ben  16  17  18
 166 prop tor  16  17  18  19
 167 prop tor  16  17  18  37
 168 ben  16  17  22
 169 prop tor  16  17  22   9
 170 prop tor  16  17  22  21
 171 ben  17  16  36
 172 ben  17  18  19
 173 prop tor  17  18  19  20
 174 prop tor  17  18  19  38
 175 ben  17  18  37
 176 ben  17  22  21
 177 ben  18  17  22
 178 prop tor  18  17  22   9
 179 prop tor  18  17  22  21
 180 ben  18  19  20
 181 prop tor  18  19  20  21
 182 prop tor  18  19  20  39
 183 ben  18  19  38
 184 ben  19  18  37
 185 ben  19  20  21
 186 prop tor  19  20  21  22
 187 prop tor  19  20  21  40
 188 ben  19  20  39
 189 ben  20  19  38
 190 ben  20  21  22
 191 prop tor  20  21  22   9
 192 prop tor  20  21  22  17
 193 ben  20  21  40
 194 ben  21  20  39
 195 prop tor  22   9  10  11
 196 prop tor  22   9  10  15
 197 prop tor  22  17  18  19
 198 prop tor  22  17  18  37
 199 ben  22  21  40
 200 prop tor  23   8   9  10
 201 prop tor  23   8   9  22
 202 ben  23  24  42
 203 prop tor  24   5   6   7
 204 prop tor  24   5   6  30
 205 ben  24  23  41
 206 prop tor  25   4   5   6
 207 prop tor  25   4   5  24
 208 ben  25  26  44
 209 prop tor  26   1   2   3
 210 prop tor  26   1   2  28
 211 ben  26   1  27
 212 ben  26  25  43
 213 prop tor  27   1   2   3
 214 prop tor  27   1   2  28
 215 prop tor  27   1  26  25
 216 prop tor  27   1  26  44
 217 prop tor  28   2   3   4
 218 prop tor  28   2   3  29
 219 prop tor  29   3   4   5
 220 prop tor  29   3   4  25
 221 prop tor  30   6   7   8
 222 prop tor  30   6   7  31
 223 prop tor  31   7   8   9
 224 prop tor  31   7   8  23
 225 prop tor  32  11  12  13
 226 prop tor  32  11  12  33
 227 prop tor  33  12  13  14
 228 prop tor  33  12  13  34
 229 prop tor  34  13  14  15
 230 prop tor  34  13  14  35
 231 prop tor  35  14  15  10
 232 prop tor  35  14  15  16
 233 prop tor  36  16  17  18
 234 prop tor  36  16  17  22
 235 prop tor  37  18  19  20
 236 prop tor  37  18  19  38
 237 prop tor  38  19  20  21
 238 prop tor  38  19  20  39
 239 prop tor  39  20  21  22
 240 prop tor  39  20  21  40
 241 prop tor  40  21  22   9
 242 prop tor  40  21  22  17
 243 prop tor  41  23  24   5
 244 prop tor  41  23  24  42
 245 prop tor  43  25  26   1
 246 prop tor  43  25  26  44
 nber bend=              78
 nber lin bend=           0
 nber prop tor=         120
 nber impr tor=           0
 nber tot redund int=         246
 Eigenvalues of G in red int coords
    Gval -0.00000000 -0.00000000 -0.00000000 -0.00000000 -0.00000000 -0.00000000 -0.00000000 -0.00000000
    Gval -0.00000000 -0.00000000 -0.00000000 -0.00000000 -0.00000000 -0.00000000 -0.00000000 -0.00000000
    Gval -0.00000000 -0.00000000 -0.00000000 -0.00000000 -0.00000000 -0.00000000 -0.00000000 -0.00000000
    Gval -0.00000000 -0.00000000 -0.00000000 -0.00000000 -0.00000000 -0.00000000 -0.00000000 -0.00000000
    Gval -0.00000000 -0.00000000 -0.00000000 -0.00000000 -0.00000000 -0.00000000 -0.00000000 -0.00000000
    Gval -0.00000000 -0.00000000 -0.00000000 -0.00000000 -0.00000000 -0.00000000 -0.00000000 -0.00000000
    Gval -0.00000000 -0.00000000 -0.00000000 -0.00000000 -0.00000000 -0.00000000 -0.00000000 -0.00000000
    Gval -0.00000000  0.00000000  0.00000000  0.00000000  0.00000000  0.00000000  0.00000000  0.00000000
    Gval  0.00000000  0.00000000  0.00000000  0.00000000  0.00000000  0.00000000  0.00000000  0.00000000
    Gval  0.00000000  0.00000000  0.00000000  0.00000000  0.00000000  0.00000000  0.00000000  0.00000000
    Gval  0.00000000  0.00000000  0.00000000  0.00000000  0.00000000  0.00000000  0.00000000  0.00000000
    Gval  0.00000000  0.00000000  0.00000000  0.00000000  0.00000000  0.00000000  0.00000000  0.00000000
    Gval  0.00000000  0.00000000  0.00000000  0.00000000  0.00000000  0.00000000  0.00000000  0.00000000
    Gval  0.00000000  0.00000000  0.00000000  0.00000000  0.00000000  0.00000000  0.00000000  0.00000000
    Gval  0.00000000  0.00000000  0.00000000  0.00000000  0.00000000  0.00000000  0.00000000  0.00000000
    Gval  0.00000065  0.00000210  0.00000223  0.00000532  0.00000819  0.00000915  0.00000973  0.00001448
    Gval  0.00001482  0.00002255  0.00002858  0.00002916  0.00003713  0.00004134  0.00004282  0.00004660
    Gval  0.00004988  0.00005430  0.00005466  0.00005700  0.00005894  0.00005922  0.00006315  0.00006639
    Gval  0.00007577  0.00007594  0.00007671  0.00008819  0.00009360  0.00009827  0.00010055  0.00011061
    Gval  0.00011817  0.00012015  0.00012128  0.00012349  0.00012910  0.00014504  0.00016031  0.00017454
    Gval  0.00020991  0.00021236  0.00022865  0.00024185  0.00025943  0.00026498  0.00029381  0.00029844
    Gval  0.00031645  0.00032840  0.00036130  0.00036886  0.00038141  0.00038549  0.00040266  0.00040463
    Gval  0.00041572  0.00045055  0.00048869  0.00052497  0.00053529  0.00058908  0.00059306  0.00059320
    Gval  0.00059322  0.00059352  0.00059700  0.00059704  0.00059748  0.00060005  0.00060444  0.00061353
    Gval  0.00061759  0.00062287  0.00063562  0.00063921  0.00065051  0.00065382  0.00065728  0.00066092
    Gval  0.00073526  0.00078277  0.00082136  0.00094279  0.00099173  0.00104053  0.00105323  0.00105503
    Gval  0.00107418  0.00110571  0.00110907  0.00111573  0.00112033  0.00112224  0.00113769  0.00115097
    Gval  0.00115720  0.00115730  0.00116901  0.00117025  0.00117235  0.00117254  0.00117254  0.00124087
    Gval  0.00143000  0.00163250  0.00177921  0.00179949  0.00180713  0.00188199  0.00218969  0.00232604
    Gval  0.00234353  0.00248368  0.00267453  0.00269174  0.00309788  0.00312308  0.00347407  0.00353489
    Gval  0.00361129  0.00370192  0.00372872  0.00401746  0.00402375  0.00406638
  6.542633522053245E-007  6.542633522053245E-007
  2.101029321919805E-006  6.542633522053245E-007
  2.234362842170065E-006  6.542633522053245E-007
  5.318259862101424E-006  6.542633522053245E-007
  8.193197561112710E-006  6.542633522053245E-007
  9.145099650898342E-006  6.542633522053245E-007
  9.727065960583453E-006  6.542633522053245E-007
  1.448246443681146E-005  6.542633522053245E-007
  1.481943334802523E-005  6.542633522053245E-007
  2.254547752794819E-005  6.542633522053245E-007
  2.857987442572417E-005  6.542633522053245E-007
  2.916324290033447E-005  6.542633522053245E-007
  3.713013586248704E-005  6.542633522053245E-007
  4.134434632985960E-005  6.542633522053245E-007
  4.282469000337022E-005  6.542633522053245E-007
  4.660399353220043E-005  6.542633522053245E-007
  4.987897790960251E-005  6.542633522053245E-007
  5.430124353365164E-005  6.542633522053245E-007
  5.466436527108217E-005  6.542633522053245E-007
  5.700045646554566E-005  6.542633522053245E-007
  5.893946329577600E-005  6.542633522053245E-007
  5.921893551444417E-005  6.542633522053245E-007
  6.315407304991864E-005  6.542633522053245E-007
  6.638966368834710E-005  6.542633522053245E-007
  7.577171668147967E-005  6.542633522053245E-007
  7.594486919306689E-005  6.542633522053245E-007
  7.670822036536137E-005  6.542633522053245E-007
  8.819170646725074E-005  6.542633522053245E-007
  9.360109767766298E-005  6.542633522053245E-007
  9.826507122893590E-005  6.542633522053245E-007
  1.005503342853993E-004  6.542633522053245E-007
  1.106102707057890E-004  6.542633522053245E-007
  1.181687478832239E-004  6.542633522053245E-007
  1.201469892080277E-004  6.542633522053245E-007
  1.212822004084266E-004  6.542633522053245E-007
  1.234911288130046E-004  6.542633522053245E-007
  1.290983831990310E-004  6.542633522053245E-007
  1.450402730303747E-004  6.542633522053245E-007
  1.603055466885757E-004  6.542633522053245E-007
  1.745363954445192E-004  6.542633522053245E-007
  2.099070602257739E-004  6.542633522053245E-007
  2.123584958693386E-004  6.542633522053245E-007
  2.286462993735835E-004  6.542633522053245E-007
  2.418483619888213E-004  6.542633522053245E-007
  2.594262170482071E-004  6.542633522053245E-007
  2.649834503804722E-004  6.542633522053245E-007
  2.938139781448988E-004  6.542633522053245E-007
  2.984386941862500E-004  6.542633522053245E-007
  3.164484842185047E-004  6.542633522053245E-007
  3.284042485166341E-004  6.542633522053245E-007
  3.612984849016448E-004  6.542633522053245E-007
  3.688581763982535E-004  6.542633522053245E-007
  3.814113174644860E-004  6.542633522053245E-007
  3.854917300709226E-004  6.542633522053245E-007
  4.026578521980833E-004  6.542633522053245E-007
  4.046277963818460E-004  6.542633522053245E-007
  4.157150738365010E-004  6.542633522053245E-007
  4.505528127433657E-004  6.542633522053245E-007
  4.886855043267762E-004  6.542633522053245E-007
  5.249748712053228E-004  6.542633522053245E-007
  5.352880934979073E-004  6.542633522053245E-007
  5.890845771496673E-004  6.542633522053245E-007
  5.930632890024516E-004  6.542633522053245E-007
  5.931980846755042E-004  6.542633522053245E-007
  5.932239943192827E-004  6.542633522053245E-007
  5.935214742205947E-004  6.542633522053245E-007
  5.969966507264560E-004  6.542633522053245E-007
  5.970389326816234E-004  6.542633522053245E-007
  5.974811538979517E-004  6.542633522053245E-007
  6.000517697457552E-004  6.542633522053245E-007
  6.044387339340304E-004  6.542633522053245E-007
  6.135333110079826E-004  6.542633522053245E-007
  6.175948224360304E-004  6.542633522053245E-007
  6.228731653958452E-004  6.542633522053245E-007
  6.356188678560354E-004  6.542633522053245E-007
  6.392062041200106E-004  6.542633522053245E-007
  6.505142584069634E-004  6.542633522053245E-007
  6.538156720241334E-004  6.542633522053245E-007
  6.572830102975268E-004  6.542633522053245E-007
  6.609153182437573E-004  6.542633522053245E-007
  7.352609552753115E-004  6.542633522053245E-007
  7.827650436466073E-004  6.542633522053245E-007
  8.213619320343118E-004  6.542633522053245E-007
  9.427855015223866E-004  6.542633522053245E-007
  9.917274838127808E-004  6.542633522053245E-007
  1.040526362823380E-003  6.542633522053245E-007
  1.053230360055339E-003  6.542633522053245E-007
  1.055029912124923E-003  6.542633522053245E-007
  1.074184192488939E-003  6.542633522053245E-007
  1.105708387464925E-003  6.542633522053245E-007
  1.109074621673411E-003  6.542633522053245E-007
  1.115731572368905E-003  6.542633522053245E-007
  1.120326483289160E-003  6.542633522053245E-007
  1.122240026803175E-003  6.542633522053245E-007
  1.137691761931247E-003  6.542633522053245E-007
  1.150967949555361E-003  6.542633522053245E-007
  1.157201159913483E-003  6.542633522053245E-007
  1.157298089141425E-003  6.542633522053245E-007
  1.169011074843368E-003  6.542633522053245E-007
  1.170246319678814E-003  6.542633522053245E-007
  1.172346281538385E-003  6.542633522053245E-007
  1.172537570122509E-003  6.542633522053245E-007
  1.172541042260066E-003  6.542633522053245E-007
  1.240874538518559E-003  6.542633522053245E-007
  1.430002010565533E-003  6.542633522053245E-007
  1.632501755101177E-003  6.542633522053245E-007
  1.779208899059155E-003  6.542633522053245E-007
  1.799492668599888E-003  6.542633522053245E-007
  1.807125242702842E-003  6.542633522053245E-007
  1.881986988715650E-003  6.542633522053245E-007
  2.189692025887602E-003  6.542633522053245E-007
  2.326038781579167E-003  6.542633522053245E-007
  2.343527111850333E-003  6.542633522053245E-007
  2.483679682353157E-003  6.542633522053245E-007
  2.674534989378131E-003  6.542633522053245E-007
  2.691736956540965E-003  6.542633522053245E-007
  3.097875439715061E-003  6.542633522053245E-007
  3.123075712332053E-003  6.542633522053245E-007
  3.474066502978101E-003  6.542633522053245E-007
  3.534887795148670E-003  6.542633522053245E-007
  3.611291670707880E-003  6.542633522053245E-007
  3.701923074023199E-003  6.542633522053245E-007
  3.728722428843393E-003  6.542633522053245E-007
  4.017457585692099E-003  6.542633522053245E-007
  4.023746512272157E-003  6.542633522053245E-007
  4.066376675743789E-003  6.542633522053245E-007
 cut=1d-8, nber non-redundant internal coords=         126
 Check on Eigenvals of non-red overlap matrix:
  0.00000065  0.00000210  0.00000223  0.00000532  0.00000819  0.00000915  0.00000973  0.00001448
  0.00001482  0.00002255  0.00002858  0.00002916  0.00003713  0.00004134  0.00004282  0.00004660
  0.00004988  0.00005430  0.00005466  0.00005700  0.00005894  0.00005922  0.00006315  0.00006639
  0.00007577  0.00007594  0.00007671  0.00008819  0.00009360  0.00009827  0.00010055  0.00011061
  0.00011817  0.00012015  0.00012128  0.00012349  0.00012910  0.00014504  0.00016031  0.00017454
  0.00020991  0.00021236  0.00022865  0.00024185  0.00025943  0.00026498  0.00029381  0.00029844
  0.00031645  0.00032840  0.00036130  0.00036886  0.00038141  0.00038549  0.00040266  0.00040463
  0.00041572  0.00045055  0.00048869  0.00052497  0.00053529  0.00058908  0.00059306  0.00059320
  0.00059322  0.00059352  0.00059700  0.00059704  0.00059748  0.00060005  0.00060444  0.00061353
  0.00061759  0.00062287  0.00063562  0.00063921  0.00065051  0.00065382  0.00065728  0.00066092
  0.00073526  0.00078277  0.00082136  0.00094279  0.00099173  0.00104053  0.00105323  0.00105503
  0.00107418  0.00110571  0.00110907  0.00111573  0.00112033  0.00112224  0.00113769  0.00115097
  0.00115720  0.00115730  0.00116901  0.00117025  0.00117235  0.00117254  0.00117254  0.00124087
  0.00143000  0.00163250  0.00177921  0.00179949  0.00180713  0.00188199  0.00218969  0.00232604
  0.00234353  0.00248368  0.00267453  0.00269174  0.00309788  0.00312308  0.00347407  0.00353489
  0.00361129  0.00370192  0.00372872  0.00401746  0.00402375  0.00406638
 Checking for correct frequencies
 recalc frequencies=
    -0.0   -0.0   -0.0   -0.0    0.0    0.0   28.4   37.6   39.7   76.7
    77.3   97.8  118.2  119.6  161.9  199.4  234.7  247.4  270.9  297.1
   332.2  379.5  385.3  406.8  410.2  414.8  425.2  429.6  449.7  493.7
   514.8  521.7  551.9  588.4  612.4  617.3  620.1  633.0  650.4  654.4
   686.9  710.4  716.0  726.7  732.7  740.7  753.0  754.8  784.0  811.4
   835.6  844.7  852.7  853.1  853.4  874.6  880.7  912.5  914.6  928.9
   938.5  941.9  950.8  951.0  981.0  984.5  989.2 1000.7 1012.7 1018.9
  1037.5 1058.6 1060.0 1065.7 1099.6 1105.7 1133.7 1143.0 1176.8 1181.1
  1182.8 1189.4 1205.0 1210.7 1212.3 1271.3 1279.8 1284.9 1299.8 1303.6
  1305.0 1325.5 1340.6 1351.6 1357.6 1381.6 1392.7 1425.9 1440.1 1454.3
  1464.6 1477.3 1513.9 1527.6 1528.3 1539.3 1548.0 1557.1 1573.2 1586.6
  1596.7 1613.5 1623.1 1643.2 3153.1 3159.9 3161.7 3162.8 3165.7 3169.1
  3170.7 3172.5 3172.9 3178.0 3182.8 3186.7 3187.9 3188.8 3189.2 3191.2
  3206.1 3206.7
 recalc symmetries=
                                                                       
                                                                       
                                                                       
                                                                       
                                                                       
                                                                       
                                                                       
                                                                       
                                                                       
                                                                       
                                                                       
                                                                       
                                                                       
               
 recalc freqs check OK
 Zero-point lengths:
 10.0000 10.0000 10.0000 10.0000 10.0000 10.0000 46.5249 40.4336 39.3551 28.3009
 28.1956 25.0656 22.8064 22.6731 19.4832 17.5567 16.1808 15.7607 15.0627 14.3825
 13.6018 12.7258 12.6305 12.2909 12.2409 12.1729 12.0232 11.9608 11.6911 11.1577
 10.9267 10.8539 10.5531 10.2200 10.0180  9.9780  9.9553  9.8536  9.7209  9.6911
  9.4592  9.3013  9.2647  9.1966  9.1588  9.1089  9.0347  9.0238  8.8541  8.7033
  8.5761  8.5298  8.4897  8.4879  8.4865  8.3828  8.3535  8.2068  8.1976  8.1341
  8.0925  8.0778  8.0399  8.0392  7.9150  7.9010  7.8821  7.8371  7.7904  7.7667
  7.6967  7.6196  7.6146  7.5942  7.4761  7.4556  7.3628  7.3329  7.2267  7.2138
  7.2085  7.1885  7.1416  7.1249  7.1203  6.9530  6.9298  6.9160  6.8763  6.8664
  6.8627  6.8093  6.7709  6.7434  6.7283  6.6696  6.6430  6.5653  6.5329  6.5008
  6.4780  6.4501  6.3715  6.3429  6.3416  6.3188  6.3009  6.2827  6.2504  6.2239
  6.2042  6.1719  6.1535  6.1158  4.4150  4.4102  4.4090  4.4082  4.4062  4.4038
  4.4027  4.4014  4.4011  4.3976  4.3943  4.3916  4.3908  4.3902  4.3899  4.3886
  4.3783  4.3779
 highest evec of mol 2
  0.0006  0.0000 -0.0001
  0.0004 -0.0007  0.0001
 -0.0005 -0.0014  0.0004
 -0.0003 -0.0000  0.0001
  0.0008  0.0001 -0.0002
  0.0052 -0.0036  0.0040
 -0.0051 -0.0114  0.0154
 -0.0024  0.0002  0.0005
  0.0034  0.0003 -0.0008
 -0.0019  0.0061  0.0020
  0.2056  0.0081 -0.0715
  0.0329 -0.0617 -0.0194
 -0.0175 -0.0244  0.0018
 -0.0097  0.0007  0.0028
 -0.0015  0.0002  0.0004
 -0.0019 -0.0001  0.0004
 -0.0011 -0.0004  0.0002
 -0.0076 -0.0015  0.0013
 -0.0144  0.0163  0.0050
  0.0221  0.0486  0.0036
  0.1583  0.0148 -0.0186
 -0.0013 -0.0049 -0.0009
 -0.0099  0.0080 -0.0088
  0.0021  0.0036 -0.0049
 -0.0008  0.0012 -0.0001
  0.0003  0.0007 -0.0002
 -0.0018 -0.0001  0.0004
 -0.0014  0.0020 -0.0002
  0.0019  0.0043 -0.0013
 -0.0155  0.0120 -0.0124
  0.0197  0.0401 -0.0491
 -0.6879 -0.0272  0.2356
 -0.1105  0.1875  0.0632
  0.0435  0.0786 -0.0026
  0.0305  0.0008 -0.0082
  0.0068  0.0004 -0.0016
  0.0237  0.0025 -0.0046
  0.0371 -0.0538 -0.0140
 -0.0754 -0.1487 -0.0104
 -0.5281 -0.0491  0.0647
  0.0342 -0.0280  0.0271
 -0.0059 -0.0116  0.0151
  0.0026 -0.0037  0.0002
 -0.0009 -0.0021  0.0007
 Enter nber and list of atoms to keep of mol #2
 keep list:          44           1           2           3           4
           5           6           7           8           9          10
          11          12          13          14          15          16
          17          18          19          20          21          22
          23          24          25          26          27          28
          29          30          31          32          33          34
          35          36          37          38          39          40
          41          42          43          44
 reordering atoms
           1  -7.07715134728532     
           2  -6.37367561583168     
           3  -4.98325840109012     
           4  -4.25795660504680     
           5  -2.77993017495884     
           6  -2.04644919170739     
           7 -0.661423720955654     
           8  7.697685315354559E-002
           9   1.54719883128267     
          10   2.26396501029310     
          11   1.63308808979454     
          12   2.36036378963095     
          13   3.74552731337583     
          14   4.41098007118558     
          15   3.70556885282078     
          16   4.37978535669025     
          17   3.70590879278679     
          18   4.41175684744101     
          19   3.74653390758508     
          20   2.36107967399439     
          21   1.63335454260279     
          22   2.26418275047167     
          23 -0.662101580813054     
          24  -2.04715934766169     
          25  -4.98337437771804     
          26  -6.37379032004035     
          27  -8.16114303222505     
          28  -6.91007308965086     
          29  -4.45116561089045     
          30  -2.57272030382012     
          31 -0.129986081161648     
          32  0.559077545692150     
          33   1.82879168534056     
          34   4.31160705121681     
          35   5.49468626239073     
          36   5.46573969224368     
          37   5.49557677492336     
          38   4.31294029176066     
          39   1.82959034324855     
          40  0.558991969828088     
          41 -0.131240235825550     
          42  -2.57407170318966     
          43  -4.45132355452073     
          44  -6.91027569183320     
           1           1
           2           2
           3           3
           4           4
           5           5
           6           6
           7           7
           8           8
           9           9
          10          10
          11          11
          12          12
          13          13
          14          14
          15          15
          16          16
          17          17
          18          18
          19          19
          20          20
          21          21
          22          22
          23          23
          24          24
          25          25
          26          26
          27          27
          28          28
          29          29
          30          30
          31          31
          32          32
          33          33
          34          34
          35          35
          36          36
          37          37
          38          38
          39          39
          40          40
          41          41
          42          42
          43          43
          44          44
 initial cartes coords mol 1
   6  -0.00021   0.00026  -7.06542
   6   0.93123   0.76211  -6.36308
   6   0.93115   0.76188  -4.97147
   6   0.00002  -0.00005  -4.25038
   6   0.00010  -0.00014  -2.76541
   6   1.20021  -0.01036  -2.04063
   6   1.20014  -0.01033  -0.64954
   6   0.00018   0.00011   0.07007
   6   0.00020   0.00006   1.56664
   6  -0.04686   1.22322   2.26964
   6  -0.09142   2.49100   1.60634
   6  -0.13658   3.66012   2.31362
   6  -0.13992   3.64933   3.73634
   6  -0.09622   2.46317   4.41157
   6  -0.04769   1.21741   3.71334
   6  -0.00007  -0.00011   4.39417
   6   0.04766  -1.21754   3.71317
   6   0.09591  -2.46341   4.41123
   6   0.13955  -3.64948   3.73584
   6   0.13647  -3.66012   2.31312
   6   0.09162  -2.49089   1.60600
   6   0.04710  -1.22320   2.26948
   6  -1.19982   0.01041  -0.64948
   6  -1.19997   0.01012  -2.04056
   6  -0.93124  -0.76182  -4.97149
   6  -0.93153  -0.76175  -6.36310
   1  -0.00030   0.00039  -8.14949
   1   1.65505   1.36546  -6.89972
   1   1.64448   1.37808  -4.43596
   1   2.14472  -0.04347  -2.57185
   1   2.14167  -0.02678  -0.11171
   1  -0.08836   2.51303   0.52420
   1  -0.16972   4.60805   1.78823
   1  -0.17644   4.58715   4.27912
   1  -0.09721   2.44514   5.49649
   1  -0.00018  -0.00020   5.47992
   1   0.09670  -2.44555   5.49615
   1   0.17583  -4.58737   4.27851
   1   0.16956  -4.60799   1.78762
   1   0.08875  -2.51271   0.52386
   1  -2.14132   0.02693  -0.11160
   1  -2.14451   0.04307  -2.57175
   1  -1.64450  -1.37813  -4.43602
   1  -1.65546  -1.36495  -6.89976
 initial cartes coords mol 2
   6   0.00148  -0.00020  -7.07715
   6   0.36374   1.14739  -6.37368
   6   0.36368   1.14777  -4.98326
   6   0.00026   0.00003  -4.25796
   6  -0.00037   0.00009  -2.77993
   6   0.94259   0.74308  -2.04645
   6   0.93675   0.75235  -0.66142
   6  -0.00134  -0.00010   0.07698
   6  -0.00123  -0.00019   1.54720
   6  -0.06409   1.24963   2.26397
   6  -0.23150   2.49710   1.63309
   6  -0.27018   3.70007   2.36036
   6  -0.17844   3.68334   3.74553
   6  -0.07042   2.45690   4.41098
   6  -0.03019   1.23571   3.70557
   6   0.00247   0.00033   4.37979
   6   0.03274  -1.23529   3.70591
   6   0.07462  -2.45619   4.41176
   6   0.17978  -3.68298   3.74653
   6   0.26703  -3.70041   2.36108
   6   0.22692  -2.49776   1.63335
   6   0.06244  -1.24987   2.26418
   6  -0.93903  -0.75235  -0.66210
   6  -0.94387  -0.74293  -2.04716
   6  -0.36249  -1.14784  -4.98337
   6  -0.36136  -1.14769  -6.37379
   1   0.00194  -0.00029  -8.16114
   1   0.63862   2.04887  -6.91007
   1   0.62001   2.05653  -4.45117
   1   1.71478   1.29237  -2.57272
   1   1.69604   1.31386  -0.12999
   1  -0.34855   2.53848   0.55908
   1  -0.38165   4.63794   1.82879
   1  -0.20451   4.60707   4.31161
   1  -0.02841   2.43060   5.49469
   1   0.00405   0.00051   5.46574
   1   0.03606  -2.42935   5.49558
   1   0.20708  -4.60648   4.31294
   1   0.37610  -4.63862   1.82959
   1   0.34048  -2.53973   0.55899
   1  -1.69870  -1.31389  -0.13124
   1  -1.71564  -1.29222  -2.57407
   1  -0.61918  -2.05651  -4.45132
   1  -0.63574  -2.04926  -6.91028
 loop 1 0
 mod cartes coords mol 2
   6   0.00148  -0.00020  -7.07715
   6   0.36374   1.14739  -6.37368
   6   0.36368   1.14777  -4.98326
   6   0.00026   0.00003  -4.25796
   6  -0.00037   0.00009  -2.77993
   6   0.94259   0.74308  -2.04645
   6   0.93675   0.75235  -0.66142
   6  -0.00134  -0.00010   0.07698
   6  -0.00123  -0.00019   1.54720
   6  -0.06409   1.24963   2.26397
   6  -0.23150   2.49710   1.63309
   6  -0.27018   3.70007   2.36036
   6  -0.17844   3.68334   3.74553
   6  -0.07042   2.45690   4.41098
   6  -0.03019   1.23571   3.70557
   6   0.00247   0.00033   4.37979
   6   0.03274  -1.23529   3.70591
   6   0.07462  -2.45619   4.41176
   6   0.17978  -3.68298   3.74653
   6   0.26703  -3.70041   2.36108
   6   0.22692  -2.49776   1.63335
   6   0.06244  -1.24987   2.26418
   6  -0.93903  -0.75235  -0.66210
   6  -0.94387  -0.74293  -2.04716
   6  -0.36249  -1.14784  -4.98337
   6  -0.36136  -1.14769  -6.37379
   1   0.00194  -0.00029  -8.16114
   1   0.63862   2.04887  -6.91007
   1   0.62001   2.05653  -4.45117
   1   1.71478   1.29237  -2.57272
   1   1.69604   1.31386  -0.12999
[...]
 127      3183. -0.9621    92.6   100.0 128      3189.
 128      3183.  0.9613    92.4   100.0 129      3189.
 129      3184. -0.9457    89.4   100.0 127      3188.
 130      3190.  0.9818    96.4   100.0 130      3191.
 131      3199.  0.9710    94.3   100.0 131      3206.
 132      3199.  0.9714    94.4   100.0 132      3207.
 nber times 1st assigned=           1           0
 nber times 1st assigned=           2           0
 nber times 1st assigned=           3           0
 nber times 1st assigned=           4           0
 nber times 1st assigned=           5           0
 nber times 1st assigned=           6           0
 nber times 1st assigned=           7           0
 nber times 1st assigned=           8           0
 nber times 1st assigned=           9           0
 nber times 1st assigned=          10           0
 nber times 1st assigned=          11           0
 nber times 1st assigned=          12           0
 nber times 1st assigned=          13           0
 nber times 1st assigned=          14           0
 nber times 1st assigned=          15           0
 nber times 1st assigned=          16           0
 nber times 1st assigned=          17           0
 nber times 1st assigned=          18           0
 nber times 1st assigned=          19           0
 nber times 1st assigned=          20           0
 nber times 1st assigned=          21           0
 nber times 1st assigned=          22           0
 nber times 1st assigned=          23           0
 nber times 1st assigned=          24           0
 nber times 1st assigned=          25           0
 nber times 1st assigned=          26           0
 nber times 1st assigned=          27           0
 nber times 1st assigned=          28           0
 nber times 1st assigned=          29           0
 nber times 1st assigned=          30           0
 nber times 1st assigned=          31           0
 nber times 1st assigned=          32           0
 nber times 1st assigned=          33           0
 nber times 1st assigned=          34           0
 nber times 1st assigned=          35           0
 nber times 1st assigned=          36           0
 nber times 1st assigned=          37           0
 nber times 1st assigned=          38           0
 nber times 1st assigned=          39           0
 nber times 1st assigned=          40           0
 nber times 1st assigned=          41           0
 nber times 1st assigned=          42           0
 nber times 1st assigned=          43           0
 nber times 1st assigned=          44           0
 nber times 1st assigned=          45           0
 nber times 1st assigned=          46           0
 nber times 1st assigned=          47           0
 nber times 1st assigned=          48           0
 nber times 1st assigned=          49           0
 nber times 1st assigned=          50           0
 nber times 1st assigned=          51           0
 nber times 1st assigned=          52           0
 nber times 1st assigned=          53           0
 nber times 1st assigned=          54           0
 nber times 1st assigned=          55           0
 nber times 1st assigned=          56           0
 nber times 1st assigned=          57           0
 nber times 1st assigned=          58           0
 nber times 1st assigned=          59           0
 nber times 1st assigned=          60           0
 nber times 1st assigned=          61           0
 nber times 1st assigned=          62           0
 nber times 1st assigned=          63           0
 nber times 1st assigned=          64           0
 nber times 1st assigned=          65           0
 nber times 1st assigned=          66           0
 nber times 1st assigned=          67           0
 nber times 1st assigned=          68           0
 nber times 1st assigned=          69           0
 nber times 1st assigned=          70           0
 nber times 1st assigned=          71           0
 nber times 1st assigned=          72           0
 nber times 1st assigned=          73           0
 nber times 1st assigned=          74           0
 nber times 1st assigned=          75           0
 nber times 1st assigned=          76           0
 nber times 1st assigned=          77           0
 nber times 1st assigned=          78           0
 nber times 1st assigned=          79           0
 nber times 1st assigned=          80           0
 nber times 1st assigned=          81           0
 nber times 1st assigned=          82           0
 nber times 1st assigned=          83           0
 nber times 1st assigned=          84           0
 nber times 1st assigned=          85           0
 nber times 1st assigned=          86           0
 nber times 1st assigned=          87           0
 nber times 1st assigned=          88           0
 nber times 1st assigned=          89           0
 nber times 1st assigned=          90           0
 nber times 1st assigned=          91           0
 nber times 1st assigned=          92           0
 nber times 1st assigned=          93           0
 nber times 1st assigned=          94           0
 nber times 1st assigned=          95           0
 nber times 1st assigned=          96           0
 nber times 1st assigned=          97           0
 nber times 1st assigned=          98           0
 nber times 1st assigned=          99           0
 nber times 1st assigned=         100           0
 nber times 1st assigned=         101           0
 nber times 1st assigned=         102           0
 nber times 1st assigned=         103           0
 nber times 1st assigned=         104           0
 nber times 1st assigned=         105           0
 nber times 1st assigned=         106           0
 nber times 1st assigned=         107           0
 nber times 1st assigned=         108           0
 nber times 1st assigned=         109           0
 nber times 1st assigned=         110           0
 nber times 1st assigned=         111           0
 nber times 1st assigned=         112           0
 nber times 1st assigned=         113           0
 nber times 1st assigned=         114           0
 nber times 1st assigned=         115           0
 nber times 1st assigned=         116           0
 nber times 1st assigned=         117           0
 nber times 1st assigned=         118           0
 nber times 1st assigned=         119           0
 nber times 1st assigned=         120           0
 nber times 1st assigned=         121           0
 nber times 1st assigned=         122           0
 nber times 1st assigned=         123           0
 nber times 1st assigned=         124           0
 nber times 1st assigned=         125           0
 nber times 1st assigned=         126           0
 nber times 1st assigned=         127           0
 nber times 1st assigned=         128           0
 nber times 1st assigned=         129           0
 nber times 1st assigned=         130           0
 nber times 1st assigned=         131           0
 nber times 1st assigned=         132           0
 modes represented=   158.066549294463     
 p1=
    0.    0.   -0.   -0.   -0.   -0.  319.    1.   -1.   38.    0.    0.    0.   13.   10.   -0.   -0.    1.    9.    0.
   -0.   10.   -0.    9.    1.    1.   -0.   -0.   -3.    1.   -0.   -0.    0.   -0.   -0.   -0.    1.    0.   -2.    0.
    2.    0.    0.    0.   -1.   -1.    1.   -0.    0.    0.   -1.   -1.   -0.    0.   -0.   -0.    0.   -0.   -0.   -0.
   -1.    0.   -0.    0.    0.   -1.    0.    0.    0.    0.   -1.   -0.   -0.   -0.   -0.   -0.    0.   -1.    0.   -0.
    2.    0.   -0.    1.   -0.    0.    2.   -3.    0.   -3.   -0.    0.   -0.   -0.    3.   -0.    0.   -0.    4.   -0.
    0.   -1.   -1.   -1.   -0.    0.   -0.    6.    0.   -0.    1.    2.    0.    0.    0.    0.   -0.   -0.   -0.    0.
    0.   -0.    0.    0.    0.    0.   -0.   -0.    0.   -0.   -0.   -0.
 p2=
    0.    0.    0.   -0.    0.   -0.   -3.   -2.  285.    6. -135.   -0.  -58.   -1.   39.   -0.   -9.    0.   -9.   -0.
   -0.    9.   -0.    0.   -4.    5.   -8.    0.    0.    0.   -2.    0.    0.    0.    0.   -0.    1.    0.   -1.    0.
    2.   -0.   -0.    0.    0.   -0.   -0.    0.   -0.    0.   -1.   -0.    2.    0.   -0.    0.   -0.   -1.   -0.    0.
    0.   -1.    0.   -0.   -0.    0.   -1.    0.    0.   -0.   -0.    3.    1.   -0.   -0.   -0.    1.   -0.   -0.    4.
    0.    1.   -0.   -0.    0.   -0.    0.   -0.    1.    0.    0.    0.    0.    2.    0.    0.    8.   -0.   -0.    0.
    0.   -0.   -1.    3.    0.    0.   -0.   -0.   -0.   -4.    1.    0.    1.   -0.   -0.   -0.   -0.    0.   -0.    0.
    0.   -0.    0.   -0.   -0.   -0.   -0.    0.    0.   -0.    0.   -0.

 Displacement: in terms of nc of 1 THEN of nc of 2

   1     freq=    -0. Q=  0.000 lam=    -0.0     freq=    -0. Q=  0.000 lam=    -0.0
   2     freq=    -0. Q=  0.000 lam=    -0.0     freq=    -0. Q=  0.000 lam=    -0.0
   3     freq=    -0. Q= -0.000 lam=    -0.0     freq=    -0. Q= -0.000 lam=    -0.0
   4     freq=     0. Q= -0.000 lam=     0.0     freq=    -0. Q= -0.000 lam=    -0.0
   5     freq=     0. Q= -0.000 lam=     0.0     freq=     0. Q= -0.000 lam=     0.0
   6     freq=     0. Q= -0.000 lam=     0.0     freq=     0. Q= -0.000 lam=     0.0
   7     freq=     9. Q=  3.894 lam=    69.4     freq=    28. Q=  0.065 lam=     0.1
   8     freq=    25. Q=  0.025 lam=     0.0     freq=    38. Q=  0.056 lam=     0.1
   9     freq=    47. Q= -0.017 lam=     0.0     freq=    40. Q= -7.234 lam=  1038.1
  10     freq=    66. Q=  1.249 lam=    51.3     freq=    77. Q=  0.208 lam=     1.7
  11     freq=    81. Q=  0.006 lam=     0.0     freq=    77. Q=  4.776 lam=   881.9
  12     freq=    91. Q=  0.002 lam=     0.0     freq=    98. Q=  0.012 lam=     0.0
  13     freq=   115. Q=  0.007 lam=     0.0     freq=   118. Q=  2.557 lam=   386.4
  14     freq=   119. Q=  0.586 lam=    20.4     freq=   120. Q=  0.024 lam=     0.0
  15     freq=   153. Q=  0.482 lam=    17.8     freq=   162. Q=  2.025 lam=   332.1
  16     freq=   207. Q= -0.000 lam=     0.0     freq=   199. Q= -0.005 lam=     0.0
  17     freq=   231. Q= -0.008 lam=     0.0     freq=   235. Q= -0.569 lam=    38.1
  18     freq=   234. Q=  0.075 lam=     0.7     freq=   247. Q=  0.003 lam=     0.0
  19     freq=   269. Q=  0.570 lam=    43.7     freq=   271. Q=  0.579 lam=    45.4
  20     freq=   319. Q=  0.002 lam=     0.0     freq=   297. Q=  0.002 lam=     0.0
  21     freq=   347. Q= -0.001 lam=     0.0     freq=   332. Q= -0.003 lam=     0.0
  22     freq=   388. Q=  0.777 lam=   117.2     freq=   379. Q=  0.740 lam=   104.0
  23     freq=   402. Q= -0.005 lam=     0.0     freq=   385. Q= -0.005 lam=     0.0
  24     freq=   411. Q=  0.756 lam=   117.5     freq=   407. Q=  0.009 lam=     0.0
  25     freq=   414. Q=  0.061 lam=     0.8     freq=   410. Q=  0.296 lam=    17.9
  26     freq=   420. Q=  0.100 lam=     2.1     freq=   415. Q=  0.443 lam=    40.7
  27     freq=   427. Q= -0.001 lam=     0.0     freq=   425. Q= -0.661 lam=    92.9
  28     freq=   440. Q= -0.000 lam=     0.0     freq=   430. Q= -0.000 lam=     0.0
  29     freq=   484. Q= -0.306 lam=    22.7     freq=   450. Q= -0.016 lam=     0.1
  30     freq=   505. Q=  0.114 lam=     3.3     freq=   494. Q=  0.000 lam=     0.0
  31     freq=   516. Q= -0.002 lam=     0.0     freq=   515. Q= -0.170 lam=     7.5
  32     freq=   554. Q= -0.002 lam=     0.0     freq=   522. Q= -0.001 lam=     0.0
  33     freq=   567. Q=  0.001 lam=     0.0     freq=   552. Q=  0.001 lam=     0.0
  34     freq=   598. Q= -0.001 lam=     0.0     freq=   588. Q= -0.001 lam=     0.0
  35     freq=   627. Q= -0.002 lam=     0.0     freq=   612. Q= -0.000 lam=     0.0
  36     freq=   629. Q= -0.001 lam=     0.0     freq=   617. Q= -0.002 lam=     0.0
  37     freq=   635. Q=  0.145 lam=     6.6     freq=   620. Q=  0.091 lam=     2.6
  38     freq=   638. Q=  0.001 lam=     0.0     freq=   633. Q=  0.000 lam=     0.0
  39     freq=   655. Q= -0.158 lam=     8.2     freq=   650. Q= -0.054 lam=     0.9
  40     freq=   670. Q=  0.001 lam=     0.0     freq=   654. Q=  0.002 lam=     0.0
  41     freq=   691. Q=  0.252 lam=    22.0     freq=   687. Q=  0.162 lam=     9.0
  42     freq=   715. Q=  0.000 lam=     0.0     freq=   710. Q=  0.001 lam=     0.0
  43     freq=   750. Q=  0.000 lam=     0.0     freq=   716. Q=  0.053 lam=     1.0
  44     freq=   755. Q=  0.000 lam=     0.0     freq=   727. Q=  0.000 lam=     0.0
  45     freq=   756. Q= -0.144 lam=     7.9     freq=   733. Q= -0.045 lam=     0.7
  46     freq=   760. Q= -0.107 lam=     4.4     freq=   741. Q= -0.001 lam=     0.0
  47     freq=   771. Q=  0.067 lam=     1.7     freq=   753. Q=  0.000 lam=     0.0
  48     freq=   782. Q= -0.001 lam=     0.0     freq=   755. Q= -0.040 lam=     0.6
  49     freq=   807. Q=  0.001 lam=     0.0     freq=   784. Q=  0.001 lam=     0.0
  50     freq=   844. Q=  0.004 lam=     0.0     freq=   811. Q=  0.000 lam=     0.0
  51     freq=   846. Q= -0.127 lam=     6.8     freq=   836. Q= -0.128 lam=     6.8
  52     freq=   856. Q= -0.122 lam=     6.4     freq=   845. Q= -0.002 lam=     0.0
  53     freq=   857. Q= -0.034 lam=     0.5     freq=   853. Q= -0.179 lam=    13.7
  54     freq=   862. Q=  0.001 lam=     0.0     freq=   853. Q=  0.030 lam=     0.4
  55     freq=   868. Q= -0.031 lam=     0.4     freq=   853. Q= -0.018 lam=     0.1
  56     freq=   882. Q= -0.001 lam=     0.0     freq=   875. Q= -0.002 lam=     0.0
  57     freq=   903. Q=  0.000 lam=     0.0     freq=   881. Q=  0.001 lam=     0.0
  58     freq=   933. Q= -0.000 lam=     0.0     freq=   912. Q= -0.062 lam=     1.8
  59     freq=   945. Q= -0.001 lam=     0.0     freq=   915. Q= -0.004 lam=     0.0
  60     freq=   949. Q= -0.051 lam=     1.2     freq=   929. Q= -0.000 lam=     0.0
  61     freq=   972. Q= -0.091 lam=     4.0     freq=   938. Q= -0.001 lam=     0.0
  62     freq=   974. Q=  0.001 lam=     0.0     freq=   942. Q=  0.082 lam=     3.2
  63     freq=   980. Q= -0.001 lam=     0.0     freq=   951. Q= -0.030 lam=     0.4
  64     freq=   982. Q=  0.029 lam=     0.4     freq=   951. Q=  0.009 lam=     0.0
  65     freq=   985. Q=  0.049 lam=     1.2     freq=   981. Q=  0.029 lam=     0.4
  66     freq=   998. Q= -0.081 lam=     3.3     freq=   985. Q= -0.001 lam=     0.0
  67     freq=   998. Q=  0.000 lam=     0.0     freq=   989. Q=  0.132 lam=     8.7
  68     freq=  1002. Q=  0.000 lam=     0.0     freq=  1001. Q=  0.001 lam=     0.0
  69     freq=  1015. Q=  0.019 lam=     0.2     freq=  1013. Q=  0.043 lam=     0.9
  70     freq=  1025. Q=  0.020 lam=     0.2     freq=  1019. Q=  0.031 lam=     0.5
  71     freq=  1037. Q= -0.157 lam=    12.7     freq=  1037. Q= -0.028 lam=     0.4
  72     freq=  1038. Q= -0.003 lam=     0.0     freq=  1059. Q= -0.332 lam=    58.4
  73     freq=  1043. Q= -0.022 lam=     0.2     freq=  1060. Q= -0.097 lam=     5.0
  74     freq=  1063. Q= -0.003 lam=     0.0     freq=  1066. Q= -0.003 lam=     0.0
  75     freq=  1104. Q= -0.000 lam=     0.0     freq=  1100. Q= -0.001 lam=     0.0
  76     freq=  1128. Q= -0.000 lam=     0.0     freq=  1106. Q= -0.000 lam=     0.0
  77     freq=  1133. Q=  0.002 lam=     0.0     freq=  1134. Q=  0.107 lam=     6.5
  78     freq=  1165. Q= -0.106 lam=     6.5     freq=  1143. Q= -0.002 lam=     0.0
  79     freq=  1168. Q=  0.002 lam=     0.0     freq=  1177. Q=  0.001 lam=     0.0
  80     freq=  1183. Q= -0.000 lam=     0.0     freq=  1181. Q= -0.571 lam=   192.3
  81     freq=  1191. Q=  0.314 lam=    58.8     freq=  1183. Q=  0.002 lam=     0.0
  82     freq=  1203. Q=  0.000 lam=     0.0     freq=  1189. Q=  0.200 lam=    23.7
  83     freq=  1204. Q= -0.050 lam=     1.5     freq=  1205. Q= -0.035 lam=     0.8
  84     freq=  1209. Q=  0.184 lam=    20.3     freq=  1211. Q=  0.052 lam=     1.7
  85     freq=  1216. Q= -0.001 lam=     0.0     freq=  1212. Q= -0.001 lam=     0.0
  86     freq=  1249. Q=  0.001 lam=     0.0     freq=  1271. Q=  0.002 lam=     0.0
  87     freq=  1288. Q=  0.262 lam=    44.2     freq=  1280. Q=  0.038 lam=     0.9
  88     freq=  1288. Q= -0.400 lam=   103.0     freq=  1285. Q= -0.001 lam=     0.0
  89     freq=  1303. Q=  0.053 lam=     1.8     freq=  1300. Q=  0.086 lam=     4.8
  90     freq=  1311. Q= -0.374 lam=    91.8     freq=  1304. Q= -0.001 lam=     0.0
  91     freq=  1314. Q= -0.000 lam=     0.0     freq=  1305. Q= -0.064 lam=     2.7
  92     freq=  1336. Q=  0.001 lam=     0.0     freq=  1325. Q=  0.001 lam=     0.0
  93     freq=  1341. Q= -0.000 lam=     0.0     freq=  1341. Q= -0.002 lam=     0.0
  94     freq=  1356. Q= -0.001 lam=     0.0     freq=  1352. Q= -0.284 lam=    54.5
  95     freq=  1380. Q=  0.511 lam=   180.2     freq=  1358. Q=  0.001 lam=     0.0
  96     freq=  1402. Q= -0.001 lam=     0.0     freq=  1382. Q= -0.002 lam=     0.0
  97     freq=  1414. Q=  0.000 lam=     0.0     freq=  1393. Q=  1.138 lam=   902.3
  98     freq=  1427. Q= -0.001 lam=     0.0     freq=  1426. Q= -0.000 lam=     0.0
  99     freq=  1439. Q=  0.634 lam=   289.1     freq=  1440. Q=  0.001 lam=     0.0
 100     freq=  1477. Q= -0.000 lam=     0.0     freq=  1454. Q= -0.001 lam=     0.0
 101     freq=  1478. Q=  0.000 lam=     0.0     freq=  1465. Q=  0.068 lam=     3.4
 102     freq=  1483. Q= -0.126 lam=    11.8     freq=  1477. Q= -0.000 lam=     0.0
 103     freq=  1517. Q= -0.112 lam=     9.5     freq=  1514. Q= -0.098 lam=     7.2
 104     freq=  1523. Q= -0.093 lam=     6.6     freq=  1528. Q= -0.462 lam=   163.1
 105     freq=  1548. Q= -0.038 lam=     1.1     freq=  1528. Q= -0.007 lam=     0.0
 106     freq=  1558. Q=  0.000 lam=     0.0     freq=  1539. Q=  0.035 lam=     0.9
 107     freq=  1586. Q= -0.001 lam=     0.0     freq=  1548. Q= -0.000 lam=     0.0
 108     freq=  1597. Q=  0.895 lam=   639.1     freq=  1557. Q=  0.001 lam=     0.0
 109     freq=  1615. Q=  0.000 lam=     0.0     freq=  1573. Q=  0.002 lam=     0.0
 110     freq=  1621. Q= -0.000 lam=     0.0     freq=  1587. Q= -0.577 lam=   264.4
 111     freq=  1644. Q=  0.113 lam=    10.6     freq=  1597. Q=  0.162 lam=    20.9
 112     freq=  1650. Q=  0.264 lam=    57.3     freq=  1613. Q=  0.001 lam=     0.0
 113     freq=  1659. Q=  0.000 lam=     0.0     freq=  1623. Q=  0.214 lam=    37.2
 114     freq=  1670. Q=  0.066 lam=     3.6     freq=  1643. Q=  0.019 lam=     0.3
 115     freq=  3154. Q=  0.001 lam=     0.0     freq=  3153. Q=  0.005 lam=     0.0
 116     freq=  3158. Q=  0.000 lam=     0.0     freq=  3160. Q=  0.001 lam=     0.0
 117     freq=  3159. Q= -0.002 lam=     0.0     freq=  3162. Q= -0.000 lam=     0.0
 118     freq=  3159. Q= -0.003 lam=     0.0     freq=  3163. Q= -0.007 lam=     0.1
 119     freq=  3164. Q= -0.000 lam=     0.0     freq=  3166. Q= -0.000 lam=     0.0
 120     freq=  3166. Q=  0.010 lam=     0.1     freq=  3169. Q=  0.015 lam=     0.4
 121     freq=  3167. Q=  0.000 lam=     0.0     freq=  3171. Q=  0.000 lam=     0.0
 122     freq=  3169. Q= -0.000 lam=     0.0     freq=  3172. Q= -0.000 lam=     0.0
 123     freq=  3169. Q=  0.004 lam=     0.0     freq=  3173. Q=  0.006 lam=     0.1
 124     freq=  3175. Q=  0.003 lam=     0.0     freq=  3178. Q=  0.008 lam=     0.1
 125     freq=  3180. Q=  0.000 lam=     0.0     freq=  3183. Q=  0.000 lam=     0.0
 126     freq=  3183. Q=  0.000 lam=     0.0     freq=  3187. Q=  0.000 lam=     0.0
 127     freq=  3183. Q= -0.000 lam=     0.0     freq=  3188. Q= -0.014 lam=     0.3
 128     freq=  3183. Q= -0.011 lam=     0.2     freq=  3189. Q= -0.001 lam=     0.0
 129     freq=  3184. Q=  0.011 lam=     0.2     freq=  3189. Q=  0.029 lam=     1.3
 130     freq=  3190. Q= -0.003 lam=     0.0     freq=  3191. Q= -0.005 lam=     0.0
 131     freq=  3199. Q= -0.003 lam=     0.0     freq=  3206. Q= -0.004 lam=     0.0
 132     freq=  3199. Q= -0.039 lam=     2.4     freq=  3207. Q= -0.025 lam=     1.0

 total reorg energy (cm**-1, kcal/mol)=     2095.     4793.      5.99     13.70
 Nber of molecules processed=           2
