 Enter ifcurve (0=recti, 1=orth curvi, 2=apprx curvi, -1 = skip
 And atom ordering flag, 0= never changes, 1= use the first order thenceforth,
  2= deduce it (does read on fail), 3= always read it
 Reading file: 
 ./TT-BT_0_C0S0.log                                                             
                                          
  Entering Gaussian System, Link 0=g16                                          
  
 Gaussian format, type: g94, g98, g03= F F F
  #P Geom=AllCheck Guess=TCheck SCRF=Check GenChk RB3LYP/6-311G(d,p) Fre    
 energy type= B3LYP   
 Original G94 input coords:
  6 -2.115414 -0.941722 -0.019191
  6 -2.400228  0.432708  0.001009
  6 -1.378628  1.375024  0.016343
  6 -0.062747  0.915647  0.011071
 16  1.428642  1.832574  0.026567
  6  2.324110  0.285966  0.004631
  6  3.772808  0.244927  0.005765
  6  4.537723 -0.898201 -0.011413
  6  5.919489 -0.601517 -0.004891
 16  7.384347 -1.548421 -0.018052
  6  8.349497 -0.091311  0.006443
  6  7.606126  1.053195  0.023633
  6  6.215496  0.758105  0.017112
 16  4.759206  1.710153  0.030378
  7  1.582316 -0.778501 -0.012169
  6  0.240576 -0.466507 -0.009205
  6 -0.806685 -1.398285 -0.024413
  1 -2.931935 -1.654299 -0.030846
  1 -3.431311  0.766522  0.004747
  1 -1.602772  2.434638  0.031927
  1  4.093391 -1.882555 -0.027643
  1  9.425230 -0.177755  0.006506
  1  8.033942  2.045604  0.039981
  1 -0.570967 -2.455219 -0.039920
 nber atoms=          24
  SCF Done:  E(RB3LYP) =  -1749.11747259     A.U. after    1 cycles             
  
          23          40 "  -1749.11747259"
After scan for Atom:   Atom  AN      X      Y      Z        X      Y      Z        X      Y      Z   
After scan for Atom:   Atom  AN      X      Y      Z        X      Y      Z        X      Y      Z   
After scan for Atom:   Atom  AN      X      Y      Z        X      Y      Z        X      Y      Z   
After scan for Atom:   Atom  AN      X      Y      Z        X      Y      Z        X      Y      Z   
After scan for Atom:   Atom  AN      X      Y      Z        X      Y      Z        X      Y      Z   
After scan for Atom:   Atom  AN      X      Y      Z        X      Y      Z        X      Y      Z   
After scan for Atom:   Atom  AN      X      Y      Z        X      Y      Z        X      Y      Z   
After scan for Atom:   Atom  AN      X      Y      Z        X      Y      Z        X      Y      Z   
After scan for Atom:   Atom  AN      X      Y      Z        X      Y      Z        X      Y      Z   
After scan for Atom:   Atom  AN      X      Y      Z        X      Y      Z        X      Y      Z   
After scan for Atom:   Atom  AN      X      Y      Z        X      Y      Z        X      Y      Z   
After scan for Atom:   Atom  AN      X      Y      Z        X      Y      Z        X      Y      Z   
After scan for Atom:   Atom  AN      X      Y      Z        X      Y      Z        X      Y      Z   
After scan for Atom:   Atom  AN      X      Y      Z        X      Y      Z        X      Y      Z   
After scan for Atom:   Atom  AN      X      Y      Z        X      Y      Z        X      Y      Z   
After scan for Atom:   Atom  AN      X      Y      Z        X      Y      Z        X      Y      Z   
After scan for Atom:   Atom  AN      X      Y      Z        X      Y      Z        X      Y      Z   
After scan for Atom:   Atom  AN      X      Y      Z        X      Y      Z        X      Y      Z   
After scan for Atom:   Atom  AN      X      Y      Z        X      Y      Z        X      Y      Z   
After scan for Atom:   Atom  AN      X      Y      Z        X      Y      Z        X      Y      Z   
After scan for Atom:   Atom  AN      X      Y      Z        X      Y      Z        X      Y      Z   
After scan for Atom:   Atom  AN      X      Y      Z        X      Y      Z        X      Y      Z   
 g94    frequencies=
     0.0    0.0    0.0    0.0    0.0    0.0   24.1   45.8   69.7  121.4
   190.4  202.8  217.2  236.1  242.4  318.4  373.7  419.3  434.8  459.0
   459.8  508.8  509.1  559.8  562.9  598.3  616.1  625.6  634.6  686.3
   708.7  715.6  736.7  762.8  772.2  800.6  855.6  866.6  867.4  880.6
   907.5  951.4  965.3  990.3 1037.8 1078.0 1108.6 1144.0 1165.6 1184.2
  1198.6 1211.0 1274.8 1312.9 1342.6 1358.0 1383.8 1453.7 1462.1 1487.4
  1498.4 1526.0 1546.8 1595.8 1636.2 3169.2 3180.9 3191.7 3198.7 3215.2
  3232.3 3244.4
 g94    symmetries=
                                                 A      A      A      A
       A      A      A      A      A      A      A      A      A      A
       A      A      A      A      A      A      A      A      A      A
       A      A      A      A      A      A      A      A      A      A
       A      A      A      A      A      A      A      A      A      A
       A      A      A      A      A      A      A      A      A      A
       A      A      A      A      A      A      A      A      A      A
       A      A
 atomic masses:
 12.0000 12.0000 12.0000 12.0000 31.9721 12.0000 12.0000 12.0000 12.0000 31.9721
 12.0000 12.0000 12.0000 31.9721 14.0031 12.0000 12.0000  1.0078  1.0078  1.0078
  1.0078  1.0078  1.0078  1.0078
 looking for force constants in 
 ./TT-BT_0_C0S0.fchk                                                            
  
 Cartesian Force Constants                  R   N=        2628                  
  
 n3=          72        2628
 g94-fc frequencies=
    -1.8   -0.0   -0.0    0.0    1.6    4.7   24.1   45.8   69.7  121.4
   190.4  202.8  217.3  236.1  242.4  318.5  373.7  419.3  434.8  459.1
   459.8  508.8  509.2  559.8  562.9  598.3  616.1  625.7  634.6  686.3
   708.7  715.6  736.7  762.8  772.2  800.6  855.6  866.6  867.4  880.6
   907.5  951.4  965.3  990.4 1037.8 1078.0 1108.6 1144.1 1165.6 1184.2
  1198.7 1211.0 1274.8 1312.9 1342.6 1358.1 1383.8 1453.7 1462.1 1487.4
  1498.4 1526.1 1546.8 1595.9 1636.3 3169.2 3180.9 3191.7 3198.7 3215.3
  3232.4 3244.5
 at 99999: n3=          72
 symm operator            1 :  F  nop=           0
 symm operator            2 :  F  nop=           0
 symm operator            3 :  F  nop=           0
 symm operator            4 :  F  nop=           0
 symm operator            5 :  F  nop=           0
 symm operator            6 :  F  nop=           0
 symm operator            7 :  F  nop=           0
 The point group of the molecule is  C1
 Symmetry rotation matrix:
   1.00000   0.00000   0.00000
   0.00000   1.00000   0.00000
   0.00000   0.00000   1.00000

 Projecting out zero-frequency components
 generating redundant internal coords
         300        3600          24
 search for int coords
   1 str   2   1   1.404
   2 str   3   2   1.390
   3 str   4   3   1.394
   4 str   5   4   1.751
   5 str   6   5   1.787
   6 str   7   6   1.449
   7 str   8   7   1.376
   8 str   9   8   1.413
   9 str  10   9   1.744
  10 str  11  10   1.748
  11 str  12  11   1.365
  12 str  13   9   1.392
  13 str  13  12   1.422
  14 str  14   7   1.766
  15 str  14  13   1.740
  16 str  15   6   1.298
  17 str  16   4   1.415
  18 str  16  15   1.378
  19 str  17   1   1.386
  20 str  17  16   1.402
  21 str  18   1   1.084
  22 str  19   2   1.084
  23 str  20   3   1.083
  24 str  21   8   1.080
  25 str  22  11   1.079
  26 str  23  12   1.081
  27 str  24  17   1.083
 nber stretches=          27
  28 ben   1   2   3
  29 prop tor   1   2   3   4
  30 prop tor   1   2   3  20
  31 ben   1   2  19
  32 ben   1  17  16
  33 ben   1  17  24
  34 ben   2   1  17
  35 prop tor   2   1  17  16
  36 prop tor   2   1  17  24
  37 ben   2   1  18
  38 ben   2   3   4
  39 prop tor   2   3   4   5
  40 prop tor   2   3   4  16
  41 ben   2   3  20
  42 ben   3   2  19
  43 ben   3   4   5
  44 prop tor   3   4   5   6
  45 ben   3   4  16
  46 prop tor   3   4  16  15
  47 prop tor   3   4  16  17
  48 ben   4   3  20
  49 ben   4   5   6
  50 prop tor   4   5   6   7
  51 prop tor   4   5   6  15
  52 ben   4  16  15
  53 ben   4  16  17
  54 prop tor   4  16  17   1
  55 prop tor   4  16  17  24
  56 ben   5   4  16
  57 prop tor   5   4  16  15
  58 prop tor   5   4  16  17
  59 ben   5   6   7
  60 prop tor   5   6   7   8
  61 prop tor   5   6   7  14
  62 ben   5   6  15
  63 prop tor   5   6  15  16
  64 ben   6   7   8
  65 prop tor   6   7   8   9
  66 prop tor   6   7   8  21
  67 ben   6   7  14
  68 prop tor   6   7  14  13
  69 ben   6  15  16
  70 prop tor   6  15  16   4
  71 prop tor   6  15  16  17
  72 ben   7   6  15
  73 prop tor   7   6  15  16
  74 ben   7   8   9
  75 prop tor   7   8   9  10
  76 prop tor   7   8   9  13
  77 ben   7   8  21
  78 ben   7  14  13
  79 ben   8   7  14
  80 prop tor   8   7  14  13
  81 ben   8   9  10
  82 prop tor   8   9  10  11
  83 ben   8   9  13
  84 prop tor   8   9  13  12
  85 prop tor   8   9  13  14
  86 ben   9   8  21
  87 ben   9  10  11
  88 prop tor   9  10  11  12
  89 prop tor   9  10  11  22
  90 ben   9  13  12
  91 ben   9  13  14
  92 prop tor   9  13  14   7
  93 ben  10   9  13
  94 prop tor  10   9  13  12
  95 prop tor  10   9  13  14
  96 ben  10  11  12
  97 prop tor  10  11  12  13
  98 prop tor  10  11  12  23
  99 ben  10  11  22
 100 ben  11  12  13
 101 prop tor  11  12  13   9
 102 prop tor  11  12  13  14
 103 ben  11  12  23
 104 ben  12  11  22
 105 ben  12  13  14
 106 prop tor  12  13  14   7
 107 prop tor  13   9  10  11
 108 ben  13  12  23
 109 prop tor  14   7   8   9
 110 prop tor  14   7   8  21
 111 prop tor  15   6   7   8
 112 prop tor  15   6   7  14
 113 ben  15  16  17
 114 prop tor  15  16  17   1
 115 prop tor  15  16  17  24
 116 prop tor  16   4   5   6
 117 ben  16  17  24
 118 prop tor  17   1   2   3
 119 prop tor  17   1   2  19
 120 ben  17   1  18
 121 prop tor  18   1   2   3
 122 prop tor  18   1   2  19
 123 prop tor  18   1  17  16
 124 prop tor  18   1  17  24
 125 prop tor  19   2   3   4
 126 prop tor  19   2   3  20
 127 prop tor  20   3   4   5
 128 prop tor  20   3   4  16
 129 prop tor  21   8   9  10
 130 prop tor  21   8   9  13
 131 prop tor  22  11  12  13
 132 prop tor  22  11  12  23
 133 prop tor  23  12  13   9
 134 prop tor  23  12  13  14
 nber bend=              43
 nber lin bend=           0
 nber prop tor=          64
 nber impr tor=           0
 nber tot redund int=         134
 Eigenvalues of G in red int coords
    Gval -0.00000000 -0.00000000 -0.00000000 -0.00000000 -0.00000000 -0.00000000 -0.00000000 -0.00000000
    Gval -0.00000000 -0.00000000 -0.00000000 -0.00000000 -0.00000000 -0.00000000 -0.00000000 -0.00000000
    Gval -0.00000000 -0.00000000 -0.00000000 -0.00000000 -0.00000000 -0.00000000 -0.00000000 -0.00000000
    Gval -0.00000000 -0.00000000 -0.00000000 -0.00000000 -0.00000000 -0.00000000 -0.00000000 -0.00000000
    Gval -0.00000000 -0.00000000 -0.00000000  0.00000000  0.00000000  0.00000000  0.00000000  0.00000000
    Gval  0.00000000  0.00000000  0.00000000  0.00000000  0.00000000  0.00000000  0.00000000  0.00000000
    Gval  0.00000000  0.00000000  0.00000000  0.00000000  0.00000000  0.00000000  0.00000000  0.00000000
    Gval  0.00000000  0.00000000  0.00000000  0.00000000  0.00000000  0.00000000  0.00000000  0.00000000
    Gval  0.00000000  0.00000000  0.00000000  0.00000000  0.00000144  0.00000364  0.00000689  0.00000959
    Gval  0.00001724  0.00001815  0.00002238  0.00003177  0.00003475  0.00003552  0.00004275  0.00004480
    Gval  0.00004775  0.00004989  0.00005827  0.00006016  0.00007655  0.00008508  0.00009191  0.00011085
    Gval  0.00011122  0.00012284  0.00012499  0.00015304  0.00015347  0.00015708  0.00017704  0.00021391
    Gval  0.00023325  0.00025257  0.00029431  0.00031163  0.00031651  0.00032095  0.00035602  0.00038618
    Gval  0.00039918  0.00042861  0.00053699  0.00059315  0.00059660  0.00059751  0.00061831  0.00062195
    Gval  0.00062742  0.00064337  0.00065506  0.00066198  0.00085115  0.00105451  0.00108139  0.00112265
    Gval  0.00114600  0.00116328  0.00117171  0.00118670  0.00127387  0.00130117  0.00163621  0.00180166
    Gval  0.00208112  0.00270187  0.00355127  0.00357019  0.00397249  0.00402237
  1.439325366752540E-006  1.439325366752540E-006
  3.635586199957121E-006  1.439325366752540E-006
  6.888119665988754E-006  1.439325366752540E-006
  9.594413007369515E-006  1.439325366752540E-006
  1.723922189376871E-005  1.439325366752540E-006
  1.815247741626299E-005  1.439325366752540E-006
  2.238033041088703E-005  1.439325366752540E-006
  3.176525989168020E-005  1.439325366752540E-006
  3.475131632839546E-005  1.439325366752540E-006
  3.551864008102023E-005  1.439325366752540E-006
  4.275236266722289E-005  1.439325366752540E-006
  4.480393945094486E-005  1.439325366752540E-006
  4.774549161911292E-005  1.439325366752540E-006
  4.989058589891107E-005  1.439325366752540E-006
  5.826978771810324E-005  1.439325366752540E-006
  6.016168744640166E-005  1.439325366752540E-006
  7.655039944926067E-005  1.439325366752540E-006
  8.507591642875693E-005  1.439325366752540E-006
  9.191147692054205E-005  1.439325366752540E-006
  1.108530141838604E-004  1.439325366752540E-006
  1.112173334590249E-004  1.439325366752540E-006
  1.228437437264794E-004  1.439325366752540E-006
  1.249865172533082E-004  1.439325366752540E-006
  1.530416673205676E-004  1.439325366752540E-006
  1.534734932196496E-004  1.439325366752540E-006
  1.570816388239646E-004  1.439325366752540E-006
  1.770388476350886E-004  1.439325366752540E-006
  2.139069976224109E-004  1.439325366752540E-006
  2.332454391097748E-004  1.439325366752540E-006
  2.525732790110295E-004  1.439325366752540E-006
  2.943142129124768E-004  1.439325366752540E-006
  3.116273310370862E-004  1.439325366752540E-006
  3.165081976388927E-004  1.439325366752540E-006
  3.209539638943435E-004  1.439325366752540E-006
  3.560180767986168E-004  1.439325366752540E-006
  3.861762320904369E-004  1.439325366752540E-006
  3.991774008577306E-004  1.439325366752540E-006
  4.286130042146035E-004  1.439325366752540E-006
  5.369944280127259E-004  1.439325366752540E-006
  5.931542306296515E-004  1.439325366752540E-006
  5.966012745667650E-004  1.439325366752540E-006
  5.975097724785294E-004  1.439325366752540E-006
  6.183069789614660E-004  1.439325366752540E-006
  6.219463931276016E-004  1.439325366752540E-006
  6.274204209930464E-004  1.439325366752540E-006
  6.433673404389024E-004  1.439325366752540E-006
  6.550590563235956E-004  1.439325366752540E-006
  6.619816191126210E-004  1.439325366752540E-006
  8.511511308094210E-004  1.439325366752540E-006
  1.054511330703088E-003  1.439325366752540E-006
  1.081389718289403E-003  1.439325366752540E-006
  1.122654441373524E-003  1.439325366752540E-006
  1.145998900716206E-003  1.439325366752540E-006
  1.163284443004232E-003  1.439325366752540E-006
  1.171711068637593E-003  1.439325366752540E-006
  1.186704294319663E-003  1.439325366752540E-006
  1.273866336401598E-003  1.439325366752540E-006
  1.301165367999104E-003  1.439325366752540E-006
  1.636206561835674E-003  1.439325366752540E-006
  1.801657579889865E-003  1.439325366752540E-006
  2.081124190380488E-003  1.439325366752540E-006
  2.701868157476408E-003  1.439325366752540E-006
  3.551266653833653E-003  1.439325366752540E-006
  3.570194802833290E-003  1.439325366752540E-006
  3.972485911990719E-003  1.439325366752540E-006
  4.022368550723425E-003  1.439325366752540E-006
 cut=1d-8, nber non-redundant internal coords=          66
 Check on Eigenvals of non-red overlap matrix:
  0.00000144  0.00000364  0.00000689  0.00000959  0.00001724  0.00001815  0.00002238  0.00003177
  0.00003475  0.00003552  0.00004275  0.00004480  0.00004775  0.00004989  0.00005827  0.00006016
  0.00007655  0.00008508  0.00009191  0.00011085  0.00011122  0.00012284  0.00012499  0.00015304
  0.00015347  0.00015708  0.00017704  0.00021391  0.00023325  0.00025257  0.00029431  0.00031163
  0.00031651  0.00032095  0.00035602  0.00038618  0.00039918  0.00042861  0.00053699  0.00059315
  0.00059660  0.00059751  0.00061831  0.00062195  0.00062742  0.00064337  0.00065506  0.00066198
  0.00085115  0.00105451  0.00108139  0.00112265  0.00114600  0.00116328  0.00117171  0.00118670
  0.00127387  0.00130117  0.00163621  0.00180166  0.00208112  0.00270187  0.00355127  0.00357019
  0.00397249  0.00402237
 Checking for correct frequencies
 recalc frequencies=
    -0.0   -0.0   -0.0    0.0    0.0    0.0   24.1   45.8   69.7  121.4
   190.4  202.8  217.3  236.1  242.4  318.5  373.7  419.3  434.8  459.1
   459.8  508.8  509.2  559.8  562.9  598.3  616.1  625.7  634.6  686.3
   708.7  715.6  736.7  762.8  772.2  800.6  855.6  866.6  867.4  880.6
   907.5  951.4  965.3  990.4 1037.8 1078.0 1108.6 1144.1 1165.6 1184.2
  1198.7 1211.0 1274.8 1312.9 1342.6 1358.1 1383.8 1453.7 1462.1 1487.4
  1498.4 1526.1 1546.8 1595.9 1636.3 3169.2 3180.9 3191.7 3198.7 3215.3
  3232.4 3244.5
 recalc symmetries=
                                                                       
                                                                       
                                                                       
                                                                       
                                                                       
                                                                       
                                                                       
               
 recalc freqs check OK
 Zero-point lengths:
 10.0000 10.0000 10.0000 10.0000 10.0000 10.0000 50.5453 36.6227 29.6921 22.5030
 17.9682 17.4083 16.8194 16.1351 15.9225 13.8923 12.8248 12.1068 11.8895 11.5708
 11.5612 10.9904 10.9868 10.4783 10.4493 10.1350  9.9880  9.9112  9.8413  9.4632
  9.3127  9.2674  9.1335  8.9761  8.9213  8.7616  8.4753  8.4215  8.4174  8.3543
  8.2295  8.0373  7.9793  7.8777  7.6955  7.5506  7.4456  7.3295  7.2613  7.2042
  7.1606  7.1240  6.9435  6.8419  6.7658  6.7272  6.6644  6.5022  6.4835  6.4281
  6.4043  6.3461  6.3035  6.2058  6.1287  4.4037  4.3956  4.3881  4.3833  4.3720
  4.3605  4.3523
 highest evec of mol 1
 -0.0000 -0.0001 -0.0000
  0.0000  0.0000  0.0000
 -0.0001  0.0001  0.0000
  0.0001  0.0000  0.0000
  0.0000 -0.0000 -0.0000
 -0.0001 -0.0001 -0.0000
 -0.0002  0.0003  0.0000
 -0.0024 -0.0057 -0.0001
  0.0037  0.0001  0.0000
  0.0009  0.0021  0.0000
 -0.2792  0.0372  0.0002
 -0.0274 -0.0991 -0.0016
  0.0075  0.0020  0.0000
 -0.0004  0.0001  0.0000
 -0.0001  0.0000  0.0000
  0.0000 -0.0000 -0.0000
 -0.0000 -0.0001 -0.0000
  0.0002  0.0002  0.0000
  0.0001 -0.0000 -0.0000
  0.0001 -0.0002 -0.0000
  0.0077  0.0172  0.0003
  0.9040 -0.0764 -0.0000
  0.1143  0.2713  0.0045
 -0.0001  0.0002  0.0000
 generating redundant internal coords
         300        3600          24
 Adding extra bonds for z output only
           6           6           6           6          16           6
           6           6           6          16           6           6
           6          16           7           6           6           1
           1           1           1           1           1           1
 search for int coords
   1 str   2   1   1.404
   2 str   3   2   1.390
   3 str   4   3   1.394
   4 str   5   4   1.751
   5 str   6   5   1.787
   6 str   7   6   1.449
   7 str   8   7   1.376
   8 str   9   8   1.413
   9 str  10   9   1.744
  10 str  11  10   1.748
  11 str  12  11   1.365
  12 str  13   9   1.392
  13 str  13  12   1.422
  14 str  14   7   1.766
  15 str  14  13   1.740
  16 str  15   6   1.298
  17 str  16   4   1.415
  18 str  16  15   1.378
  19 str  17   1   1.386
  20 str  17  16   1.402
  21 str  18   1   1.084
  22 str  19   2   1.084
  23 str  20   3   1.083
  24 str  21   8   1.080
  25 str  22  11   1.079
  26 str  23  12   1.081
  27 str  24  17   1.083
 nber stretches=          27
  28 ben   1   2   3
  29 prop tor   1   2   3   4
  30 prop tor   1   2   3  20
  31 ben   1   2  19
  32 ben   1  17  16
  33 ben   1  17  24
  34 ben   2   1  17
  35 prop tor   2   1  17  16
  36 prop tor   2   1  17  24
  37 ben   2   1  18
  38 ben   2   3   4
  39 prop tor   2   3   4   5
  40 prop tor   2   3   4  16
  41 ben   2   3  20
  42 ben   3   2  19
  43 ben   3   4   5
  44 prop tor   3   4   5   6
  45 ben   3   4  16
  46 prop tor   3   4  16  15
  47 prop tor   3   4  16  17
  48 ben   4   3  20
  49 ben   4   5   6
  50 prop tor   4   5   6   7
  51 prop tor   4   5   6  15
  52 ben   4  16  15
  53 ben   4  16  17
  54 prop tor   4  16  17   1
  55 prop tor   4  16  17  24
  56 ben   5   4  16
  57 prop tor   5   4  16  15
  58 prop tor   5   4  16  17
  59 ben   5   6   7
  60 prop tor   5   6   7   8
  61 prop tor   5   6   7  14
  62 ben   5   6  15
  63 prop tor   5   6  15  16
  64 ben   6   7   8
  65 prop tor   6   7   8   9
  66 prop tor   6   7   8  21
  67 ben   6   7  14
  68 prop tor   6   7  14  13
  69 ben   6  15  16
  70 prop tor   6  15  16   4
  71 prop tor   6  15  16  17
  72 ben   7   6  15
  73 prop tor   7   6  15  16
  74 ben   7   8   9
  75 prop tor   7   8   9  10
  76 prop tor   7   8   9  13
  77 ben   7   8  21
  78 ben   7  14  13
  79 ben   8   7  14
  80 prop tor   8   7  14  13
  81 ben   8   9  10
  82 prop tor   8   9  10  11
  83 ben   8   9  13
  84 prop tor   8   9  13  12
  85 prop tor   8   9  13  14
  86 ben   9   8  21
  87 ben   9  10  11
  88 prop tor   9  10  11  12
  89 prop tor   9  10  11  22
  90 ben   9  13  12
  91 ben   9  13  14
  92 prop tor   9  13  14   7
  93 ben  10   9  13
  94 prop tor  10   9  13  12
  95 prop tor  10   9  13  14
  96 ben  10  11  12
  97 prop tor  10  11  12  13
  98 prop tor  10  11  12  23
  99 ben  10  11  22
 100 ben  11  12  13
 101 prop tor  11  12  13   9
 102 prop tor  11  12  13  14
 103 ben  11  12  23
 104 ben  12  11  22
 105 ben  12  13  14
 106 prop tor  12  13  14   7
 107 prop tor  13   9  10  11
 108 ben  13  12  23
 109 prop tor  14   7   8   9
 110 prop tor  14   7   8  21
 111 prop tor  15   6   7   8
 112 prop tor  15   6   7  14
 113 ben  15  16  17
 114 prop tor  15  16  17   1
 115 prop tor  15  16  17  24
 116 prop tor  16   4   5   6
 117 ben  16  17  24
 118 prop tor  17   1   2   3
 119 prop tor  17   1   2  19
 120 ben  17   1  18
 121 prop tor  18   1   2   3
 122 prop tor  18   1   2  19
 123 prop tor  18   1  17  16
 124 prop tor  18   1  17  24
 125 prop tor  19   2   3   4
 126 prop tor  19   2   3  20
 127 prop tor  20   3   4   5
 128 prop tor  20   3   4  16
 129 prop tor  21   8   9  10
 130 prop tor  21   8   9  13
 131 prop tor  22  11  12  13
 132 prop tor  22  11  12  23
 133 prop tor  23  12  13   9
 134 prop tor  23  12  13  14
 nber bend=              43
 nber lin bend=           0
 nber prop tor=          64
 nber impr tor=           0
 nber tot redund int=         134
 Reading file: 
 ./TT-BT_0_C0S1.log                                                             
                                          
  Entering Gaussian System, Link 0=g16                                          
  
 Gaussian format, type: g94, g98, g03= F F F
  #P Geom=AllCheck Guess=TCheck SCRF=Check GenChk RB3LYP TD(FC,Read)/6-3    
 energy type= TD      
 Original G94 input coords:
  6 -2.090179 -0.956154 -0.019689
  6 -2.383602  0.425834  0.001093
  6 -1.362109  1.375360  0.016816
  6 -0.047501  0.931801  0.011572
 16  1.427074  1.874533  0.027766
  6  2.351185  0.320011  0.004977
  6  3.744943  0.283327  0.006143
  6  4.534033 -0.907721 -0.011075
  6  5.883358 -0.610983 -0.004661
 16  7.361406 -1.571915 -0.017341
  6  8.327322 -0.113694  0.006137
  6  7.577371  1.044951  0.023165
  6  6.201963  0.771274  0.017062
 16  4.751699  1.759665  0.030218
  7  1.583603 -0.786000 -0.012811
  6  0.278051 -0.473380 -0.009519
  6 -0.789568 -1.410970 -0.025119
  1 -2.907592 -1.668111 -0.031519
  1 -3.416420  0.753871  0.004893
  1 -1.595167  2.433239  0.032734
  1  4.071708 -1.882734 -0.026652
  1  9.403502 -0.196890  0.006167
  1  8.017616  2.032468  0.039005
  1 -0.550486 -2.467010 -0.040992
 nber atoms=          24
  Total Energy, E(TD-HF/TD-DFT) =  -1748.99606018                               
  
          32          49 "  -1748.99606018"
After scan for Atom:   Atom  AN      X      Y      Z        X      Y      Z        X      Y      Z   
After scan for Atom:   Atom  AN      X      Y      Z        X      Y      Z        X      Y      Z   
After scan for Atom:   Atom  AN      X      Y      Z        X      Y      Z        X      Y      Z   
After scan for Atom:   Atom  AN      X      Y      Z        X      Y      Z        X      Y      Z   
After scan for Atom:   Atom  AN      X      Y      Z        X      Y      Z        X      Y      Z   
After scan for Atom:   Atom  AN      X      Y      Z        X      Y      Z        X      Y      Z   
After scan for Atom:   Atom  AN      X      Y      Z        X      Y      Z        X      Y      Z   
After scan for Atom:   Atom  AN      X      Y      Z        X      Y      Z        X      Y      Z   
After scan for Atom:   Atom  AN      X      Y      Z        X      Y      Z        X      Y      Z   
After scan for Atom:   Atom  AN      X      Y      Z        X      Y      Z        X      Y      Z   
After scan for Atom:   Atom  AN      X      Y      Z        X      Y      Z        X      Y      Z   
After scan for Atom:   Atom  AN      X      Y      Z        X      Y      Z        X      Y      Z   
After scan for Atom:   Atom  AN      X      Y      Z        X      Y      Z        X      Y      Z   
After scan for Atom:   Atom  AN      X      Y      Z        X      Y      Z        X      Y      Z   
After scan for Atom:   Atom  AN      X      Y      Z        X      Y      Z        X      Y      Z   
After scan for Atom:   Atom  AN      X      Y      Z        X      Y      Z        X      Y      Z   
After scan for Atom:   Atom  AN      X      Y      Z        X      Y      Z        X      Y      Z   
After scan for Atom:   Atom  AN      X      Y      Z        X      Y      Z        X      Y      Z   
After scan for Atom:   Atom  AN      X      Y      Z        X      Y      Z        X      Y      Z   
After scan for Atom:   Atom  AN      X      Y      Z        X      Y      Z        X      Y      Z   
After scan for Atom:   Atom  AN      X      Y      Z        X      Y      Z        X      Y      Z   
After scan for Atom:   Atom  AN      X      Y      Z        X      Y      Z        X      Y      Z   
 g94    frequencies=
     0.0    0.0    0.0    0.0    0.0    0.0   31.5   55.9   60.7   94.5
   166.4  191.4  214.5  214.5  245.3  265.9  369.1  393.9  405.7  427.6
   435.5  453.1  492.8  517.4  543.2  559.2  560.9  607.8  612.9  656.2
   658.0  696.7  716.0  743.0  762.8  764.4  769.1  838.5  847.0  862.3
   889.4  929.3  934.3  979.0 1023.1 1053.1 1089.2 1116.8 1140.1 1145.6
  1178.6 1198.6 1251.3 1274.2 1338.1 1351.3 1374.9 1418.5 1430.9 1447.6
  1465.0 1493.7 1527.6 1556.5 1604.6 3169.3 3179.5 3191.7 3199.2 3210.7
  3241.7 3241.9
 g94    symmetries=
                                                 A      A      A      A
       A      A      A      A      A      A      A      A      A      A
       A      A      A      A      A      A      A      A      A      A
       A      A      A      A      A      A      A      A      A      A
       A      A      A      A      A      A      A      A      A      A
       A      A      A      A      A      A      A      A      A      A
       A      A      A      A      A      A      A      A      A      A
       A      A
 atomic masses:
 12.0000 12.0000 12.0000 12.0000 31.9721 12.0000 12.0000 12.0000 12.0000 31.9721
 12.0000 12.0000 12.0000 31.9721 14.0031 12.0000 12.0000  1.0078  1.0078  1.0078
  1.0078  1.0078  1.0078  1.0078
 looking for force constants in 
 ./TT-BT_0_C0S1.fchk                                                            
  
 Cartesian Force Constants                  R   N=        2628                  
  
 n3=          72        2628
 g94-fc frequencies=
    -2.3   -1.6   -0.0    0.0    0.0    2.0   31.5   55.9   60.7   94.5
   166.4  191.5  214.5  214.5  245.3  266.0  369.1  393.9  405.7  427.6
   435.5  453.1  492.8  517.4  543.2  559.2  560.9  607.8  612.9  656.2
   658.0  696.7  716.0  743.0  762.8  764.5  769.1  838.6  847.0  862.3
   889.4  929.3  934.3  979.0 1023.2 1053.2 1089.2 1116.9 1140.1 1145.6
  1178.7 1198.6 1251.4 1274.3 1338.2 1351.3 1375.0 1418.6 1431.0 1447.6
  1465.0 1493.7 1527.6 1556.6 1604.6 3169.4 3179.6 3191.8 3199.3 3210.7
  3241.8 3242.0
 at 99999: n3=          72
 symm operator            1 :  F  nop=           0
 symm operator            2 :  F  nop=           0
 symm operator            3 :  F  nop=           0
 symm operator            4 :  F  nop=           0
 symm operator            5 :  F  nop=           0
 symm operator            6 :  F  nop=           0
 symm operator            7 :  F  nop=           0
 The point group of the molecule is  C1
 Symmetry rotation matrix:
   1.00000   0.00000   0.00000
   0.00000   1.00000   0.00000
   0.00000   0.00000   1.00000

 Projecting out zero-frequency components
 generating redundant internal coords
         300        3600          24
 search for int coords
   1 str   2   1   1.413
   2 str   3   2   1.395
   3 str   4   3   1.387
   4 str   5   4   1.750
   5 str   6   5   1.809
   6 str   7   6   1.394
   7 str   8   7   1.429
   8 str   9   8   1.382
   9 str  10   9   1.763
  10 str  11  10   1.749
  11 str  12  11   1.380
  12 str  13   9   1.419
  13 str  13  12   1.402
  14 str  14   7   1.787
  15 str  14  13   1.755
  16 str  15   6   1.346
  17 str  16   4   1.443
  18 str  16  15   1.342
  19 str  17   1   1.378
  20 str  17  16   1.421
  21 str  18   1   1.084
  22 str  19   2   1.084
  23 str  20   3   1.083
  24 str  21   8   1.079
  25 str  22  11   1.079
  26 str  23  12   1.081
  27 str  24  17   1.083
 nber stretches=          27
  28 ben   1   2   3
  29 prop tor   1   2   3   4
  30 prop tor   1   2   3  20
  31 ben   1   2  19
  32 ben   1  17  16
  33 ben   1  17  24
  34 ben   2   1  17
  35 prop tor   2   1  17  16
  36 prop tor   2   1  17  24
  37 ben   2   1  18
  38 ben   2   3   4
  39 prop tor   2   3   4   5
  40 prop tor   2   3   4  16
  41 ben   2   3  20
  42 ben   3   2  19
  43 ben   3   4   5
  44 prop tor   3   4   5   6
  45 ben   3   4  16
  46 prop tor   3   4  16  15
  47 prop tor   3   4  16  17
  48 ben   4   3  20
  49 ben   4   5   6
  50 prop tor   4   5   6   7
  51 prop tor   4   5   6  15
  52 ben   4  16  15
  53 ben   4  16  17
  54 prop tor   4  16  17   1
  55 prop tor   4  16  17  24
  56 ben   5   4  16
  57 prop tor   5   4  16  15
  58 prop tor   5   4  16  17
  59 ben   5   6   7
  60 prop tor   5   6   7   8
  61 prop tor   5   6   7  14
  62 ben   5   6  15
  63 prop tor   5   6  15  16
  64 ben   6   7   8
  65 prop tor   6   7   8   9
  66 prop tor   6   7   8  21
  67 ben   6   7  14
  68 prop tor   6   7  14  13
  69 ben   6  15  16
  70 prop tor   6  15  16   4
  71 prop tor   6  15  16  17
  72 ben   7   6  15
  73 prop tor   7   6  15  16
  74 ben   7   8   9
  75 prop tor   7   8   9  10
  76 prop tor   7   8   9  13
  77 ben   7   8  21
  78 ben   7  14  13
  79 ben   8   7  14
  80 prop tor   8   7  14  13
  81 ben   8   9  10
  82 prop tor   8   9  10  11
  83 ben   8   9  13
  84 prop tor   8   9  13  12
  85 prop tor   8   9  13  14
  86 ben   9   8  21
  87 ben   9  10  11
  88 prop tor   9  10  11  12
  89 prop tor   9  10  11  22
  90 ben   9  13  12
  91 ben   9  13  14
  92 prop tor   9  13  14   7
  93 ben  10   9  13
  94 prop tor  10   9  13  12
  95 prop tor  10   9  13  14
  96 ben  10  11  12
  97 prop tor  10  11  12  13
  98 prop tor  10  11  12  23
  99 ben  10  11  22
 100 ben  11  12  13
 101 prop tor  11  12  13   9
 102 prop tor  11  12  13  14
 103 ben  11  12  23
 104 ben  12  11  22
 105 ben  12  13  14
 106 prop tor  12  13  14   7
 107 prop tor  13   9  10  11
 108 ben  13  12  23
 109 prop tor  14   7   8   9
 110 prop tor  14   7   8  21
 111 prop tor  15   6   7   8
 112 prop tor  15   6   7  14
 113 ben  15  16  17
 114 prop tor  15  16  17   1
 115 prop tor  15  16  17  24
 116 prop tor  16   4   5   6
 117 ben  16  17  24
 118 prop tor  17   1   2   3
 119 prop tor  17   1   2  19
 120 ben  17   1  18
 121 prop tor  18   1   2   3
 122 prop tor  18   1   2  19
 123 prop tor  18   1  17  16
 124 prop tor  18   1  17  24
 125 prop tor  19   2   3   4
 126 prop tor  19   2   3  20
 127 prop tor  20   3   4   5
 128 prop tor  20   3   4  16
 129 prop tor  21   8   9  10
 130 prop tor  21   8   9  13
 131 prop tor  22  11  12  13
 132 prop tor  22  11  12  23
 133 prop tor  23  12  13   9
 134 prop tor  23  12  13  14
 nber bend=              43
 nber lin bend=           0
 nber prop tor=          64
 nber impr tor=           0
 nber tot redund int=         134
 Eigenvalues of G in red int coords
    Gval -0.00000000 -0.00000000 -0.00000000 -0.00000000 -0.00000000 -0.00000000 -0.00000000 -0.00000000
    Gval -0.00000000 -0.00000000 -0.00000000 -0.00000000 -0.00000000 -0.00000000 -0.00000000 -0.00000000
    Gval -0.00000000 -0.00000000 -0.00000000 -0.00000000 -0.00000000 -0.00000000 -0.00000000 -0.00000000
    Gval -0.00000000 -0.00000000 -0.00000000 -0.00000000 -0.00000000 -0.00000000 -0.00000000 -0.00000000
    Gval -0.00000000 -0.00000000  0.00000000  0.00000000  0.00000000  0.00000000  0.00000000  0.00000000
    Gval  0.00000000  0.00000000  0.00000000  0.00000000  0.00000000  0.00000000  0.00000000  0.00000000
    Gval  0.00000000  0.00000000  0.00000000  0.00000000  0.00000000  0.00000000  0.00000000  0.00000000
    Gval  0.00000000  0.00000000  0.00000000  0.00000000  0.00000000  0.00000000  0.00000000  0.00000000
    Gval  0.00000000  0.00000000  0.00000000  0.00000000  0.00000143  0.00000364  0.00000698  0.00000971
    Gval  0.00001695  0.00001816  0.00002227  0.00003168  0.00003475  0.00003510  0.00004257  0.00004508
    Gval  0.00004742  0.00004989  0.00005823  0.00006003  0.00007678  0.00008503  0.00009242  0.00011037
    Gval  0.00011049  0.00012242  0.00012424  0.00015064  0.00015260  0.00015636  0.00017346  0.00021488
    Gval  0.00023295  0.00025186  0.00029319  0.00030720  0.00031399  0.00032087  0.00035690  0.00038373
    Gval  0.00039473  0.00043341  0.00051307  0.00059314  0.00059656  0.00059743  0.00061828  0.00062192
    Gval  0.00062670  0.00064799  0.00065441  0.00066290  0.00085773  0.00105406  0.00108184  0.00112111
    Gval  0.00114740  0.00116295  0.00117069  0.00118293  0.00127737  0.00130253  0.00161446  0.00179757
    Gval  0.00207749  0.00268955  0.00356210  0.00358762  0.00393149  0.00401184
  1.431211574848724E-006  1.431211574848724E-006
  3.636523475221313E-006  1.431211574848724E-006
  6.980028757359345E-006  1.431211574848724E-006
  9.713992818738239E-006  1.431211574848724E-006
  1.694584640914227E-005  1.431211574848724E-006
  1.816158084379829E-005  1.431211574848724E-006
  2.227169917020036E-005  1.431211574848724E-006
  3.168350488207645E-005  1.431211574848724E-006
  3.475398740522942E-005  1.431211574848724E-006
  3.510426815650200E-005  1.431211574848724E-006
  4.256619246064893E-005  1.431211574848724E-006
  4.508308159018335E-005  1.431211574848724E-006
  4.742072434048491E-005  1.431211574848724E-006
  4.988827839609235E-005  1.431211574848724E-006
  5.823414440256261E-005  1.431211574848724E-006
  6.003398747299213E-005  1.431211574848724E-006
  7.678324371427734E-005  1.431211574848724E-006
  8.502787742768527E-005  1.431211574848724E-006
  9.242094943382781E-005  1.431211574848724E-006
  1.103683046225313E-004  1.431211574848724E-006
  1.104896221968081E-004  1.431211574848724E-006
  1.224199118152040E-004  1.431211574848724E-006
  1.242397167730524E-004  1.431211574848724E-006
  1.506372053405272E-004  1.431211574848724E-006
  1.526002011536492E-004  1.431211574848724E-006
  1.563582198881919E-004  1.431211574848724E-006
  1.734569494273829E-004  1.431211574848724E-006
  2.148832406040216E-004  1.431211574848724E-006
  2.329543461263057E-004  1.431211574848724E-006
  2.518550896059354E-004  1.431211574848724E-006
  2.931850303284619E-004  1.431211574848724E-006
  3.071958075919162E-004  1.431211574848724E-006
  3.139912789325663E-004  1.431211574848724E-006
  3.208744985188599E-004  1.431211574848724E-006
  3.568961094603464E-004  1.431211574848724E-006
  3.837349303344920E-004  1.431211574848724E-006
  3.947302194773290E-004  1.431211574848724E-006
  4.334110586455099E-004  1.431211574848724E-006
  5.130691484679632E-004  1.431211574848724E-006
  5.931363124192834E-004  1.431211574848724E-006
  5.965605657615563E-004  1.431211574848724E-006
  5.974331118596454E-004  1.431211574848724E-006
  6.182793492028686E-004  1.431211574848724E-006
  6.219173284945546E-004  1.431211574848724E-006
  6.266978133803852E-004  1.431211574848724E-006
  6.479907072581651E-004  1.431211574848724E-006
  6.544054396302646E-004  1.431211574848724E-006
  6.628973231529567E-004  1.431211574848724E-006
  8.577346322013545E-004  1.431211574848724E-006
  1.054059993270515E-003  1.431211574848724E-006
  1.081839065221025E-003  1.431211574848724E-006
  1.121111647970473E-003  1.431211574848724E-006
  1.147396646296950E-003  1.431211574848724E-006
  1.162945412805940E-003  1.431211574848724E-006
  1.170687048363654E-003  1.431211574848724E-006
  1.182927533345072E-003  1.431211574848724E-006
  1.277372892078262E-003  1.431211574848724E-006
  1.302527993488961E-003  1.431211574848724E-006
  1.614462750986053E-003  1.431211574848724E-006
  1.797573332120602E-003  1.431211574848724E-006
  2.077491674722818E-003  1.431211574848724E-006
  2.689551920819134E-003  1.431211574848724E-006
  3.562101294751949E-003  1.431211574848724E-006
  3.587616456517197E-003  1.431211574848724E-006
  3.931487481748027E-003  1.431211574848724E-006
  4.011835341723798E-003  1.431211574848724E-006
 cut=1d-8, nber non-redundant internal coords=          66
 Check on Eigenvals of non-red overlap matrix:
  0.00000143  0.00000364  0.00000698  0.00000971  0.00001695  0.00001816  0.00002227  0.00003168
  0.00003475  0.00003510  0.00004257  0.00004508  0.00004742  0.00004989  0.00005823  0.00006003
  0.00007678  0.00008503  0.00009242  0.00011037  0.00011049  0.00012242  0.00012424  0.00015064
  0.00015260  0.00015636  0.00017346  0.00021488  0.00023295  0.00025186  0.00029319  0.00030720
  0.00031399  0.00032087  0.00035690  0.00038373  0.00039473  0.00043341  0.00051307  0.00059314
  0.00059656  0.00059743  0.00061828  0.00062192  0.00062670  0.00064799  0.00065441  0.00066290
  0.00085773  0.00105406  0.00108184  0.00112111  0.00114740  0.00116295  0.00117069  0.00118293
  0.00127737  0.00130253  0.00161446  0.00179757  0.00207749  0.00268955  0.00356210  0.00358762
  0.00393149  0.00401184
 Checking for correct frequencies
 recalc frequencies=
    -0.0   -0.0   -0.0    0.0    0.0    0.0   31.5   55.9   60.7   94.5
   166.4  191.5  214.5  214.5  245.3  266.0  369.1  393.9  405.7  427.6
   435.5  453.1  492.8  517.4  543.2  559.2  560.9  607.8  612.9  656.2
   658.0  696.7  716.0  743.0  762.8  764.5  769.1  838.6  847.0  862.3
   889.4  929.3  934.3  979.0 1023.2 1053.2 1089.2 1116.9 1140.1 1145.6
  1178.7 1198.6 1251.4 1274.3 1338.2 1351.3 1375.0 1418.6 1431.0 1447.6
  1465.0 1493.7 1527.6 1556.6 1604.6 3169.4 3179.6 3191.8 3199.3 3210.7
  3241.8 3242.0
 recalc symmetries=
                                                                       
                                                                       
                                                                       
                                                                       
                                                                       
                                                                       
                                                                       
               
 recalc freqs check OK
 Zero-point lengths:
 10.0000 10.0000 10.0000 10.0000 10.0000 10.0000 44.1762 33.1479 31.8114 25.5035
 19.2159 17.9171 16.9285 16.9273 15.8275 15.2018 12.9035 12.4913 12.3081 11.9892
 11.8798 11.6465 11.1673 10.8987 10.6372 10.4837 10.4679 10.0560 10.0141  9.6775
  9.6643  9.3920  9.2650  9.0952  8.9760  8.9664  8.9395  8.5611  8.5185  8.4426
  8.3129  8.1322  8.1106  7.9233  7.7504  7.6392  7.5118  7.4181  7.3422  7.3244
  7.2210  7.1607  7.0082  6.9449  6.7770  6.7439  6.6857  6.5822  6.5536  6.5158
  6.4770  6.4145  6.3430  6.2837  6.1889  4.4036  4.3965  4.3881  4.3830  4.3752
  4.3542  4.3540
 highest evec of mol 2
  0.0002 -0.0001 -0.0000
 -0.0003  0.0001  0.0000
  0.0001  0.0000  0.0000
 -0.0002  0.0002  0.0000
  0.0001  0.0001  0.0000
  0.0009 -0.0002 -0.0000
 -0.0026  0.0017  0.0000
 -0.0478 -0.0987 -0.0016
  0.0028  0.0006  0.0000
 -0.0011 -0.0021 -0.0000
  0.2608 -0.0315 -0.0002
  0.0227  0.0772  0.0012
 -0.0063 -0.0002 -0.0000
  0.0006  0.0007  0.0000
 -0.0010 -0.0003 -0.0000
  0.0007 -0.0001 -0.0000
 -0.0002 -0.0002 -0.0000
 -0.0002 -0.0001 -0.0000
  0.0006 -0.0002 -0.0000
 -0.0000  0.0000  0.0000
  0.1525  0.3264  0.0052
 -0.8515  0.0691  0.0000
 -0.0915 -0.2106 -0.0034
 -0.0001  0.0004  0.0000
 Enter nber and list of atoms to keep of mol #2
 keep list:          24           1           2           3           4
           5           6           7           8           9          10
          11          12          13          14          15          16
          17          18          19          20          21          22
          23          24
 reordering atoms
           1  -5.18046197734138     
           2  -5.55100855878465     
           3  -4.58443400659100     
           4  -3.24699739519480     
           5  -1.82767396342373     
           6 -0.817747838928770     
           7  0.575871567917100     
           8   1.43058386924043     
           9   2.76112175018963     
          10   4.29078660440390     
          11   5.17331312239920     
          12   4.35949733702617     
          13   3.00162291737658     
          14   1.49815667526783     
          15  -1.52202658342615     
          16  -2.84307040084128     
          17  -3.85636830966352     
          18  -5.95661576515241     
          19  -6.60061405397567     
          20  -4.87651494313266     
          21   1.02372626873060     
          22   6.25246659944119     
          23   4.74360781012322     
          24  -3.55837611327336     
           1           1
           2           2
           3           3
           4           4
           5           5
           6           6
           7           7
           8           8
           9           9
          10          10
          11          11
          12          12
          13          13
          14          14
          15          15
          16          16
          17          17
          18          18
          19          19
          20          20
          21          21
          22          22
          23          23
          24          24
 initial cartes coords mol 1
   6   0.00057   1.45579  -5.21243
   6  -0.00008   0.09868  -5.57139
   6  -0.00054  -0.89779  -4.60242
   6  -0.00034  -0.51044  -3.26355
  16  -0.00083  -1.50705  -1.82411
   6  -0.00001  -0.01115  -0.84605
   6  -0.00002  -0.04878   0.60274
   6  -0.00051   1.05130   1.42855
   6  -0.00026   0.68003   2.79219
  16  -0.00062   1.54617   4.30626
   6   0.00021   0.03864   5.19093
   6   0.00066  -1.06398   4.38656
   6   0.00040  -0.69382   3.01399
  16   0.00077  -1.56556   1.50819
   7   0.00053   1.09213  -1.52900
   6   0.00033   0.85337  -2.88569
   6   0.00078   1.84071  -3.88085
   1   0.00092   2.21170  -5.98908
   1  -0.00022  -0.17872  -6.61906
   1  -0.00102  -1.94380  -4.88372
   1  -0.00101   2.05844   1.03828
   1   0.00028   0.06659   6.26977
   1   0.00117  -2.07827   4.75991
   1   0.00129   2.88341  -3.58814
 initial cartes coords mol 2
   6   0.00017   1.48677  -5.18046
   6   0.00019   0.12328  -5.55101
   6   0.00012  -0.88222  -4.58443
   6   0.00001  -0.51313  -3.24700
  16  -0.00006  -1.53729  -1.82767
   6  -0.00024  -0.03692  -0.81775
   6  -0.00026  -0.07856   0.57587
   6  -0.00026   1.06644   1.43058
   6  -0.00007   0.69437   2.76112
  16   0.00009   1.57089   4.29079
   6   0.00006   0.06056   5.17331
   6   0.00031  -1.05428   4.35950
   6   0.00011  -0.70377   3.00162
  16  -0.00002  -1.60928   1.49816
   7  -0.00016   1.11058  -1.52203
   6  -0.00001   0.87172  -2.84307
   6   0.00007   1.86789  -3.85637
   1   0.00025   2.24359  -5.95662
   1   0.00027  -0.14628  -6.60061
   1   0.00015  -1.92547  -4.87651
   1  -0.00035   2.06599   1.02373
   1   0.00001   0.08321   6.25247
   1   0.00050  -2.06508   4.74361
   1   0.00004   2.90896  -3.55838
 loop 1 0
 mod cartes coords mol 2
   6   0.00017   1.48677  -5.18046
   6   0.00019   0.12328  -5.55101
   6   0.00012  -0.88222  -4.58443
   6   0.00001  -0.51313  -3.24700
  16  -0.00006  -1.53729  -1.82767
   6  -0.00024  -0.03692  -0.81775
   6  -0.00026  -0.07856   0.57587
   6  -0.00026   1.06644   1.43058
   6  -0.00007   0.69437   2.76112
  16   0.00009   1.57089   4.29079
   6   0.00006   0.06056   5.17331
   6   0.00031  -1.05428   4.35950
   6   0.00011  -0.70377   3.00162
  16  -0.00002  -1.60928   1.49816
   7  -0.00016   1.11058  -1.52203
   6  -0.00001   0.87172  -2.84307
   6   0.00007   1.86789  -3.85637
   1   0.00025   2.24359  -5.95662
   1   0.00027  -0.14628  -6.60061
   1   0.00015  -1.92547  -4.87651
   1  -0.00035   2.06599   1.02373
   1   0.00001   0.08321   6.25247
   1   0.00050  -2.06508   4.74361
   1   0.00004   2.90896  -3.55838
 read in order, maxerr=  0.05 for atom  16
 final axis swaps:           1           1           1
 final xyz swap pattern=           1
 reorder list:
   1   2   3   4   5   6   7   8   9  10  11  12  13  14  15  16  17  18  19  20
  21  22  23  24
 axis signs=           1           1           1
  6     0.000173  1.486772 -5.180462     0.000573  1.455788 -5.212427
  6     0.000192  0.123278 -5.551009    -0.000078  0.098684 -5.571390
  6     0.000116 -0.882221 -4.584434    -0.000537 -0.897788 -4.602419
  6     0.000006 -0.513128 -3.246997    -0.000343 -0.510444 -3.263553
 16    -0.000064 -1.537285 -1.827674    -0.000827 -1.507054 -1.824107
  6    -0.000242 -0.036922 -0.817748    -0.000007 -0.011147 -0.846048
  6    -0.000263 -0.078556  0.575872    -0.000024 -0.048779  0.602743
  6    -0.000259  1.066442  1.430584    -0.000509  1.051300  1.428550
  6    -0.000074  0.694365  2.761122    -0.000265  0.680031  2.792185
 16     0.000086  1.570894  4.290787    -0.000622  1.546166  4.306259
  6     0.000056  0.060562  5.173313     0.000207  0.038640  5.190934
  6     0.000308 -1.054282  4.359497     0.000658 -1.063984  4.386564
  6     0.000115 -0.703767  3.001623     0.000400 -0.693825  3.013992
 16    -0.000024 -1.609276  1.498157     0.000773 -1.565562  1.508194
  7    -0.000157  1.110575 -1.522027     0.000526  1.092126 -1.528998
  6    -0.000008  0.871721 -2.843070     0.000329  0.853369 -2.885689
  6     0.000067  1.867892 -3.856368     0.000783  1.840709 -3.880855
  1     0.000254  2.243589 -5.956616     0.000916  2.211705 -5.989085
  1     0.000271 -0.146284 -6.600614    -0.000220 -0.178722 -6.619065
  1     0.000151 -1.925469 -4.876515    -0.001022 -1.943796 -4.883721
  1    -0.000348  2.065994  1.023726    -0.001008  2.058442  1.038278
  1     0.000009  0.083206  6.252467     0.000280  0.066590  6.269772
  1     0.000497 -2.065082  4.743608     0.001170 -2.078273  4.759908
  1     0.000041  2.908965 -3.558376     0.001290  2.883413 -3.588141
 generating redundant internal coords
         300        3600          24
 Adding extra bonds for z output only
           6           6           6           6          16           6
           6           6           6          16           6           6
           6          16           7           6           6           1
           1           1           1           1           1           1
 search for int coords
   1 str   2   1   1.413
   2 str   3   2   1.395
   3 str   4   3   1.387
   4 str   5   4   1.750
   5 str   6   5   1.809
   6 str   7   6   1.394
   7 str   8   7   1.429
   8 str   9   8   1.382
   9 str  10   9   1.763
  10 str  11  10   1.749
  11 str  12  11   1.380
  12 str  13   9   1.419
  13 str  13  12   1.402
  14 str  14   7   1.787
  15 str  14  13   1.755
  16 str  15   6   1.346
  17 str  16   4   1.443
  18 str  16  15   1.342
  19 str  17   1   1.378
  20 str  17  16   1.421
  21 str  18   1   1.084
  22 str  19   2   1.084
  23 str  20   3   1.083
  24 str  21   8   1.079
  25 str  22  11   1.079
  26 str  23  12   1.081
  27 str  24  17   1.083
 nber stretches=          27
  28 ben   1   2   3
  29 prop tor   1   2   3   4
  30 prop tor   1   2   3  20
  31 ben   1   2  19
  32 ben   1  17  16
  33 ben   1  17  24
  34 ben   2   1  17
  35 prop tor   2   1  17  16
  36 prop tor   2   1  17  24
  37 ben   2   1  18
  38 ben   2   3   4
  39 prop tor   2   3   4   5
  40 prop tor   2   3   4  16
  41 ben   2   3  20
  42 ben   3   2  19
  43 ben   3   4   5
  44 prop tor   3   4   5   6
  45 ben   3   4  16
  46 prop tor   3   4  16  15
  47 prop tor   3   4  16  17
  48 ben   4   3  20
  49 ben   4   5   6
  50 prop tor   4   5   6   7
  51 prop tor   4   5   6  15
  52 ben   4  16  15
  53 ben   4  16  17
  54 prop tor   4  16  17   1
  55 prop tor   4  16  17  24
  56 ben   5   4  16
  57 prop tor   5   4  16  15
  58 prop tor   5   4  16  17
  59 ben   5   6   7
  60 prop tor   5   6   7   8
  61 prop tor   5   6   7  14
  62 ben   5   6  15
  63 prop tor   5   6  15  16
  64 ben   6   7   8
  65 prop tor   6   7   8   9
  66 prop tor   6   7   8  21
  67 ben   6   7  14
  68 prop tor   6   7  14  13
  69 ben   6  15  16
  70 prop tor   6  15  16   4
  71 prop tor   6  15  16  17
  72 ben   7   6  15
  73 prop tor   7   6  15  16
  74 ben   7   8   9
  75 prop tor   7   8   9  10
  76 prop tor   7   8   9  13
  77 ben   7   8  21
  78 ben   7  14  13
  79 ben   8   7  14
  80 prop tor   8   7  14  13
  81 ben   8   9  10
  82 prop tor   8   9  10  11
  83 ben   8   9  13
  84 prop tor   8   9  13  12
  85 prop tor   8   9  13  14
  86 ben   9   8  21
  87 ben   9  10  11
  88 prop tor   9  10  11  12
  89 prop tor   9  10  11  22
  90 ben   9  13  12
  91 ben   9  13  14
  92 prop tor   9  13  14   7
  93 ben  10   9  13
  94 prop tor  10   9  13  12
  95 prop tor  10   9  13  14
  96 ben  10  11  12
  97 prop tor  10  11  12  13
  98 prop tor  10  11  12  23
  99 ben  10  11  22
 100 ben  11  12  13
 101 prop tor  11  12  13   9
 102 prop tor  11  12  13  14
 103 ben  11  12  23
 104 ben  12  11  22
 105 ben  12  13  14
 106 prop tor  12  13  14   7
 107 prop tor  13   9  10  11
 108 ben  13  12  23
 109 prop tor  14   7   8   9
 110 prop tor  14   7   8  21
 111 prop tor  15   6   7   8
 112 prop tor  15   6   7  14
 113 ben  15  16  17
 114 prop tor  15  16  17   1
 115 prop tor  15  16  17  24
 116 prop tor  16   4   5   6
 117 ben  16  17  24
 118 prop tor  17   1   2   3
 119 prop tor  17   1   2  19
 120 ben  17   1  18
 121 prop tor  18   1   2   3
 122 prop tor  18   1   2  19
 123 prop tor  18   1  17  16
 124 prop tor  18   1  17  24
 125 prop tor  19   2   3   4
 126 prop tor  19   2   3  20
 127 prop tor  20   3   4   5
 128 prop tor  20   3   4  16
 129 prop tor  21   8   9  10
 130 prop tor  21   8   9  13
 131 prop tor  22  11  12  13
 132 prop tor  22  11  12  23
 133 prop tor  23  12  13   9
 134 prop tor  23  12  13  14
 nber bend=              43
 nber lin bend=           0
 nber prop tor=          64
 nber impr tor=           0
 nber tot redund int=         134
 generating redundant internal coords
         300        3600          24
 search for int coords
   1 str   2   1   1.404
   2 str   3   2   1.390
   3 str   4   3   1.394
   4 str   5   4   1.751
   5 str   6   5   1.787
   6 str   7   6   1.449
   7 str   8   7   1.376
   8 str   9   8   1.413
   9 str  10   9   1.744
  10 str  11  10   1.748
  11 str  12  11   1.365
  12 str  13   9   1.392
  13 str  13  12   1.422
  14 str  14   7   1.766
  15 str  14  13   1.740
  16 str  15   6   1.298
  17 str  16   4   1.415
  18 str  16  15   1.378
  19 str  17   1   1.386
  20 str  17  16   1.402
  21 str  18   1   1.084
  22 str  19   2   1.084
  23 str  20   3   1.083
  24 str  21   8   1.080
  25 str  22  11   1.079
  26 str  23  12   1.081
  27 str  24  17   1.083
 nber stretches=          27
  28 ben   1   2   3
  29 prop tor   1   2   3   4
  30 prop tor   1   2   3  20
  31 ben   1   2  19
  32 ben   1  17  16
  33 ben   1  17  24
  34 ben   2   1  17
  35 prop tor   2   1  17  16
  36 prop tor   2   1  17  24
  37 ben   2   1  18
  38 ben   2   3   4
  39 prop tor   2   3   4   5
  40 prop tor   2   3   4  16
  41 ben   2   3  20
  42 ben   3   2  19
  43 ben   3   4   5
  44 prop tor   3   4   5   6
  45 ben   3   4  16
  46 prop tor   3   4  16  15
  47 prop tor   3   4  16  17
  48 ben   4   3  20
  49 ben   4   5   6
  50 prop tor   4   5   6   7
  51 prop tor   4   5   6  15
  52 ben   4  16  15
  53 ben   4  16  17
  54 prop tor   4  16  17   1
  55 prop tor   4  16  17  24
  56 ben   5   4  16
  57 prop tor   5   4  16  15
  58 prop tor   5   4  16  17
  59 ben   5   6   7
  60 prop tor   5   6   7   8
  61 prop tor   5   6   7  14
  62 ben   5   6  15
  63 prop tor   5   6  15  16
  64 ben   6   7   8
  65 prop tor   6   7   8   9
  66 prop tor   6   7   8  21
  67 ben   6   7  14
  68 prop tor   6   7  14  13
  69 ben   6  15  16
  70 prop tor   6  15  16   4
  71 prop tor   6  15  16  17
  72 ben   7   6  15
  73 prop tor   7   6  15  16
  74 ben   7   8   9
  75 prop tor   7   8   9  10
  76 prop tor   7   8   9  13
  77 ben   7   8  21
  78 ben   7  14  13
  79 ben   8   7  14
  80 prop tor   8   7  14  13
  81 ben   8   9  10
  82 prop tor   8   9  10  11
  83 ben   8   9  13
  84 prop tor   8   9  13  12
  85 prop tor   8   9  13  14
  86 ben   9   8  21
  87 ben   9  10  11
  88 prop tor   9  10  11  12
  89 prop tor   9  10  11  22
  90 ben   9  13  12
  91 ben   9  13  14
  92 prop tor   9  13  14   7
  93 ben  10   9  13
  94 prop tor  10   9  13  12
  95 prop tor  10   9  13  14
  96 ben  10  11  12
  97 prop tor  10  11  12  13
  98 prop tor  10  11  12  23
  99 ben  10  11  22
 100 ben  11  12  13
 101 prop tor  11  12  13   9
 102 prop tor  11  12  13  14
 103 ben  11  12  23
 104 ben  12  11  22
 105 ben  12  13  14
 106 prop tor  12  13  14   7
 107 prop tor  13   9  10  11
 108 ben  13  12  23
 109 prop tor  14   7   8   9
 110 prop tor  14   7   8  21
 111 prop tor  15   6   7   8
 112 prop tor  15   6   7  14
 113 ben  15  16  17
 114 prop tor  15  16  17   1
 115 prop tor  15  16  17  24
 116 prop tor  16   4   5   6
 117 ben  16  17  24
 118 prop tor  17   1   2   3
 119 prop tor  17   1   2  19
 120 ben  17   1  18
 121 prop tor  18   1   2   3
 122 prop tor  18   1   2  19
 123 prop tor  18   1  17  16
 124 prop tor  18   1  17  24
 125 prop tor  19   2   3   4
 126 prop tor  19   2   3  20
 127 prop tor  20   3   4   5
 128 prop tor  20   3   4  16
 129 prop tor  21   8   9  10
 130 prop tor  21   8   9  13
 131 prop tor  22  11  12  13
 132 prop tor  22  11  12  23
 133 prop tor  23  12  13   9
 134 prop tor  23  12  13  14
 nber bend=              43
 nber lin bend=           0
 nber prop tor=          64
 nber impr tor=           0
 nber tot redund int=         134
 Eigenvalues of G in red int coords
    Gval -0.00000000 -0.00000000 -0.00000000 -0.00000000 -0.00000000 -0.00000000 -0.00000000 -0.00000000
    Gval -0.00000000 -0.00000000 -0.00000000 -0.00000000 -0.00000000 -0.00000000 -0.00000000 -0.00000000
    Gval -0.00000000 -0.00000000 -0.00000000 -0.00000000 -0.00000000 -0.00000000 -0.00000000 -0.00000000
    Gval -0.00000000 -0.00000000 -0.00000000 -0.00000000 -0.00000000 -0.00000000 -0.00000000 -0.00000000
    Gval -0.00000000 -0.00000000 -0.00000000 -0.00000000  0.00000000  0.00000000  0.00000000  0.00000000
    Gval  0.00000000  0.00000000  0.00000000  0.00000000  0.00000000  0.00000000  0.00000000  0.00000000
    Gval  0.00000000  0.00000000  0.00000000  0.00000000  0.00000000  0.00000000  0.00000000  0.00000000
    Gval  0.00000000  0.00000000  0.00000000  0.00000000  0.00000000  0.00000000  0.00000000  0.00000000
    Gval  0.00000000  0.00000000  0.00000000  0.00000000  0.00000144  0.00000364  0.00000689  0.00000959
    Gval  0.00001724  0.00001815  0.00002238  0.00003177  0.00003475  0.00003552  0.00004275  0.00004480
    Gval  0.00004775  0.00004989  0.00005827  0.00006016  0.00007655  0.00008508  0.00009191  0.00011085
    Gval  0.00011122  0.00012284  0.00012499  0.00015304  0.00015347  0.00015708  0.00017704  0.00021391
    Gval  0.00023325  0.00025257  0.00029431  0.00031163  0.00031651  0.00032095  0.00035602  0.00038618
    Gval  0.00039918  0.00042861  0.00053699  0.00059315  0.00059660  0.00059751  0.00061831  0.00062195
    Gval  0.00062742  0.00064337  0.00065506  0.00066198  0.00085115  0.00105451  0.00108139  0.00112265
    Gval  0.00114600  0.00116328  0.00117171  0.00118670  0.00127387  0.00130117  0.00163621  0.00180166
    Gval  0.00208112  0.00270187  0.00355127  0.00357019  0.00397249  0.00402237
  1.439325366752536E-006  1.439325366752536E-006
  3.635586199957155E-006  1.439325366752536E-006
  6.888119665989063E-006  1.439325366752536E-006
  9.594413007369476E-006  1.439325366752536E-006
  1.723922189376859E-005  1.439325366752536E-006
  1.815247741626294E-005  1.439325366752536E-006
  2.238033041088696E-005  1.439325366752536E-006
  3.176525989168022E-005  1.439325366752536E-006
  3.475131632839550E-005  1.439325366752536E-006
  3.551864008102024E-005  1.439325366752536E-006
  4.275236266722297E-005  1.439325366752536E-006
  4.480393945094505E-005  1.439325366752536E-006
  4.774549161911292E-005  1.439325366752536E-006
  4.989058589891108E-005  1.439325366752536E-006
  5.826978771810326E-005  1.439325366752536E-006
  6.016168744640165E-005  1.439325366752536E-006
  7.655039944926066E-005  1.439325366752536E-006
  8.507591642875694E-005  1.439325366752536E-006
  9.191147692054205E-005  1.439325366752536E-006
  1.108530141838603E-004  1.439325366752536E-006
  1.112173334590255E-004  1.439325366752536E-006
  1.228437437264791E-004  1.439325366752536E-006
  1.249865172533082E-004  1.439325366752536E-006
  1.530416673205676E-004  1.439325366752536E-006
  1.534734932196499E-004  1.439325366752536E-006
  1.570816388239648E-004  1.439325366752536E-006
  1.770388476350886E-004  1.439325366752536E-006
  2.139069976224112E-004  1.439325366752536E-006
  2.332454391097753E-004  1.439325366752536E-006
  2.525732790110299E-004  1.439325366752536E-006
  2.943142129124770E-004  1.439325366752536E-006
  3.116273310370863E-004  1.439325366752536E-006
  3.165081976388927E-004  1.439325366752536E-006
  3.209539638943441E-004  1.439325366752536E-006
  3.560180767986172E-004  1.439325366752536E-006
  3.861762320904370E-004  1.439325366752536E-006
  3.991774008577310E-004  1.439325366752536E-006
  4.286130042146038E-004  1.439325366752536E-006
  5.369944280127262E-004  1.439325366752536E-006
  5.931542306296516E-004  1.439325366752536E-006
  5.966012745667651E-004  1.439325366752536E-006
  5.975097724785302E-004  1.439325366752536E-006
  6.183069789614672E-004  1.439325366752536E-006
  6.219463931276005E-004  1.439325366752536E-006
  6.274204209930457E-004  1.439325366752536E-006
  6.433673404389027E-004  1.439325366752536E-006
  6.550590563235948E-004  1.439325366752536E-006
  6.619816191126213E-004  1.439325366752536E-006
  8.511511308094195E-004  1.439325366752536E-006
  1.054511330703084E-003  1.439325366752536E-006
  1.081389718289404E-003  1.439325366752536E-006
  1.122654441373523E-003  1.439325366752536E-006
  1.145998900716205E-003  1.439325366752536E-006
  1.163284443004231E-003  1.439325366752536E-006
  1.171711068637594E-003  1.439325366752536E-006
  1.186704294319664E-003  1.439325366752536E-006
  1.273866336401596E-003  1.439325366752536E-006
  1.301165367999105E-003  1.439325366752536E-006
  1.636206561835679E-003  1.439325366752536E-006
  1.801657579889865E-003  1.439325366752536E-006
  2.081124190380491E-003  1.439325366752536E-006
  2.701868157476410E-003  1.439325366752536E-006
  3.551266653833660E-003  1.439325366752536E-006
  3.570194802833289E-003  1.439325366752536E-006
  3.972485911990722E-003  1.439325366752536E-006
  4.022368550723413E-003  1.439325366752536E-006
 cut=1d-8, nber non-redundant internal coords=          66
 Check on Eigenvals of non-red overlap matrix:
  0.00000144  0.00000364  0.00000689  0.00000959  0.00001724  0.00001815  0.00002238  0.00003177
  0.00003475  0.00003552  0.00004275  0.00004480  0.00004775  0.00004989  0.00005827  0.00006016
  0.00007655  0.00008508  0.00009191  0.00011085  0.00011122  0.00012284  0.00012499  0.00015304
  0.00015347  0.00015708  0.00017704  0.00021391  0.00023325  0.00025257  0.00029431  0.00031163
  0.00031651  0.00032095  0.00035602  0.00038618  0.00039918  0.00042861  0.00053699  0.00059315
  0.00059660  0.00059751  0.00061831  0.00062195  0.00062742  0.00064337  0.00065506  0.00066198
  0.00085115  0.00105451  0.00108139  0.00112265  0.00114600  0.00116328  0.00117171  0.00118670
  0.00127387  0.00130117  0.00163621  0.00180166  0.00208112  0.00270187  0.00355127  0.00357019
  0.00397249  0.00402237
 generating redundant internal coords
         300        3600          24
 search for int coords
   1 str   2   1   1.413
   2 str   3   2   1.395
   3 str   4   3   1.387
   4 str   5   4   1.750
   5 str   6   5   1.809
   6 str   7   6   1.394
   7 str   8   7   1.429
   8 str   9   8   1.382
   9 str  10   9   1.763
  10 str  11  10   1.749
  11 str  12  11   1.380
  12 str  13   9   1.419
  13 str  13  12   1.402
  14 str  14   7   1.787
  15 str  14  13   1.755
  16 str  15   6   1.346
  17 str  16   4   1.443
  18 str  16  15   1.342
  19 str  17   1   1.378
  20 str  17  16   1.421
  21 str  18   1   1.084
  22 str  19   2   1.084
  23 str  20   3   1.083
  24 str  21   8   1.079
  25 str  22  11   1.079
  26 str  23  12   1.081
  27 str  24  17   1.083
 nber stretches=          27
  28 ben   1   2   3
  29 prop tor   1   2   3   4
  30 prop tor   1   2   3  20
  31 ben   1   2  19
  32 ben   1  17  16
  33 ben   1  17  24
  34 ben   2   1  17
  35 prop tor   2   1  17  16
  36 prop tor   2   1  17  24
  37 ben   2   1  18
  38 ben   2   3   4
  39 prop tor   2   3   4   5
  40 prop tor   2   3   4  16
  41 ben   2   3  20
  42 ben   3   2  19
  43 ben   3   4   5
  44 prop tor   3   4   5   6
  45 ben   3   4  16
  46 prop tor   3   4  16  15
  47 prop tor   3   4  16  17
  48 ben   4   3  20
  49 ben   4   5   6
  50 prop tor   4   5   6   7
  51 prop tor   4   5   6  15
  52 ben   4  16  15
  53 ben   4  16  17
  54 prop tor   4  16  17   1
  55 prop tor   4  16  17  24
  56 ben   5   4  16
  57 prop tor   5   4  16  15
  58 prop tor   5   4  16  17
  59 ben   5   6   7
  60 prop tor   5   6   7   8
  61 prop tor   5   6   7  14
  62 ben   5   6  15
  63 prop tor   5   6  15  16
  64 ben   6   7   8
  65 prop tor   6   7   8   9
  66 prop tor   6   7   8  21
  67 ben   6   7  14
  68 prop tor   6   7  14  13
  69 ben   6  15  16
  70 prop tor   6  15  16   4
  71 prop tor   6  15  16  17
  72 ben   7   6  15
  73 prop tor   7   6  15  16
  74 ben   7   8   9
  75 prop tor   7   8   9  10
  76 prop tor   7   8   9  13
  77 ben   7   8  21
  78 ben   7  14  13
  79 ben   8   7  14
  80 prop tor   8   7  14  13
  81 ben   8   9  10
  82 prop tor   8   9  10  11
  83 ben   8   9  13
  84 prop tor   8   9  13  12
  85 prop tor   8   9  13  14
  86 ben   9   8  21
  87 ben   9  10  11
  88 prop tor   9  10  11  12
  89 prop tor   9  10  11  22
  90 ben   9  13  12
  91 ben   9  13  14
  92 prop tor   9  13  14   7
  93 ben  10   9  13
  94 prop tor  10   9  13  12
  95 prop tor  10   9  13  14
  96 ben  10  11  12
  97 prop tor  10  11  12  13
  98 prop tor  10  11  12  23
  99 ben  10  11  22
 100 ben  11  12  13
 101 prop tor  11  12  13   9
 102 prop tor  11  12  13  14
 103 ben  11  12  23
 104 ben  12  11  22
 105 ben  12  13  14
 106 prop tor  12  13  14   7
 107 prop tor  13   9  10  11
 108 ben  13  12  23
 109 prop tor  14   7   8   9
 110 prop tor  14   7   8  21
 111 prop tor  15   6   7   8
 112 prop tor  15   6   7  14
 113 ben  15  16  17
 114 prop tor  15  16  17   1
 115 prop tor  15  16  17  24
 116 prop tor  16   4   5   6
 117 ben  16  17  24
 118 prop tor  17   1   2   3
 119 prop tor  17   1   2  19
 120 ben  17   1  18
 121 prop tor  18   1   2   3
 122 prop tor  18   1   2  19
 123 prop tor  18   1  17  16
 124 prop tor  18   1  17  24
 125 prop tor  19   2   3   4
 126 prop tor  19   2   3  20
 127 prop tor  20   3   4   5
 128 prop tor  20   3   4  16
 129 prop tor  21   8   9  10
 130 prop tor  21   8   9  13
 131 prop tor  22  11  12  13
 132 prop tor  22  11  12  23
 133 prop tor  23  12  13   9
 134 prop tor  23  12  13  14
 nber bend=              43
 nber lin bend=           0
 nber prop tor=          64
 nber impr tor=           0
 nber tot redund int=         134
 Eigenvalues of G in red int coords
    Gval -0.00000000 -0.00000000 -0.00000000 -0.00000000 -0.00000000 -0.00000000 -0.00000000 -0.00000000
    Gval -0.00000000 -0.00000000 -0.00000000 -0.00000000 -0.00000000 -0.00000000 -0.00000000 -0.00000000
    Gval -0.00000000 -0.00000000 -0.00000000 -0.00000000 -0.00000000 -0.00000000 -0.00000000 -0.00000000
    Gval -0.00000000 -0.00000000 -0.00000000 -0.00000000 -0.00000000 -0.00000000 -0.00000000 -0.00000000
    Gval -0.00000000 -0.00000000 -0.00000000  0.00000000  0.00000000  0.00000000  0.00000000  0.00000000
    Gval  0.00000000  0.00000000  0.00000000  0.00000000  0.00000000  0.00000000  0.00000000  0.00000000
    Gval  0.00000000  0.00000000  0.00000000  0.00000000  0.00000000  0.00000000  0.00000000  0.00000000
    Gval  0.00000000  0.00000000  0.00000000  0.00000000  0.00000000  0.00000000  0.00000000  0.00000000
    Gval  0.00000000  0.00000000  0.00000000  0.00000000  0.00000143  0.00000364  0.00000698  0.00000971
    Gval  0.00001695  0.00001816  0.00002227  0.00003168  0.00003475  0.00003510  0.00004257  0.00004508
    Gval  0.00004742  0.00004989  0.00005823  0.00006003  0.00007678  0.00008503  0.00009242  0.00011037
    Gval  0.00011049  0.00012242  0.00012424  0.00015064  0.00015260  0.00015636  0.00017346  0.00021488
    Gval  0.00023295  0.00025186  0.00029319  0.00030720  0.00031399  0.00032087  0.00035690  0.00038373
    Gval  0.00039473  0.00043341  0.00051307  0.00059314  0.00059656  0.00059743  0.00061828  0.00062192
    Gval  0.00062670  0.00064799  0.00065441  0.00066290  0.00085773  0.00105406  0.00108184  0.00112111
    Gval  0.00114740  0.00116295  0.00117069  0.00118293  0.00127737  0.00130253  0.00161446  0.00179757
    Gval  0.00207749  0.00268955  0.00356210  0.00358762  0.00393149  0.00401184
  1.431211574848633E-006  1.431211574848633E-006
  3.636523475221332E-006  1.431211574848633E-006
  6.980028757359396E-006  1.431211574848633E-006
  9.713992818738203E-006  1.431211574848633E-006
  1.694584640914215E-005  1.431211574848633E-006
  1.816158084379817E-005  1.431211574848633E-006
  2.227169917020026E-005  1.431211574848633E-006
  3.168350488207650E-005  1.431211574848633E-006
  3.475398740522939E-005  1.431211574848633E-006
  3.510426815650196E-005  1.431211574848633E-006
  4.256619246064882E-005  1.431211574848633E-006
  4.508308159018325E-005  1.431211574848633E-006
  4.742072434048484E-005  1.431211574848633E-006
  4.988827839609224E-005  1.431211574848633E-006
  5.823414440256252E-005  1.431211574848633E-006
  6.003398747299212E-005  1.431211574848633E-006
  7.678324371427721E-005  1.431211574848633E-006
  8.502787742768534E-005  1.431211574848633E-006
  9.242094943382763E-005  1.431211574848633E-006
  1.103683046225312E-004  1.431211574848633E-006
  1.104896221968080E-004  1.431211574848633E-006
  1.224199118152041E-004  1.431211574848633E-006
  1.242397167730521E-004  1.431211574848633E-006
  1.506372053405269E-004  1.431211574848633E-006
  1.526002011536491E-004  1.431211574848633E-006
  1.563582198881915E-004  1.431211574848633E-006
  1.734569494273824E-004  1.431211574848633E-006
  2.148832406040212E-004  1.431211574848633E-006
  2.329543461263052E-004  1.431211574848633E-006
  2.518550896059356E-004  1.431211574848633E-006
  2.931850303284611E-004  1.431211574848633E-006
  3.071958075919160E-004  1.431211574848633E-006
  3.139912789325657E-004  1.431211574848633E-006
  3.208744985188592E-004  1.431211574848633E-006
  3.568961094603465E-004  1.431211574848633E-006
  3.837349303344920E-004  1.431211574848633E-006
  3.947302194773289E-004  1.431211574848633E-006
  4.334110586455104E-004  1.431211574848633E-006
  5.130691484679616E-004  1.431211574848633E-006
  5.931363124192829E-004  1.431211574848633E-006
  5.965605657615578E-004  1.431211574848633E-006
  5.974331118596447E-004  1.431211574848633E-006
  6.182793492028687E-004  1.431211574848633E-006
  6.219173284945558E-004  1.431211574848633E-006
  6.266978133803857E-004  1.431211574848633E-006
  6.479907072581650E-004  1.431211574848633E-006
  6.544054396302663E-004  1.431211574848633E-006
  6.628973231529556E-004  1.431211574848633E-006
  8.577346322013564E-004  1.431211574848633E-006
  1.054059993270515E-003  1.431211574848633E-006
  1.081839065221024E-003  1.431211574848633E-006
  1.121111647970471E-003  1.431211574848633E-006
  1.147396646296948E-003  1.431211574848633E-006
  1.162945412805939E-003  1.431211574848633E-006
  1.170687048363653E-003  1.431211574848633E-006
  1.182927533345068E-003  1.431211574848633E-006
  1.277372892078261E-003  1.431211574848633E-006
  1.302527993488958E-003  1.431211574848633E-006
  1.614462750986053E-003  1.431211574848633E-006
  1.797573332120597E-003  1.431211574848633E-006
  2.077491674722827E-003  1.431211574848633E-006
  2.689551920819129E-003  1.431211574848633E-006
  3.562101294751945E-003  1.431211574848633E-006
  3.587616456517195E-003  1.431211574848633E-006
  3.931487481748022E-003  1.431211574848633E-006
  4.011835341723788E-003  1.431211574848633E-006
 cut=1d-8, nber non-redundant internal coords=          66
 Check on Eigenvals of non-red overlap matrix:
  0.00000143  0.00000364  0.00000698  0.00000971  0.00001695  0.00001816  0.00002227  0.00003168
  0.00003475  0.00003510  0.00004257  0.00004508  0.00004742  0.00004989  0.00005823  0.00006003
  0.00007678  0.00008503  0.00009242  0.00011037  0.00011049  0.00012242  0.00012424  0.00015064
  0.00015260  0.00015636  0.00017346  0.00021488  0.00023295  0.00025186  0.00029319  0.00030720
  0.00031399  0.00032087  0.00035690  0.00038373  0.00039473  0.00043341  0.00051307  0.00059314
  0.00059656  0.00059743  0.00061828  0.00062192  0.00062670  0.00064799  0.00065441  0.00066290
  0.00085773  0.00105406  0.00108184  0.00112111  0.00114740  0.00116295  0.00117069  0.00118293
  0.00127737  0.00130253  0.00161446  0.00179757  0.00207749  0.00268955  0.00356210  0.00358762
  0.00393149  0.00401184
 d1=
  14.6   8.2  -0.1  -0.1  -0.4   3.2  -5.8  -9.0  -3.1  -0.3  -7.3  -0.0  -1.4  -3.1   2.6   2.8   0.4   0.7  -0.8  -2.0
  -0.0  -2.8   2.3   0.1  -1.5   0.4   1.2  -2.2  -2.1   0.0  -0.2  -2.6  -0.5  -0.0   1.0  -0.2   1.1   0.5  -0.0  -0.0
  -0.0   0.1  -0.1  -0.2  -0.2   0.0  -0.0   0.0   0.0   0.3   0.3  -0.4   1.0  -0.1   0.1  -0.2  -0.0  -0.0  -0.0  -0.0
   0.0   0.0   0.0  -0.0  -0.0   0.0
 d2=
 -14.7  -8.1   0.1  -0.2   0.4   3.1   5.8   9.0  -3.1   0.8   7.0   0.0  -1.8   3.0   2.8  -2.5   0.4  -0.7   0.8   2.0
  -0.0  -3.2   1.5  -0.1   1.3  -0.6  -1.1   2.5   2.1  -0.0  -0.2  -2.5   1.3  -0.0  -0.9   0.3   1.0  -0.4   0.0  -0.0
   0.0  -0.1  -0.1   0.2   0.1  -0.0  -0.0  -0.0  -0.0   0.3   0.3   0.4   1.1   0.1   0.1  -0.2  -0.0  -0.0   0.0   0.0
  -0.0   0.0  -0.0  -0.0   0.0  -0.0
 curvilinear- renormalizn of Dush matrix done
  mol 1 sym            1  -> mol 2 sym            1

 Dushinsky matrix, ncs 2 in terms of ncs 1

   mode   freq    coeff     %      %tot     of    at

   1        -0.  0.0000     0.0     0.0   8        46.
   2        -0.  0.0000     0.0     0.0   7        24.
   3        -0. -0.0000     0.0     0.0   7        24.
   4         0. -0.0000     0.0     0.0   9        70.
   5         0.  0.0000     0.0     0.0   7        24.
   6         0. -0.0000     0.0     0.0   8        46.
   7        31.  0.9869    97.4   101.2   8        46.
   8        56.  0.9691    93.9    97.8   7        24.
   9        61.  0.9997    99.9    99.1   9        70.
  10        94. -0.9644    93.0   101.9  10       121.
  11       166. -0.5272    27.8   100.4  11       190.
                -0.6533    42.7          12       203.
                -0.5400    29.2          14       236.
  12       191. -0.8356    69.8    98.5  11       190.
                 0.4296    18.5          12       203.
  13       214. -0.9642    93.0    98.8  13       217.
  14       214. -0.5688    32.3    98.7  12       203.
                 0.7634    58.3          14       236.
  15       245. -0.9975    99.5   102.0  15       242.
  16       266. -0.9907    98.1   102.1  16       318.
  17       369. -0.9984    99.7    98.9  17       374.
  18       394. -0.4576    20.9    95.6  19       435.
                 0.7504    56.3          21       460.
                -0.4244    18.0          23       509.
  19       406. -0.9916    98.3    99.5  18       419.
  20       428.  0.8893    79.1   100.4  19       435.
                 0.3780    14.3          21       460.
  21       435. -0.9920    98.4   100.0  20       459.
  22       453.  0.5300    28.1   100.2  21       460.
                 0.8272    68.4          23       509.
  23       493. -0.9644    93.0   100.0  22       509.
  24       517. -0.9831    96.6   100.8  24       560.
  25       543. -0.5995    35.9    99.4  25       563.
                -0.6840    46.8          26       598.
  26       559.  0.7637    58.3    99.1  25       563.
                -0.6010    36.1          26       598.
  27       561.  0.8429    71.1   100.4  27       616.
                -0.4482    20.1          28       626.
  28       608.  0.4796    23.0    99.8  27       616.
                 0.8658    75.0          28       626.
  29       613.  0.3545    12.6    99.5  26       598.
                 0.9229    85.2          29       635.
  30       656. -0.9558    91.4   101.3  30       686.
  31       658.  0.9633    92.8    99.8  31       709.
  32       697.  0.9715    94.4   100.1  32       716.
  33       716. -0.9944    98.9    99.7  33       737.
  34       743.  0.9888    97.8    99.9  34       763.
  35       763. -0.8964    80.4    99.9  35       772.
                -0.3528    12.4          39       867.
  36       764. -0.9849    97.0   100.4  36       801.
  37       769.  0.4173    17.4   101.1  35       772.
                 0.3164    10.0          38       867.
                -0.8033    64.5          39       867.
  38       839.  0.9829    96.6    98.4  37       856.
  39       847.  0.9091    82.6    99.5  38       867.
                 0.3799    14.4          39       867.
  40       862. -0.9446    89.2    99.0  40       881.
  41       889. -0.9853    97.1    99.8  41       907.
  42       929. -0.9653    93.2    98.5  43       965.
  43       934.  0.9702    94.1    99.8  42       951.
  44       979.  0.9793    95.9    99.8  44       990.
  45      1023.  0.9945    98.9    99.8  45      1038.
  46      1053.  0.9470    89.7   100.1  46      1078.
  47      1089. -0.9776    95.6    99.9  47      1109.
  48      1117.  0.8066    65.1   100.3  51      1199.
  49      1140. -0.9382    88.0    99.7  49      1166.
  50      1146. -0.9254    85.6    99.9  48      1144.
  51      1179.  0.9302    86.5   100.0  50      1184.
  52      1199.  0.8504    72.3   100.2  52      1211.
  53      1251.  0.3988    15.9   100.8  52      1211.
                 0.4039    16.3          53      1275.
                -0.4821    23.2          56      1358.
                 0.3467    12.0          61      1498.
                 0.4925    24.3          62      1526.
  54      1274. -0.8103    65.7    99.8  53      1275.
                -0.4263    18.2          54      1313.
  55      1338. -0.4030    16.2   100.4  54      1313.
                 0.6962    48.5          55      1343.
                 0.3901    15.2          56      1358.
  56      1351. -0.3167    10.0   100.5  54      1313.
                 0.4324    18.7          55      1343.
                -0.5397    29.1          56      1358.
                -0.3580    12.8          62      1526.
  57      1375. -0.3698    13.7    99.7  53      1275.
                 0.7036    49.5          54      1313.
                 0.4323    18.7          55      1343.
  58      1419. -0.6957    48.4    99.6  57      1384.
                 0.3773    14.2          58      1454.
                -0.3984    15.9          61      1498.
                 0.3318    11.0          62      1526.
  59      1431. -0.4629    21.4   100.0  57      1384.
                 0.4148    17.2          59      1462.
                 0.6347    40.3          61      1498.
                -0.3486    12.1          62      1526.
  60      1448.  0.7127    50.8   100.0  59      1462.
                 0.3196    10.2          60      1487.
  61      1465.  0.4310    18.6    99.2  57      1384.
                 0.4358    19.0          58      1454.
                 0.3940    15.5          59      1462.
                -0.4638    21.5          60      1487.
  62      1494.  0.4716    22.2    99.4  58      1454.
                 0.7352    54.1          60      1487.
  63      1528.  0.4443    19.7    99.6  58      1454.
                 0.6177    38.2          63      1547.
                -0.4985    24.9          64      1596.
  64      1557.  0.4997    25.0    99.7  63      1547.
                 0.7001    49.0          64      1596.
                -0.3730    13.9          65      1636.
  65      1605.  0.4095    16.8    99.8  64      1596.
                 0.8881    78.9          65      1636.
  66      3169.  0.9914    98.3   100.0  66      3169.
  67      3180.  0.9873    97.5   100.0  67      3181.
  68      3192.  0.9883    97.7   100.0  68      3192.
  69      3199. -0.9968    99.4   100.0  69      3199.
  70      3211. -0.9988    99.8   100.0  70      3215.
  71      3242. -0.9185    84.4   100.0  71      3232.
                 0.3947    15.6          72      3244.
  72      3242. -0.3950    15.6   100.0  71      3232.
                -0.9174    84.2          72      3244.
 nber times 1st assigned=           1           0
 nber times 1st assigned=           2           0
 nber times 1st assigned=           3           0
 nber times 1st assigned=           4           0
 nber times 1st assigned=           5           0
 nber times 1st assigned=           6           0
 nber times 1st assigned=           7           3
 nber times 1st assigned=           8           2
 nber times 1st assigned=          10           0
 nber times 1st assigned=          11           0
 nber times 1st assigned=          12           0
 nber times 1st assigned=          13           0
 nber times 1st assigned=          14           0
 nber times 1st assigned=          15           0
 nber times 1st assigned=          16           0
 nber times 1st assigned=          17           0
 nber times 1st assigned=          18           0
 nber times 1st assigned=          19           0
 nber times 1st assigned=          20           0
 nber times 1st assigned=          21           0
 nber times 1st assigned=          22           0
 nber times 1st assigned=          23           0
 nber times 1st assigned=          24           0
 nber times 1st assigned=          25           0
 nber times 1st assigned=          26           0
 nber times 1st assigned=          27           0
 nber times 1st assigned=          28           0
 nber times 1st assigned=          29           0
 nber times 1st assigned=          30           0
 nber times 1st assigned=          31           0
 nber times 1st assigned=          32           0
 nber times 1st assigned=          33           0
 nber times 1st assigned=          34           0
 nber times 1st assigned=          35           0
 nber times 1st assigned=          36           0
 nber times 1st assigned=          37           0
 nber times 1st assigned=          38           0
 nber times 1st assigned=          39           0
 nber times 1st assigned=          40           0
 nber times 1st assigned=          41           0
 nber times 1st assigned=          42           0
 nber times 1st assigned=          43           0
 nber times 1st assigned=          44           0
 nber times 1st assigned=          45           0
 nber times 1st assigned=          46           0
 nber times 1st assigned=          47           0
 nber times 1st assigned=          48           0
 nber times 1st assigned=          49           0
 nber times 1st assigned=          50           0
 nber times 1st assigned=          51           0
 nber times 1st assigned=          52           0
 nber times 1st assigned=          53           0
 nber times 1st assigned=          54           0
 nber times 1st assigned=          55           0
 nber times 1st assigned=          56           0
 nber times 1st assigned=          57           0
 nber times 1st assigned=          58           0
 nber times 1st assigned=          59           0
 nber times 1st assigned=          60           0
 nber times 1st assigned=          61           0
 nber times 1st assigned=          62           0
 nber times 1st assigned=          63           0
 nber times 1st assigned=          64           0
 nber times 1st assigned=          65           0
 nber times 1st assigned=          66           0
 nber times 1st assigned=          67           0
 nber times 1st assigned=          68           0
 nber times 1st assigned=          69           0
 nber times 1st assigned=          70           0
 nber times 1st assigned=          71           0
 nber times 1st assigned=          72           0
 Dushinsky matrix written to .out file
 modes represented=   65.8933361394461     

 Dushinsky matrix, ncs 1 in terms of ncs 2

   mode   freq    coeff     %      %tot     of    at

   7        24.  0.9691    93.9    98.3   8        56.
   8        46.  0.9869    97.4   101.9   7        31.
   9        70.  0.9997    99.9    99.9   9        61.
  10       121. -0.9644    93.0   102.1  10        94.
  11       190. -0.5272    27.8    99.2  11       166.
                -0.8356    69.8          12       191.
  12       203. -0.6533    42.7    97.5  11       166.
                 0.4296    18.5          12       191.
                -0.5688    32.3          14       214.
  13       217. -0.9642    93.0    99.9  13       214.
  14       236. -0.5400    29.2   101.1  11       166.
                 0.7634    58.3          14       214.
  15       242. -0.9975    99.5   102.6  15       245.
  16       318. -0.9907    98.1   102.8  16       266.
  17       374. -0.9984    99.7    99.0  17       369.
  18       419. -0.9916    98.3   100.1  19       406.
  19       435. -0.4576    20.9    99.8  18       394.
                 0.8893    79.1          20       428.
  20       459. -0.9920    98.4    99.9  21       435.
  21       460.  0.7504    56.3    98.6  18       394.
                 0.3780    14.3          20       428.
                 0.5300    28.1          22       453.
  22       509. -0.9644    93.0   100.4  23       493.
  23       509. -0.4244    18.0    98.3  18       394.
                 0.8272    68.4          22       453.
  24       560. -0.9831    96.6   100.7  24       517.
  25       563. -0.5995    35.9    98.8  25       543.
                 0.7637    58.3          26       559.
  26       598. -0.6840    46.8    98.9  25       543.
                -0.6010    36.1          26       559.
                 0.3545    12.6          29       613.
  27       616.  0.8429    71.1    98.8  27       561.
                 0.4796    23.0          28       608.
  28       626. -0.4482    20.1    99.5  27       561.
                 0.8658    75.0          28       608.
  29       635.  0.9229    85.2    99.7  29       613.
  30       686. -0.9558    91.4   101.3  30       656.
  31       709.  0.9633    92.8   100.0  31       658.
  32       716.  0.9715    94.4    99.8  32       697.
  33       737. -0.9944    98.9    99.5  33       716.
  34       763.  0.9888    97.8    99.9  34       743.
  35       772. -0.8964    80.4    99.5  35       763.
                 0.4173    17.4          37       769.
  36       801. -0.9849    97.0   100.4  36       764.
  37       856.  0.9829    96.6    98.6  38       839.
  38       867.  0.3164    10.0    99.6  37       769.
                 0.9091    82.6          39       847.
  39       867. -0.3528    12.4   100.4  35       763.
                -0.8033    64.5          37       769.
                 0.3799    14.4          39       847.
  40       881. -0.9446    89.2    99.0  40       862.
  41       907. -0.9853    97.1    99.7  41       889.
  42       951.  0.9702    94.1    99.8  43       934.
  43       965. -0.9653    93.2    98.3  42       929.
  44       990.  0.9793    95.9    99.8  44       979.
  45      1038.  0.9945    98.9    99.7  45      1023.
  46      1078.  0.9470    89.7    99.9  46      1053.
  47      1109. -0.9776    95.6    99.8  47      1089.
  48      1144. -0.9254    85.6   100.0  50      1146.
  49      1166. -0.9382    88.0    99.5  49      1140.
  50      1184.  0.9302    86.5    99.9  51      1179.
  51      1199.  0.8066    65.1    99.1  48      1117.
  52      1211.  0.8504    72.3    99.7  52      1199.
                 0.3988    15.9          53      1251.
  53      1275.  0.4039    16.3    99.9  53      1251.
                -0.8103    65.7          54      1274.
                -0.3698    13.7          57      1375.
  54      1313. -0.4263    18.2    99.7  54      1274.
                -0.4030    16.2          55      1338.
                -0.3167    10.0          56      1351.
                 0.7036    49.5          57      1375.
  55      1343.  0.6962    48.5   100.1  55      1338.
                 0.4324    18.7          56      1351.
                 0.4323    18.7          57      1375.
  56      1358. -0.4821    23.2    99.8  53      1251.
                 0.3901    15.2          55      1338.
                -0.5397    29.1          56      1351.
  57      1384. -0.6957    48.4    99.4  58      1419.
                -0.4629    21.4          59      1431.
                 0.4310    18.6          61      1465.
  58      1454.  0.3773    14.2    99.4  58      1419.
                 0.4358    19.0          61      1465.
                 0.4716    22.2          62      1494.
                 0.4443    19.7          63      1528.
  59      1462.  0.4148    17.2    99.8  59      1431.
                 0.7127    50.8          60      1448.
                 0.3940    15.5          61      1465.
  60      1487.  0.3196    10.2    99.6  60      1448.
                -0.4638    21.5          61      1465.
                 0.7352    54.1          62      1494.
  61      1498.  0.3467    12.0   100.4  53      1251.
                -0.3984    15.9          58      1419.
                 0.6347    40.3          59      1431.
  62      1526.  0.4925    24.3   100.6  53      1251.
                -0.3580    12.8          56      1351.
                 0.3318    11.0          58      1419.
                -0.3486    12.1          59      1431.
  63      1547.  0.6177    38.2    99.8  63      1528.
                 0.4997    25.0          64      1557.
  64      1596. -0.4985    24.9   100.0  63      1528.
                 0.7001    49.0          64      1557.
                 0.4095    16.8          65      1605.
  65      1636. -0.3730    13.9    99.8  64      1557.
                 0.8881    78.9          65      1605.
  66      3169.  0.9914    98.3   100.0  66      3169.
  67      3181.  0.9873    97.5   100.0  67      3180.
  68      3192.  0.9883    97.7   100.0  68      3192.
  69      3199. -0.9968    99.4   100.0  69      3199.
  70      3215. -0.9988    99.8   100.0  70      3211.
  71      3232. -0.9185    84.4   100.0  71      3242.
                -0.3950    15.6          72      3242.
  72      3244.  0.3947    15.6   100.0  71      3242.
                -0.9174    84.2          72      3242.
 nber times 1st assigned=           1           0
 nber times 1st assigned=           2           0
 nber times 1st assigned=           3           0
 nber times 1st assigned=           4           0
 nber times 1st assigned=           5           0
 nber times 1st assigned=           6           0
 nber times 1st assigned=           7           0
 nber times 1st assigned=           8           0
 nber times 1st assigned=           9           0
 nber times 1st assigned=          10           0
 nber times 1st assigned=          11           0
 nber times 1st assigned=          12           0
 nber times 1st assigned=          13           0
 nber times 1st assigned=          14           0
 nber times 1st assigned=          15           0
 nber times 1st assigned=          16           0
 nber times 1st assigned=          17           0
 nber times 1st assigned=          18           0
 nber times 1st assigned=          19           0
 nber times 1st assigned=          20           0
 nber times 1st assigned=          21           0
 nber times 1st assigned=          22           0
 nber times 1st assigned=          23           0
 nber times 1st assigned=          24           0
 nber times 1st assigned=          25           0
 nber times 1st assigned=          26           0
 nber times 1st assigned=          27           0
 nber times 1st assigned=          28           0
 nber times 1st assigned=          29           0
 nber times 1st assigned=          30           0
 nber times 1st assigned=          31           0
 nber times 1st assigned=          32           0
 nber times 1st assigned=          33           0
 nber times 1st assigned=          34           0
 nber times 1st assigned=          35           0
 nber times 1st assigned=          36           0
 nber times 1st assigned=          37           0
 nber times 1st assigned=          38           0
 nber times 1st assigned=          39           0
 nber times 1st assigned=          40           0
 nber times 1st assigned=          41           0
 nber times 1st assigned=          42           0
 nber times 1st assigned=          43           0
 nber times 1st assigned=          44           0
 nber times 1st assigned=          45           0
 nber times 1st assigned=          46           0
 nber times 1st assigned=          47           0
 nber times 1st assigned=          48           0
 nber times 1st assigned=          49           0
 nber times 1st assigned=          50           0
 nber times 1st assigned=          51           0
 nber times 1st assigned=          52           0
 nber times 1st assigned=          53           0
 nber times 1st assigned=          54           0
 nber times 1st assigned=          55           0
 nber times 1st assigned=          56           0
 nber times 1st assigned=          57           0
 nber times 1st assigned=          58           0
 nber times 1st assigned=          59           0
 nber times 1st assigned=          60           0
 nber times 1st assigned=          61           0
 nber times 1st assigned=          62           0
 nber times 1st assigned=          63           0
 nber times 1st assigned=          64           0
 nber times 1st assigned=          65           0
 nber times 1st assigned=          66           0
 nber times 1st assigned=          67           0
 nber times 1st assigned=          68           0
 nber times 1st assigned=          69           0
 nber times 1st assigned=          70           0
 nber times 1st assigned=          71           0
 nber times 1st assigned=          72           0
 modes represented=   65.8933361394461     
 p1=
    0.    0.    0.   -0.    0.   -0.    0.   -0.   13.    0.   -0.   -0.   10.   -0.   -5.    0.    4.   -0.   -0.   -7.
    0.   -5.   -0.   -0.    1.    5.    0.    0.   -5.   -1.    0.    2.    0.    2.   -0.   -1.   -1.    0.   -0.    0.
    1.   -0.   -1.    0.    1.   -2.    0.    1.    0.   -0.   -2.    0.   -1.    3.    2.    1.    1.    4.   -1.    2.
   -0.    1.    6.    1.   -0.    0.    0.   -0.    0.   -0.   -0.   -0.
 p2=
   -0.   -0.   -0.    0.   -0.    0.    0.   -0.  -13.    0.   -0.   -0.    9.   -2.   -4.   -0.    4.   -0.    0.   -0.
   -7.   -0.   -4.   -0.    7.    4.   -0.   -0.    3.    0.   -0.   -2.    0.   -1.   -0.   -1.   -0.    1.   -0.    0.
    1.   -2.    0.   -0.   -0.    0.   -0.    4.   -1.    2.    1.   -1.    0.    0.   -1.    1.   -3.    0.    1.    0.
    1.   -3.   -6.   -4.   -1.   -0.   -0.    0.    0.   -0.   -0.   -0.

 Displacement: in terms of nc of 1 THEN of nc of 2

   1     freq=    -0. Q=  0.000 lam=    -0.0     freq=    -0. Q=  0.000 lam=    -0.0
   2     freq=    -0. Q=  0.000 lam=    -0.0     freq=    -0. Q=  0.000 lam=    -0.0
   3     freq=    -0. Q=  0.000 lam=    -0.0     freq=    -0. Q=  0.000 lam=    -0.0
   4     freq=     0. Q= -0.000 lam=     0.0     freq=     0. Q= -0.000 lam=     0.0
   5     freq=     0. Q=  0.000 lam=     0.0     freq=     0. Q=  0.000 lam=     0.0
   6     freq=     0. Q= -0.000 lam=     0.0     freq=     0. Q= -0.000 lam=     0.0
   7     freq=    24. Q=  0.008 lam=     0.0     freq=    31. Q=  0.002 lam=     0.0
   8     freq=    46. Q= -0.001 lam=     0.0     freq=    56. Q= -0.010 lam=     0.0
   9     freq=    70. Q=  0.453 lam=     7.2     freq=    61. Q=  0.423 lam=     5.4
  10     freq=   121. Q=  0.001 lam=     0.0     freq=    94. Q=  0.003 lam=     0.0
  11     freq=   190. Q= -0.001 lam=     0.0     freq=   166. Q= -0.002 lam=     0.0
  12     freq=   203. Q= -0.000 lam=     0.0     freq=   191. Q= -0.002 lam=     0.0
  13     freq=   217. Q=  0.568 lam=    35.0     freq=   214. Q=  0.558 lam=    33.4
  14     freq=   236. Q= -0.005 lam=     0.0     freq=   214. Q= -0.147 lam=     2.3
  15     freq=   242. Q= -0.303 lam=    11.1     freq=   245. Q= -0.270 lam=     8.9
  16     freq=   318. Q=  0.001 lam=     0.0     freq=   266. Q=  0.000 lam=     0.0
  17     freq=   374. Q=  0.299 lam=    16.7     freq=   369. Q=  0.298 lam=    16.4
  18     freq=   419. Q= -0.019 lam=     0.1     freq=   394. Q= -0.001 lam=     0.0
  19     freq=   435. Q= -0.000 lam=     0.0     freq=   406. Q= -0.015 lam=     0.0
  20     freq=   459. Q= -0.636 lam=    93.0     freq=   428. Q= -0.000 lam=     0.0
  21     freq=   460. Q=  0.001 lam=     0.0     freq=   435. Q=  0.565 lam=    69.4
  22     freq=   509. Q= -0.444 lam=    50.1     freq=   453. Q= -0.003 lam=     0.0
  23     freq=   509. Q= -0.006 lam=     0.0     freq=   493. Q= -0.357 lam=    31.4
  24     freq=   560. Q= -0.000 lam=     0.0     freq=   517. Q= -0.000 lam=     0.0
  25     freq=   563. Q=  0.066 lam=     1.2     freq=   543. Q=  0.617 lam=   103.4
  26     freq=   598. Q=  0.465 lam=    64.8     freq=   559. Q=  0.341 lam=    32.4
  27     freq=   616. Q=  0.000 lam=     0.0     freq=   561. Q=  0.001 lam=     0.0
  28     freq=   626. Q=  0.000 lam=     0.0     freq=   608. Q=  0.001 lam=     0.0
  29     freq=   635. Q= -0.474 lam=    71.4     freq=   613. Q= -0.292 lam=    26.1
  30     freq=   686. Q= -0.055 lam=     1.0     freq=   656. Q= -0.018 lam=     0.1
  31     freq=   709. Q=  0.000 lam=     0.0     freq=   658. Q=  0.000 lam=     0.0
  32     freq=   716. Q=  0.242 lam=    20.9     freq=   697. Q=  0.217 lam=    16.4
  33     freq=   737. Q=  0.000 lam=     0.0     freq=   716. Q=  0.000 lam=     0.0
  34     freq=   763. Q=  0.168 lam=    10.8     freq=   743. Q=  0.116 lam=     5.0
  35     freq=   772. Q= -0.000 lam=     0.0     freq=   763. Q= -0.000 lam=     0.0
  36     freq=   801. Q= -0.120 lam=     5.8     freq=   764. Q= -0.109 lam=     4.5
  37     freq=   856. Q= -0.164 lam=    11.5     freq=   769. Q= -0.000 lam=     0.0
  38     freq=   867. Q=  0.000 lam=     0.0     freq=   839. Q=  0.103 lam=     4.4
  39     freq=   867. Q= -0.000 lam=     0.0     freq=   847. Q= -0.000 lam=     0.0
  40     freq=   881. Q=  0.000 lam=     0.0     freq=   862. Q=  0.000 lam=     0.0
  41     freq=   907. Q=  0.159 lam=    11.4     freq=   889. Q=  0.126 lam=     7.1
  42     freq=   951. Q= -0.000 lam=     0.0     freq=   929. Q= -0.230 lam=    24.5
  43     freq=   965. Q= -0.102 lam=     5.0     freq=   934. Q= -0.000 lam=     0.0
  44     freq=   990. Q=  0.000 lam=     0.0     freq=   979. Q=  0.000 lam=     0.0
  45     freq=  1038. Q=  0.078 lam=     3.2     freq=  1023. Q=  0.057 lam=     1.7
  46     freq=  1078. Q= -0.235 lam=    29.8     freq=  1053. Q= -0.051 lam=     1.4
  47     freq=  1109. Q=  0.059 lam=     1.9     freq=  1089. Q=  0.001 lam=     0.0
  48     freq=  1144. Q=  0.182 lam=    19.0     freq=  1117. Q=  0.494 lam=   136.0
  49     freq=  1166. Q=  0.014 lam=     0.1     freq=  1140. Q=  0.130 lam=     9.7
  50     freq=  1184. Q= -0.027 lam=     0.4     freq=  1146. Q= -0.223 lam=    28.4
  51     freq=  1199. Q= -0.293 lam=    51.4     freq=  1179. Q= -0.117 lam=     8.0
  52     freq=  1211. Q=  0.062 lam=     2.3     freq=  1199. Q=  0.093 lam=     5.2
  53     freq=  1275. Q= -0.201 lam=    25.8     freq=  1251. Q= -0.013 lam=     0.1
  54     freq=  1313. Q=  0.379 lam=    94.2     freq=  1274. Q=  0.037 lam=     0.9
  55     freq=  1343. Q=  0.295 lam=    58.3     freq=  1338. Q=  0.121 lam=     9.9
  56     freq=  1358. Q=  0.194 lam=    25.5     freq=  1351. Q=  0.179 lam=    21.8
  57     freq=  1384. Q=  0.126 lam=    11.1     freq=  1375. Q=  0.399 lam=   109.7
  58     freq=  1454. Q=  0.657 lam=   314.1     freq=  1419. Q=  0.009 lam=     0.1
  59     freq=  1462. Q= -0.228 lam=    38.0     freq=  1431. Q= -0.159 lam=    18.2
  60     freq=  1487. Q=  0.282 lam=    59.3     freq=  1448. Q=  0.023 lam=     0.4
  61     freq=  1498. Q= -0.077 lam=     4.5     freq=  1465. Q= -0.124 lam=    11.3
  62     freq=  1526. Q=  0.091 lam=     6.4     freq=  1494. Q=  0.398 lam=   118.3
  63     freq=  1547. Q=  1.021 lam=   805.8     freq=  1528. Q=  0.902 lam=   621.9
  64     freq=  1596. Q=  0.127 lam=    12.8     freq=  1557. Q=  0.692 lam=   372.6
  65     freq=  1636. Q= -0.010 lam=     0.1     freq=  1605. Q= -0.226 lam=    40.9
  66     freq=  3169. Q=  0.003 lam=     0.0     freq=  3169. Q=  0.004 lam=     0.0
  67     freq=  3181. Q=  0.001 lam=     0.0     freq=  3180. Q=  0.002 lam=     0.0
  68     freq=  3192. Q= -0.000 lam=     0.0     freq=  3192. Q= -0.002 lam=     0.0
  69     freq=  3199. Q=  0.008 lam=     0.1     freq=  3199. Q=  0.008 lam=     0.1
  70     freq=  3215. Q= -0.004 lam=     0.0     freq=  3211. Q= -0.006 lam=     0.1
  71     freq=  3232. Q= -0.021 lam=     0.7     freq=  3242. Q= -0.011 lam=     0.2
  72     freq=  3244. Q= -0.005 lam=     0.0     freq=  3242. Q= -0.012 lam=     0.2

 total reorg energy (cm**-1, kcal/mol)=     1982.     1908.      5.67      5.46
 Nber of molecules processed=           2
