 Enter ifcurve (0=recti, 1=orth curvi, 2=apprx curvi, -1 = skip
 And atom ordering flag, 0= never changes, 1= use the first order thenceforth,
  2= deduce it (does read on fail), 3= always read it
 Reading file: 
 ./PDI_3_C0S0.log                                                               
                                          
  Entering Gaussian System, Link 0=g16                                          
  
 Gaussian format, type: g94, g98, g03= F F F
  #P Geom=AllCheck Guess=TCheck SCRF=Check GenChk RB3LYP/6-311G(d,p) Fre    
 energy type= B3LYP   
 Original G94 input coords:
  6  0.851164  0.296615 -0.271039
  6  2.326474  0.025193 -0.219878
  6  3.216934  1.013509 -0.329105
  7  4.645692  0.954679 -0.304820
  6  5.344295 -0.259821 -0.142067
  8  4.761853 -1.319493 -0.014609
  6  6.827182 -0.196323 -0.132144
  6  7.544318 -1.367430  0.025854
  6  8.940675 -1.348208  0.040057
  6  9.663837 -0.165405 -0.102610
  6 11.132483 -0.133247 -0.089181
  6 11.903461 -1.283662  0.068169
  6 13.299709 -1.242090  0.079293
  6 13.966173 -0.040900 -0.067977
  6 15.451648 -0.028393 -0.051962
  8 16.091296 -1.055847  0.089024
  7 16.086675  1.210828 -0.205161
  6 17.583653  1.272012 -0.195112
  6 18.159608  0.846319  1.159313
  6 18.190368  0.516453 -1.381872
  6 15.399332  2.428180 -0.371094
  8 15.994841  3.482323 -0.501110
  6 13.915685  2.375019 -0.381000
  6 13.199620  3.545970 -0.540565
  6 11.803003  3.525974 -0.553464
  6 11.080896  2.342639 -0.408387
  6  9.612090  2.310529 -0.420107
  6  8.841189  3.461655 -0.575101
  6  7.445702  3.420259 -0.585495
  6  6.778708  2.217819 -0.440193
  6  5.299181  2.211195 -0.456395
  8  4.660122  3.235482 -0.593676
  6  7.516762  1.025893 -0.279949
  6  8.943529  1.057284 -0.267512
  6 11.800903  1.119975 -0.242772
  6 13.227823  1.151346 -0.230561
  1  0.360467 -0.041293  0.648631
  1  0.382102 -0.252909 -1.094920
  1  0.632232  1.358895 -0.402716
  1  2.642748 -0.998150 -0.091506
  1  2.890604  2.035284 -0.457840
  1  7.001639 -2.297326  0.138045
  1  9.456993 -2.289695  0.166521
  1 11.425891 -2.246429  0.186633
  1 13.881487 -2.146725  0.202939
  1 17.786634  2.331974 -0.330225
  1 18.006069 -0.215413  1.347530
  1 17.705035  1.420626  1.970681
  1 19.233695  1.050565  1.168171
  1 18.038896 -0.558713 -1.295997
  1 19.264842  0.715700 -1.417484
  1 17.756442  0.862572 -2.323512
  1 13.742511  4.475589 -0.654844
  1 11.285840  4.466840 -0.681055
  1  9.318508  4.424637 -0.692026
  1  6.865117  4.325758 -0.707145
 nber atoms=          56
  SCF Done:  E(RB3LYP) =  -1566.13959437     A.U. after    1 cycles             
  
          23          40 "  -1566.13959437"
After scan for Atom:   Atom  AN      X      Y      Z        X      Y      Z        X      Y      Z   
After scan for Atom:   Atom  AN      X      Y      Z        X      Y      Z        X      Y      Z   
After scan for Atom:   Atom  AN      X      Y      Z        X      Y      Z        X      Y      Z   
After scan for Atom:   Atom  AN      X      Y      Z        X      Y      Z        X      Y      Z   
After scan for Atom:   Atom  AN      X      Y      Z        X      Y      Z        X      Y      Z   
After scan for Atom:   Atom  AN      X      Y      Z        X      Y      Z        X      Y      Z   
After scan for Atom:   Atom  AN      X      Y      Z        X      Y      Z        X      Y      Z   
After scan for Atom:   Atom  AN      X      Y      Z        X      Y      Z        X      Y      Z   
After scan for Atom:   Atom  AN      X      Y      Z        X      Y      Z        X      Y      Z   
After scan for Atom:   Atom  AN      X      Y      Z        X      Y      Z        X      Y      Z   
After scan for Atom:   Atom  AN      X      Y      Z        X      Y      Z        X      Y      Z   
After scan for Atom:   Atom  AN      X      Y      Z        X      Y      Z        X      Y      Z   
After scan for Atom:   Atom  AN      X      Y      Z        X      Y      Z        X      Y      Z   
After scan for Atom:   Atom  AN      X      Y      Z        X      Y      Z        X      Y      Z   
After scan for Atom:   Atom  AN      X      Y      Z        X      Y      Z        X      Y      Z   
After scan for Atom:   Atom  AN      X      Y      Z        X      Y      Z        X      Y      Z   
After scan for Atom:   Atom  AN      X      Y      Z        X      Y      Z        X      Y      Z   
After scan for Atom:   Atom  AN      X      Y      Z        X      Y      Z        X      Y      Z   
After scan for Atom:   Atom  AN      X      Y      Z        X      Y      Z        X      Y      Z   
After scan for Atom:   Atom  AN      X      Y      Z        X      Y      Z        X      Y      Z   
After scan for Atom:   Atom  AN      X      Y      Z        X      Y      Z        X      Y      Z   
After scan for Atom:   Atom  AN      X      Y      Z        X      Y      Z        X      Y      Z   
After scan for Atom:   Atom  AN      X      Y      Z        X      Y      Z        X      Y      Z   
After scan for Atom:   Atom  AN      X      Y      Z        X      Y      Z        X      Y      Z   
After scan for Atom:   Atom  AN      X      Y      Z        X      Y      Z        X      Y      Z   
After scan for Atom:   Atom  AN      X      Y      Z        X      Y      Z        X      Y      Z   
After scan for Atom:   Atom  AN      X      Y      Z        X      Y      Z        X      Y      Z   
After scan for Atom:   Atom  AN      X      Y      Z        X      Y      Z        X      Y      Z   
After scan for Atom:   Atom  AN      X      Y      Z        X      Y      Z        X      Y      Z   
After scan for Atom:   Atom  AN      X      Y      Z        X      Y      Z        X      Y      Z   
After scan for Atom:   Atom  AN      X      Y      Z        X      Y      Z        X      Y      Z   
After scan for Atom:   Atom  AN      X      Y      Z        X      Y      Z        X      Y      Z   
After scan for Atom:   Atom  AN      X      Y      Z        X      Y      Z        X      Y      Z   
After scan for Atom:   Atom  AN      X      Y      Z        X      Y      Z        X      Y      Z   
After scan for Atom:   Atom  AN      X      Y      Z        X      Y      Z        X      Y      Z   
After scan for Atom:   Atom  AN      X      Y      Z        X      Y      Z        X      Y      Z   
After scan for Atom:   Atom  AN      X      Y      Z        X      Y      Z        X      Y      Z   
After scan for Atom:   Atom  AN      X      Y      Z        X      Y      Z        X      Y      Z   
After scan for Atom:   Atom  AN      X      Y      Z        X      Y      Z        X      Y      Z   
After scan for Atom:   Atom  AN      X      Y      Z        X      Y      Z        X      Y      Z   
After scan for Atom:   Atom  AN      X      Y      Z        X      Y      Z        X      Y      Z   
After scan for Atom:   Atom  AN      X      Y      Z        X      Y      Z        X      Y      Z   
After scan for Atom:   Atom  AN      X      Y      Z        X      Y      Z        X      Y      Z   
After scan for Atom:   Atom  AN      X      Y      Z        X      Y      Z        X      Y      Z   
After scan for Atom:   Atom  AN      X      Y      Z        X      Y      Z        X      Y      Z   
After scan for Atom:   Atom  AN      X      Y      Z        X      Y      Z        X      Y      Z   
After scan for Atom:   Atom  AN      X      Y      Z        X      Y      Z        X      Y      Z   
After scan for Atom:   Atom  AN      X      Y      Z        X      Y      Z        X      Y      Z   
After scan for Atom:   Atom  AN      X      Y      Z        X      Y      Z        X      Y      Z   
After scan for Atom:   Atom  AN      X      Y      Z        X      Y      Z        X      Y      Z   
After scan for Atom:   Atom  AN      X      Y      Z        X      Y      Z        X      Y      Z   
After scan for Atom:   Atom  AN      X      Y      Z        X      Y      Z        X      Y      Z   
After scan for Atom:   Atom  AN      X      Y      Z        X      Y      Z        X      Y      Z   
After scan for Atom:   Atom  AN      X      Y      Z        X      Y      Z        X      Y      Z   
 g94    frequencies=
     0.0    0.0    0.0    0.0    0.0    0.0   19.6   22.9   36.8   53.1
    59.8   66.9   76.7   86.7   88.3  102.3  146.6  150.0  164.4  180.6
   182.9  188.1  208.0  213.1  221.9  234.6  235.2  271.1  275.3  284.6
   314.4  333.7  338.2  362.3  387.5  392.5  393.7  419.3  434.1  438.2
   439.4  447.0  447.1  466.6  475.2  480.5  481.5  504.0  516.7  533.8
   546.4  578.2  583.2  592.0  623.0  630.6  644.7  652.4  665.8  715.0
   720.9  726.2  738.7  745.1  755.5  767.3  769.9  785.9  805.5  811.3
   827.6  840.4  843.9  863.7  864.6  869.1  870.5  898.2  916.0  938.5
   945.6  957.0  971.9  984.3  992.3  996.5 1001.0 1005.5 1016.4 1041.9
  1063.9 1067.6 1093.2 1101.4 1105.4 1153.7 1155.8 1167.3 1172.8 1189.8
  1196.0 1207.7 1214.8 1219.5 1240.0 1240.8 1253.4 1269.1 1305.1 1316.7
  1324.9 1330.6 1337.4 1348.3 1368.8 1372.7 1378.3 1382.1 1398.0 1400.7
  1407.7 1417.0 1417.2 1429.8 1436.8 1456.5 1479.6 1479.8 1485.3 1492.1
  1494.6 1498.1 1505.3 1507.7 1522.6 1542.1 1561.6 1604.7 1613.4 1617.7
  1631.7 1632.3 1649.4 1710.0 1713.3 1722.6 1751.0 1759.8 3010.9 3034.8
  3038.8 3053.1 3092.4 3092.6 3095.8 3113.1 3133.1 3143.4 3193.6 3194.1
  3201.9 3202.4 3209.0 3209.4 3217.7 3218.0 3218.3 3240.5
 g94    symmetries=
                                                 A      A      A      A
       A      A      A      A      A      A      A      A      A      A
       A      A      A      A      A      A      A      A      A      A
       A      A      A      A      A      A      A      A      A      A
       A      A      A      A      A      A      A      A      A      A
       A      A      A      A      A      A      A      A      A      A
       A      A      A      A      A      A      A      A      A      A
       A      A      A      A      A      A      A      A      A      A
       A      A      A      A      A      A      A      A      A      A
       A      A      A      A      A      A      A      A      A      A
       A      A      A      A      A      A      A      A      A      A
       A      A      A      A      A      A      A      A      A      A
       A      A      A      A      A      A      A      A      A      A
       A      A      A      A      A      A      A      A      A      A
       A      A      A      A      A      A      A      A      A      A
       A      A      A      A      A      A      A      A      A      A
       A      A      A      A      A      A      A      A
 atomic masses:
 12.0000 12.0000 12.0000 14.0031 12.0000 15.9949 12.0000 12.0000 12.0000 12.0000
 12.0000 12.0000 12.0000 12.0000 12.0000 15.9949 14.0031 12.0000 12.0000 12.0000
 12.0000 15.9949 12.0000 12.0000 12.0000 12.0000 12.0000 12.0000 12.0000 12.0000
 12.0000 15.9949 12.0000 12.0000 12.0000 12.0000  1.0078  1.0078  1.0078  1.0078
  1.0078  1.0078  1.0078  1.0078  1.0078  1.0078  1.0078  1.0078  1.0078  1.0078
  1.0078  1.0078  1.0078  1.0078  1.0078  1.0078
 looking for force constants in 
 ./PDI_3_C0S0.fchk                                                              
  
 Cartesian Force Constants                  R   N=       14196                  
  
 n3=         168       14196
 g94-fc frequencies=
    -2.2   -1.2   -0.0   -0.0    0.0    4.2   19.6   22.9   36.8   53.1
    59.8   66.9   76.7   86.7   88.3  102.3  146.6  150.0  164.4  180.6
   182.9  188.1  208.0  213.1  222.0  234.6  235.2  271.1  275.3  284.6
   314.4  333.7  338.2  362.3  387.5  392.5  393.7  419.3  434.1  438.2
   439.4  447.0  447.1  466.6  475.2  480.5  481.5  504.0  516.7  533.8
   546.5  578.2  583.2  592.0  623.1  630.7  644.7  652.4  665.8  715.1
   720.9  726.2  738.8  745.2  755.5  767.3  769.9  785.9  805.6  811.4
   827.6  840.5  843.9  863.7  864.6  869.1  870.5  898.2  916.0  938.5
   945.6  957.0  972.0  984.3  992.3  996.5 1001.0 1005.6 1016.4 1041.9
  1063.9 1067.6 1093.2 1101.4 1105.5 1153.7 1155.8 1167.3 1172.8 1189.9
  1196.0 1207.7 1214.8 1219.6 1240.0 1240.8 1253.4 1269.2 1305.1 1316.7
  1325.0 1330.7 1337.4 1348.4 1368.8 1372.8 1378.3 1382.2 1398.0 1400.7
  1407.8 1417.0 1417.2 1429.8 1436.8 1456.5 1479.6 1479.8 1485.3 1492.1
  1494.6 1498.2 1505.3 1507.7 1522.6 1542.1 1561.6 1604.8 1613.5 1617.8
  1631.7 1632.4 1649.4 1710.0 1713.3 1722.6 1751.1 1759.8 3010.9 3034.8
  3038.9 3053.2 3092.4 3092.7 3095.9 3113.2 3133.2 3143.5 3193.7 3194.2
  3202.0 3202.5 3209.1 3209.5 3217.8 3218.1 3218.4 3240.5
 at 99999: n3=         168
 symm operator            1 :  F  nop=           0
 symm operator            2 :  F  nop=           0
 symm operator            3 :  F  nop=           0
 symm operator            4 :  F  nop=           0
 symm operator            5 :  F  nop=           0
 symm operator            6 :  F  nop=           0
 symm operator            7 :  F  nop=           0
 The point group of the molecule is  C1
 Symmetry rotation matrix:
   1.00000   0.00000   0.00000
   0.00000   1.00000   0.00000
   0.00000   0.00000   1.00000

 Projecting out zero-frequency components
 generating redundant internal coords
         300        3600          56
 search for int coords
   1 str   2   1   1.501
   2 str   3   2   1.335
   3 str   4   3   1.430
   4 str   5   4   1.411
   5 str   6   5   1.216
   6 str   7   5   1.484
   7 str   8   7   1.382
   8 str   9   8   1.397
   9 str  10   9   1.394
  10 str  11  10   1.469
  11 str  12  11   1.394
  12 str  13  12   1.397
  13 str  14  13   1.382
  14 str  15  14   1.486
  15 str  16  15   1.218
  16 str  17  15   1.401
  17 str  18  17   1.498
  18 str  19  18   1.532
  19 str  20  18   1.532
  20 str  21  17   1.408
  21 str  22  21   1.218
  22 str  23  21   1.485
  23 str  24  23   1.382
  24 str  25  24   1.397
  25 str  26  25   1.394
  26 str  27  26   1.469
  27 str  28  27   1.394
  28 str  29  28   1.396
  29 str  30  29   1.383
  30 str  31   4   1.424
  31 str  31  30   1.480
  32 str  32  31   1.215
  33 str  33   7   1.411
  34 str  33  30   1.411
  35 str  34  10   1.429
  36 str  34  27   1.429
  37 str  34  33   1.427
  38 str  35  11   1.429
  39 str  35  26   1.429
  40 str  36  14   1.412
  41 str  36  23   1.412
  42 str  36  35   1.427
  43 str  37   1   1.096
  44 str  38   1   1.096
  45 str  39   1   1.093
  46 str  40   2   1.079
  47 str  41   3   1.080
  48 str  42   8   1.082
  49 str  43   9   1.081
  50 str  44  12   1.081
  51 str  45  13   1.083
  52 str  46  18   1.088
  53 str  47  19   1.089
  54 str  48  19   1.093
  55 str  49  19   1.093
  56 str  50  20   1.089
  57 str  51  20   1.093
  58 str  52  20   1.093
  59 str  53  24   1.083
  60 str  54  25   1.081
  61 str  55  28   1.081
  62 str  56  29   1.082
 nber stretches=          62
  63 ben   1   2   3
  64 prop tor   1   2   3   4
  65 prop tor   1   2   3  41
  66 ben   1   2  40
  67 ben   2   1  37
  68 ben   2   1  38
  69 ben   2   1  39
  70 ben   2   3   4
  71 prop tor   2   3   4   5
  72 prop tor   2   3   4  31
  73 ben   2   3  41
  74 ben   3   2  40
  75 ben   3   4   5
  76 prop tor   3   4   5   6
  77 prop tor   3   4   5   7
  78 ben   3   4  31
  79 prop tor   3   4  31  30
  80 prop tor   3   4  31  32
  81 ben   4   3  41
  82 ben   4   5   6
  83 ben   4   5   7
  84 prop tor   4   5   7   8
  85 prop tor   4   5   7  33
  86 ben   4  31  30
  87 ben   4  31  32
  88 ben   5   4  31
  89 prop tor   5   4  31  30
  90 prop tor   5   4  31  32
  91 ben   5   7   8
  92 prop tor   5   7   8   9
  93 prop tor   5   7   8  42
  94 ben   5   7  33
  95 prop tor   5   7  33  30
  96 prop tor   5   7  33  34
  97 ben   6   5   7
  98 prop tor   6   5   7   8
  99 prop tor   6   5   7  33
 100 ben   7   8   9
 101 prop tor   7   8   9  10
 102 prop tor   7   8   9  43
 103 ben   7   8  42
 104 ben   7  33  30
 105 ben   7  33  34
 106 prop tor   7  33  34  10
 107 prop tor   7  33  34  27
 108 ben   8   7  33
 109 prop tor   8   7  33  30
 110 prop tor   8   7  33  34
 111 ben   8   9  10
 112 prop tor   8   9  10  11
 113 prop tor   8   9  10  34
 114 ben   8   9  43
 115 ben   9   8  42
 116 ben   9  10  11
 117 prop tor   9  10  11  12
 118 prop tor   9  10  11  35
 119 ben   9  10  34
 120 prop tor   9  10  34  27
 121 prop tor   9  10  34  33
 122 ben  10   9  43
 123 ben  10  11  12
 124 prop tor  10  11  12  13
 125 prop tor  10  11  12  44
 126 ben  10  11  35
 127 prop tor  10  11  35  26
 128 prop tor  10  11  35  36
 129 ben  10  34  27
 130 ben  10  34  33
 131 ben  11  10  34
 132 prop tor  11  10  34  27
 133 prop tor  11  10  34  33
 134 ben  11  12  13
 135 prop tor  11  12  13  14
 136 prop tor  11  12  13  45
 137 ben  11  12  44
 138 ben  11  35  26
 139 ben  11  35  36
 140 prop tor  11  35  36  14
 141 prop tor  11  35  36  23
 142 ben  12  11  35
 143 prop tor  12  11  35  26
 144 prop tor  12  11  35  36
 145 ben  12  13  14
 146 prop tor  12  13  14  15
 147 prop tor  12  13  14  36
 148 ben  12  13  45
 149 ben  13  12  44
 150 ben  13  14  15
 151 prop tor  13  14  15  16
 152 prop tor  13  14  15  17
 153 ben  13  14  36
 154 prop tor  13  14  36  23
 155 prop tor  13  14  36  35
 156 ben  14  13  45
 157 ben  14  15  16
 158 ben  14  15  17
 159 prop tor  14  15  17  18
 160 prop tor  14  15  17  21
 161 ben  14  36  23
 162 ben  14  36  35
 163 ben  15  14  36
 164 prop tor  15  14  36  23
 165 prop tor  15  14  36  35
 166 ben  15  17  18
 167 prop tor  15  17  18  19
 168 prop tor  15  17  18  20
 169 prop tor  15  17  18  46
 170 ben  15  17  21
 171 prop tor  15  17  21  22
 172 prop tor  15  17  21  23
 173 ben  16  15  17
 174 prop tor  16  15  17  18
 175 prop tor  16  15  17  21
 176 ben  17  18  19
 177 prop tor  17  18  19  47
 178 prop tor  17  18  19  48
 179 prop tor  17  18  19  49
 180 ben  17  18  20
 181 prop tor  17  18  20  50
 182 prop tor  17  18  20  51
 183 prop tor  17  18  20  52
 184 ben  17  18  46
 185 ben  17  21  22
 186 ben  17  21  23
 187 prop tor  17  21  23  24
 188 prop tor  17  21  23  36
 189 ben  18  17  21
 190 prop tor  18  17  21  22
 191 prop tor  18  17  21  23
 192 ben  18  19  47
 193 ben  18  19  48
 194 ben  18  19  49
 195 ben  18  20  50
 196 ben  18  20  51
 197 ben  18  20  52
 198 ben  19  18  20
 199 prop tor  19  18  20  50
 200 prop tor  19  18  20  51
 201 prop tor  19  18  20  52
 202 ben  19  18  46
 203 prop tor  20  18  19  47
 204 prop tor  20  18  19  48
 205 prop tor  20  18  19  49
 206 ben  20  18  46
 207 prop tor  21  17  18  19
 208 prop tor  21  17  18  20
 209 prop tor  21  17  18  46
 210 ben  21  23  24
 211 prop tor  21  23  24  25
 212 prop tor  21  23  24  53
 213 ben  21  23  36
 214 prop tor  21  23  36  14
 215 prop tor  21  23  36  35
 216 ben  22  21  23
 217 prop tor  22  21  23  24
 218 prop tor  22  21  23  36
 219 ben  23  24  25
 220 prop tor  23  24  25  26
 221 prop tor  23  24  25  54
 222 ben  23  24  53
 223 ben  23  36  35
 224 ben  24  23  36
 225 prop tor  24  23  36  14
 226 prop tor  24  23  36  35
 227 ben  24  25  26
 228 prop tor  24  25  26  27
 229 prop tor  24  25  26  35
 230 ben  24  25  54
 231 ben  25  24  53
 232 ben  25  26  27
 233 prop tor  25  26  27  28
 234 prop tor  25  26  27  34
 235 ben  25  26  35
 236 prop tor  25  26  35  11
 237 prop tor  25  26  35  36
 238 ben  26  25  54
 239 ben  26  27  28
 240 prop tor  26  27  28  29
 241 prop tor  26  27  28  55
 242 ben  26  27  34
 243 prop tor  26  27  34  10
 244 prop tor  26  27  34  33
 245 ben  26  35  36
 246 prop tor  26  35  36  14
 247 prop tor  26  35  36  23
 248 ben  27  26  35
 249 prop tor  27  26  35  11
 250 prop tor  27  26  35  36
 251 ben  27  28  29
 252 prop tor  27  28  29  30
 253 prop tor  27  28  29  56
 254 ben  27  28  55
 255 ben  27  34  33
 256 ben  28  27  34
 257 prop tor  28  27  34  10
 258 prop tor  28  27  34  33
 259 ben  28  29  30
 260 prop tor  28  29  30  31
 261 prop tor  28  29  30  33
 262 ben  28  29  56
 263 ben  29  28  55
 264 ben  29  30  31
 265 prop tor  29  30  31   4
 266 prop tor  29  30  31  32
 267 ben  29  30  33
 268 prop tor  29  30  33   7
 269 prop tor  29  30  33  34
 270 ben  30  29  56
 271 ben  30  31  32
 272 ben  30  33  34
 273 prop tor  30  33  34  10
 274 prop tor  30  33  34  27
 275 prop tor  31   4   5   6
 276 prop tor  31   4   5   7
 277 ben  31  30  33
 278 prop tor  31  30  33   7
 279 prop tor  31  30  33  34
 280 prop tor  33   7   8   9
 281 prop tor  33   7   8  42
 282 prop tor  33  30  31   4
 283 prop tor  33  30  31  32
 284 prop tor  34  10  11  12
 285 prop tor  34  10  11  35
 286 prop tor  34  27  28  29
 287 prop tor  34  27  28  55
 288 prop tor  35  11  12  13
 289 prop tor  35  11  12  44
 290 prop tor  35  26  27  28
 291 prop tor  35  26  27  34
 292 prop tor  36  14  15  16
 293 prop tor  36  14  15  17
 294 prop tor  36  23  24  25
 295 prop tor  36  23  24  53
 296 prop tor  37   1   2   3
 297 prop tor  37   1   2  40
 298 ben  37   1  38
 299 ben  37   1  39
 300 prop tor  38   1   2   3
 301 prop tor  38   1   2  40
 302 ben  38   1  39
 303 prop tor  39   1   2   3
 304 prop tor  39   1   2  40
 305 prop tor  40   2   3   4
 306 prop tor  40   2   3  41
 307 prop tor  41   3   4   5
 308 prop tor  41   3   4  31
 309 prop tor  42   8   9  10
 310 prop tor  42   8   9  43
 311 prop tor  43   9  10  11
 312 prop tor  43   9  10  34
 313 prop tor  44  12  13  14
 314 prop tor  44  12  13  45
 315 prop tor  45  13  14  15
 316 prop tor  45  13  14  36
 317 prop tor  46  18  19  47
 318 prop tor  46  18  19  48
 319 prop tor  46  18  19  49
 320 prop tor  46  18  20  50
 321 prop tor  46  18  20  51
 322 prop tor  46  18  20  52
 323 ben  47  19  48
 324 ben  47  19  49
 325 ben  48  19  49
 326 ben  50  20  51
 327 ben  50  20  52
 328 ben  51  20  52
 329 prop tor  53  24  25  26
 330 prop tor  53  24  25  54
 331 prop tor  54  25  26  27
 332 prop tor  54  25  26  35
 333 prop tor  55  28  29  30
 334 prop tor  55  28  29  56
 335 prop tor  56  29  30  31
 336 prop tor  56  29  30  33
 nber bend=             108
 nber lin bend=           0
 nber prop tor=         166
 nber impr tor=           0
 nber tot redund int=         336
 Eigenvalues of G in red int coords
    Gval -0.00000000 -0.00000000 -0.00000000 -0.00000000 -0.00000000 -0.00000000 -0.00000000 -0.00000000
    Gval -0.00000000 -0.00000000 -0.00000000 -0.00000000 -0.00000000 -0.00000000 -0.00000000 -0.00000000
    Gval -0.00000000 -0.00000000 -0.00000000 -0.00000000 -0.00000000 -0.00000000 -0.00000000 -0.00000000
    Gval -0.00000000 -0.00000000 -0.00000000 -0.00000000 -0.00000000 -0.00000000 -0.00000000 -0.00000000
    Gval -0.00000000 -0.00000000 -0.00000000 -0.00000000 -0.00000000 -0.00000000 -0.00000000 -0.00000000
    Gval -0.00000000 -0.00000000 -0.00000000 -0.00000000 -0.00000000 -0.00000000 -0.00000000 -0.00000000
    Gval -0.00000000 -0.00000000 -0.00000000 -0.00000000 -0.00000000 -0.00000000 -0.00000000 -0.00000000
    Gval -0.00000000 -0.00000000 -0.00000000 -0.00000000 -0.00000000 -0.00000000 -0.00000000 -0.00000000
    Gval -0.00000000 -0.00000000 -0.00000000 -0.00000000 -0.00000000 -0.00000000 -0.00000000 -0.00000000
    Gval -0.00000000 -0.00000000 -0.00000000 -0.00000000 -0.00000000 -0.00000000 -0.00000000 -0.00000000
    Gval -0.00000000 -0.00000000 -0.00000000 -0.00000000 -0.00000000  0.00000000  0.00000000  0.00000000
    Gval  0.00000000  0.00000000  0.00000000  0.00000000  0.00000000  0.00000000  0.00000000  0.00000000
    Gval  0.00000000  0.00000000  0.00000000  0.00000000  0.00000000  0.00000000  0.00000000  0.00000000
    Gval  0.00000000  0.00000000  0.00000000  0.00000000  0.00000000  0.00000000  0.00000000  0.00000000
    Gval  0.00000000  0.00000000  0.00000000  0.00000000  0.00000000  0.00000000  0.00000000  0.00000000
    Gval  0.00000000  0.00000000  0.00000000  0.00000000  0.00000000  0.00000000  0.00000000  0.00000000
    Gval  0.00000000  0.00000000  0.00000000  0.00000000  0.00000000  0.00000000  0.00000000  0.00000000
    Gval  0.00000000  0.00000000  0.00000000  0.00000000  0.00000000  0.00000000  0.00000000  0.00000000
    Gval  0.00000000  0.00000000  0.00000000  0.00000000  0.00000000  0.00000000  0.00000000  0.00000000
    Gval  0.00000000  0.00000000  0.00000000  0.00000000  0.00000000  0.00000000  0.00000000  0.00000000
    Gval  0.00000000  0.00000000  0.00000000  0.00000000  0.00000000  0.00000000  0.00000000  0.00000000
    Gval  0.00000000  0.00000000  0.00000000  0.00000000  0.00000000  0.00000000  0.00000083  0.00000199
    Gval  0.00000243  0.00000274  0.00000616  0.00000694  0.00000802  0.00001015  0.00001098  0.00001120
    Gval  0.00001555  0.00001619  0.00001721  0.00001793  0.00001839  0.00001897  0.00002167  0.00002362
    Gval  0.00002409  0.00002539  0.00002990  0.00003221  0.00003280  0.00003588  0.00003994  0.00004648
    Gval  0.00004921  0.00005115  0.00005305  0.00005515  0.00005872  0.00006170  0.00006194  0.00006844
    Gval  0.00007131  0.00007387  0.00008137  0.00008246  0.00008370  0.00008681  0.00008862  0.00009187
    Gval  0.00009364  0.00009470  0.00010652  0.00010719  0.00011587  0.00012145  0.00012270  0.00013619
    Gval  0.00013680  0.00013721  0.00014092  0.00015436  0.00016054  0.00016401  0.00016536  0.00018043
    Gval  0.00019520  0.00021309  0.00021482  0.00022234  0.00022943  0.00023006  0.00026984  0.00028412
    Gval  0.00028883  0.00029398  0.00033737  0.00034181  0.00036019  0.00037474  0.00038367  0.00039207
    Gval  0.00039304  0.00040530  0.00042263  0.00042626  0.00042994  0.00043402  0.00044169  0.00044273
    Gval  0.00046239  0.00046562  0.00046625  0.00046676  0.00049258  0.00052993  0.00053112  0.00053436
    Gval  0.00053717  0.00054525  0.00055414  0.00055593  0.00055603  0.00055697  0.00056812  0.00059347
    Gval  0.00059864  0.00059943  0.00059969  0.00060001  0.00060220  0.00062000  0.00062579  0.00064192
    Gval  0.00064557  0.00064615  0.00064808  0.00067048  0.00069187  0.00069367  0.00069789  0.00072766
    Gval  0.00079157  0.00082223  0.00093975  0.00098802  0.00107292  0.00109546  0.00109644  0.00109716
    Gval  0.00109769  0.00114389  0.00115660  0.00116250  0.00116264  0.00116301  0.00116326  0.00117171
    Gval  0.00117239  0.00117379  0.00119940  0.00121111  0.00128169  0.00129522  0.00141440  0.00149445
    Gval  0.00158101  0.00172405  0.00178168  0.00191270  0.00229360  0.00235375  0.00239132  0.00239408
    Gval  0.00253494  0.00253748  0.00256476  0.00278853  0.00292298  0.00293038  0.00302364  0.00304216
    Gval  0.00308152  0.00309688  0.00365493  0.00365719  0.00370380  0.00370568  0.00394303  0.00410889
  8.304914195996041E-007  8.304914195996041E-007
  1.992236132239053E-006  8.304914195996041E-007
  2.431171815189956E-006  8.304914195996041E-007
  2.738985250294180E-006  8.304914195996041E-007
  6.155263134545475E-006  8.304914195996041E-007
  6.935749413246286E-006  8.304914195996041E-007
  8.024750703477373E-006  8.304914195996041E-007
  1.015125023826733E-005  8.304914195996041E-007
  1.098081692822566E-005  8.304914195996041E-007
  1.120160010784773E-005  8.304914195996041E-007
  1.555011009740142E-005  8.304914195996041E-007
  1.618632764167340E-005  8.304914195996041E-007
  1.720634793116317E-005  8.304914195996041E-007
  1.792664201960651E-005  8.304914195996041E-007
  1.838859845987303E-005  8.304914195996041E-007
  1.896657116848324E-005  8.304914195996041E-007
  2.166656465840394E-005  8.304914195996041E-007
  2.362088431932648E-005  8.304914195996041E-007
  2.409225935381318E-005  8.304914195996041E-007
  2.539116257886654E-005  8.304914195996041E-007
  2.989646748334292E-005  8.304914195996041E-007
  3.221423067602393E-005  8.304914195996041E-007
  3.279609422853288E-005  8.304914195996041E-007
  3.587725990643014E-005  8.304914195996041E-007
  3.993505889341265E-005  8.304914195996041E-007
  4.648025895979882E-005  8.304914195996041E-007
  4.920788800640818E-005  8.304914195996041E-007
  5.114867032024213E-005  8.304914195996041E-007
  5.305304901208232E-005  8.304914195996041E-007
  5.514906972722665E-005  8.304914195996041E-007
  5.872160839640681E-005  8.304914195996041E-007
  6.170103689006713E-005  8.304914195996041E-007
  6.193812786490455E-005  8.304914195996041E-007
  6.843690515247281E-005  8.304914195996041E-007
  7.131033724208322E-005  8.304914195996041E-007
  7.387160374522289E-005  8.304914195996041E-007
  8.137290328427423E-005  8.304914195996041E-007
  8.245797490827275E-005  8.304914195996041E-007
  8.370176287514693E-005  8.304914195996041E-007
  8.681096577296502E-005  8.304914195996041E-007
  8.861549148100129E-005  8.304914195996041E-007
  9.187339262789229E-005  8.304914195996041E-007
  9.363942856888115E-005  8.304914195996041E-007
  9.470071559977032E-005  8.304914195996041E-007
  1.065158771871169E-004  8.304914195996041E-007
  1.071949968976866E-004  8.304914195996041E-007
  1.158743278912142E-004  8.304914195996041E-007
  1.214480325670470E-004  8.304914195996041E-007
  1.226970470026750E-004  8.304914195996041E-007
  1.361916937567432E-004  8.304914195996041E-007
  1.368019419676330E-004  8.304914195996041E-007
  1.372143516007362E-004  8.304914195996041E-007
  1.409171516503688E-004  8.304914195996041E-007
  1.543585269890357E-004  8.304914195996041E-007
  1.605355310319234E-004  8.304914195996041E-007
  1.640093212780273E-004  8.304914195996041E-007
  1.653557183739815E-004  8.304914195996041E-007
  1.804284947471660E-004  8.304914195996041E-007
  1.952026878689329E-004  8.304914195996041E-007
  2.130938800884278E-004  8.304914195996041E-007
  2.148151453520393E-004  8.304914195996041E-007
  2.223415162436957E-004  8.304914195996041E-007
  2.294283728417709E-004  8.304914195996041E-007
  2.300587714547390E-004  8.304914195996041E-007
  2.698393193229231E-004  8.304914195996041E-007
  2.841185976997342E-004  8.304914195996041E-007
  2.888307006862011E-004  8.304914195996041E-007
  2.939805868042266E-004  8.304914195996041E-007
  3.373671136889940E-004  8.304914195996041E-007
  3.418061189433918E-004  8.304914195996041E-007
  3.601910891426160E-004  8.304914195996041E-007
  3.747387068542975E-004  8.304914195996041E-007
  3.836747947438719E-004  8.304914195996041E-007
  3.920685109681108E-004  8.304914195996041E-007
  3.930372657386759E-004  8.304914195996041E-007
  4.053036331441591E-004  8.304914195996041E-007
  4.226288491339987E-004  8.304914195996041E-007
  4.262585474140432E-004  8.304914195996041E-007
  4.299431596598286E-004  8.304914195996041E-007
  4.340155495612235E-004  8.304914195996041E-007
  4.416895475547073E-004  8.304914195996041E-007
  4.427338223848611E-004  8.304914195996041E-007
  4.623922244739575E-004  8.304914195996041E-007
  4.656216164298205E-004  8.304914195996041E-007
  4.662522095849258E-004  8.304914195996041E-007
  4.667579545286385E-004  8.304914195996041E-007
  4.925807014981433E-004  8.304914195996041E-007
  5.299328183501656E-004  8.304914195996041E-007
  5.311219564080412E-004  8.304914195996041E-007
  5.343570544740101E-004  8.304914195996041E-007
  5.371704882864387E-004  8.304914195996041E-007
  5.452456793311058E-004  8.304914195996041E-007
  5.541359482439837E-004  8.304914195996041E-007
  5.559255909965496E-004  8.304914195996041E-007
  5.560306705476915E-004  8.304914195996041E-007
  5.569737546176232E-004  8.304914195996041E-007
  5.681238816421766E-004  8.304914195996041E-007
  5.934731922449001E-004  8.304914195996041E-007
  5.986426772276840E-004  8.304914195996041E-007
  5.994312777618003E-004  8.304914195996041E-007
  5.996888470294880E-004  8.304914195996041E-007
  6.000115109015475E-004  8.304914195996041E-007
  6.021966632495089E-004  8.304914195996041E-007
  6.199969456006203E-004  8.304914195996041E-007
  6.257948127780615E-004  8.304914195996041E-007
  6.419186083232289E-004  8.304914195996041E-007
  6.455673914914756E-004  8.304914195996041E-007
  6.461537486191118E-004  8.304914195996041E-007
  6.480844934645389E-004  8.304914195996041E-007
  6.704842444427558E-004  8.304914195996041E-007
  6.918735143676497E-004  8.304914195996041E-007
  6.936681655627891E-004  8.304914195996041E-007
  6.978947615443419E-004  8.304914195996041E-007
  7.276643672424926E-004  8.304914195996041E-007
  7.915692720247413E-004  8.304914195996041E-007
  8.222348933886244E-004  8.304914195996041E-007
  9.397464973735834E-004  8.304914195996041E-007
  9.880199210093418E-004  8.304914195996041E-007
  1.072918873902919E-003  8.304914195996041E-007
  1.095456273886227E-003  8.304914195996041E-007
  1.096440332527105E-003  8.304914195996041E-007
  1.097155275629065E-003  8.304914195996041E-007
  1.097687989191009E-003  8.304914195996041E-007
  1.143886454208289E-003  8.304914195996041E-007
  1.156600940324252E-003  8.304914195996041E-007
  1.162500666178924E-003  8.304914195996041E-007
  1.162640773142009E-003  8.304914195996041E-007
  1.163014957704268E-003  8.304914195996041E-007
  1.163262809135512E-003  8.304914195996041E-007
  1.171711653134236E-003  8.304914195996041E-007
  1.172387814173725E-003  8.304914195996041E-007
  1.173793433992309E-003  8.304914195996041E-007
  1.199398572144341E-003  8.304914195996041E-007
  1.211109243051958E-003  8.304914195996041E-007
  1.281686100939673E-003  8.304914195996041E-007
  1.295217351263761E-003  8.304914195996041E-007
  1.414403662847857E-003  8.304914195996041E-007
  1.494451173739177E-003  8.304914195996041E-007
  1.581011375377708E-003  8.304914195996041E-007
  1.724054363816632E-003  8.304914195996041E-007
  1.781676149395193E-003  8.304914195996041E-007
  1.912702255820478E-003  8.304914195996041E-007
  2.293598642252864E-003  8.304914195996041E-007
  2.353750170294456E-003  8.304914195996041E-007
  2.391321900936504E-003  8.304914195996041E-007
  2.394075071673801E-003  8.304914195996041E-007
  2.534939722895692E-003  8.304914195996041E-007
  2.537484777101995E-003  8.304914195996041E-007
  2.564764898764631E-003  8.304914195996041E-007
  2.788529295364499E-003  8.304914195996041E-007
  2.922980572473321E-003  8.304914195996041E-007
  2.930376041437313E-003  8.304914195996041E-007
  3.023636606567315E-003  8.304914195996041E-007
  3.042159674029151E-003  8.304914195996041E-007
  3.081517611496762E-003  8.304914195996041E-007
  3.096884759289641E-003  8.304914195996041E-007
  3.654933303762194E-003  8.304914195996041E-007
  3.657185525436989E-003  8.304914195996041E-007
  3.703800357657514E-003  8.304914195996041E-007
  3.705682011369351E-003  8.304914195996041E-007
  3.943031744458305E-003  8.304914195996041E-007
  4.108894217157792E-003  8.304914195996041E-007
 cut=1d-8, nber non-redundant internal coords=         162
 Check on Eigenvals of non-red overlap matrix:
  0.00000083  0.00000199  0.00000243  0.00000274  0.00000616  0.00000694  0.00000802  0.00001015
  0.00001098  0.00001120  0.00001555  0.00001619  0.00001721  0.00001793  0.00001839  0.00001897
  0.00002167  0.00002362  0.00002409  0.00002539  0.00002990  0.00003221  0.00003280  0.00003588
  0.00003994  0.00004648  0.00004921  0.00005115  0.00005305  0.00005515  0.00005872  0.00006170
  0.00006194  0.00006844  0.00007131  0.00007387  0.00008137  0.00008246  0.00008370  0.00008681
  0.00008862  0.00009187  0.00009364  0.00009470  0.00010652  0.00010719  0.00011587  0.00012145
  0.00012270  0.00013619  0.00013680  0.00013721  0.00014092  0.00015436  0.00016054  0.00016401
  0.00016536  0.00018043  0.00019520  0.00021309  0.00021482  0.00022234  0.00022943  0.00023006
  0.00026984  0.00028412  0.00028883  0.00029398  0.00033737  0.00034181  0.00036019  0.00037474
  0.00038367  0.00039207  0.00039304  0.00040530  0.00042263  0.00042626  0.00042994  0.00043402
  0.00044169  0.00044273  0.00046239  0.00046562  0.00046625  0.00046676  0.00049258  0.00052993
  0.00053112  0.00053436  0.00053717  0.00054525  0.00055414  0.00055593  0.00055603  0.00055697
  0.00056812  0.00059347  0.00059864  0.00059943  0.00059969  0.00060001  0.00060220  0.00062000
  0.00062579  0.00064192  0.00064557  0.00064615  0.00064808  0.00067048  0.00069187  0.00069367
  0.00069789  0.00072766  0.00079157  0.00082223  0.00093975  0.00098802  0.00107292  0.00109546
  0.00109644  0.00109716  0.00109769  0.00114389  0.00115660  0.00116250  0.00116264  0.00116301
  0.00116326  0.00117171  0.00117239  0.00117379  0.00119940  0.00121111  0.00128169  0.00129522
  0.00141440  0.00149445  0.00158101  0.00172405  0.00178168  0.00191270  0.00229360  0.00235375
  0.00239132  0.00239408  0.00253494  0.00253748  0.00256476  0.00278853  0.00292298  0.00293038
  0.00302364  0.00304216  0.00308152  0.00309688  0.00365493  0.00365719  0.00370380  0.00370568
  0.00394303  0.00410889
 Checking for correct frequencies
 recalc frequencies=
    -0.0   -0.0   -0.0    0.0    0.0    0.0   19.6   22.9   36.8   53.1
    59.8   66.9   76.7   86.7   88.3  102.3  146.6  150.0  164.4  180.6
   182.9  188.1  208.0  213.1  222.0  234.6  235.2  271.1  275.3  284.6
   314.4  333.7  338.2  362.3  387.5  392.5  393.7  419.3  434.1  438.2
   439.4  447.0  447.1  466.6  475.2  480.5  481.5  504.0  516.7  533.8
   546.5  578.2  583.2  592.0  623.1  630.7  644.7  652.4  665.8  715.1
   720.9  726.2  738.8  745.2  755.5  767.3  769.9  785.9  805.6  811.4
   827.6  840.5  843.9  863.7  864.6  869.1  870.5  898.2  916.0  938.5
   945.6  957.0  972.0  984.3  992.3  996.5 1001.0 1005.6 1016.4 1041.9
  1063.9 1067.6 1093.2 1101.4 1105.5 1153.7 1155.8 1167.3 1172.8 1189.9
  1196.0 1207.7 1214.8 1219.6 1240.0 1240.8 1253.4 1269.2 1305.1 1316.7
  1325.0 1330.7 1337.4 1348.4 1368.8 1372.8 1378.3 1382.2 1398.0 1400.7
  1407.8 1417.0 1417.2 1429.8 1436.8 1456.5 1479.6 1479.8 1485.3 1492.1
  1494.6 1498.2 1505.3 1507.7 1522.6 1542.1 1561.6 1604.8 1613.5 1617.8
  1631.7 1632.4 1649.4 1710.0 1713.3 1722.6 1751.1 1759.8 3010.9 3034.8
  3038.9 3053.2 3092.4 3092.7 3095.9 3113.2 3133.2 3143.5 3193.7 3194.2
  3202.0 3202.5 3209.1 3209.5 3217.8 3218.1 3218.4 3240.5
 recalc symmetries=
                                                                       
                                                                       
                                                                       
                                                                       
                                                                       
                                                                       
                                                                       
                                                                       
                                                                       
                                                                       
                                                                       
                                                                       
                                                                       
                                                                       
                                                                       
                                                                       
                                                         
 recalc freqs check OK
 Zero-point lengths:
 10.0000 10.0000 10.0000 10.0000 10.0000 10.0000 56.0446 51.7816 40.8451 34.0204
 32.0602 30.3102 28.3047 26.6305 26.3826 24.5119 20.4759 20.2422 19.3374 18.4452
 18.3307 18.0747 17.1906 16.9809 16.6404 16.1841 16.1659 15.0577 14.9416 14.6941
 13.9821 13.5705 13.4807 13.0248 12.5939 12.5138 12.4941 12.1063 11.8988 11.8428
 11.8263 11.7256 11.7244 11.4763 11.3727 11.3091 11.2973 11.0424 10.9062 10.7299
 10.6051 10.3101 10.2656 10.1892  9.9319  9.8718  9.7637  9.7061  9.6074  9.2709
  9.2332  9.1995  9.1210  9.0818  9.0196  8.9500  8.9347  8.8432  8.7347  8.7034
  8.6173  8.5514  8.5340  8.4354  8.4311  8.4092  8.4024  8.2721  8.1912  8.0923
  8.0620  8.0138  7.9519  7.9020  7.8701  7.8533  7.8357  7.8179  7.7761  7.6804
  7.6006  7.5874  7.4979  7.4700  7.4563  7.2988  7.2920  7.2560  7.2389  7.1870
  7.1686  7.1337  7.1128  7.0989  7.0401  7.0378  7.0024  6.9589  6.8623  6.8320
  6.8107  6.7961  6.7790  6.7513  6.7007  6.6911  6.6776  6.6683  6.6304  6.6240
  6.6074  6.5857  6.5853  6.5563  6.5402  6.4959  6.4450  6.4446  6.4326  6.4180
  6.4125  6.4050  6.3897  6.3847  6.3533  6.3130  6.2735  6.1885  6.1719  6.1636
  6.1372  6.1360  6.1042  5.9951  5.9893  5.9731  5.9244  5.9096  4.5180  4.5002
  4.4972  4.4866  4.4581  4.4579  4.4556  4.4432  4.4290  4.4217  4.3868  4.3865
  4.3811  4.3808  4.3763  4.3760  4.3704  4.3702  4.3699  4.3550
 highest evec of mol 1
  0.0047  0.0145 -0.0017
 -0.0658  0.2693 -0.0335
 -0.0280  0.0399 -0.0052
 -0.0012  0.0013 -0.0002
  0.0014 -0.0014  0.0002
 -0.0049  0.0020 -0.0003
 -0.0003  0.0001 -0.0000
 -0.0003 -0.0005  0.0001
  0.0001 -0.0001  0.0000
  0.0000  0.0000 -0.0000
 -0.0000 -0.0000  0.0000
 -0.0000 -0.0000  0.0000
  0.0000  0.0000 -0.0000
  0.0000  0.0000 -0.0000
 -0.0000 -0.0000  0.0000
  0.0000  0.0000 -0.0000
 -0.0000  0.0000 -0.0000
  0.0000  0.0000 -0.0000
  0.0000 -0.0000 -0.0000
  0.0000 -0.0000  0.0000
  0.0000 -0.0000  0.0000
 -0.0000  0.0000  0.0000
 -0.0000  0.0000  0.0000
  0.0000  0.0000 -0.0000
 -0.0000  0.0000 -0.0000
  0.0000 -0.0000  0.0000
  0.0000 -0.0000  0.0000
  0.0000  0.0001 -0.0000
 -0.0001  0.0002 -0.0000
 -0.0001  0.0000 -0.0000
  0.0003  0.0011 -0.0001
  0.0009  0.0003 -0.0000
  0.0000 -0.0000  0.0000
 -0.0000 -0.0000  0.0000
  0.0000 -0.0000  0.0000
 -0.0000 -0.0000  0.0000
 -0.0108 -0.0042  0.0143
 -0.0104 -0.0075 -0.0131
  0.0154 -0.0500  0.0063
  0.2712 -0.8914  0.1118
  0.0574 -0.1771  0.0223
  0.0009  0.0014 -0.0002
 -0.0002  0.0004 -0.0001
  0.0001  0.0001 -0.0000
 -0.0000 -0.0000 -0.0000
 -0.0000 -0.0000  0.0000
  0.0000  0.0000 -0.0000
 -0.0000  0.0000  0.0000
 -0.0000 -0.0000 -0.0000
  0.0000  0.0000 -0.0000
 -0.0000 -0.0000  0.0000
 -0.0000  0.0000 -0.0000
 -0.0000 -0.0000  0.0000
  0.0000 -0.0001  0.0000
 -0.0002 -0.0003  0.0000
  0.0003 -0.0005  0.0001
 generating redundant internal coords
         300        3600          56
 Adding extra bonds for z output only
           6           6           6           7           6           8
           6           6           6           6           6           6
           6           6           6           8           7           6
           6           6           6           8           6           6
           6           6           6           6           6           6
           6           8           6           6           6           6
           1           1           1           1           1           1
           1           1           1           1           1           1
           1           1           1           1           1           1
           1           1
 search for int coords
   1 str   2   1   1.501
   2 str   3   2   1.335
   3 str   4   3   1.430
   4 str   5   4   1.411
   5 str   6   5   1.216
   6 str   7   5   1.484
   7 str   8   7   1.382
   8 str   9   8   1.397
   9 str  10   9   1.394
  10 str  11  10   1.469
  11 str  12  11   1.394
  12 str  13  12   1.397
  13 str  14  13   1.382
  14 str  15  14   1.486
  15 str  16  15   1.218
  16 str  17  15   1.401
  17 str  18  17   1.498
  18 str  19  18   1.532
  19 str  20  18   1.532
  20 str  21  17   1.408
  21 str  22  21   1.218
  22 str  23  21   1.485
  23 str  24  23   1.382
  24 str  25  24   1.397
  25 str  26  25   1.394
  26 str  27  26   1.469
  27 str  28  27   1.394
  28 str  29  28   1.396
  29 str  30  29   1.383
  30 str  31   4   1.424
  31 str  31  30   1.480
  32 str  32  31   1.215
  33 str  33   7   1.411
  34 str  33  30   1.411
  35 str  34  10   1.429
  36 str  34  27   1.429
  37 str  34  33   1.427
  38 str  35  11   1.429
  39 str  35  26   1.429
  40 str  36  14   1.412
  41 str  36  23   1.412
  42 str  36  35   1.427
  43 str  37   1   1.096
  44 str  38   1   1.096
  45 str  39   1   1.093
  46 str  40   2   1.079
  47 str  41   3   1.080
  48 str  42   8   1.082
  49 str  43   9   1.081
  50 str  44  12   1.081
  51 str  45  13   1.083
  52 str  46  18   1.088
  53 str  47  19   1.089
  54 str  48  19   1.093
  55 str  49  19   1.093
  56 str  50  20   1.089
  57 str  51  20   1.093
  58 str  52  20   1.093
  59 str  53  24   1.083
  60 str  54  25   1.081
  61 str  55  28   1.081
  62 str  56  29   1.082
 nber stretches=          62
  63 ben   1   2   3
  64 prop tor   1   2   3   4
  65 prop tor   1   2   3  41
  66 ben   1   2  40
  67 ben   2   1  37
  68 ben   2   1  38
  69 ben   2   1  39
  70 ben   2   3   4
  71 prop tor   2   3   4   5
  72 prop tor   2   3   4  31
  73 ben   2   3  41
  74 ben   3   2  40
  75 ben   3   4   5
  76 prop tor   3   4   5   6
  77 prop tor   3   4   5   7
  78 ben   3   4  31
  79 prop tor   3   4  31  30
  80 prop tor   3   4  31  32
  81 ben   4   3  41
  82 ben   4   5   6
  83 ben   4   5   7
  84 prop tor   4   5   7   8
  85 prop tor   4   5   7  33
  86 ben   4  31  30
  87 ben   4  31  32
  88 ben   5   4  31
  89 prop tor   5   4  31  30
  90 prop tor   5   4  31  32
  91 ben   5   7   8
  92 prop tor   5   7   8   9
  93 prop tor   5   7   8  42
  94 ben   5   7  33
  95 prop tor   5   7  33  30
  96 prop tor   5   7  33  34
  97 ben   6   5   7
  98 prop tor   6   5   7   8
  99 prop tor   6   5   7  33
 100 ben   7   8   9
 101 prop tor   7   8   9  10
 102 prop tor   7   8   9  43
 103 ben   7   8  42
 104 ben   7  33  30
 105 ben   7  33  34
 106 prop tor   7  33  34  10
 107 prop tor   7  33  34  27
 108 ben   8   7  33
 109 prop tor   8   7  33  30
 110 prop tor   8   7  33  34
 111 ben   8   9  10
 112 prop tor   8   9  10  11
 113 prop tor   8   9  10  34
 114 ben   8   9  43
 115 ben   9   8  42
 116 ben   9  10  11
 117 prop tor   9  10  11  12
 118 prop tor   9  10  11  35
 119 ben   9  10  34
 120 prop tor   9  10  34  27
 121 prop tor   9  10  34  33
 122 ben  10   9  43
 123 ben  10  11  12
 124 prop tor  10  11  12  13
 125 prop tor  10  11  12  44
 126 ben  10  11  35
 127 prop tor  10  11  35  26
 128 prop tor  10  11  35  36
 129 ben  10  34  27
 130 ben  10  34  33
 131 ben  11  10  34
 132 prop tor  11  10  34  27
 133 prop tor  11  10  34  33
 134 ben  11  12  13
 135 prop tor  11  12  13  14
 136 prop tor  11  12  13  45
 137 ben  11  12  44
 138 ben  11  35  26
 139 ben  11  35  36
 140 prop tor  11  35  36  14
 141 prop tor  11  35  36  23
 142 ben  12  11  35
 143 prop tor  12  11  35  26
 144 prop tor  12  11  35  36
 145 ben  12  13  14
 146 prop tor  12  13  14  15
 147 prop tor  12  13  14  36
 148 ben  12  13  45
 149 ben  13  12  44
 150 ben  13  14  15
 151 prop tor  13  14  15  16
 152 prop tor  13  14  15  17
 153 ben  13  14  36
 154 prop tor  13  14  36  23
 155 prop tor  13  14  36  35
 156 ben  14  13  45
 157 ben  14  15  16
 158 ben  14  15  17
 159 prop tor  14  15  17  18
 160 prop tor  14  15  17  21
 161 ben  14  36  23
 162 ben  14  36  35
 163 ben  15  14  36
 164 prop tor  15  14  36  23
 165 prop tor  15  14  36  35
 166 ben  15  17  18
 167 prop tor  15  17  18  19
 168 prop tor  15  17  18  20
 169 prop tor  15  17  18  46
 170 ben  15  17  21
 171 prop tor  15  17  21  22
 172 prop tor  15  17  21  23
 173 ben  16  15  17
 174 prop tor  16  15  17  18
 175 prop tor  16  15  17  21
 176 ben  17  18  19
 177 prop tor  17  18  19  47
 178 prop tor  17  18  19  48
 179 prop tor  17  18  19  49
 180 ben  17  18  20
 181 prop tor  17  18  20  50
 182 prop tor  17  18  20  51
 183 prop tor  17  18  20  52
 184 ben  17  18  46
 185 ben  17  21  22
 186 ben  17  21  23
 187 prop tor  17  21  23  24
 188 prop tor  17  21  23  36
 189 ben  18  17  21
 190 prop tor  18  17  21  22
 191 prop tor  18  17  21  23
 192 ben  18  19  47
 193 ben  18  19  48
 194 ben  18  19  49
 195 ben  18  20  50
 196 ben  18  20  51
 197 ben  18  20  52
 198 ben  19  18  20
 199 prop tor  19  18  20  50
 200 prop tor  19  18  20  51
 201 prop tor  19  18  20  52
 202 ben  19  18  46
 203 prop tor  20  18  19  47
 204 prop tor  20  18  19  48
 205 prop tor  20  18  19  49
 206 ben  20  18  46
 207 prop tor  21  17  18  19
 208 prop tor  21  17  18  20
 209 prop tor  21  17  18  46
 210 ben  21  23  24
 211 prop tor  21  23  24  25
 212 prop tor  21  23  24  53
 213 ben  21  23  36
 214 prop tor  21  23  36  14
 215 prop tor  21  23  36  35
 216 ben  22  21  23
 217 prop tor  22  21  23  24
 218 prop tor  22  21  23  36
 219 ben  23  24  25
 220 prop tor  23  24  25  26
 221 prop tor  23  24  25  54
 222 ben  23  24  53
 223 ben  23  36  35
 224 ben  24  23  36
 225 prop tor  24  23  36  14
 226 prop tor  24  23  36  35
 227 ben  24  25  26
 228 prop tor  24  25  26  27
 229 prop tor  24  25  26  35
 230 ben  24  25  54
 231 ben  25  24  53
 232 ben  25  26  27
 233 prop tor  25  26  27  28
 234 prop tor  25  26  27  34
 235 ben  25  26  35
 236 prop tor  25  26  35  11
 237 prop tor  25  26  35  36
 238 ben  26  25  54
 239 ben  26  27  28
 240 prop tor  26  27  28  29
 241 prop tor  26  27  28  55
 242 ben  26  27  34
 243 prop tor  26  27  34  10
 244 prop tor  26  27  34  33
 245 ben  26  35  36
 246 prop tor  26  35  36  14
 247 prop tor  26  35  36  23
 248 ben  27  26  35
 249 prop tor  27  26  35  11
 250 prop tor  27  26  35  36
 251 ben  27  28  29
 252 prop tor  27  28  29  30
 253 prop tor  27  28  29  56
 254 ben  27  28  55
 255 ben  27  34  33
 256 ben  28  27  34
 257 prop tor  28  27  34  10
 258 prop tor  28  27  34  33
 259 ben  28  29  30
 260 prop tor  28  29  30  31
 261 prop tor  28  29  30  33
 262 ben  28  29  56
 263 ben  29  28  55
 264 ben  29  30  31
 265 prop tor  29  30  31   4
 266 prop tor  29  30  31  32
 267 ben  29  30  33
 268 prop tor  29  30  33   7
 269 prop tor  29  30  33  34
 270 ben  30  29  56
 271 ben  30  31  32
 272 ben  30  33  34
 273 prop tor  30  33  34  10
 274 prop tor  30  33  34  27
 275 prop tor  31   4   5   6
 276 prop tor  31   4   5   7
 277 ben  31  30  33
 278 prop tor  31  30  33   7
 279 prop tor  31  30  33  34
 280 prop tor  33   7   8   9
 281 prop tor  33   7   8  42
 282 prop tor  33  30  31   4
 283 prop tor  33  30  31  32
 284 prop tor  34  10  11  12
 285 prop tor  34  10  11  35
 286 prop tor  34  27  28  29
 287 prop tor  34  27  28  55
 288 prop tor  35  11  12  13
 289 prop tor  35  11  12  44
 290 prop tor  35  26  27  28
 291 prop tor  35  26  27  34
 292 prop tor  36  14  15  16
 293 prop tor  36  14  15  17
 294 prop tor  36  23  24  25
 295 prop tor  36  23  24  53
 296 prop tor  37   1   2   3
 297 prop tor  37   1   2  40
 298 ben  37   1  38
 299 ben  37   1  39
 300 prop tor  38   1   2   3
 301 prop tor  38   1   2  40
 302 ben  38   1  39
 303 prop tor  39   1   2   3
 304 prop tor  39   1   2  40
 305 prop tor  40   2   3   4
 306 prop tor  40   2   3  41
 307 prop tor  41   3   4   5
 308 prop tor  41   3   4  31
 309 prop tor  42   8   9  10
 310 prop tor  42   8   9  43
 311 prop tor  43   9  10  11
 312 prop tor  43   9  10  34
 313 prop tor  44  12  13  14
 314 prop tor  44  12  13  45
 315 prop tor  45  13  14  15
 316 prop tor  45  13  14  36
 317 prop tor  46  18  19  47
 318 prop tor  46  18  19  48
 319 prop tor  46  18  19  49
 320 prop tor  46  18  20  50
 321 prop tor  46  18  20  51
 322 prop tor  46  18  20  52
 323 ben  47  19  48
 324 ben  47  19  49
 325 ben  48  19  49
 326 ben  50  20  51
 327 ben  50  20  52
 328 ben  51  20  52
 329 prop tor  53  24  25  26
 330 prop tor  53  24  25  54
 331 prop tor  54  25  26  27
 332 prop tor  54  25  26  35
 333 prop tor  55  28  29  30
 334 prop tor  55  28  29  56
 335 prop tor  56  29  30  31
 336 prop tor  56  29  30  33
 nber bend=             108
 nber lin bend=           0
 nber prop tor=         166
 nber impr tor=           0
 nber tot redund int=         336
 Reading file: 
 ./PDI_3_C0S1.log                                                               
                                          
  Entering Gaussian System, Link 0=g16                                          
  
 Gaussian format, type: g94, g98, g03= F F F
  #P Geom=AllCheck Guess=TCheck SCRF=Check GenChk RB3LYP TD(FC,Read)/6-3    
 energy type= TD      
 Original G94 input coords:
  6  0.873165  0.302171 -0.272955
  6  2.347034  0.028420 -0.218864
  6  3.240820  1.015930 -0.330380
  7  4.666188  0.955144 -0.304286
  6  5.365376 -0.259640 -0.141086
  8  4.782708 -1.322852 -0.012531
  6  6.842231 -0.197549 -0.131648
  6  7.563977 -1.387010  0.027824
  6  8.944074 -1.372152  0.041845
  6  9.678644 -0.164928 -0.103184
  6 11.119827 -0.132756 -0.090544
  6 11.905158 -1.307283  0.068636
  6 13.284630 -1.261328  0.078843
  6 13.955271 -0.041713 -0.069432
  6 15.433403 -0.028454 -0.053312
  8 16.074395 -1.059748  0.087195
  7 16.067216  1.211175 -0.205472
  6 17.563813  1.273514 -0.195553
  6 18.139544  0.846335  1.158554
  6 18.170446  0.518519 -1.382811
  6 15.379304  2.427792 -0.369885
  8 15.974099  3.486827 -0.499231
  6 13.902658  2.373392 -0.379637
  6 13.180264  3.562256 -0.540177
  6 11.800437  3.546112 -0.553379
  6 11.066301  2.336992 -0.406587
  6  9.626451  2.304659 -0.418159
  6  8.841274  3.481653 -0.576161
  6  7.463469  3.437516 -0.585851
  6  6.789779  2.216610 -0.438651
  6  5.320298  2.213962 -0.455061
  8  4.677758  3.240911 -0.592489
  6  7.528055  1.023393 -0.278863
  6  8.955614  1.054876 -0.266654
  6 11.789706  1.117275 -0.242609
  6 13.217241  1.149774 -0.230519
  1  0.380657 -0.032401  0.647191
  1  0.404149 -0.250433 -1.095046
  1  0.655859  1.364170 -0.408806
  1  2.662337 -0.994911 -0.086639
  1  2.916393  2.038113 -0.462541
  1  7.012185 -2.311278  0.138879
  1  9.467033 -2.309711  0.166889
  1 11.421351 -2.266668  0.185710
  1 13.876008 -2.159618  0.200735
  1 17.766051  2.333810 -0.329926
  1 17.983185 -0.215178  1.345999
  1 17.686322  1.421337  1.970214
  1 19.214163  1.048153  1.167286
  1 18.016106 -0.556384 -1.298240
  1 19.245443  0.715596 -1.417069
  1 17.738056  0.866951 -2.324330
  1 13.732308  4.486362 -0.652585
  1 11.276223  4.482819 -0.679377
  1  9.326138  4.440520 -0.692197
  1  6.874047  4.337073 -0.706401
 nber atoms=          56
  Total Energy, E(TD-HF/TD-DFT) =  -1566.05563591                               
  
          32          49 "  -1566.05563591"
After scan for Atom:   Atom  AN      X      Y      Z        X      Y      Z        X      Y      Z   
After scan for Atom:   Atom  AN      X      Y      Z        X      Y      Z        X      Y      Z   
After scan for Atom:   Atom  AN      X      Y      Z        X      Y      Z        X      Y      Z   
After scan for Atom:   Atom  AN      X      Y      Z        X      Y      Z        X      Y      Z   
After scan for Atom:   Atom  AN      X      Y      Z        X      Y      Z        X      Y      Z   
After scan for Atom:   Atom  AN      X      Y      Z        X      Y      Z        X      Y      Z   
After scan for Atom:   Atom  AN      X      Y      Z        X      Y      Z        X      Y      Z   
After scan for Atom:   Atom  AN      X      Y      Z        X      Y      Z        X      Y      Z   
After scan for Atom:   Atom  AN      X      Y      Z        X      Y      Z        X      Y      Z   
After scan for Atom:   Atom  AN      X      Y      Z        X      Y      Z        X      Y      Z   
After scan for Atom:   Atom  AN      X      Y      Z        X      Y      Z        X      Y      Z   
After scan for Atom:   Atom  AN      X      Y      Z        X      Y      Z        X      Y      Z   
After scan for Atom:   Atom  AN      X      Y      Z        X      Y      Z        X      Y      Z   
After scan for Atom:   Atom  AN      X      Y      Z        X      Y      Z        X      Y      Z   
After scan for Atom:   Atom  AN      X      Y      Z        X      Y      Z        X      Y      Z   
After scan for Atom:   Atom  AN      X      Y      Z        X      Y      Z        X      Y      Z   
After scan for Atom:   Atom  AN      X      Y      Z        X      Y      Z        X      Y      Z   
After scan for Atom:   Atom  AN      X      Y      Z        X      Y      Z        X      Y      Z   
After scan for Atom:   Atom  AN      X      Y      Z        X      Y      Z        X      Y      Z   
After scan for Atom:   Atom  AN      X      Y      Z        X      Y      Z        X      Y      Z   
After scan for Atom:   Atom  AN      X      Y      Z        X      Y      Z        X      Y      Z   
After scan for Atom:   Atom  AN      X      Y      Z        X      Y      Z        X      Y      Z   
After scan for Atom:   Atom  AN      X      Y      Z        X      Y      Z        X      Y      Z   
After scan for Atom:   Atom  AN      X      Y      Z        X      Y      Z        X      Y      Z   
After scan for Atom:   Atom  AN      X      Y      Z        X      Y      Z        X      Y      Z   
After scan for Atom:   Atom  AN      X      Y      Z        X      Y      Z        X      Y      Z   
After scan for Atom:   Atom  AN      X      Y      Z        X      Y      Z        X      Y      Z   
After scan for Atom:   Atom  AN      X      Y      Z        X      Y      Z        X      Y      Z   
After scan for Atom:   Atom  AN      X      Y      Z        X      Y      Z        X      Y      Z   
After scan for Atom:   Atom  AN      X      Y      Z        X      Y      Z        X      Y      Z   
After scan for Atom:   Atom  AN      X      Y      Z        X      Y      Z        X      Y      Z   
After scan for Atom:   Atom  AN      X      Y      Z        X      Y      Z        X      Y      Z   
After scan for Atom:   Atom  AN      X      Y      Z        X      Y      Z        X      Y      Z   
After scan for Atom:   Atom  AN      X      Y      Z        X      Y      Z        X      Y      Z   
After scan for Atom:   Atom  AN      X      Y      Z        X      Y      Z        X      Y      Z   
After scan for Atom:   Atom  AN      X      Y      Z        X      Y      Z        X      Y      Z   
After scan for Atom:   Atom  AN      X      Y      Z        X      Y      Z        X      Y      Z   
After scan for Atom:   Atom  AN      X      Y      Z        X      Y      Z        X      Y      Z   
After scan for Atom:   Atom  AN      X      Y      Z        X      Y      Z        X      Y      Z   
After scan for Atom:   Atom  AN      X      Y      Z        X      Y      Z        X      Y      Z   
After scan for Atom:   Atom  AN      X      Y      Z        X      Y      Z        X      Y      Z   
After scan for Atom:   Atom  AN      X      Y      Z        X      Y      Z        X      Y      Z   
After scan for Atom:   Atom  AN      X      Y      Z        X      Y      Z        X      Y      Z   
After scan for Atom:   Atom  AN      X      Y      Z        X      Y      Z        X      Y      Z   
After scan for Atom:   Atom  AN      X      Y      Z        X      Y      Z        X      Y      Z   
After scan for Atom:   Atom  AN      X      Y      Z        X      Y      Z        X      Y      Z   
After scan for Atom:   Atom  AN      X      Y      Z        X      Y      Z        X      Y      Z   
After scan for Atom:   Atom  AN      X      Y      Z        X      Y      Z        X      Y      Z   
After scan for Atom:   Atom  AN      X      Y      Z        X      Y      Z        X      Y      Z   
After scan for Atom:   Atom  AN      X      Y      Z        X      Y      Z        X      Y      Z   
After scan for Atom:   Atom  AN      X      Y      Z        X      Y      Z        X      Y      Z   
After scan for Atom:   Atom  AN      X      Y      Z        X      Y      Z        X      Y      Z   
After scan for Atom:   Atom  AN      X      Y      Z        X      Y      Z        X      Y      Z   
After scan for Atom:   Atom  AN      X      Y      Z        X      Y      Z        X      Y      Z   
 g94    frequencies=
     0.0    0.0    0.0    0.0    0.0    0.0   18.6   28.6   36.2   55.0
    58.8   70.4   75.6   87.6   89.1  101.1  146.1  152.5  168.0  181.1
   183.4  192.7  208.7  211.7  218.1  234.2  235.4  256.0  275.7  285.9
   301.8  319.5  334.5  358.6  386.7  388.7  394.4  416.8  418.8  434.4
   440.0  443.0  447.4  466.3  480.1  483.9  498.0  501.1  505.7  515.8
   546.1  568.5  574.6  577.8  604.6  615.8  631.7  643.8  651.9  674.5
   700.1  707.3  717.0  728.8  746.7  750.5  757.2  763.2  801.9  806.7
   808.1  813.8  825.0  825.3  831.5  842.1  843.4  893.2  911.1  935.6
   943.0  945.4  956.7  971.3  974.1  976.3  987.0  988.4 1012.0 1039.5
  1062.0 1065.5 1086.8 1094.4 1109.7 1137.5 1155.5 1161.1 1168.2 1176.8
  1185.7 1196.6 1199.4 1224.2 1232.7 1242.6 1247.2 1262.4 1300.5 1315.2
  1320.8 1330.6 1352.8 1361.6 1366.9 1377.8 1382.1 1391.9 1400.2 1405.1
  1415.6 1416.1 1427.1 1432.7 1446.6 1452.9 1464.6 1478.4 1483.9 1485.0
  1493.8 1497.5 1504.9 1505.1 1520.2 1522.9 1546.9 1558.5 1575.2 1594.1
  1601.8 1613.6 1621.9 1685.6 1696.7 1724.6 1733.4 2034.7 3009.6 3034.1
  3038.2 3050.8 3092.0 3093.7 3095.2 3112.2 3132.4 3142.7 3197.5 3198.2
  3205.3 3205.7 3212.9 3213.4 3216.0 3223.1 3223.9 3239.3
 g94    symmetries=
                                                 A      A      A      A
       A      A      A      A      A      A      A      A      A      A
       A      A      A      A      A      A      A      A      A      A
       A      A      A      A      A      A      A      A      A      A
       A      A      A      A      A      A      A      A      A      A
       A      A      A      A      A      A      A      A      A      A
       A      A      A      A      A      A      A      A      A      A
       A      A      A      A      A      A      A      A      A      A
       A      A      A      A      A      A      A      A      A      A
       A      A      A      A      A      A      A      A      A      A
       A      A      A      A      A      A      A      A      A      A
       A      A      A      A      A      A      A      A      A      A
       A      A      A      A      A      A      A      A      A      A
       A      A      A      A      A      A      A      A      A      A
       A      A      A      A      A      A      A      A      A      A
       A      A      A      A      A      A      A      A      A      A
       A      A      A      A      A      A      A      A
 atomic masses:
 12.0000 12.0000 12.0000 14.0031 12.0000 15.9949 12.0000 12.0000 12.0000 12.0000
 12.0000 12.0000 12.0000 12.0000 12.0000 15.9949 14.0031 12.0000 12.0000 12.0000
 12.0000 15.9949 12.0000 12.0000 12.0000 12.0000 12.0000 12.0000 12.0000 12.0000
 12.0000 15.9949 12.0000 12.0000 12.0000 12.0000  1.0078  1.0078  1.0078  1.0078
  1.0078  1.0078  1.0078  1.0078  1.0078  1.0078  1.0078  1.0078  1.0078  1.0078
  1.0078  1.0078  1.0078  1.0078  1.0078  1.0078
 looking for force constants in 
 ./PDI_3_C0S1.fchk                                                              
  
 Cartesian Force Constants                  R   N=       14196                  
  
 n3=         168       14196
 g94-fc frequencies=
    -2.2   -1.2   -0.0   -0.0    0.0    4.0   18.6   28.6   36.2   55.0
    58.8   70.4   75.6   87.6   89.1  101.1  146.1  152.5  168.0  181.1
   183.4  192.7  208.7  211.7  218.1  234.2  235.4  256.0  275.7  285.9
   301.8  319.6  334.5  358.6  386.7  388.8  394.4  416.8  418.8  434.4
   440.0  443.1  447.4  466.3  480.1  483.9  498.1  501.1  505.7  515.9
   546.1  568.5  574.6  577.8  604.6  615.9  631.7  643.8  651.9  674.5
   700.1  707.3  717.0  728.8  746.7  750.5  757.3  763.2  801.9  806.7
   808.1  813.8  825.0  825.4  831.5  842.2  843.4  893.2  911.1  935.7
   943.0  945.4  956.7  971.3  974.1  976.3  987.1  988.5 1012.1 1039.5
  1062.0 1065.6 1086.8 1094.4 1109.7 1137.5 1155.5 1161.2 1168.2 1176.8
  1185.7 1196.6 1199.4 1224.2 1232.7 1242.6 1247.3 1262.4 1300.5 1315.2
  1320.8 1330.7 1352.9 1361.6 1367.0 1377.8 1382.2 1392.0 1400.2 1405.1
  1415.7 1416.1 1427.1 1432.7 1446.6 1452.9 1464.7 1478.4 1483.9 1485.0
  1493.9 1497.5 1505.0 1505.2 1520.2 1522.9 1547.0 1558.5 1575.2 1594.2
  1601.8 1613.6 1622.0 1685.6 1696.8 1724.7 1733.4 2034.7 3009.6 3034.1
  3038.2 3050.8 3092.0 3093.8 3095.3 3112.2 3132.5 3142.7 3197.6 3198.3
  3205.3 3205.8 3213.0 3213.4 3216.0 3223.2 3224.0 3239.4
 at 99999: n3=         168
 symm operator            1 :  F  nop=           0
 symm operator            2 :  F  nop=           0
 symm operator            3 :  F  nop=           0
 symm operator            4 :  F  nop=           0
 symm operator            5 :  F  nop=           0
 symm operator            6 :  F  nop=           0
 symm operator            7 :  F  nop=           0
 The point group of the molecule is  C1
 Symmetry rotation matrix:
   1.00000   0.00000   0.00000
   0.00000   1.00000   0.00000
   0.00000   0.00000   1.00000

 Projecting out zero-frequency components
 generating redundant internal coords
         300        3600          56
 search for int coords
   1 str   2   1   1.500
   2 str   3   2   1.337
   3 str   4   3   1.427
   4 str   5   4   1.411
   5 str   6   5   1.219
   6 str   7   5   1.478
   7 str   8   7   1.400
   8 str   9   8   1.380
   9 str  10   9   1.421
  10 str  11  10   1.442
  11 str  12  11   1.422
  12 str  13  12   1.380
  13 str  14  13   1.400
  14 str  15  14   1.478
  15 str  16  15   1.222
  16 str  17  15   1.401
  17 str  18  17   1.498
  18 str  19  18   1.532
  19 str  20  18   1.532
  20 str  21  17   1.407
  21 str  22  21   1.222
  22 str  23  21   1.478
  23 str  24  23   1.400
  24 str  25  24   1.380
  25 str  26  25   1.422
  26 str  27  26   1.440
  27 str  28  27   1.424
  28 str  29  28   1.379
  29 str  30  29   1.402
  30 str  31   4   1.427
  31 str  31  30   1.470
  32 str  32  31   1.219
  33 str  33   7   1.408
  34 str  33  30   1.412
  35 str  34  10   1.427
  36 str  34  27   1.427
  37 str  34  33   1.428
  38 str  35  11   1.426
  39 str  35  26   1.428
  40 str  36  14   1.411
  41 str  36  23   1.410
  42 str  36  35   1.428
  43 str  37   1   1.096
  44 str  38   1   1.096
  45 str  39   1   1.092
  46 str  40   2   1.079
  47 str  41   3   1.081
  48 str  42   8   1.082
  49 str  43   9   1.081
  50 str  44  12   1.081
  51 str  45  13   1.082
  52 str  46  18   1.088
  53 str  47  19   1.089
  54 str  48  19   1.093
  55 str  49  19   1.093
  56 str  50  20   1.089
  57 str  51  20   1.093
  58 str  52  20   1.093
  59 str  53  24   1.082
  60 str  54  25   1.081
  61 str  55  28   1.081
  62 str  56  29   1.082
 nber stretches=          62
  63 ben   1   2   3
  64 prop tor   1   2   3   4
  65 prop tor   1   2   3  41
  66 ben   1   2  40
  67 ben   2   1  37
  68 ben   2   1  38
  69 ben   2   1  39
  70 ben   2   3   4
  71 prop tor   2   3   4   5
  72 prop tor   2   3   4  31
  73 ben   2   3  41
  74 ben   3   2  40
  75 ben   3   4   5
  76 prop tor   3   4   5   6
  77 prop tor   3   4   5   7
  78 ben   3   4  31
  79 prop tor   3   4  31  30
  80 prop tor   3   4  31  32
  81 ben   4   3  41
  82 ben   4   5   6
  83 ben   4   5   7
  84 prop tor   4   5   7   8
  85 prop tor   4   5   7  33
  86 ben   4  31  30
  87 ben   4  31  32
  88 ben   5   4  31
  89 prop tor   5   4  31  30
  90 prop tor   5   4  31  32
  91 ben   5   7   8
  92 prop tor   5   7   8   9
  93 prop tor   5   7   8  42
  94 ben   5   7  33
  95 prop tor   5   7  33  30
  96 prop tor   5   7  33  34
  97 ben   6   5   7
  98 prop tor   6   5   7   8
  99 prop tor   6   5   7  33
 100 ben   7   8   9
 101 prop tor   7   8   9  10
 102 prop tor   7   8   9  43
 103 ben   7   8  42
 104 ben   7  33  30
 105 ben   7  33  34
 106 prop tor   7  33  34  10
 107 prop tor   7  33  34  27
 108 ben   8   7  33
 109 prop tor   8   7  33  30
 110 prop tor   8   7  33  34
 111 ben   8   9  10
 112 prop tor   8   9  10  11
 113 prop tor   8   9  10  34
 114 ben   8   9  43
 115 ben   9   8  42
 116 ben   9  10  11
 117 prop tor   9  10  11  12
 118 prop tor   9  10  11  35
 119 ben   9  10  34
 120 prop tor   9  10  34  27
 121 prop tor   9  10  34  33
 122 ben  10   9  43
 123 ben  10  11  12
 124 prop tor  10  11  12  13
 125 prop tor  10  11  12  44
 126 ben  10  11  35
 127 prop tor  10  11  35  26
 128 prop tor  10  11  35  36
 129 ben  10  34  27
 130 ben  10  34  33
 131 ben  11  10  34
 132 prop tor  11  10  34  27
 133 prop tor  11  10  34  33
 134 ben  11  12  13
 135 prop tor  11  12  13  14
 136 prop tor  11  12  13  45
 137 ben  11  12  44
 138 ben  11  35  26
 139 ben  11  35  36
 140 prop tor  11  35  36  14
 141 prop tor  11  35  36  23
 142 ben  12  11  35
 143 prop tor  12  11  35  26
 144 prop tor  12  11  35  36
 145 ben  12  13  14
 146 prop tor  12  13  14  15
 147 prop tor  12  13  14  36
 148 ben  12  13  45
 149 ben  13  12  44
 150 ben  13  14  15
 151 prop tor  13  14  15  16
 152 prop tor  13  14  15  17
 153 ben  13  14  36
 154 prop tor  13  14  36  23
 155 prop tor  13  14  36  35
 156 ben  14  13  45
 157 ben  14  15  16
 158 ben  14  15  17
 159 prop tor  14  15  17  18
 160 prop tor  14  15  17  21
 161 ben  14  36  23
 162 ben  14  36  35
 163 ben  15  14  36
 164 prop tor  15  14  36  23
 165 prop tor  15  14  36  35
 166 ben  15  17  18
 167 prop tor  15  17  18  19
 168 prop tor  15  17  18  20
 169 prop tor  15  17  18  46
 170 ben  15  17  21
 171 prop tor  15  17  21  22
 172 prop tor  15  17  21  23
 173 ben  16  15  17
 174 prop tor  16  15  17  18
 175 prop tor  16  15  17  21
 176 ben  17  18  19
 177 prop tor  17  18  19  47
 178 prop tor  17  18  19  48
 179 prop tor  17  18  19  49
 180 ben  17  18  20
 181 prop tor  17  18  20  50
 182 prop tor  17  18  20  51
 183 prop tor  17  18  20  52
 184 ben  17  18  46
 185 ben  17  21  22
 186 ben  17  21  23
 187 prop tor  17  21  23  24
 188 prop tor  17  21  23  36
 189 ben  18  17  21
 190 prop tor  18  17  21  22
 191 prop tor  18  17  21  23
 192 ben  18  19  47
 193 ben  18  19  48
 194 ben  18  19  49
 195 ben  18  20  50
 196 ben  18  20  51
 197 ben  18  20  52
 198 ben  19  18  20
 199 prop tor  19  18  20  50
 200 prop tor  19  18  20  51
 201 prop tor  19  18  20  52
 202 ben  19  18  46
 203 prop tor  20  18  19  47
 204 prop tor  20  18  19  48
 205 prop tor  20  18  19  49
 206 ben  20  18  46
 207 prop tor  21  17  18  19
 208 prop tor  21  17  18  20
 209 prop tor  21  17  18  46
 210 ben  21  23  24
 211 prop tor  21  23  24  25
 212 prop tor  21  23  24  53
 213 ben  21  23  36
 214 prop tor  21  23  36  14
 215 prop tor  21  23  36  35
 216 ben  22  21  23
 217 prop tor  22  21  23  24
 218 prop tor  22  21  23  36
 219 ben  23  24  25
 220 prop tor  23  24  25  26
 221 prop tor  23  24  25  54
 222 ben  23  24  53
 223 ben  23  36  35
 224 ben  24  23  36
 225 prop tor  24  23  36  14
 226 prop tor  24  23  36  35
 227 ben  24  25  26
 228 prop tor  24  25  26  27
 229 prop tor  24  25  26  35
 230 ben  24  25  54
 231 ben  25  24  53
 232 ben  25  26  27
 233 prop tor  25  26  27  28
 234 prop tor  25  26  27  34
 235 ben  25  26  35
 236 prop tor  25  26  35  11
 237 prop tor  25  26  35  36
 238 ben  26  25  54
 239 ben  26  27  28
 240 prop tor  26  27  28  29
 241 prop tor  26  27  28  55
 242 ben  26  27  34
 243 prop tor  26  27  34  10
 244 prop tor  26  27  34  33
 245 ben  26  35  36
 246 prop tor  26  35  36  14
 247 prop tor  26  35  36  23
 248 ben  27  26  35
 249 prop tor  27  26  35  11
 250 prop tor  27  26  35  36
 251 ben  27  28  29
 252 prop tor  27  28  29  30
 253 prop tor  27  28  29  56
 254 ben  27  28  55
 255 ben  27  34  33
 256 ben  28  27  34
 257 prop tor  28  27  34  10
 258 prop tor  28  27  34  33
 259 ben  28  29  30
 260 prop tor  28  29  30  31
 261 prop tor  28  29  30  33
 262 ben  28  29  56
 263 ben  29  28  55
 264 ben  29  30  31
 265 prop tor  29  30  31   4
 266 prop tor  29  30  31  32
 267 ben  29  30  33
 268 prop tor  29  30  33   7
 269 prop tor  29  30  33  34
 270 ben  30  29  56
 271 ben  30  31  32
 272 ben  30  33  34
 273 prop tor  30  33  34  10
 274 prop tor  30  33  34  27
 275 prop tor  31   4   5   6
 276 prop tor  31   4   5   7
 277 ben  31  30  33
 278 prop tor  31  30  33   7
 279 prop tor  31  30  33  34
 280 prop tor  33   7   8   9
 281 prop tor  33   7   8  42
 282 prop tor  33  30  31   4
 283 prop tor  33  30  31  32
 284 prop tor  34  10  11  12
 285 prop tor  34  10  11  35
 286 prop tor  34  27  28  29
 287 prop tor  34  27  28  55
 288 prop tor  35  11  12  13
 289 prop tor  35  11  12  44
 290 prop tor  35  26  27  28
 291 prop tor  35  26  27  34
 292 prop tor  36  14  15  16
 293 prop tor  36  14  15  17
 294 prop tor  36  23  24  25
 295 prop tor  36  23  24  53
 296 prop tor  37   1   2   3
 297 prop tor  37   1   2  40
 298 ben  37   1  38
 299 ben  37   1  39
 300 prop tor  38   1   2   3
 301 prop tor  38   1   2  40
 302 ben  38   1  39
 303 prop tor  39   1   2   3
 304 prop tor  39   1   2  40
 305 prop tor  40   2   3   4
 306 prop tor  40   2   3  41
 307 prop tor  41   3   4   5
 308 prop tor  41   3   4  31
 309 prop tor  42   8   9  10
 310 prop tor  42   8   9  43
 311 prop tor  43   9  10  11
 312 prop tor  43   9  10  34
 313 prop tor  44  12  13  14
 314 prop tor  44  12  13  45
 315 prop tor  45  13  14  15
 316 prop tor  45  13  14  36
 317 prop tor  46  18  19  47
 318 prop tor  46  18  19  48
 319 prop tor  46  18  19  49
 320 prop tor  46  18  20  50
 321 prop tor  46  18  20  51
 322 prop tor  46  18  20  52
 323 ben  47  19  48
 324 ben  47  19  49
 325 ben  48  19  49
 326 ben  50  20  51
 327 ben  50  20  52
 328 ben  51  20  52
 329 prop tor  53  24  25  26
 330 prop tor  53  24  25  54
 331 prop tor  54  25  26  27
 332 prop tor  54  25  26  35
 333 prop tor  55  28  29  30
 334 prop tor  55  28  29  56
 335 prop tor  56  29  30  31
 336 prop tor  56  29  30  33
 nber bend=             108
 nber lin bend=           0
 nber prop tor=         166
 nber impr tor=           0
 nber tot redund int=         336
 Eigenvalues of G in red int coords
    Gval -0.00000000 -0.00000000 -0.00000000 -0.00000000 -0.00000000 -0.00000000 -0.00000000 -0.00000000
    Gval -0.00000000 -0.00000000 -0.00000000 -0.00000000 -0.00000000 -0.00000000 -0.00000000 -0.00000000
    Gval -0.00000000 -0.00000000 -0.00000000 -0.00000000 -0.00000000 -0.00000000 -0.00000000 -0.00000000
    Gval -0.00000000 -0.00000000 -0.00000000 -0.00000000 -0.00000000 -0.00000000 -0.00000000 -0.00000000
    Gval -0.00000000 -0.00000000 -0.00000000 -0.00000000 -0.00000000 -0.00000000 -0.00000000 -0.00000000
    Gval -0.00000000 -0.00000000 -0.00000000 -0.00000000 -0.00000000 -0.00000000 -0.00000000 -0.00000000
    Gval -0.00000000 -0.00000000 -0.00000000 -0.00000000 -0.00000000 -0.00000000 -0.00000000 -0.00000000
    Gval -0.00000000 -0.00000000 -0.00000000 -0.00000000 -0.00000000 -0.00000000 -0.00000000 -0.00000000
    Gval -0.00000000 -0.00000000 -0.00000000 -0.00000000 -0.00000000 -0.00000000 -0.00000000 -0.00000000
    Gval -0.00000000 -0.00000000 -0.00000000 -0.00000000 -0.00000000 -0.00000000 -0.00000000 -0.00000000
    Gval -0.00000000 -0.00000000 -0.00000000 -0.00000000 -0.00000000 -0.00000000 -0.00000000 -0.00000000
    Gval -0.00000000 -0.00000000  0.00000000  0.00000000  0.00000000  0.00000000  0.00000000  0.00000000
    Gval  0.00000000  0.00000000  0.00000000  0.00000000  0.00000000  0.00000000  0.00000000  0.00000000
    Gval  0.00000000  0.00000000  0.00000000  0.00000000  0.00000000  0.00000000  0.00000000  0.00000000
    Gval  0.00000000  0.00000000  0.00000000  0.00000000  0.00000000  0.00000000  0.00000000  0.00000000
    Gval  0.00000000  0.00000000  0.00000000  0.00000000  0.00000000  0.00000000  0.00000000  0.00000000
    Gval  0.00000000  0.00000000  0.00000000  0.00000000  0.00000000  0.00000000  0.00000000  0.00000000
    Gval  0.00000000  0.00000000  0.00000000  0.00000000  0.00000000  0.00000000  0.00000000  0.00000000
    Gval  0.00000000  0.00000000  0.00000000  0.00000000  0.00000000  0.00000000  0.00000000  0.00000000
    Gval  0.00000000  0.00000000  0.00000000  0.00000000  0.00000000  0.00000000  0.00000000  0.00000000
    Gval  0.00000000  0.00000000  0.00000000  0.00000000  0.00000000  0.00000000  0.00000000  0.00000000
    Gval  0.00000000  0.00000000  0.00000000  0.00000000  0.00000000  0.00000000  0.00000083  0.00000200
    Gval  0.00000243  0.00000274  0.00000615  0.00000693  0.00000804  0.00001013  0.00001098  0.00001121
    Gval  0.00001552  0.00001615  0.00001718  0.00001791  0.00001837  0.00001901  0.00002157  0.00002349
    Gval  0.00002404  0.00002544  0.00002986  0.00003222  0.00003281  0.00003583  0.00003994  0.00004639
    Gval  0.00004885  0.00005125  0.00005294  0.00005503  0.00005868  0.00006188  0.00006196  0.00006836
    Gval  0.00007125  0.00007392  0.00008136  0.00008245  0.00008382  0.00008608  0.00008863  0.00009197
    Gval  0.00009371  0.00009510  0.00010693  0.00010703  0.00011587  0.00012154  0.00012247  0.00013403
    Gval  0.00013670  0.00013743  0.00014074  0.00015296  0.00015899  0.00016388  0.00016508  0.00018125
    Gval  0.00019339  0.00021076  0.00021462  0.00022199  0.00022898  0.00023008  0.00026762  0.00028560
    Gval  0.00028625  0.00029405  0.00033696  0.00034086  0.00035930  0.00037613  0.00038246  0.00038957
    Gval  0.00039254  0.00040578  0.00042463  0.00042617  0.00043176  0.00043557  0.00044066  0.00044217
    Gval  0.00046215  0.00046721  0.00046747  0.00046892  0.00049562  0.00053108  0.00053115  0.00053442
    Gval  0.00053717  0.00054542  0.00055408  0.00055594  0.00055601  0.00055697  0.00057194  0.00059349
    Gval  0.00059849  0.00059923  0.00059956  0.00059984  0.00060219  0.00062007  0.00062060  0.00064076
    Gval  0.00064422  0.00064504  0.00064682  0.00067007  0.00069194  0.00069357  0.00069770  0.00072776
    Gval  0.00079357  0.00081249  0.00093111  0.00098188  0.00107272  0.00109326  0.00109420  0.00109489
    Gval  0.00109540  0.00114315  0.00115567  0.00116533  0.00116554  0.00116583  0.00116612  0.00117114
    Gval  0.00117180  0.00117314  0.00119927  0.00121464  0.00128113  0.00129513  0.00141402  0.00148207
    Gval  0.00158403  0.00171623  0.00178390  0.00191866  0.00228075  0.00233921  0.00239126  0.00239328
    Gval  0.00252153  0.00252632  0.00256071  0.00279113  0.00292212  0.00292908  0.00302352  0.00304203
    Gval  0.00308132  0.00309607  0.00367428  0.00367605  0.00372120  0.00372280  0.00394426  0.00410782
  8.323277470133667E-007  8.323277470133667E-007
  1.997575323688499E-006  8.323277470133667E-007
  2.425312214648991E-006  8.323277470133667E-007
  2.744157644733884E-006  8.323277470133667E-007
  6.154969497619814E-006  8.323277470133667E-007
  6.930116079431485E-006  8.323277470133667E-007
  8.043704792438731E-006  8.323277470133667E-007
  1.013454013680919E-005  8.323277470133667E-007
  1.097695294828788E-005  8.323277470133667E-007
  1.121296823284202E-005  8.323277470133667E-007
  1.552028715915396E-005  8.323277470133667E-007
  1.615247476358090E-005  8.323277470133667E-007
  1.717659514051373E-005  8.323277470133667E-007
  1.790895482682519E-005  8.323277470133667E-007
  1.837380258320200E-005  8.323277470133667E-007
  1.900911976568284E-005  8.323277470133667E-007
  2.156690447988980E-005  8.323277470133667E-007
  2.349248654846971E-005  8.323277470133667E-007
  2.403927953922367E-005  8.323277470133667E-007
  2.543528845771439E-005  8.323277470133667E-007
  2.985876098020965E-005  8.323277470133667E-007
  3.221787441674078E-005  8.323277470133667E-007
  3.281448587640947E-005  8.323277470133667E-007
  3.582609541468364E-005  8.323277470133667E-007
  3.994083436648219E-005  8.323277470133667E-007
  4.638750285396397E-005  8.323277470133667E-007
  4.884568652686147E-005  8.323277470133667E-007
  5.124897933451246E-005  8.323277470133667E-007
  5.293892316937327E-005  8.323277470133667E-007
  5.503198648259084E-005  8.323277470133667E-007
  5.868227966527267E-005  8.323277470133667E-007
  6.188284349205335E-005  8.323277470133667E-007
  6.195525083567677E-005  8.323277470133667E-007
  6.836304441786978E-005  8.323277470133667E-007
  7.124743510928220E-005  8.323277470133667E-007
  7.392000698566480E-005  8.323277470133667E-007
[...]
 nber times 1st assigned=         100           0
 nber times 1st assigned=         101           0
 nber times 1st assigned=         102           0
 nber times 1st assigned=         103           0
 nber times 1st assigned=         104           0
 nber times 1st assigned=         105           0
 nber times 1st assigned=         106           0
 nber times 1st assigned=         107           0
 nber times 1st assigned=         108           0
 nber times 1st assigned=         109           0
 nber times 1st assigned=         110           0
 nber times 1st assigned=         111           0
 nber times 1st assigned=         112           0
 nber times 1st assigned=         113           0
 nber times 1st assigned=         114           0
 nber times 1st assigned=         115           0
 nber times 1st assigned=         116           0
 nber times 1st assigned=         117           0
 nber times 1st assigned=         118           0
 nber times 1st assigned=         119           0
 nber times 1st assigned=         120           0
 nber times 1st assigned=         121           0
 nber times 1st assigned=         122           0
 nber times 1st assigned=         123           0
 nber times 1st assigned=         124           0
 nber times 1st assigned=         125           0
 nber times 1st assigned=         126           0
 nber times 1st assigned=         127           0
 nber times 1st assigned=         128           0
 nber times 1st assigned=         129           0
 nber times 1st assigned=         130           0
 nber times 1st assigned=         131           0
 nber times 1st assigned=         132           0
 nber times 1st assigned=         133           0
 nber times 1st assigned=         134           0
 nber times 1st assigned=         135           0
 nber times 1st assigned=         136           0
 nber times 1st assigned=         137           0
 nber times 1st assigned=         138           0
 nber times 1st assigned=         139           0
 nber times 1st assigned=         140           0
 nber times 1st assigned=         141           0
 nber times 1st assigned=         142           0
 nber times 1st assigned=         143           0
 nber times 1st assigned=         144           0
 nber times 1st assigned=         145           0
 nber times 1st assigned=         146           0
 nber times 1st assigned=         147           0
 nber times 1st assigned=         148           0
 nber times 1st assigned=         149           0
 nber times 1st assigned=         150           0
 nber times 1st assigned=         151           0
 nber times 1st assigned=         152           0
 nber times 1st assigned=         153           0
 nber times 1st assigned=         154           0
 nber times 1st assigned=         155           0
 nber times 1st assigned=         156           0
 nber times 1st assigned=         157           0
 nber times 1st assigned=         158           0
 nber times 1st assigned=         159           0
 nber times 1st assigned=         160           0
 nber times 1st assigned=         161           0
 nber times 1st assigned=         162           0
 nber times 1st assigned=         163           0
 nber times 1st assigned=         164           0
 nber times 1st assigned=         165           0
 nber times 1st assigned=         166           0
 nber times 1st assigned=         167           0
 nber times 1st assigned=         168           0
 modes represented=   161.907594108884     
 p1=
    0.   -0.   -0.   -0.    0.   -0.   -0.   -1.    0.   -0.    0.   -0.    0.    0.    0.    0.    0.   -0.   -0.  -14.
    0.   -0.   -0.   -3.    0.    0.   -0.   -0.    3.    0.   -0.   -2.    0.    1.   -0.    1.    0.   -1.    0.   -0.
    0.   -0.    0.   -1.    0.   -0.    2.   -1.    0.    0.   -4.   -0.   -2.   -0.   -0.    0.    1.    0.   -0.   -0.
    0.   -1.   -0.    0.   -0.    0.   -0.    0.    0.   -0.    1.   -0.   -0.    0.   -0.    0.   -0.    0.   -0.    1.
   -0.   -0.   -0.   -0.   -0.    0.    0.    0.   -0.    1.   -0.   -0.    0.   -0.    0.    0.    0.    0.    0.   -0.
   -0.   -0.    0.    1.   -0.   -0.   -0.   -0.   -1.    0.    4.   -0.   -0.    0.   -0.   -1.   -2.    0.    1.   -0.
   -2.    0.    0.   -0.   -0.   -0.   -2.   -0.   -0.   -0.   -0.   -0.    0.    0.    0.    0.    0.   -3.   -1.    2.
    0.   -0.   -0.   -0.   -0.    0.    0.    0.    0.   -0.   -0.    0.   -0.    0.   -0.    0.   -0.    0.   -0.   -0.
   -0.   -0.    0.    0.   -0.   -0.   -0.   -0.
 p2=
    0.    0.    0.    0.    0.   -0.   -0.    1.    0.   -0.   -0.   -0.   -0.    0.    0.   -0.   -0.    0.    0.   14.
   -0.    0.   -0.    4.    0.    0.   -0.    0.   -3.    0.    0.   -0.   -2.    2.    0.    0.    0.   -0.    1.    0.
    0.   -0.   -0.   -1.    2.    0.   -0.    1.   -0.    0.    5.    0.   -0.    2.   -0.   -0.   -0.    1.    0.   -0.
   -0.   -0.   -0.   -1.   -0.   -0.    0.    0.    0.    0.    0.   -0.   -1.    0.   -0.   -0.    0.    0.   -0.    1.
   -0.    0.    0.   -0.   -0.    0.   -0.    0.   -0.   -1.    0.    0.    0.   -0.    0.   -0.   -0.    0.    0.   -0.
    0.    0.    0.    1.    0.   -0.   -0.    0.   -5.   -1.   -0.    0.   -0.    1.    0.   -1.    0.    0.   -0.    0.
   -0.    0.    2.    0.    0.    0.    0.    0.    1.    0.   -1.   -0.   -0.    0.    0.    0.   -0.    1.   -0.   -0.
   -0.    1.    4.   -0.   -0.   -0.   -0.    0.    0.   -0.    0.    0.    0.   -0.    0.   -0.    0.   -0.   -0.   -0.
   -0.   -0.   -0.   -0.   -0.   -0.    0.   -0.

 Displacement: in terms of nc of 1 THEN of nc of 2

   1     freq=    -0. Q=  0.000 lam=    -0.0     freq=    -0. Q=  0.000 lam=    -0.0
   2     freq=    -0. Q= -0.000 lam=    -0.0     freq=    -0. Q= -0.000 lam=    -0.0
   3     freq=    -0. Q= -0.000 lam=    -0.0     freq=    -0. Q= -0.000 lam=    -0.0
   4     freq=     0. Q= -0.000 lam=     0.0     freq=     0. Q= -0.000 lam=     0.0
   5     freq=     0. Q=  0.000 lam=     0.0     freq=     0. Q=  0.000 lam=     0.0
   6     freq=     0. Q= -0.000 lam=     0.0     freq=     0. Q= -0.000 lam=     0.0
   7     freq=    20. Q= -0.000 lam=     0.0     freq=    19. Q= -0.001 lam=     0.0
   8     freq=    23. Q= -0.011 lam=     0.0     freq=    29. Q= -0.011 lam=     0.0
   9     freq=    37. Q=  0.007 lam=     0.0     freq=    36. Q=  0.008 lam=     0.0
  10     freq=    53. Q= -0.011 lam=     0.0     freq=    55. Q= -0.011 lam=     0.0
  11     freq=    60. Q=  0.006 lam=     0.0     freq=    59. Q=  0.005 lam=     0.0
  12     freq=    67. Q= -0.015 lam=     0.0     freq=    70. Q= -0.016 lam=     0.0
  13     freq=    77. Q=  0.008 lam=     0.0     freq=    76. Q=  0.008 lam=     0.0
  14     freq=    87. Q=  0.003 lam=     0.0     freq=    88. Q=  0.016 lam=     0.0
  15     freq=    88. Q=  0.018 lam=     0.0     freq=    89. Q=  0.003 lam=     0.0
  16     freq=   102. Q=  0.004 lam=     0.0     freq=   101. Q=  0.005 lam=     0.0
  17     freq=   147. Q=  0.023 lam=     0.0     freq=   146. Q=  0.021 lam=     0.0
  18     freq=   150. Q= -0.001 lam=     0.0     freq=   153. Q= -0.001 lam=     0.0
  19     freq=   164. Q= -0.003 lam=     0.0     freq=   168. Q= -0.003 lam=     0.0
  20     freq=   181. Q= -0.782 lam=    55.2     freq=   181. Q= -0.781 lam=    55.2
  21     freq=   183. Q=  0.002 lam=     0.0     freq=   183. Q=  0.001 lam=     0.0
  22     freq=   188. Q= -0.001 lam=     0.0     freq=   193. Q= -0.001 lam=     0.0
  23     freq=   208. Q= -0.001 lam=     0.0     freq=   209. Q= -0.000 lam=     0.0
  24     freq=   213. Q= -0.203 lam=     4.4     freq=   212. Q= -0.226 lam=     5.4
  25     freq=   222. Q=  0.001 lam=     0.0     freq=   218. Q=  0.002 lam=     0.0
  26     freq=   235. Q=  0.001 lam=     0.0     freq=   234. Q=  0.001 lam=     0.0
  27     freq=   235. Q= -0.019 lam=     0.0     freq=   235. Q= -0.023 lam=     0.1
  28     freq=   271. Q= -0.001 lam=     0.0     freq=   256. Q= -0.001 lam=     0.0
  29     freq=   275. Q=  0.189 lam=     4.9     freq=   276. Q=  0.195 lam=     5.3
  30     freq=   285. Q=  0.013 lam=     0.0     freq=   286. Q=  0.006 lam=     0.0
  31     freq=   314. Q= -0.001 lam=     0.0     freq=   302. Q= -0.001 lam=     0.0
  32     freq=   334. Q= -0.177 lam=     5.2     freq=   320. Q= -0.000 lam=     0.0
  33     freq=   338. Q=  0.000 lam=     0.0     freq=   335. Q=  0.162 lam=     4.4
  34     freq=   362. Q=  0.096 lam=     1.7     freq=   359. Q=  0.119 lam=     2.5
  35     freq=   387. Q= -0.025 lam=     0.1     freq=   387. Q= -0.008 lam=     0.0
  36     freq=   392. Q=  0.043 lam=     0.4     freq=   389. Q=  0.000 lam=     0.0
  37     freq=   394. Q=  0.000 lam=     0.0     freq=   394. Q=  0.037 lam=     0.3
  38     freq=   419. Q= -0.042 lam=     0.4     freq=   417. Q= -0.000 lam=     0.0
  39     freq=   434. Q=  0.040 lam=     0.4     freq=   419. Q=  0.050 lam=     0.5
  40     freq=   438. Q= -0.032 lam=     0.2     freq=   434. Q= -0.033 lam=     0.2
  41     freq=   439. Q=  0.036 lam=     0.3     freq=   440. Q=  0.027 lam=     0.2
  42     freq=   447. Q= -0.002 lam=     0.0     freq=   443. Q= -0.033 lam=     0.2
  43     freq=   447. Q=  0.001 lam=     0.0     freq=   447. Q=  0.002 lam=     0.0
  44     freq=   467. Q= -0.052 lam=     0.6     freq=   466. Q= -0.051 lam=     0.6
  45     freq=   475. Q=  0.000 lam=     0.0     freq=   480. Q=  0.164 lam=     6.4
  46     freq=   481. Q= -0.001 lam=     0.0     freq=   484. Q= -0.000 lam=     0.0
  47     freq=   482. Q=  0.145 lam=     5.0     freq=   498. Q=  0.001 lam=     0.0
  48     freq=   504. Q= -0.106 lam=     2.8     freq=   501. Q= -0.092 lam=     2.1
  49     freq=   517. Q=  0.009 lam=     0.0     freq=   506. Q=  0.000 lam=     0.0
  50     freq=   534. Q=  0.001 lam=     0.0     freq=   516. Q=  0.004 lam=     0.0
  51     freq=   546. Q= -0.416 lam=    47.3     freq=   546. Q= -0.435 lam=    51.7
  52     freq=   578. Q= -0.020 lam=     0.1     freq=   568. Q= -0.001 lam=     0.0
  53     freq=   583. Q= -0.230 lam=    15.5     freq=   575. Q= -0.029 lam=     0.2
  54     freq=   592. Q= -0.001 lam=     0.0     freq=   578. Q= -0.208 lam=    12.5
  55     freq=   623. Q= -0.022 lam=     0.1     freq=   605. Q= -0.000 lam=     0.0
  56     freq=   631. Q=  0.000 lam=     0.0     freq=   616. Q=  0.016 lam=     0.1
  57     freq=   645. Q=  0.112 lam=     4.1     freq=   632. Q=  0.000 lam=     0.0
  58     freq=   652. Q=  0.001 lam=     0.0     freq=   644. Q=  0.103 lam=     3.4
  59     freq=   666. Q= -0.002 lam=     0.0     freq=   652. Q= -0.002 lam=     0.0
  60     freq=   715. Q= -0.001 lam=     0.0     freq=   674. Q= -0.001 lam=     0.0
  61     freq=   721. Q=  0.037 lam=     0.5     freq=   700. Q=  0.000 lam=     0.0
  62     freq=   726. Q= -0.078 lam=     2.2     freq=   707. Q= -0.005 lam=     0.0
  63     freq=   739. Q= -0.001 lam=     0.0     freq=   717. Q= -0.013 lam=     0.1
  64     freq=   745. Q=  0.001 lam=     0.0     freq=   729. Q=  0.079 lam=     2.3
  65     freq=   755. Q= -0.002 lam=     0.0     freq=   747. Q= -0.001 lam=     0.0
  66     freq=   767. Q=  0.001 lam=     0.0     freq=   750. Q=  0.002 lam=     0.0
  67     freq=   770. Q= -0.003 lam=     0.0     freq=   757. Q= -0.002 lam=     0.0
  68     freq=   786. Q=  0.001 lam=     0.0     freq=   763. Q=  0.001 lam=     0.0
  69     freq=   806. Q=  0.053 lam=     1.2     freq=   802. Q=  0.047 lam=     0.9
  70     freq=   811. Q= -0.043 lam=     0.8     freq=   807. Q= -0.000 lam=     0.0
  71     freq=   828. Q=  0.062 lam=     1.6     freq=   808. Q=  0.049 lam=     1.0
  72     freq=   840. Q= -0.000 lam=     0.0     freq=   814. Q= -0.000 lam=     0.0
  73     freq=   844. Q= -0.021 lam=     0.2     freq=   825. Q= -0.071 lam=     2.1
  74     freq=   864. Q=  0.000 lam=     0.0     freq=   825. Q=  0.000 lam=     0.0
  75     freq=   865. Q= -0.000 lam=     0.0     freq=   831. Q= -0.000 lam=     0.0
  76     freq=   869. Q=  0.000 lam=     0.0     freq=   842. Q=  0.001 lam=     0.0
  77     freq=   871. Q= -0.001 lam=     0.0     freq=   843. Q= -0.008 lam=     0.0
  78     freq=   898. Q=  0.051 lam=     1.2     freq=   893. Q=  0.046 lam=     0.9
  79     freq=   916. Q= -0.009 lam=     0.0     freq=   911. Q= -0.000 lam=     0.0
  80     freq=   939. Q=  0.079 lam=     2.9     freq=   936. Q=  0.071 lam=     2.4
  81     freq=   946. Q= -0.001 lam=     0.0     freq=   943. Q= -0.034 lam=     0.6
  82     freq=   957. Q= -0.000 lam=     0.0     freq=   945. Q= -0.001 lam=     0.0
  83     freq=   972. Q= -0.052 lam=     1.3     freq=   957. Q= -0.000 lam=     0.0
  84     freq=   984. Q= -0.028 lam=     0.4     freq=   971. Q= -0.051 lam=     1.2
  85     freq=   992. Q= -0.000 lam=     0.0     freq=   974. Q= -0.001 lam=     0.0
  86     freq=   997. Q=  0.000 lam=     0.0     freq=   976. Q=  0.000 lam=     0.0
  87     freq=  1001. Q=  0.000 lam=     0.0     freq=   987. Q=  0.000 lam=     0.0
  88     freq=  1006. Q=  0.000 lam=     0.0     freq=   988. Q=  0.000 lam=     0.0
  89     freq=  1016. Q= -0.000 lam=     0.0     freq=  1012. Q= -0.000 lam=     0.0
  90     freq=  1042. Q=  0.102 lam=     5.5     freq=  1040. Q=  0.081 lam=     3.4
  91     freq=  1064. Q= -0.015 lam=     0.1     freq=  1062. Q= -0.006 lam=     0.0
  92     freq=  1068. Q= -0.000 lam=     0.0     freq=  1066. Q= -0.000 lam=     0.0
  93     freq=  1093. Q=  0.061 lam=     2.0     freq=  1087. Q=  0.001 lam=     0.0
  94     freq=  1101. Q= -0.010 lam=     0.1     freq=  1094. Q= -0.006 lam=     0.0
  95     freq=  1105. Q=  0.056 lam=     1.7     freq=  1110. Q=  0.003 lam=     0.0
  96     freq=  1154. Q=  0.007 lam=     0.0     freq=  1137. Q=  0.017 lam=     0.2
  97     freq=  1156. Q=  0.000 lam=     0.0     freq=  1155. Q=  0.000 lam=     0.0
  98     freq=  1167. Q=  0.022 lam=     0.3     freq=  1161. Q=  0.007 lam=     0.0
  99     freq=  1173. Q=  0.003 lam=     0.0     freq=  1168. Q=  0.016 lam=     0.1
 100     freq=  1190. Q= -0.018 lam=     0.2     freq=  1177. Q= -0.029 lam=     0.5
 101     freq=  1196. Q= -0.019 lam=     0.2     freq=  1186. Q= -0.040 lam=     0.9
 102     freq=  1208. Q= -0.028 lam=     0.5     freq=  1197. Q= -0.026 lam=     0.4
 103     freq=  1215. Q=  0.020 lam=     0.2     freq=  1199. Q=  0.022 lam=     0.3
 104     freq=  1220. Q=  0.072 lam=     3.2     freq=  1224. Q=  0.092 lam=     5.2
 105     freq=  1240. Q= -0.010 lam=     0.1     freq=  1233. Q= -0.027 lam=     0.4
 106     freq=  1241. Q= -0.003 lam=     0.0     freq=  1243. Q= -0.022 lam=     0.3
 107     freq=  1253. Q= -0.036 lam=     0.8     freq=  1247. Q= -0.026 lam=     0.4
 108     freq=  1269. Q= -0.030 lam=     0.6     freq=  1262. Q= -0.060 lam=     2.3
 109     freq=  1305. Q= -0.203 lam=    26.9     freq=  1300. Q= -0.676 lam=   297.0
 110     freq=  1317. Q=  0.026 lam=     0.5     freq=  1315. Q=  0.118 lam=     9.1
 111     freq=  1325. Q=  0.608 lam=   245.3     freq=  1321. Q=  0.064 lam=     2.7
 112     freq=  1331. Q= -0.048 lam=     1.5     freq=  1331. Q= -0.014 lam=     0.1
 113     freq=  1337. Q= -0.023 lam=     0.3     freq=  1353. Q= -0.014 lam=     0.1
 114     freq=  1348. Q=  0.059 lam=     2.4     freq=  1362. Q=  0.111 lam=     8.4
 115     freq=  1369. Q= -0.004 lam=     0.0     freq=  1367. Q= -0.048 lam=     1.6
 116     freq=  1373. Q= -0.123 lam=    10.3     freq=  1378. Q= -0.156 lam=    16.8
 117     freq=  1378. Q= -0.237 lam=    38.8     freq=  1382. Q= -0.001 lam=     0.0
 118     freq=  1382. Q=  0.003 lam=     0.0     freq=  1392. Q=  0.030 lam=     0.6
 119     freq=  1398. Q=  0.219 lam=    33.4     freq=  1400. Q=  0.001 lam=     0.0
 120     freq=  1401. Q= -0.002 lam=     0.0     freq=  1405. Q= -0.033 lam=     0.8
 121     freq=  1408. Q= -0.359 lam=    90.9     freq=  1416. Q= -0.001 lam=     0.0
 122     freq=  1417. Q=  0.009 lam=     0.1     freq=  1416. Q=  0.008 lam=     0.0
 123     freq=  1417. Q=  0.001 lam=     0.0     freq=  1427. Q=  0.337 lam=    81.0
 124     freq=  1430. Q= -0.007 lam=     0.0     freq=  1433. Q= -0.036 lam=     0.9
 125     freq=  1437. Q= -0.015 lam=     0.2     freq=  1447. Q= -0.028 lam=     0.5
 126     freq=  1456. Q= -0.003 lam=     0.0     freq=  1453. Q= -0.064 lam=     3.0
 127     freq=  1480. Q= -0.241 lam=    42.9     freq=  1465. Q= -0.009 lam=     0.1
 128     freq=  1480. Q= -0.004 lam=     0.0     freq=  1478. Q= -0.000 lam=     0.0
 129     freq=  1485. Q= -0.000 lam=     0.0     freq=  1484. Q= -0.100 lam=     7.4
 130     freq=  1492. Q= -0.014 lam=     0.2     freq=  1485. Q= -0.000 lam=     0.0
 131     freq=  1495. Q= -0.012 lam=     0.1     freq=  1494. Q= -0.172 lam=    22.1
 132     freq=  1498. Q= -0.009 lam=     0.1     freq=  1497. Q= -0.022 lam=     0.4
 133     freq=  1505. Q=  0.000 lam=     0.0     freq=  1505. Q=  0.065 lam=     3.2
 134     freq=  1508. Q=  0.004 lam=     0.0     freq=  1505. Q=  0.000 lam=     0.0
 135     freq=  1523. Q=  0.000 lam=     0.0     freq=  1520. Q=  0.028 lam=     0.6
 136     freq=  1542. Q=  0.021 lam=     0.3     freq=  1523. Q=  0.010 lam=     0.1
 137     freq=  1562. Q=  0.018 lam=     0.3     freq=  1547. Q=  0.009 lam=     0.1
 138     freq=  1605. Q= -0.484 lam=   187.9     freq=  1558. Q= -0.099 lam=     7.6
 139     freq=  1613. Q= -0.082 lam=     5.4     freq=  1575. Q= -0.009 lam=     0.1
 140     freq=  1618. Q=  0.332 lam=    89.2     freq=  1594. Q=  0.036 lam=     1.0
 141     freq=  1632. Q=  0.007 lam=     0.0     freq=  1602. Q=  0.000 lam=     0.0
 142     freq=  1632. Q= -0.006 lam=     0.0     freq=  1614. Q= -0.131 lam=    13.8
 143     freq=  1649. Q= -0.012 lam=     0.1     freq=  1622. Q= -0.601 lam=   293.2
 144     freq=  1710. Q= -0.014 lam=     0.2     freq=  1686. Q= -0.002 lam=     0.0
 145     freq=  1713. Q= -0.002 lam=     0.0     freq=  1697. Q= -0.010 lam=     0.1
 146     freq=  1723. Q=  0.008 lam=     0.1     freq=  1725. Q=  0.039 lam=     1.3
 147     freq=  1751. Q=  0.025 lam=     0.6     freq=  1733. Q=  0.066 lam=     3.8
 148     freq=  1760. Q=  0.040 lam=     1.4     freq=  2035. Q=  0.057 lam=     3.3
 149     freq=  3011. Q=  0.001 lam=     0.0     freq=  3010. Q=  0.002 lam=     0.0
 150     freq=  3035. Q= -0.000 lam=     0.0     freq=  3034. Q= -0.000 lam=     0.0
 151     freq=  3039. Q= -0.001 lam=     0.0     freq=  3038. Q= -0.001 lam=     0.0
 152     freq=  3053. Q=  0.000 lam=     0.0     freq=  3051. Q=  0.000 lam=     0.0
 153     freq=  3092. Q= -0.001 lam=     0.0     freq=  3092. Q= -0.000 lam=     0.0
 154     freq=  3093. Q=  0.000 lam=     0.0     freq=  3094. Q=  0.002 lam=     0.0
 155     freq=  3096. Q= -0.001 lam=     0.0     freq=  3095. Q= -0.001 lam=     0.0
 156     freq=  3113. Q=  0.001 lam=     0.0     freq=  3112. Q=  0.001 lam=     0.0
 157     freq=  3133. Q= -0.000 lam=     0.0     freq=  3132. Q= -0.000 lam=     0.0
 158     freq=  3143. Q=  0.000 lam=     0.0     freq=  3143. Q=  0.000 lam=     0.0
 159     freq=  3194. Q= -0.000 lam=     0.0     freq=  3198. Q= -0.000 lam=     0.0
 160     freq=  3194. Q= -0.000 lam=     0.0     freq=  3198. Q= -0.000 lam=     0.0
 161     freq=  3202. Q= -0.003 lam=     0.0     freq=  3205. Q= -0.002 lam=     0.0
 162     freq=  3202. Q= -0.002 lam=     0.0     freq=  3206. Q= -0.003 lam=     0.0
 163     freq=  3209. Q=  0.000 lam=     0.0     freq=  3213. Q=  0.000 lam=     0.0
 164     freq=  3209. Q=  0.000 lam=     0.0     freq=  3213. Q=  0.000 lam=     0.0
 165     freq=  3218. Q= -0.009 lam=     0.1     freq=  3216. Q= -0.001 lam=     0.0
 166     freq=  3218. Q= -0.004 lam=     0.0     freq=  3223. Q= -0.006 lam=     0.0
 167     freq=  3218. Q= -0.010 lam=     0.2     freq=  3224. Q= -0.007 lam=     0.1
 168     freq=  3240. Q= -0.000 lam=     0.0     freq=  3239. Q= -0.001 lam=     0.0

 total reorg energy (cm**-1, kcal/mol)=      956.      958.      2.73      2.74
 Nber of molecules processed=           2
