 Enter ifcurve (0=recti, 1=orth curvi, 2=apprx curvi, -1 = skip
 And atom ordering flag, 0= never changes, 1= use the first order thenceforth,
  2= deduce it (does read on fail), 3= always read it
 Reading file: 
 ./PDI_0_C0S0.log                                                               
                                          
  Entering Gaussian System, Link 0=g16                                          
  
 Gaussian format, type: g94, g98, g03= F F F
  #P Geom=AllCheck Guess=TCheck SCRF=Check GenChk RB3LYP/6-311G(d,p) Fre    
 energy type= B3LYP   
 Original G94 input coords:
  6  1.020247 -0.983254 -0.353997
  6  2.226836 -0.087025 -0.056902
  6  3.428634 -0.848532  0.511529
  7  2.607494  0.742442 -1.245288
  6  3.061207  0.105145 -2.407191
  8  3.152343 -1.108153 -2.471254
  6  3.427634  0.967546 -3.560307
  6  3.879854  0.379797 -4.725822
  6  4.231567  1.166174 -5.825518
  6  4.143430  2.556941 -5.796676
  6  4.511123  3.393077 -6.948092
  6  4.971886  2.846530 -8.144243
  6  5.319821  3.646387 -9.234291
  6  5.215583  5.020821 -9.156686
  6  5.592233  5.845977-10.330214
  8  5.995968  5.389518-11.381117
  7  5.452350  7.220670-10.154117
  1  5.705968  7.797511-10.947875
  6  5.007228  7.901459 -9.023348
  8  4.935652  9.114110 -9.013024
  6  4.641363  7.038338 -7.873893
  6  4.188647  7.621128 -6.707133
  6  3.837802  6.831733 -5.610403
  6  3.928196  5.441635 -5.645664
  6  3.560681  4.604726 -4.494714
  6  3.099141  5.145349 -3.295701
  6  2.752253  4.341764 -2.207077
  6  2.858579  2.966623 -2.289265
  6  2.482610  2.138674 -1.115550
  8  2.083141  2.648617 -0.084561
  6  3.321422  2.373065 -3.483518
  6  3.678299  3.185511 -4.601609
  6  4.394345  4.814516 -6.843352
  6  4.751969  5.627974 -7.962679
  1  0.688489 -1.451647  0.576580
  1  1.266043 -1.766990 -1.069266
  1  0.187196 -0.393428 -0.745027
  1  1.922241  0.657946  0.674675
  1  3.771124 -1.627570 -0.168230
  1  3.138742 -1.313643  1.457606
  1  4.257378 -0.165945  0.716561
  1  3.955354 -0.699387 -4.767805
  1  4.580156  0.660978 -6.715504
  1  5.069827  1.775319 -8.251375
  1  5.676315  3.204597-10.156595
  1  4.112227  8.700506 -6.662307
  1  3.488492  7.332246 -4.718197
  1  2.999233  6.215985 -3.183764
  1  2.395707  4.781327 -1.284232
 nber atoms=          49
  SCF Done:  E(RB3LYP) =  -1449.40702752     A.U. after    1 cycles             
  
          23          40 "  -1449.40702752"
After scan for Atom:   Atom  AN      X      Y      Z        X      Y      Z        X      Y      Z   
After scan for Atom:   Atom  AN      X      Y      Z        X      Y      Z        X      Y      Z   
After scan for Atom:   Atom  AN      X      Y      Z        X      Y      Z        X      Y      Z   
After scan for Atom:   Atom  AN      X      Y      Z        X      Y      Z        X      Y      Z   
After scan for Atom:   Atom  AN      X      Y      Z        X      Y      Z        X      Y      Z   
After scan for Atom:   Atom  AN      X      Y      Z        X      Y      Z        X      Y      Z   
After scan for Atom:   Atom  AN      X      Y      Z        X      Y      Z        X      Y      Z   
After scan for Atom:   Atom  AN      X      Y      Z        X      Y      Z        X      Y      Z   
After scan for Atom:   Atom  AN      X      Y      Z        X      Y      Z        X      Y      Z   
After scan for Atom:   Atom  AN      X      Y      Z        X      Y      Z        X      Y      Z   
After scan for Atom:   Atom  AN      X      Y      Z        X      Y      Z        X      Y      Z   
After scan for Atom:   Atom  AN      X      Y      Z        X      Y      Z        X      Y      Z   
After scan for Atom:   Atom  AN      X      Y      Z        X      Y      Z        X      Y      Z   
After scan for Atom:   Atom  AN      X      Y      Z        X      Y      Z        X      Y      Z   
After scan for Atom:   Atom  AN      X      Y      Z        X      Y      Z        X      Y      Z   
After scan for Atom:   Atom  AN      X      Y      Z        X      Y      Z        X      Y      Z   
After scan for Atom:   Atom  AN      X      Y      Z        X      Y      Z        X      Y      Z   
After scan for Atom:   Atom  AN      X      Y      Z        X      Y      Z        X      Y      Z   
After scan for Atom:   Atom  AN      X      Y      Z        X      Y      Z        X      Y      Z   
After scan for Atom:   Atom  AN      X      Y      Z        X      Y      Z        X      Y      Z   
After scan for Atom:   Atom  AN      X      Y      Z        X      Y      Z        X      Y      Z   
After scan for Atom:   Atom  AN      X      Y      Z        X      Y      Z        X      Y      Z   
After scan for Atom:   Atom  AN      X      Y      Z        X      Y      Z        X      Y      Z   
After scan for Atom:   Atom  AN      X      Y      Z        X      Y      Z        X      Y      Z   
After scan for Atom:   Atom  AN      X      Y      Z        X      Y      Z        X      Y      Z   
After scan for Atom:   Atom  AN      X      Y      Z        X      Y      Z        X      Y      Z   
After scan for Atom:   Atom  AN      X      Y      Z        X      Y      Z        X      Y      Z   
After scan for Atom:   Atom  AN      X      Y      Z        X      Y      Z        X      Y      Z   
After scan for Atom:   Atom  AN      X      Y      Z        X      Y      Z        X      Y      Z   
After scan for Atom:   Atom  AN      X      Y      Z        X      Y      Z        X      Y      Z   
After scan for Atom:   Atom  AN      X      Y      Z        X      Y      Z        X      Y      Z   
After scan for Atom:   Atom  AN      X      Y      Z        X      Y      Z        X      Y      Z   
After scan for Atom:   Atom  AN      X      Y      Z        X      Y      Z        X      Y      Z   
After scan for Atom:   Atom  AN      X      Y      Z        X      Y      Z        X      Y      Z   
After scan for Atom:   Atom  AN      X      Y      Z        X      Y      Z        X      Y      Z   
After scan for Atom:   Atom  AN      X      Y      Z        X      Y      Z        X      Y      Z   
After scan for Atom:   Atom  AN      X      Y      Z        X      Y      Z        X      Y      Z   
After scan for Atom:   Atom  AN      X      Y      Z        X      Y      Z        X      Y      Z   
After scan for Atom:   Atom  AN      X      Y      Z        X      Y      Z        X      Y      Z   
After scan for Atom:   Atom  AN      X      Y      Z        X      Y      Z        X      Y      Z   
After scan for Atom:   Atom  AN      X      Y      Z        X      Y      Z        X      Y      Z   
After scan for Atom:   Atom  AN      X      Y      Z        X      Y      Z        X      Y      Z   
After scan for Atom:   Atom  AN      X      Y      Z        X      Y      Z        X      Y      Z   
After scan for Atom:   Atom  AN      X      Y      Z        X      Y      Z        X      Y      Z   
After scan for Atom:   Atom  AN      X      Y      Z        X      Y      Z        X      Y      Z   
After scan for Atom:   Atom  AN      X      Y      Z        X      Y      Z        X      Y      Z   
After scan for Atom:   Atom  AN      X      Y      Z        X      Y      Z        X      Y      Z   
 g94    frequencies=
     0.0    0.0    0.0    0.0    0.0    0.0   21.1   27.1   52.3   57.7
    78.3   87.7   99.1  113.5  142.4  163.5  186.9  188.3  191.2  208.5
   218.9  234.7  235.9  272.2  278.5  291.1  314.8  347.3  355.9  379.0
   390.8  426.2  430.3  436.1  439.5  446.9  448.2  473.2  477.9  480.4
   491.2  517.1  535.6  546.7  577.0  581.4  582.3  619.9  632.2  644.9
   660.6  667.0  694.2  708.7  717.0  739.2  743.7  759.3  765.1  775.3
   776.6  785.8  806.2  808.3  824.0  845.1  865.2  865.6  870.8  872.9
   873.3  923.4  945.5  957.0  960.8  978.8  992.7  996.8 1001.5 1005.8
  1056.7 1082.0 1101.1 1127.0 1152.4 1155.8 1171.1 1194.1 1202.6 1203.8
  1209.5 1218.4 1224.6 1240.7 1258.5 1277.0 1301.1 1316.2 1325.0 1337.0
  1353.1 1369.3 1374.7 1382.4 1388.7 1400.7 1406.1 1417.3 1419.1 1427.5
  1437.1 1454.1 1474.8 1485.3 1490.1 1498.2 1504.8 1505.3 1522.7 1543.4
  1559.7 1603.2 1615.3 1622.6 1630.5 1631.9 1648.5 1713.6 1751.6 1766.7
  1769.9 3034.9 3038.9 3092.7 3095.9 3113.3 3133.4 3143.7 3193.7 3193.9
  3200.0 3200.3 3208.0 3208.3 3218.9 3219.0 3580.2
 g94    symmetries=
                                                 A      A      A      A
       A      A      A      A      A      A      A      A      A      A
       A      A      A      A      A      A      A      A      A      A
       A      A      A      A      A      A      A      A      A      A
       A      A      A      A      A      A      A      A      A      A
       A      A      A      A      A      A      A      A      A      A
       A      A      A      A      A      A      A      A      A      A
       A      A      A      A      A      A      A      A      A      A
       A      A      A      A      A      A      A      A      A      A
       A      A      A      A      A      A      A      A      A      A
       A      A      A      A      A      A      A      A      A      A
       A      A      A      A      A      A      A      A      A      A
       A      A      A      A      A      A      A      A      A      A
       A      A      A      A      A      A      A      A      A      A
       A      A      A      A      A      A      A
 atomic masses:
 12.0000 12.0000 12.0000 14.0031 12.0000 15.9949 12.0000 12.0000 12.0000 12.0000
 12.0000 12.0000 12.0000 12.0000 12.0000 15.9949 14.0031  1.0078 12.0000 15.9949
 12.0000 12.0000 12.0000 12.0000 12.0000 12.0000 12.0000 12.0000 12.0000 15.9949
 12.0000 12.0000 12.0000 12.0000  1.0078  1.0078  1.0078  1.0078  1.0078  1.0078
  1.0078  1.0078  1.0078  1.0078  1.0078  1.0078  1.0078  1.0078  1.0078
 looking for force constants in 
 ./PDI_0_C0S0.fchk                                                              
  
 Cartesian Force Constants                  R   N=       10878                  
  
 n3=         147       10878
 g94-fc frequencies=
    -6.5   -1.9   -0.0    0.0    0.0    1.0   21.1   27.1   52.3   57.7
    78.3   87.7   99.1  113.5  142.4  163.5  186.9  188.3  191.2  208.5
   218.9  234.7  235.9  272.2  278.6  291.1  314.8  347.4  355.9  379.0
   390.8  426.2  430.3  436.1  439.5  446.9  448.2  473.2  478.0  480.4
   491.2  517.1  535.6  546.7  577.0  581.4  582.3  619.9  632.3  644.9
   660.7  667.1  694.3  708.7  717.0  739.2  743.7  759.3  765.1  775.3
   776.6  785.9  806.2  808.4  824.0  845.1  865.2  865.6  870.8  873.0
   873.3  923.4  945.5  957.1  960.8  978.8  992.7  996.8 1001.5 1005.8
  1056.7 1082.1 1101.2 1127.0 1152.4 1155.9 1171.1 1194.1 1202.7 1203.8
  1209.5 1218.5 1224.6 1240.7 1258.5 1277.0 1301.2 1316.2 1325.0 1337.1
  1353.1 1369.3 1374.7 1382.4 1388.7 1400.8 1406.1 1417.3 1419.1 1427.5
  1437.1 1454.1 1474.9 1485.3 1490.2 1498.2 1504.8 1505.3 1522.7 1543.4
  1559.8 1603.2 1615.3 1622.7 1630.6 1631.9 1648.5 1713.6 1751.6 1766.8
  1769.9 3034.9 3039.0 3092.8 3096.0 3113.4 3133.5 3143.8 3193.8 3194.0
  3200.1 3200.4 3208.1 3208.4 3218.9 3219.1 3580.2
 at 99999: n3=         147
 symm operator            1 :  F  nop=           0
 symm operator            2 :  F  nop=           0
 symm operator            3 :  F  nop=           0
 symm operator            4 :  F  nop=           0
 symm operator            5 :  F  nop=           0
 symm operator            6 :  F  nop=           0
 symm operator            7 :  F  nop=           0
 The point group of the molecule is  C1
 Symmetry rotation matrix:
   1.00000   0.00000   0.00000
   0.00000   1.00000   0.00000
   0.00000   0.00000   1.00000

 Projecting out zero-frequency components
 generating redundant internal coords
         300        3600          49
 search for int coords
   1 str   2   1   1.532
   2 str   3   2   1.532
   3 str   4   2   1.498
   4 str   5   4   1.401
   5 str   6   5   1.218
   6 str   7   5   1.486
   7 str   8   7   1.381
   8 str   9   8   1.397
   9 str  10   9   1.394
  10 str  11  10   1.470
  11 str  12  11   1.393
  12 str  13  12   1.396
  13 str  14  13   1.381
  14 str  15  14   1.483
  15 str  16  15   1.215
  16 str  17  15   1.393
  17 str  18  16   2.464
  18 str  18  17   1.013
  19 str  19  17   1.393
  20 str  20  18   2.464
  21 str  20  19   1.215
  22 str  21  19   1.483
  23 str  22  21   1.381
  24 str  23  22   1.396
  25 str  24  23   1.393
  26 str  25  24   1.470
  27 str  26  25   1.394
  28 str  27  26   1.397
  29 str  28  27   1.382
  30 str  29   4   1.408
  31 str  29  28   1.485
  32 str  30  29   1.218
  33 str  31   7   1.412
  34 str  31  28   1.412
  35 str  32  10   1.428
  36 str  32  25   1.428
  37 str  32  31   1.427
  38 str  33  11   1.430
  39 str  33  24   1.430
  40 str  34  14   1.417
  41 str  34  21   1.417
  42 str  34  33   1.429
  43 str  35   1   1.093
  44 str  36   1   1.089
  45 str  37   1   1.093
  46 str  38   2   1.088
  47 str  39   3   1.089
  48 str  40   3   1.093
  49 str  41   3   1.093
  50 str  42   8   1.083
  51 str  43   9   1.081
  52 str  44  12   1.081
  53 str  45  13   1.083
  54 str  46  22   1.083
  55 str  47  23   1.081
  56 str  48  26   1.081
  57 str  49  27   1.083
 nber stretches=          57
  58 ben   1   2   3
  59 prop tor   1   2   3  39
  60 prop tor   1   2   3  40
  61 prop tor   1   2   3  41
  62 ben   1   2   4
  63 prop tor   1   2   4   5
  64 prop tor   1   2   4  29
  65 ben   1   2  38
  66 ben   2   1  35
  67 ben   2   1  36
  68 ben   2   1  37
  69 ben   2   3  39
  70 ben   2   3  40
  71 ben   2   3  41
  72 ben   2   4   5
  73 prop tor   2   4   5   6
  74 prop tor   2   4   5   7
  75 ben   2   4  29
  76 prop tor   2   4  29  28
  77 prop tor   2   4  29  30
  78 ben   3   2   4
  79 prop tor   3   2   4   5
  80 prop tor   3   2   4  29
  81 ben   3   2  38
  82 prop tor   4   2   3  39
  83 prop tor   4   2   3  40
  84 prop tor   4   2   3  41
  85 ben   4   2  38
  86 ben   4   5   6
  87 ben   4   5   7
  88 prop tor   4   5   7   8
  89 prop tor   4   5   7  31
  90 ben   4  29  28
  91 ben   4  29  30
  92 ben   5   4  29
  93 prop tor   5   4  29  28
  94 prop tor   5   4  29  30
  95 ben   5   7   8
  96 prop tor   5   7   8   9
  97 prop tor   5   7   8  42
  98 ben   5   7  31
  99 prop tor   5   7  31  28
 100 prop tor   5   7  31  32
 101 ben   6   5   7
 102 prop tor   6   5   7   8
 103 prop tor   6   5   7  31
 104 ben   7   8   9
 105 prop tor   7   8   9  10
 106 prop tor   7   8   9  43
 107 ben   7   8  42
 108 ben   7  31  28
 109 ben   7  31  32
 110 prop tor   7  31  32  10
 111 prop tor   7  31  32  25
 112 ben   8   7  31
 113 prop tor   8   7  31  28
 114 prop tor   8   7  31  32
 115 ben   8   9  10
 116 prop tor   8   9  10  11
 117 prop tor   8   9  10  32
 118 ben   8   9  43
 119 ben   9   8  42
 120 ben   9  10  11
 121 prop tor   9  10  11  12
 122 prop tor   9  10  11  33
 123 ben   9  10  32
 124 prop tor   9  10  32  25
 125 prop tor   9  10  32  31
 126 ben  10   9  43
 127 ben  10  11  12
 128 prop tor  10  11  12  13
 129 prop tor  10  11  12  44
 130 ben  10  11  33
 131 prop tor  10  11  33  24
 132 prop tor  10  11  33  34
 133 ben  10  32  25
 134 ben  10  32  31
 135 ben  11  10  32
 136 prop tor  11  10  32  25
 137 prop tor  11  10  32  31
 138 ben  11  12  13
 139 prop tor  11  12  13  14
 140 prop tor  11  12  13  45
 141 ben  11  12  44
 142 ben  11  33  24
 143 ben  11  33  34
 144 prop tor  11  33  34  14
 145 prop tor  11  33  34  21
 146 ben  12  11  33
 147 prop tor  12  11  33  24
 148 prop tor  12  11  33  34
 149 ben  12  13  14
 150 prop tor  12  13  14  15
 151 prop tor  12  13  14  34
 152 ben  12  13  45
 153 ben  13  12  44
 154 ben  13  14  15
 155 prop tor  13  14  15  16
 156 prop tor  13  14  15  17
 157 ben  13  14  34
 158 prop tor  13  14  34  21
 159 prop tor  13  14  34  33
 160 ben  14  13  45
 161 ben  14  15  16
 162 prop tor  14  15  16  18
 163 ben  14  15  17
 164 prop tor  14  15  17  18
 165 prop tor  14  15  17  19
 166 ben  14  34  21
 167 ben  14  34  33
 168 ben  15  14  34
 169 prop tor  15  14  34  21
 170 prop tor  15  14  34  33
 171 ben  15  16  18
 172 prop tor  15  16  18  17
 173 prop tor  15  16  18  20
 174 ben  15  17  18
 175 prop tor  15  17  18  16
 176 prop tor  15  17  18  20
 177 ben  15  17  19
 178 prop tor  15  17  19  20
 179 prop tor  15  17  19  21
 180 ben  16  15  17
 181 prop tor  16  15  17  18
 182 prop tor  16  15  17  19
 183 ben  16  18  17
 184 ben  16  18  20
 185 prop tor  16  18  20  19
 186 prop tor  17  15  16  18
 187 ben  17  18  20
 188 prop tor  17  18  20  19
 189 ben  17  19  20
 190 prop tor  17  19  20  18
 191 ben  17  19  21
 192 prop tor  17  19  21  22
 193 prop tor  17  19  21  34
 194 ben  18  17  19
 195 prop tor  18  17  19  20
 196 prop tor  18  17  19  21
 197 ben  18  20  19
 198 prop tor  19  17  18  16
 199 prop tor  19  17  18  20
 200 ben  19  21  22
 201 prop tor  19  21  22  23
 202 prop tor  19  21  22  46
 203 ben  19  21  34
 204 prop tor  19  21  34  14
 205 prop tor  19  21  34  33
 206 ben  20  19  21
 207 prop tor  20  19  21  22
 208 prop tor  20  19  21  34
 209 prop tor  21  19  20  18
 210 ben  21  22  23
 211 prop tor  21  22  23  24
 212 prop tor  21  22  23  47
 213 ben  21  22  46
 214 ben  21  34  33
 215 ben  22  21  34
 216 prop tor  22  21  34  14
 217 prop tor  22  21  34  33
 218 ben  22  23  24
 219 prop tor  22  23  24  25
 220 prop tor  22  23  24  33
 221 ben  22  23  47
 222 ben  23  22  46
 223 ben  23  24  25
 224 prop tor  23  24  25  26
 225 prop tor  23  24  25  32
 226 ben  23  24  33
 227 prop tor  23  24  33  11
 228 prop tor  23  24  33  34
 229 ben  24  23  47
 230 ben  24  25  26
 231 prop tor  24  25  26  27
 232 prop tor  24  25  26  48
 233 ben  24  25  32
 234 prop tor  24  25  32  10
 235 prop tor  24  25  32  31
 236 ben  24  33  34
 237 prop tor  24  33  34  14
 238 prop tor  24  33  34  21
 239 ben  25  24  33
 240 prop tor  25  24  33  11
 241 prop tor  25  24  33  34
 242 ben  25  26  27
 243 prop tor  25  26  27  28
 244 prop tor  25  26  27  49
 245 ben  25  26  48
 246 ben  25  32  31
 247 ben  26  25  32
 248 prop tor  26  25  32  10
 249 prop tor  26  25  32  31
 250 ben  26  27  28
 251 prop tor  26  27  28  29
 252 prop tor  26  27  28  31
 253 ben  26  27  49
 254 ben  27  26  48
 255 ben  27  28  29
 256 prop tor  27  28  29   4
 257 prop tor  27  28  29  30
 258 ben  27  28  31
 259 prop tor  27  28  31   7
 260 prop tor  27  28  31  32
 261 ben  28  27  49
 262 ben  28  29  30
 263 ben  28  31  32
 264 prop tor  28  31  32  10
 265 prop tor  28  31  32  25
 266 prop tor  29   4   5   6
 267 prop tor  29   4   5   7
 268 ben  29  28  31
 269 prop tor  29  28  31   7
 270 prop tor  29  28  31  32
 271 prop tor  31   7   8   9
 272 prop tor  31   7   8  42
 273 prop tor  31  28  29   4
 274 prop tor  31  28  29  30
 275 prop tor  32  10  11  12
 276 prop tor  32  10  11  33
 277 prop tor  32  25  26  27
 278 prop tor  32  25  26  48
 279 prop tor  33  11  12  13
 280 prop tor  33  11  12  44
 281 prop tor  33  24  25  26
 282 prop tor  33  24  25  32
 283 prop tor  34  14  15  16
 284 prop tor  34  14  15  17
 285 prop tor  34  21  22  23
 286 prop tor  34  21  22  46
 287 prop tor  35   1   2   3
 288 prop tor  35   1   2   4
 289 prop tor  35   1   2  38
 290 ben  35   1  36
 291 ben  35   1  37
 292 prop tor  36   1   2   3
 293 prop tor  36   1   2   4
 294 prop tor  36   1   2  38
 295 ben  36   1  37
 296 prop tor  37   1   2   3
 297 prop tor  37   1   2   4
 298 prop tor  37   1   2  38
 299 prop tor  38   2   3  39
 300 prop tor  38   2   3  40
 301 prop tor  38   2   3  41
 302 prop tor  38   2   4   5
 303 prop tor  38   2   4  29
 304 ben  39   3  40
 305 ben  39   3  41
 306 ben  40   3  41
 307 prop tor  42   8   9  10
 308 prop tor  42   8   9  43
 309 prop tor  43   9  10  11
 310 prop tor  43   9  10  32
 311 prop tor  44  12  13  14
 312 prop tor  44  12  13  45
 313 prop tor  45  13  14  15
 314 prop tor  45  13  14  34
 315 prop tor  46  22  23  24
 316 prop tor  46  22  23  47
 317 prop tor  47  23  24  25
 318 prop tor  47  23  24  33
 319 prop tor  48  26  27  28
 320 prop tor  48  26  27  49
 321 prop tor  49  27  28  29
 322 prop tor  49  27  28  31
 nber bend=             101
 nber lin bend=           0
 nber prop tor=         164
 nber impr tor=           0
 nber tot redund int=         322
 Eigenvalues of G in red int coords
    Gval -0.00000000 -0.00000000 -0.00000000 -0.00000000 -0.00000000 -0.00000000 -0.00000000 -0.00000000
    Gval -0.00000000 -0.00000000 -0.00000000 -0.00000000 -0.00000000 -0.00000000 -0.00000000 -0.00000000
    Gval -0.00000000 -0.00000000 -0.00000000 -0.00000000 -0.00000000 -0.00000000 -0.00000000 -0.00000000
    Gval -0.00000000 -0.00000000 -0.00000000 -0.00000000 -0.00000000 -0.00000000 -0.00000000 -0.00000000
    Gval -0.00000000 -0.00000000 -0.00000000 -0.00000000 -0.00000000 -0.00000000 -0.00000000 -0.00000000
    Gval -0.00000000 -0.00000000 -0.00000000 -0.00000000 -0.00000000 -0.00000000 -0.00000000 -0.00000000
    Gval -0.00000000 -0.00000000 -0.00000000 -0.00000000 -0.00000000 -0.00000000 -0.00000000 -0.00000000
    Gval -0.00000000 -0.00000000 -0.00000000 -0.00000000 -0.00000000 -0.00000000 -0.00000000 -0.00000000
    Gval -0.00000000 -0.00000000 -0.00000000 -0.00000000 -0.00000000 -0.00000000 -0.00000000 -0.00000000
    Gval -0.00000000 -0.00000000 -0.00000000 -0.00000000 -0.00000000 -0.00000000 -0.00000000 -0.00000000
    Gval -0.00000000 -0.00000000 -0.00000000 -0.00000000 -0.00000000 -0.00000000 -0.00000000 -0.00000000
    Gval -0.00000000 -0.00000000 -0.00000000 -0.00000000 -0.00000000  0.00000000  0.00000000  0.00000000
    Gval  0.00000000  0.00000000  0.00000000  0.00000000  0.00000000  0.00000000  0.00000000  0.00000000
    Gval  0.00000000  0.00000000  0.00000000  0.00000000  0.00000000  0.00000000  0.00000000  0.00000000
    Gval  0.00000000  0.00000000  0.00000000  0.00000000  0.00000000  0.00000000  0.00000000  0.00000000
    Gval  0.00000000  0.00000000  0.00000000  0.00000000  0.00000000  0.00000000  0.00000000  0.00000000
    Gval  0.00000000  0.00000000  0.00000000  0.00000000  0.00000000  0.00000000  0.00000000  0.00000000
    Gval  0.00000000  0.00000000  0.00000000  0.00000000  0.00000000  0.00000000  0.00000000  0.00000000
    Gval  0.00000000  0.00000000  0.00000000  0.00000000  0.00000000  0.00000000  0.00000000  0.00000000
    Gval  0.00000000  0.00000000  0.00000000  0.00000000  0.00000000  0.00000000  0.00000000  0.00000000
    Gval  0.00000000  0.00000000  0.00000000  0.00000000  0.00000000  0.00000000  0.00000000  0.00000000
    Gval  0.00000000  0.00000000  0.00000000  0.00000000  0.00000000  0.00000000  0.00000000  0.00000000
    Gval  0.00000000  0.00000000  0.00000000  0.00000000  0.00000000  0.00000136  0.00000297  0.00000340
    Gval  0.00000533  0.00000882  0.00001050  0.00001118  0.00001433  0.00001514  0.00001581  0.00001783
    Gval  0.00001836  0.00002146  0.00002308  0.00002431  0.00002605  0.00002895  0.00003043  0.00003600
    Gval  0.00003994  0.00004476  0.00005071  0.00005220  0.00005415  0.00005487  0.00005760  0.00005902
    Gval  0.00006395  0.00006925  0.00007267  0.00007520  0.00008135  0.00008258  0.00008557  0.00008816
    Gval  0.00008924  0.00009272  0.00009732  0.00009856  0.00011943  0.00012629  0.00012820  0.00013688
    Gval  0.00013934  0.00014117  0.00014258  0.00016203  0.00016386  0.00016791  0.00018342  0.00018589
    Gval  0.00021383  0.00022448  0.00022683  0.00023322  0.00025034  0.00028177  0.00028723  0.00029674
    Gval  0.00031011  0.00034664  0.00037269  0.00038194  0.00039183  0.00039318  0.00039605  0.00039686
    Gval  0.00042674  0.00043152  0.00043263  0.00043562  0.00044176  0.00044586  0.00046288  0.00046539
    Gval  0.00046728  0.00048190  0.00049172  0.00052330  0.00053437  0.00053717  0.00055345  0.00055414
    Gval  0.00055603  0.00055657  0.00059865  0.00059944  0.00059970  0.00060002  0.00060220  0.00064194
    Gval  0.00064565  0.00064615  0.00064658  0.00064814  0.00067538  0.00069788  0.00069831  0.00081255
    Gval  0.00084612  0.00090668  0.00106304  0.00109540  0.00109639  0.00109709  0.00109765  0.00114370
    Gval  0.00116250  0.00116260  0.00116299  0.00116321  0.00117036  0.00117168  0.00117239  0.00128489
    Gval  0.00129530  0.00132326  0.00134582  0.00153418  0.00156054  0.00176784  0.00178272  0.00191774
    Gval  0.00229217  0.00236428  0.00254178  0.00255081  0.00259323  0.00278493  0.00292285  0.00292711
    Gval  0.00302369  0.00304220  0.00308152  0.00309691  0.00365678  0.00365882  0.00370522  0.00370702
    Gval  0.00394355  0.00546921
  1.358654771008398E-006  1.358654771008398E-006
  2.972672284866659E-006  1.358654771008398E-006
  3.404476690573600E-006  1.358654771008398E-006
  5.332023824848104E-006  1.358654771008398E-006
  8.821547383085115E-006  1.358654771008398E-006
  1.049888229097911E-005  1.358654771008398E-006
  1.117977900242471E-005  1.358654771008398E-006
  1.432822872811881E-005  1.358654771008398E-006
  1.513966828060987E-005  1.358654771008398E-006
  1.580537912260553E-005  1.358654771008398E-006
  1.783402628163516E-005  1.358654771008398E-006
  1.836020980497189E-005  1.358654771008398E-006
  2.146489995408382E-005  1.358654771008398E-006
  2.307546741050580E-005  1.358654771008398E-006
  2.431320302707778E-005  1.358654771008398E-006
  2.604838456659090E-005  1.358654771008398E-006
  2.894822853590809E-005  1.358654771008398E-006
  3.042943462660911E-005  1.358654771008398E-006
  3.599953691732852E-005  1.358654771008398E-006
  3.993598871709675E-005  1.358654771008398E-006
  4.475602408943578E-005  1.358654771008398E-006
  5.070611107215865E-005  1.358654771008398E-006
  5.219926660253061E-005  1.358654771008398E-006
  5.415344071476241E-005  1.358654771008398E-006
  5.487308195242565E-005  1.358654771008398E-006
  5.760129541672855E-005  1.358654771008398E-006
  5.901869899161171E-005  1.358654771008398E-006
  6.395084713019972E-005  1.358654771008398E-006
  6.925292890362620E-005  1.358654771008398E-006
  7.267118732223617E-005  1.358654771008398E-006
  7.520372670087832E-005  1.358654771008398E-006
  8.134756290057682E-005  1.358654771008398E-006
  8.258252229647357E-005  1.358654771008398E-006
  8.556991286986952E-005  1.358654771008398E-006
  8.816159969809858E-005  1.358654771008398E-006
  8.924466588894139E-005  1.358654771008398E-006
  9.272424232500808E-005  1.358654771008398E-006
  9.732019828366864E-005  1.358654771008398E-006
  9.856339900527751E-005  1.358654771008398E-006
  1.194266928686917E-004  1.358654771008398E-006
  1.262943430595452E-004  1.358654771008398E-006
  1.282015777735499E-004  1.358654771008398E-006
  1.368809358317654E-004  1.358654771008398E-006
  1.393385310651119E-004  1.358654771008398E-006
  1.411659112508679E-004  1.358654771008398E-006
  1.425823983188018E-004  1.358654771008398E-006
  1.620277185150026E-004  1.358654771008398E-006
  1.638557066106197E-004  1.358654771008398E-006
  1.679050402687350E-004  1.358654771008398E-006
  1.834226299196869E-004  1.358654771008398E-006
  1.858927892892450E-004  1.358654771008398E-006
  2.138327600310965E-004  1.358654771008398E-006
  2.244755170490817E-004  1.358654771008398E-006
  2.268318830690905E-004  1.358654771008398E-006
  2.332229525092610E-004  1.358654771008398E-006
  2.503410250190852E-004  1.358654771008398E-006
  2.817721154260522E-004  1.358654771008398E-006
  2.872256560923021E-004  1.358654771008398E-006
  2.967427557118034E-004  1.358654771008398E-006
  3.101053072513962E-004  1.358654771008398E-006
  3.466444993834250E-004  1.358654771008398E-006
  3.726895069806084E-004  1.358654771008398E-006
  3.819412817158349E-004  1.358654771008398E-006
  3.918344284197366E-004  1.358654771008398E-006
  3.931799413684037E-004  1.358654771008398E-006
  3.960527494747510E-004  1.358654771008398E-006
  3.968624521805386E-004  1.358654771008398E-006
  4.267439110404451E-004  1.358654771008398E-006
  4.315207358547176E-004  1.358654771008398E-006
  4.326257960808806E-004  1.358654771008398E-006
  4.356193082901286E-004  1.358654771008398E-006
  4.417619141233777E-004  1.358654771008398E-006
  4.458612894689943E-004  1.358654771008398E-006
  4.628836562295528E-004  1.358654771008398E-006
  4.653916370367270E-004  1.358654771008398E-006
  4.672847075803188E-004  1.358654771008398E-006
  4.818984434806866E-004  1.358654771008398E-006
  4.917203984820815E-004  1.358654771008398E-006
  5.233017744582783E-004  1.358654771008398E-006
  5.343726300833107E-004  1.358654771008398E-006
  5.371699000405178E-004  1.358654771008398E-006
  5.534527699236709E-004  1.358654771008398E-006
  5.541364480898401E-004  1.358654771008398E-006
  5.560291229304458E-004  1.358654771008398E-006
  5.565712776082400E-004  1.358654771008398E-006
  5.986542343467824E-004  1.358654771008398E-006
  5.994444304747427E-004  1.358654771008398E-006
  5.996975693969724E-004  1.358654771008398E-006
  6.000234627391416E-004  1.358654771008398E-006
  6.021956667259245E-004  1.358654771008398E-006
  6.419449648666884E-004  1.358654771008398E-006
  6.456505697884573E-004  1.358654771008398E-006
  6.461468310374959E-004  1.358654771008398E-006
  6.465812110431203E-004  1.358654771008398E-006
  6.481388305020050E-004  1.358654771008398E-006
  6.753767499062795E-004  1.358654771008398E-006
  6.978827536945872E-004  1.358654771008398E-006
  6.983102247805547E-004  1.358654771008398E-006
  8.125462791155807E-004  1.358654771008398E-006
  8.461170493614713E-004  1.358654771008398E-006
  9.066823330666295E-004  1.358654771008398E-006
  1.063036238411462E-003  1.358654771008398E-006
  1.095399814775702E-003  1.358654771008398E-006
  1.096385386358647E-003  1.358654771008398E-006
  1.097090609691472E-003  1.358654771008398E-006
  1.097653369597182E-003  1.358654771008398E-006
  1.143697010344150E-003  1.358654771008398E-006
  1.162497541610237E-003  1.358654771008398E-006
  1.162602343602448E-003  1.358654771008398E-006
  1.162992976783197E-003  1.358654771008398E-006
  1.163210846314388E-003  1.358654771008398E-006
  1.170358415752976E-003  1.358654771008398E-006
  1.171684545741321E-003  1.358654771008398E-006
  1.172393094723486E-003  1.358654771008398E-006
  1.284893339899168E-003  1.358654771008398E-006
  1.295296284214656E-003  1.358654771008398E-006
  1.323261480065671E-003  1.358654771008398E-006
  1.345820769258359E-003  1.358654771008398E-006
  1.534183411376731E-003  1.358654771008398E-006
  1.560535627552750E-003  1.358654771008398E-006
  1.767837751485156E-003  1.358654771008398E-006
  1.782719348916548E-003  1.358654771008398E-006
  1.917740044442759E-003  1.358654771008398E-006
  2.292168181071808E-003  1.358654771008398E-006
  2.364277379167338E-003  1.358654771008398E-006
  2.541783595950138E-003  1.358654771008398E-006
  2.550812559866251E-003  1.358654771008398E-006
  2.593225788808650E-003  1.358654771008398E-006
  2.784933858400719E-003  1.358654771008398E-006
  2.922847015559266E-003  1.358654771008398E-006
  2.927111572396709E-003  1.358654771008398E-006
  3.023687000676613E-003  1.358654771008398E-006
  3.042198825418977E-003  1.358654771008398E-006
  3.081515254828878E-003  1.358654771008398E-006
  3.096910060335403E-003  1.358654771008398E-006
  3.656776608350383E-003  1.358654771008398E-006
  3.658823437821456E-003  1.358654771008398E-006
  3.705219908017384E-003  1.358654771008398E-006
  3.707018703166281E-003  1.358654771008398E-006
  3.943548932602120E-003  1.358654771008398E-006
  5.469207694914422E-003  1.358654771008398E-006
 cut=1d-8, nber non-redundant internal coords=         141
 Check on Eigenvals of non-red overlap matrix:
  0.00000136  0.00000297  0.00000340  0.00000533  0.00000882  0.00001050  0.00001118  0.00001433
  0.00001514  0.00001581  0.00001783  0.00001836  0.00002146  0.00002308  0.00002431  0.00002605
  0.00002895  0.00003043  0.00003600  0.00003994  0.00004476  0.00005071  0.00005220  0.00005415
  0.00005487  0.00005760  0.00005902  0.00006395  0.00006925  0.00007267  0.00007520  0.00008135
  0.00008258  0.00008557  0.00008816  0.00008924  0.00009272  0.00009732  0.00009856  0.00011943
  0.00012629  0.00012820  0.00013688  0.00013934  0.00014117  0.00014258  0.00016203  0.00016386
  0.00016791  0.00018342  0.00018589  0.00021383  0.00022448  0.00022683  0.00023322  0.00025034
  0.00028177  0.00028723  0.00029674  0.00031011  0.00034664  0.00037269  0.00038194  0.00039183
  0.00039318  0.00039605  0.00039686  0.00042674  0.00043152  0.00043263  0.00043562  0.00044176
  0.00044586  0.00046288  0.00046539  0.00046728  0.00048190  0.00049172  0.00052330  0.00053437
  0.00053717  0.00055345  0.00055414  0.00055603  0.00055657  0.00059865  0.00059944  0.00059970
  0.00060002  0.00060220  0.00064194  0.00064565  0.00064615  0.00064658  0.00064814  0.00067538
  0.00069788  0.00069831  0.00081255  0.00084612  0.00090668  0.00106304  0.00109540  0.00109639
  0.00109709  0.00109765  0.00114370  0.00116250  0.00116260  0.00116299  0.00116321  0.00117036
  0.00117168  0.00117239  0.00128489  0.00129530  0.00132326  0.00134582  0.00153418  0.00156054
  0.00176784  0.00178272  0.00191774  0.00229217  0.00236428  0.00254178  0.00255081  0.00259323
  0.00278493  0.00292285  0.00292711  0.00302369  0.00304220  0.00308152  0.00309691  0.00365678
  0.00365882  0.00370522  0.00370702  0.00394355  0.00546921
 Checking for correct frequencies
 recalc frequencies=
    -0.0   -0.0   -0.0    0.0    0.0    0.0   21.1   27.1   52.3   57.7
    78.3   87.7   99.1  113.5  142.4  163.5  186.9  188.3  191.2  208.5
   218.9  234.7  235.9  272.2  278.6  291.1  314.8  347.4  355.9  379.0
   390.8  426.2  430.3  436.1  439.5  446.9  448.2  473.2  478.0  480.4
   491.2  517.1  535.6  546.7  577.0  581.4  582.3  619.9  632.3  644.9
   660.7  667.1  694.3  708.7  717.0  739.2  743.7  759.3  765.1  775.3
   776.6  785.9  806.2  808.4  824.0  845.1  865.2  865.6  870.8  873.0
   873.3  923.4  945.5  957.1  960.8  978.8  992.7  996.8 1001.5 1005.8
  1056.7 1082.1 1101.2 1127.0 1152.4 1155.9 1171.1 1194.1 1202.7 1203.8
  1209.5 1218.5 1224.6 1240.7 1258.5 1277.0 1301.2 1316.2 1325.0 1337.1
  1353.1 1369.3 1374.7 1382.4 1388.7 1400.8 1406.1 1417.3 1419.1 1427.5
  1437.1 1454.1 1474.9 1485.3 1490.2 1498.2 1504.8 1505.3 1522.7 1543.4
  1559.8 1603.2 1615.3 1622.7 1630.6 1631.9 1648.5 1713.6 1751.6 1766.8
  1769.9 3034.9 3039.0 3092.8 3096.0 3113.4 3133.5 3143.8 3193.8 3194.0
  3200.1 3200.4 3208.1 3208.4 3218.9 3219.1 3580.2
 recalc symmetries=
                                                                       
                                                                       
                                                                       
                                                                       
                                                                       
                                                                       
                                                                       
                                                                       
                                                                       
                                                                       
                                                                       
                                                                       
                                                                       
                                                                       
                                                  
 recalc freqs check OK
 Zero-point lengths:
 10.0000 10.0000 10.0000 10.0000 10.0000 10.0000 54.0081 47.6292 34.2742 32.6306
 28.0173 26.4685 24.8993 23.2717 20.7777 19.3889 18.1342 18.0657 17.9293 17.1678
 16.7551 16.1811 16.1425 15.0270 14.8540 14.5303 13.9730 13.3018 13.1407 12.7341
 12.5406 12.0090 11.9505 11.8718 11.8258 11.7269 11.7098 11.3970 11.3397 11.3106
 11.1855 10.9016 10.7121 10.6028 10.3207 10.2817 10.2737  9.9570  9.8594  9.7624
  9.6452  9.5987  9.4088  9.3125  9.2585  9.1183  9.0906  8.9967  8.9627  8.9033
  8.8961  8.8435  8.7311  8.7195  8.6364  8.5279  8.4283  8.4264  8.4012  8.3907
  8.3892  8.1583  8.0622  8.0136  7.9980  7.9239  7.8684  7.8520  7.8337  7.8170
  7.6263  7.5365  7.4708  7.3846  7.3028  7.2920  7.2444  7.1743  7.1486  7.1452
  7.1283  7.1022  7.0843  7.0381  6.9881  6.9375  6.8727  6.8334  6.8106  6.7798
  6.7395  6.6995  6.6864  6.6678  6.6525  6.6239  6.6112  6.5852  6.5809  6.5615
  6.5396  6.5012  6.4554  6.4326  6.4221  6.4049  6.3908  6.3897  6.3531  6.3103
  6.2772  6.1915  6.1683  6.1543  6.1394  6.1369  6.1059  5.9888  5.9235  5.8980
  5.8928  4.5001  4.4971  4.4578  4.4555  4.4431  4.4287  4.4215  4.3868  4.3866
  4.3824  4.3822  4.3770  4.3767  4.3696  4.3695  4.1432
 highest evec of mol 1
  0.0000  0.0000 -0.0000
  0.0000  0.0000 -0.0000
 -0.0000  0.0000 -0.0000
 -0.0000 -0.0000  0.0000
  0.0000  0.0001 -0.0001
 -0.0000 -0.0001  0.0000
 -0.0000 -0.0000  0.0001
  0.0000  0.0000 -0.0000
 -0.0000 -0.0000  0.0000
  0.0000  0.0000 -0.0000
  0.0000 -0.0000 -0.0000
 -0.0001  0.0001  0.0002
  0.0001  0.0001 -0.0002
 -0.0004 -0.0016  0.0013
  0.0005 -0.0023 -0.0010
  0.0001  0.0001 -0.0003
  0.0658  0.1495 -0.2058
 -0.2415 -0.5492  0.7557
 -0.0007  0.0018  0.0017
  0.0001  0.0003 -0.0002
 -0.0006 -0.0007  0.0019
  0.0001  0.0001 -0.0002
  0.0000 -0.0002 -0.0000
 -0.0000  0.0001  0.0000
  0.0000  0.0000 -0.0000
 -0.0000 -0.0000  0.0000
  0.0000  0.0000 -0.0000
 -0.0000 -0.0001  0.0001
  0.0000  0.0001 -0.0001
 -0.0000  0.0000  0.0001
 -0.0000 -0.0000  0.0000
 -0.0000 -0.0000  0.0000
  0.0000  0.0001 -0.0001
 -0.0001 -0.0001  0.0002
 -0.0000 -0.0000  0.0001
  0.0000  0.0000 -0.0000
  0.0000  0.0000 -0.0000
 -0.0000  0.0000  0.0000
  0.0000  0.0000 -0.0000
 -0.0000 -0.0000  0.0001
 -0.0000  0.0000 -0.0000
  0.0000 -0.0000  0.0000
  0.0000  0.0000 -0.0000
  0.0000 -0.0003 -0.0000
 -0.0001  0.0002  0.0004
  0.0000 -0.0004 -0.0001
 -0.0001  0.0001  0.0002
  0.0000  0.0000 -0.0000
 -0.0000  0.0000  0.0000
 generating redundant internal coords
         300        3600          49
 Adding extra bonds for z output only
           6           6           6           7           6           8
           6           6           6           6           6           6
           6           6           6           8           7           1
           6           8           6           6           6           6
           6           6           6           6           6           8
           6           6           6           6           1           1
           1           1           1           1           1           1
           1           1           1           1           1           1
           1
 search for int coords
   1 str   2   1   1.532
   2 str   3   2   1.532
   3 str   4   2   1.498
   4 str   5   4   1.401
   5 str   6   5   1.218
   6 str   7   5   1.486
   7 str   8   7   1.381
   8 str   9   8   1.397
   9 str  10   9   1.394
  10 str  11  10   1.470
  11 str  12  11   1.393
  12 str  13  12   1.396
  13 str  14  13   1.381
  14 str  15  14   1.483
  15 str  16  15   1.215
  16 str  17  15   1.393
  17 str  18  16   2.464
  18 str  18  17   1.013
  19 str  19  17   1.393
  20 str  20  18   2.464
  21 str  20  19   1.215
  22 str  21  19   1.483
  23 str  22  21   1.381
  24 str  23  22   1.396
  25 str  24  23   1.393
  26 str  25  24   1.470
  27 str  26  25   1.394
  28 str  27  26   1.397
  29 str  28  27   1.382
  30 str  29   4   1.408
  31 str  29  28   1.485
  32 str  30  29   1.218
  33 str  31   7   1.412
  34 str  31  28   1.412
  35 str  32  10   1.428
  36 str  32  25   1.428
  37 str  32  31   1.427
  38 str  33  11   1.430
  39 str  33  24   1.430
  40 str  34  14   1.417
  41 str  34  21   1.417
  42 str  34  33   1.429
  43 str  35   1   1.093
  44 str  36   1   1.089
  45 str  37   1   1.093
  46 str  38   2   1.088
  47 str  39   3   1.089
  48 str  40   3   1.093
  49 str  41   3   1.093
  50 str  42   8   1.083
  51 str  43   9   1.081
  52 str  44  12   1.081
  53 str  45  13   1.083
  54 str  46  22   1.083
  55 str  47  23   1.081
  56 str  48  26   1.081
  57 str  49  27   1.083
 nber stretches=          57
  58 ben   1   2   3
  59 prop tor   1   2   3  39
  60 prop tor   1   2   3  40
  61 prop tor   1   2   3  41
  62 ben   1   2   4
  63 prop tor   1   2   4   5
  64 prop tor   1   2   4  29
  65 ben   1   2  38
  66 ben   2   1  35
  67 ben   2   1  36
  68 ben   2   1  37
  69 ben   2   3  39
  70 ben   2   3  40
  71 ben   2   3  41
  72 ben   2   4   5
  73 prop tor   2   4   5   6
  74 prop tor   2   4   5   7
  75 ben   2   4  29
  76 prop tor   2   4  29  28
  77 prop tor   2   4  29  30
  78 ben   3   2   4
  79 prop tor   3   2   4   5
  80 prop tor   3   2   4  29
  81 ben   3   2  38
  82 prop tor   4   2   3  39
  83 prop tor   4   2   3  40
  84 prop tor   4   2   3  41
  85 ben   4   2  38
  86 ben   4   5   6
  87 ben   4   5   7
  88 prop tor   4   5   7   8
  89 prop tor   4   5   7  31
  90 ben   4  29  28
  91 ben   4  29  30
  92 ben   5   4  29
  93 prop tor   5   4  29  28
  94 prop tor   5   4  29  30
  95 ben   5   7   8
  96 prop tor   5   7   8   9
  97 prop tor   5   7   8  42
  98 ben   5   7  31
  99 prop tor   5   7  31  28
 100 prop tor   5   7  31  32
 101 ben   6   5   7
 102 prop tor   6   5   7   8
 103 prop tor   6   5   7  31
 104 ben   7   8   9
 105 prop tor   7   8   9  10
 106 prop tor   7   8   9  43
 107 ben   7   8  42
 108 ben   7  31  28
 109 ben   7  31  32
 110 prop tor   7  31  32  10
 111 prop tor   7  31  32  25
 112 ben   8   7  31
 113 prop tor   8   7  31  28
 114 prop tor   8   7  31  32
 115 ben   8   9  10
 116 prop tor   8   9  10  11
 117 prop tor   8   9  10  32
 118 ben   8   9  43
 119 ben   9   8  42
 120 ben   9  10  11
 121 prop tor   9  10  11  12
 122 prop tor   9  10  11  33
 123 ben   9  10  32
 124 prop tor   9  10  32  25
 125 prop tor   9  10  32  31
 126 ben  10   9  43
 127 ben  10  11  12
 128 prop tor  10  11  12  13
 129 prop tor  10  11  12  44
 130 ben  10  11  33
 131 prop tor  10  11  33  24
 132 prop tor  10  11  33  34
 133 ben  10  32  25
 134 ben  10  32  31
 135 ben  11  10  32
 136 prop tor  11  10  32  25
 137 prop tor  11  10  32  31
 138 ben  11  12  13
 139 prop tor  11  12  13  14
 140 prop tor  11  12  13  45
 141 ben  11  12  44
 142 ben  11  33  24
 143 ben  11  33  34
 144 prop tor  11  33  34  14
 145 prop tor  11  33  34  21
 146 ben  12  11  33
 147 prop tor  12  11  33  24
 148 prop tor  12  11  33  34
 149 ben  12  13  14
 150 prop tor  12  13  14  15
 151 prop tor  12  13  14  34
 152 ben  12  13  45
 153 ben  13  12  44
 154 ben  13  14  15
 155 prop tor  13  14  15  16
 156 prop tor  13  14  15  17
 157 ben  13  14  34
 158 prop tor  13  14  34  21
 159 prop tor  13  14  34  33
 160 ben  14  13  45
 161 ben  14  15  16
 162 prop tor  14  15  16  18
 163 ben  14  15  17
 164 prop tor  14  15  17  18
 165 prop tor  14  15  17  19
 166 ben  14  34  21
 167 ben  14  34  33
 168 ben  15  14  34
 169 prop tor  15  14  34  21
 170 prop tor  15  14  34  33
 171 ben  15  16  18
 172 prop tor  15  16  18  17
 173 prop tor  15  16  18  20
 174 ben  15  17  18
 175 prop tor  15  17  18  16
 176 prop tor  15  17  18  20
 177 ben  15  17  19
 178 prop tor  15  17  19  20
 179 prop tor  15  17  19  21
 180 ben  16  15  17
 181 prop tor  16  15  17  18
 182 prop tor  16  15  17  19
 183 ben  16  18  17
 184 ben  16  18  20
 185 prop tor  16  18  20  19
 186 prop tor  17  15  16  18
 187 ben  17  18  20
 188 prop tor  17  18  20  19
 189 ben  17  19  20
 190 prop tor  17  19  20  18
 191 ben  17  19  21
 192 prop tor  17  19  21  22
 193 prop tor  17  19  21  34
 194 ben  18  17  19
 195 prop tor  18  17  19  20
 196 prop tor  18  17  19  21
 197 ben  18  20  19
 198 prop tor  19  17  18  16
 199 prop tor  19  17  18  20
 200 ben  19  21  22
 201 prop tor  19  21  22  23
 202 prop tor  19  21  22  46
 203 ben  19  21  34
 204 prop tor  19  21  34  14
 205 prop tor  19  21  34  33
 206 ben  20  19  21
 207 prop tor  20  19  21  22
 208 prop tor  20  19  21  34
 209 prop tor  21  19  20  18
 210 ben  21  22  23
 211 prop tor  21  22  23  24
 212 prop tor  21  22  23  47
 213 ben  21  22  46
 214 ben  21  34  33
 215 ben  22  21  34
 216 prop tor  22  21  34  14
 217 prop tor  22  21  34  33
 218 ben  22  23  24
 219 prop tor  22  23  24  25
 220 prop tor  22  23  24  33
 221 ben  22  23  47
 222 ben  23  22  46
 223 ben  23  24  25
 224 prop tor  23  24  25  26
 225 prop tor  23  24  25  32
 226 ben  23  24  33
 227 prop tor  23  24  33  11
 228 prop tor  23  24  33  34
 229 ben  24  23  47
 230 ben  24  25  26
 231 prop tor  24  25  26  27
 232 prop tor  24  25  26  48
 233 ben  24  25  32
 234 prop tor  24  25  32  10
 235 prop tor  24  25  32  31
 236 ben  24  33  34
 237 prop tor  24  33  34  14
 238 prop tor  24  33  34  21
 239 ben  25  24  33
 240 prop tor  25  24  33  11
 241 prop tor  25  24  33  34
 242 ben  25  26  27
 243 prop tor  25  26  27  28
 244 prop tor  25  26  27  49
 245 ben  25  26  48
 246 ben  25  32  31
 247 ben  26  25  32
 248 prop tor  26  25  32  10
 249 prop tor  26  25  32  31
 250 ben  26  27  28
 251 prop tor  26  27  28  29
 252 prop tor  26  27  28  31
 253 ben  26  27  49
 254 ben  27  26  48
 255 ben  27  28  29
 256 prop tor  27  28  29   4
 257 prop tor  27  28  29  30
 258 ben  27  28  31
 259 prop tor  27  28  31   7
 260 prop tor  27  28  31  32
 261 ben  28  27  49
 262 ben  28  29  30
 263 ben  28  31  32
 264 prop tor  28  31  32  10
 265 prop tor  28  31  32  25
 266 prop tor  29   4   5   6
 267 prop tor  29   4   5   7
 268 ben  29  28  31
 269 prop tor  29  28  31   7
 270 prop tor  29  28  31  32
 271 prop tor  31   7   8   9
 272 prop tor  31   7   8  42
 273 prop tor  31  28  29   4
 274 prop tor  31  28  29  30
 275 prop tor  32  10  11  12
 276 prop tor  32  10  11  33
 277 prop tor  32  25  26  27
 278 prop tor  32  25  26  48
 279 prop tor  33  11  12  13
 280 prop tor  33  11  12  44
 281 prop tor  33  24  25  26
 282 prop tor  33  24  25  32
 283 prop tor  34  14  15  16
 284 prop tor  34  14  15  17
 285 prop tor  34  21  22  23
 286 prop tor  34  21  22  46
 287 prop tor  35   1   2   3
 288 prop tor  35   1   2   4
 289 prop tor  35   1   2  38
 290 ben  35   1  36
 291 ben  35   1  37
 292 prop tor  36   1   2   3
 293 prop tor  36   1   2   4
 294 prop tor  36   1   2  38
 295 ben  36   1  37
 296 prop tor  37   1   2   3
 297 prop tor  37   1   2   4
 298 prop tor  37   1   2  38
 299 prop tor  38   2   3  39
 300 prop tor  38   2   3  40
 301 prop tor  38   2   3  41
 302 prop tor  38   2   4   5
 303 prop tor  38   2   4  29
 304 ben  39   3  40
 305 ben  39   3  41
 306 ben  40   3  41
 307 prop tor  42   8   9  10
 308 prop tor  42   8   9  43
 309 prop tor  43   9  10  11
 310 prop tor  43   9  10  32
 311 prop tor  44  12  13  14
 312 prop tor  44  12  13  45
 313 prop tor  45  13  14  15
 314 prop tor  45  13  14  34
 315 prop tor  46  22  23  24
 316 prop tor  46  22  23  47
 317 prop tor  47  23  24  25
 318 prop tor  47  23  24  33
 319 prop tor  48  26  27  28
 320 prop tor  48  26  27  49
 321 prop tor  49  27  28  29
 322 prop tor  49  27  28  31
 nber bend=             101
 nber lin bend=           0
 nber prop tor=         164
 nber impr tor=           0
 nber tot redund int=         322
 Reading file: 
 ./PDI_0_C-1S0.log                                                              
                                          
  Entering Gaussian System, Link 0=g16                                          
  
 Gaussian format, type: g94, g98, g03= F F F
  #P Geom=AllCheck Guess=TCheck SCRF=Check GenChk UB3LYP/6-311G(d,p) Fre    
 energy type= B3LYP   
 Original G94 input coords:
  6  1.027109 -0.970665 -0.369971
  6  2.233461 -0.069209 -0.079887
  6  3.431309 -0.835000  0.495252
  7  2.612029  0.752620 -1.260766
  6  3.067918  0.108045 -2.425543
  8  3.151431 -1.119308 -2.465259
  6  3.427731  0.960821 -3.558059
  6  3.887246  0.373576 -4.742067
  6  4.235027  1.148817 -5.828711
  6  4.144971  2.560962 -5.799416
  6  4.507139  3.384645 -6.933760
  6  4.975507  2.830000 -8.148165
  6  5.318713  3.621494 -9.223964
  6  5.215418  5.013762 -9.153688
  6  5.587138  5.825704-10.311861
  8  5.997886  5.389892-11.382893
  7  5.444344  7.202293-10.129809
  1  5.697682  7.778254-10.922348
  6  4.998374  7.890008 -8.999860
  8  4.935131  9.115384 -9.015246
  6  4.638240  7.037496 -7.867514
  6  4.178413  7.619819 -6.682790
  6  3.831570  6.841680 -5.598487
  6  3.923961  5.430229 -5.633552
  6  3.562282  4.605901 -4.499764
  6  3.093567  5.154945 -3.282241
  6  2.751416  4.360305 -2.208107
  6  2.856060  2.966563 -2.282600
  6  2.484613  2.156042 -1.124515
  8  2.078692  2.646620 -0.072762
  6  3.319231  2.367419 -3.476034
  6  3.678426  3.184954 -4.601148
  6  4.391437  4.807450 -6.834194
  6  4.751134  5.625844 -7.960438
  1  0.701152 -1.450206  0.558818
  1  1.275024 -1.741552 -1.098494
  1  0.191726 -0.377920 -0.752503
  1  1.928152  0.676513  0.651550
  1  3.780517 -1.600938 -0.196037
  1  3.138872 -1.311567  1.436633
  1  4.255427 -0.148798  0.708579
  1  3.961330 -0.706357 -4.778936
  1  4.585200  0.650855 -6.722361
  1  5.071219  1.757645 -8.247791
  1  5.676258  3.184433-10.148729
  1  4.103177  8.700018 -6.643313
  1  3.480685  7.335357 -4.702830
  1  2.996442  6.226802 -3.177994
  1  2.394242  4.795442 -1.282855
 nber atoms=          49
  SCF Done:  E(UB3LYP) =  -1449.50288042     A.U. after    1 cycles             
  
          23          40 "  -1449.50288042"
After scan for Atom:   Atom  AN      X      Y      Z        X      Y      Z        X      Y      Z   
After scan for Atom:   Atom  AN      X      Y      Z        X      Y      Z        X      Y      Z   
After scan for Atom:   Atom  AN      X      Y      Z        X      Y      Z        X      Y      Z   
After scan for Atom:   Atom  AN      X      Y      Z        X      Y      Z        X      Y      Z   
After scan for Atom:   Atom  AN      X      Y      Z        X      Y      Z        X      Y      Z   
After scan for Atom:   Atom  AN      X      Y      Z        X      Y      Z        X      Y      Z   
After scan for Atom:   Atom  AN      X      Y      Z        X      Y      Z        X      Y      Z   
After scan for Atom:   Atom  AN      X      Y      Z        X      Y      Z        X      Y      Z   
After scan for Atom:   Atom  AN      X      Y      Z        X      Y      Z        X      Y      Z   
After scan for Atom:   Atom  AN      X      Y      Z        X      Y      Z        X      Y      Z   
After scan for Atom:   Atom  AN      X      Y      Z        X      Y      Z        X      Y      Z   
After scan for Atom:   Atom  AN      X      Y      Z        X      Y      Z        X      Y      Z   
After scan for Atom:   Atom  AN      X      Y      Z        X      Y      Z        X      Y      Z   
After scan for Atom:   Atom  AN      X      Y      Z        X      Y      Z        X      Y      Z   
After scan for Atom:   Atom  AN      X      Y      Z        X      Y      Z        X      Y      Z   
After scan for Atom:   Atom  AN      X      Y      Z        X      Y      Z        X      Y      Z   
After scan for Atom:   Atom  AN      X      Y      Z        X      Y      Z        X      Y      Z   
After scan for Atom:   Atom  AN      X      Y      Z        X      Y      Z        X      Y      Z   
After scan for Atom:   Atom  AN      X      Y      Z        X      Y      Z        X      Y      Z   
After scan for Atom:   Atom  AN      X      Y      Z        X      Y      Z        X      Y      Z   
After scan for Atom:   Atom  AN      X      Y      Z        X      Y      Z        X      Y      Z   
After scan for Atom:   Atom  AN      X      Y      Z        X      Y      Z        X      Y      Z   
After scan for Atom:   Atom  AN      X      Y      Z        X      Y      Z        X      Y      Z   
After scan for Atom:   Atom  AN      X      Y      Z        X      Y      Z        X      Y      Z   
After scan for Atom:   Atom  AN      X      Y      Z        X      Y      Z        X      Y      Z   
After scan for Atom:   Atom  AN      X      Y      Z        X      Y      Z        X      Y      Z   
After scan for Atom:   Atom  AN      X      Y      Z        X      Y      Z        X      Y      Z   
After scan for Atom:   Atom  AN      X      Y      Z        X      Y      Z        X      Y      Z   
After scan for Atom:   Atom  AN      X      Y      Z        X      Y      Z        X      Y      Z   
After scan for Atom:   Atom  AN      X      Y      Z        X      Y      Z        X      Y      Z   
After scan for Atom:   Atom  AN      X      Y      Z        X      Y      Z        X      Y      Z   
After scan for Atom:   Atom  AN      X      Y      Z        X      Y      Z        X      Y      Z   
After scan for Atom:   Atom  AN      X      Y      Z        X      Y      Z        X      Y      Z   
After scan for Atom:   Atom  AN      X      Y      Z        X      Y      Z        X      Y      Z   
After scan for Atom:   Atom  AN      X      Y      Z        X      Y      Z        X      Y      Z   
After scan for Atom:   Atom  AN      X      Y      Z        X      Y      Z        X      Y      Z   
After scan for Atom:   Atom  AN      X      Y      Z        X      Y      Z        X      Y      Z   
After scan for Atom:   Atom  AN      X      Y      Z        X      Y      Z        X      Y      Z   
After scan for Atom:   Atom  AN      X      Y      Z        X      Y      Z        X      Y      Z   
After scan for Atom:   Atom  AN      X      Y      Z        X      Y      Z        X      Y      Z   
After scan for Atom:   Atom  AN      X      Y      Z        X      Y      Z        X      Y      Z   
After scan for Atom:   Atom  AN      X      Y      Z        X      Y      Z        X      Y      Z   
After scan for Atom:   Atom  AN      X      Y      Z        X      Y      Z        X      Y      Z   
After scan for Atom:   Atom  AN      X      Y      Z        X      Y      Z        X      Y      Z   
After scan for Atom:   Atom  AN      X      Y      Z        X      Y      Z        X      Y      Z   
After scan for Atom:   Atom  AN      X      Y      Z        X      Y      Z        X      Y      Z   
After scan for Atom:   Atom  AN      X      Y      Z        X      Y      Z        X      Y      Z   
 g94    frequencies=
     0.0    0.0    0.0    0.0    0.0    0.0   23.9   26.9   56.0   60.1
    84.6   93.6  100.0  114.7  151.0  170.4  192.9  197.2  201.2  210.3
   216.4  234.1  235.4  266.5  280.7  292.3  302.2  344.4  355.3  376.4
   392.4  419.1  424.8  437.5  441.2  444.3  454.1  475.2  490.0  504.1
   510.6  512.0  518.6  543.8  578.6  580.8  581.2  621.0  624.5  644.9
   664.0  665.0  692.3  699.1  716.9  740.0  747.6  758.4  759.3  771.5
   773.9  784.2  805.4  809.4  812.8  817.8  824.1  828.7  835.6  847.2
   871.8  926.6  941.6  953.5  954.4  963.3  966.9  976.0  979.5  984.6
  1058.0 1078.9 1090.0 1123.7 1154.3 1155.5 1156.6 1176.4 1184.2 1194.3
  1202.3 1203.1 1223.6 1233.5 1247.4 1257.2 1292.6 1300.0 1314.2 1344.7
  1351.8 1364.3 1377.2 1382.8 1385.2 1390.9 1394.6 1396.8 1405.8 1422.5
  1438.6 1463.9 1465.5 1471.6 1479.5 1482.2 1493.4 1507.5 1524.1 1531.8
  1563.2 1573.6 1574.0 1589.4 1608.5 1617.7 1626.4 1664.0 1700.6 1718.7
  1723.2 3021.6 3027.1 3079.8 3082.8 3103.8 3129.6 3138.5 3180.5 3180.7
  3187.4 3187.6 3198.2 3198.4 3211.6 3212.0 3593.1
 g94    symmetries=
                                                 A      A      A      A
       A      A      A      A      A      A      A      A      A      A
       A      A      A      A      A      A      A      A      A      A
       A      A      A      A      A      A      A      A      A      A
       A      A      A      A      A      A      A      A      A      A
       A      A      A      A      A      A      A      A      A      A
       A      A      A      A      A      A      A      A      A      A
       A      A      A      A      A      A      A      A      A      A
       A      A      A      A      A      A      A      A      A      A
       A      A      A      A      A      A      A      A      A      A
       A      A      A      A      A      A      A      A      A      A
       A      A      A      A      A      A      A      A      A      A
       A      A      A      A      A      A      A      A      A      A
       A      A      A      A      A      A      A      A      A      A
       A      A      A      A      A      A      A
 atomic masses:
 12.0000 12.0000 12.0000 14.0031 12.0000 15.9949 12.0000 12.0000 12.0000 12.0000
 12.0000 12.0000 12.0000 12.0000 12.0000 15.9949 14.0031  1.0078 12.0000 15.9949
 12.0000 12.0000 12.0000 12.0000 12.0000 12.0000 12.0000 12.0000 12.0000 15.9949
 12.0000 12.0000 12.0000 12.0000  1.0078  1.0078  1.0078  1.0078  1.0078  1.0078
  1.0078  1.0078  1.0078  1.0078  1.0078  1.0078  1.0078  1.0078  1.0078
 looking for force constants in 
 ./PDI_0_C-1S0.fchk                                                             
  
 Cartesian Force Constants                  R   N=       10878                  
  
 n3=         147       10878
 g94-fc frequencies=
    -6.4   -2.2   -0.0    0.0    0.0    0.9   23.9   26.9   56.0   60.1
    84.6   93.6  100.0  114.7  151.0  170.4  192.9  197.2  201.2  210.3
   216.4  234.1  235.5  266.5  280.7  292.3  302.3  344.5  355.3  376.4
   392.4  419.1  424.8  437.5  441.2  444.3  454.2  475.2  490.0  504.1
   510.6  512.0  518.6  543.8  578.6  580.8  581.2  621.0  624.5  644.9
   664.1  665.0  692.3  699.2  716.9  740.0  747.7  758.4  759.3  771.5
   774.0  784.2  805.4  809.4  812.8  817.8  824.1  828.7  835.6  847.2
   871.9  926.7  941.7  953.5  954.4  963.3  966.9  976.0  979.6  984.6
  1058.1 1078.9 1090.0 1123.7 1154.3 1155.6 1156.7 1176.4 1184.2 1194.3
  1202.3 1203.1 1223.6 1233.5 1247.4 1257.2 1292.6 1300.0 1314.3 1344.7
  1351.8 1364.4 1377.2 1382.8 1385.3 1390.9 1394.7 1396.8 1405.8 1422.5
  1438.6 1463.9 1465.6 1471.7 1479.6 1482.2 1493.5 1507.5 1524.2 1531.8
  1563.2 1573.6 1574.0 1589.4 1608.5 1617.7 1626.5 1664.0 1700.7 1718.7
  1723.2 3021.7 3027.2 3079.9 3082.9 3103.8 3129.6 3138.5 3180.6 3180.7
  3187.5 3187.7 3198.2 3198.5 3211.7 3212.0 3593.1
 at 99999: n3=         147
 symm operator            1 :  F  nop=           0
 symm operator            2 :  F  nop=           0
 symm operator            3 :  F  nop=           0
 symm operator            4 :  F  nop=           0
 symm operator            5 :  F  nop=           0
 symm operator            6 :  F  nop=           0
 symm operator            7 :  F  nop=           0
 The point group of the molecule is  C1
 Symmetry rotation matrix:
   1.00000   0.00000   0.00000
   0.00000   1.00000   0.00000
   0.00000   0.00000   1.00000

 Projecting out zero-frequency components
 generating redundant internal coords
         300        3600          49
 search for int coords
   1 str   2   1   1.534
   2 str   3   2   1.534
   3 str   4   2   1.488
   4 str   5   4   1.407
   5 str   6   5   1.231
   6 str   7   5   1.463
   7 str   8   7   1.399
   8 str   9   8   1.379
   9 str  10   9   1.415
  10 str  11  10   1.448
  11 str  12  11   1.415
  12 str  13  12   1.379
  13 str  14  13   1.398
  14 str  15  14   1.462
  15 str  16  15   1.227
  16 str  17  15   1.396
  17 str  18  16   2.451
  18 str  18  17   1.012
  19 str  19  17   1.396
  20 str  20  18   2.451
  21 str  20  19   1.227
  22 str  21  19   1.462
  23 str  22  21   1.398
  24 str  23  22   1.379
  25 str  24  23   1.415
  26 str  25  24   1.448
  27 str  26  25   1.415
  28 str  27  26   1.379
  29 str  28  27   1.400
  30 str  29   4   1.416
  31 str  29  28   1.462
  32 str  30  29   1.229
  33 str  31   7   1.413
  34 str  31  28   1.413
  35 str  32  10   1.429
  36 str  32  25   1.429
  37 str  32  31   1.436
  38 str  33  11   1.431
  39 str  33  24   1.431
  40 str  34  14   1.419
  41 str  34  21   1.419
  42 str  34  33   1.438
  43 str  35   1   1.095
  44 str  36   1   1.089
  45 str  37   1   1.093
  46 str  38   2   1.088
  47 str  39   3   1.089
  48 str  40   3   1.095
  49 str  41   3   1.093
  50 str  42   8   1.083
  51 str  43   9   1.081
  52 str  44  12   1.081
  53 str  45  13   1.084
  54 str  46  22   1.084
  55 str  47  23   1.081
  56 str  48  26   1.081
  57 str  49  27   1.083
 nber stretches=          57
  58 ben   1   2   3
  59 prop tor   1   2   3  39
  60 prop tor   1   2   3  40
  61 prop tor   1   2   3  41
  62 ben   1   2   4
  63 prop tor   1   2   4   5
  64 prop tor   1   2   4  29
  65 ben   1   2  38
  66 ben   2   1  35
  67 ben   2   1  36
  68 ben   2   1  37
  69 ben   2   3  39
  70 ben   2   3  40
  71 ben   2   3  41
  72 ben   2   4   5
  73 prop tor   2   4   5   6
  74 prop tor   2   4   5   7
  75 ben   2   4  29
  76 prop tor   2   4  29  28
  77 prop tor   2   4  29  30
  78 ben   3   2   4
  79 prop tor   3   2   4   5
  80 prop tor   3   2   4  29
  81 ben   3   2  38
  82 prop tor   4   2   3  39
  83 prop tor   4   2   3  40
  84 prop tor   4   2   3  41
  85 ben   4   2  38
  86 ben   4   5   6
  87 ben   4   5   7
  88 prop tor   4   5   7   8
  89 prop tor   4   5   7  31
  90 ben   4  29  28
  91 ben   4  29  30
  92 ben   5   4  29
  93 prop tor   5   4  29  28
  94 prop tor   5   4  29  30
  95 ben   5   7   8
  96 prop tor   5   7   8   9
  97 prop tor   5   7   8  42
  98 ben   5   7  31
  99 prop tor   5   7  31  28
 100 prop tor   5   7  31  32
 101 ben   6   5   7
 102 prop tor   6   5   7   8
 103 prop tor   6   5   7  31
 104 ben   7   8   9
 105 prop tor   7   8   9  10
 106 prop tor   7   8   9  43
 107 ben   7   8  42
 108 ben   7  31  28
 109 ben   7  31  32
 110 prop tor   7  31  32  10
 111 prop tor   7  31  32  25
 112 ben   8   7  31
 113 prop tor   8   7  31  28
 114 prop tor   8   7  31  32
 115 ben   8   9  10
 116 prop tor   8   9  10  11
 117 prop tor   8   9  10  32
 118 ben   8   9  43
 119 ben   9   8  42
 120 ben   9  10  11
 121 prop tor   9  10  11  12
 122 prop tor   9  10  11  33
 123 ben   9  10  32
 124 prop tor   9  10  32  25
 125 prop tor   9  10  32  31
 126 ben  10   9  43
 127 ben  10  11  12
 128 prop tor  10  11  12  13
 129 prop tor  10  11  12  44
 130 ben  10  11  33
 131 prop tor  10  11  33  24
 132 prop tor  10  11  33  34
 133 ben  10  32  25
 134 ben  10  32  31
 135 ben  11  10  32
 136 prop tor  11  10  32  25
 137 prop tor  11  10  32  31
 138 ben  11  12  13
 139 prop tor  11  12  13  14
 140 prop tor  11  12  13  45
 141 ben  11  12  44
 142 ben  11  33  24
 143 ben  11  33  34
 144 prop tor  11  33  34  14
 145 prop tor  11  33  34  21
 146 ben  12  11  33
 147 prop tor  12  11  33  24
 148 prop tor  12  11  33  34
 149 ben  12  13  14
 150 prop tor  12  13  14  15
 151 prop tor  12  13  14  34
 152 ben  12  13  45
 153 ben  13  12  44
 154 ben  13  14  15
 155 prop tor  13  14  15  16
 156 prop tor  13  14  15  17
 157 ben  13  14  34
 158 prop tor  13  14  34  21
 159 prop tor  13  14  34  33
 160 ben  14  13  45
 161 ben  14  15  16
 162 prop tor  14  15  16  18
 163 ben  14  15  17
 164 prop tor  14  15  17  18
 165 prop tor  14  15  17  19
 166 ben  14  34  21
 167 ben  14  34  33
 168 ben  15  14  34
 169 prop tor  15  14  34  21
 170 prop tor  15  14  34  33
 171 ben  15  16  18
 172 prop tor  15  16  18  17
 173 prop tor  15  16  18  20
 174 ben  15  17  18
 175 prop tor  15  17  18  16
 176 prop tor  15  17  18  20
 177 ben  15  17  19
 178 prop tor  15  17  19  20
 179 prop tor  15  17  19  21
 180 ben  16  15  17
 181 prop tor  16  15  17  18
 182 prop tor  16  15  17  19
 183 ben  16  18  17
 184 ben  16  18  20
 185 prop tor  16  18  20  19
 186 prop tor  17  15  16  18
 187 ben  17  18  20
 188 prop tor  17  18  20  19
 189 ben  17  19  20
 190 prop tor  17  19  20  18
 191 ben  17  19  21
 192 prop tor  17  19  21  22
 193 prop tor  17  19  21  34
 194 ben  18  17  19
 195 prop tor  18  17  19  20
 196 prop tor  18  17  19  21
 197 ben  18  20  19
 198 prop tor  19  17  18  16
 199 prop tor  19  17  18  20
 200 ben  19  21  22
 201 prop tor  19  21  22  23
 202 prop tor  19  21  22  46
 203 ben  19  21  34
 204 prop tor  19  21  34  14
 205 prop tor  19  21  34  33
 206 ben  20  19  21
 207 prop tor  20  19  21  22
 208 prop tor  20  19  21  34
 209 prop tor  21  19  20  18
 210 ben  21  22  23
 211 prop tor  21  22  23  24
 212 prop tor  21  22  23  47
 213 ben  21  22  46
 214 ben  21  34  33
 215 ben  22  21  34
 216 prop tor  22  21  34  14
 217 prop tor  22  21  34  33
 218 ben  22  23  24
 219 prop tor  22  23  24  25
 220 prop tor  22  23  24  33
 221 ben  22  23  47
 222 ben  23  22  46
 223 ben  23  24  25
 224 prop tor  23  24  25  26
 225 prop tor  23  24  25  32
 226 ben  23  24  33
 227 prop tor  23  24  33  11
 228 prop tor  23  24  33  34
 229 ben  24  23  47
 230 ben  24  25  26
 231 prop tor  24  25  26  27
 232 prop tor  24  25  26  48
 233 ben  24  25  32
 234 prop tor  24  25  32  10
 235 prop tor  24  25  32  31
 236 ben  24  33  34
 237 prop tor  24  33  34  14
 238 prop tor  24  33  34  21
 239 ben  25  24  33
 240 prop tor  25  24  33  11
 241 prop tor  25  24  33  34
 242 ben  25  26  27
 243 prop tor  25  26  27  28
 244 prop tor  25  26  27  49
 245 ben  25  26  48
 246 ben  25  32  31
 247 ben  26  25  32
 248 prop tor  26  25  32  10
 249 prop tor  26  25  32  31
 250 ben  26  27  28
 251 prop tor  26  27  28  29
 252 prop tor  26  27  28  31
 253 ben  26  27  49
 254 ben  27  26  48
 255 ben  27  28  29
 256 prop tor  27  28  29   4
 257 prop tor  27  28  29  30
 258 ben  27  28  31
 259 prop tor  27  28  31   7
 260 prop tor  27  28  31  32
 261 ben  28  27  49
 262 ben  28  29  30
 263 ben  28  31  32
 264 prop tor  28  31  32  10
 265 prop tor  28  31  32  25
 266 prop tor  29   4   5   6
 267 prop tor  29   4   5   7
 268 ben  29  28  31
 269 prop tor  29  28  31   7
 270 prop tor  29  28  31  32
 271 prop tor  31   7   8   9
 272 prop tor  31   7   8  42
 273 prop tor  31  28  29   4
 274 prop tor  31  28  29  30
 275 prop tor  32  10  11  12
 276 prop tor  32  10  11  33
 277 prop tor  32  25  26  27
 278 prop tor  32  25  26  48
 279 prop tor  33  11  12  13
 280 prop tor  33  11  12  44
 281 prop tor  33  24  25  26
 282 prop tor  33  24  25  32
 283 prop tor  34  14  15  16
 284 prop tor  34  14  15  17
 285 prop tor  34  21  22  23
 286 prop tor  34  21  22  46
 287 prop tor  35   1   2   3
 288 prop tor  35   1   2   4
 289 prop tor  35   1   2  38
 290 ben  35   1  36
 291 ben  35   1  37
 292 prop tor  36   1   2   3
 293 prop tor  36   1   2   4
 294 prop tor  36   1   2  38
 295 ben  36   1  37
 296 prop tor  37   1   2   3
 297 prop tor  37   1   2   4
 298 prop tor  37   1   2  38
 299 prop tor  38   2   3  39
 300 prop tor  38   2   3  40
 301 prop tor  38   2   3  41
 302 prop tor  38   2   4   5
 303 prop tor  38   2   4  29
 304 ben  39   3  40
 305 ben  39   3  41
 306 ben  40   3  41
 307 prop tor  42   8   9  10
 308 prop tor  42   8   9  43
 309 prop tor  43   9  10  11
 310 prop tor  43   9  10  32
 311 prop tor  44  12  13  14
 312 prop tor  44  12  13  45
 313 prop tor  45  13  14  15
 314 prop tor  45  13  14  34
 315 prop tor  46  22  23  24
 316 prop tor  46  22  23  47
 317 prop tor  47  23  24  25
 318 prop tor  47  23  24  33
 319 prop tor  48  26  27  28
 320 prop tor  48  26  27  49
 321 prop tor  49  27  28  29
 322 prop tor  49  27  28  31
 nber bend=             101
 nber lin bend=           0
 nber prop tor=         164
 nber impr tor=           0
 nber tot redund int=         322
 Eigenvalues of G in red int coords
    Gval -0.00000000 -0.00000000 -0.00000000 -0.00000000 -0.00000000 -0.00000000 -0.00000000 -0.00000000
    Gval -0.00000000 -0.00000000 -0.00000000 -0.00000000 -0.00000000 -0.00000000 -0.00000000 -0.00000000
    Gval -0.00000000 -0.00000000 -0.00000000 -0.00000000 -0.00000000 -0.00000000 -0.00000000 -0.00000000
    Gval -0.00000000 -0.00000000 -0.00000000 -0.00000000 -0.00000000 -0.00000000 -0.00000000 -0.00000000
    Gval -0.00000000 -0.00000000 -0.00000000 -0.00000000 -0.00000000 -0.00000000 -0.00000000 -0.00000000
    Gval -0.00000000 -0.00000000 -0.00000000 -0.00000000 -0.00000000 -0.00000000 -0.00000000 -0.00000000
    Gval -0.00000000 -0.00000000 -0.00000000 -0.00000000 -0.00000000 -0.00000000 -0.00000000 -0.00000000
    Gval -0.00000000 -0.00000000 -0.00000000 -0.00000000 -0.00000000 -0.00000000 -0.00000000 -0.00000000
    Gval -0.00000000 -0.00000000 -0.00000000 -0.00000000 -0.00000000 -0.00000000 -0.00000000 -0.00000000
    Gval -0.00000000 -0.00000000 -0.00000000 -0.00000000 -0.00000000 -0.00000000 -0.00000000 -0.00000000
    Gval -0.00000000 -0.00000000 -0.00000000 -0.00000000 -0.00000000 -0.00000000 -0.00000000 -0.00000000
    Gval -0.00000000 -0.00000000 -0.00000000 -0.00000000 -0.00000000 -0.00000000 -0.00000000  0.00000000
    Gval  0.00000000  0.00000000  0.00000000  0.00000000  0.00000000  0.00000000  0.00000000  0.00000000
    Gval  0.00000000  0.00000000  0.00000000  0.00000000  0.00000000  0.00000000  0.00000000  0.00000000
    Gval  0.00000000  0.00000000  0.00000000  0.00000000  0.00000000  0.00000000  0.00000000  0.00000000
    Gval  0.00000000  0.00000000  0.00000000  0.00000000  0.00000000  0.00000000  0.00000000  0.00000000
    Gval  0.00000000  0.00000000  0.00000000  0.00000000  0.00000000  0.00000000  0.00000000  0.00000000
    Gval  0.00000000  0.00000000  0.00000000  0.00000000  0.00000000  0.00000000  0.00000000  0.00000000
    Gval  0.00000000  0.00000000  0.00000000  0.00000000  0.00000000  0.00000000  0.00000000  0.00000000
    Gval  0.00000000  0.00000000  0.00000000  0.00000000  0.00000000  0.00000000  0.00000000  0.00000000
    Gval  0.00000000  0.00000000  0.00000000  0.00000000  0.00000000  0.00000000  0.00000000  0.00000000
    Gval  0.00000000  0.00000000  0.00000000  0.00000000  0.00000000  0.00000000  0.00000000  0.00000000
    Gval  0.00000000  0.00000000  0.00000000  0.00000000  0.00000000  0.00000136  0.00000296  0.00000343
    Gval  0.00000535  0.00000880  0.00001047  0.00001118  0.00001436  0.00001506  0.00001574  0.00001780
    Gval  0.00001833  0.00002134  0.00002302  0.00002426  0.00002609  0.00002891  0.00003056  0.00003598
    Gval  0.00003997  0.00004473  0.00005050  0.00005222  0.00005394  0.00005473  0.00005743  0.00005878
    Gval  0.00006399  0.00006928  0.00007262  0.00007530  0.00008142  0.00008252  0.00008557  0.00008721
    Gval  0.00008920  0.00009266  0.00009788  0.00009891  0.00011917  0.00012620  0.00012859  0.00013670
    Gval  0.00013973  0.00014014  0.00014110  0.00016050  0.00016258  0.00016762  0.00018234  0.00018668
    Gval  0.00021150  0.00022348  0.00022563  0.00023404  0.00024733  0.00027901  0.00029007  0.00029450
    Gval  0.00030800  0.00034698  0.00037259  0.00038330  0.00039141  0.00039428  0.00039820  0.00039848
    Gval  0.00042681  0.00043305  0.00043466  0.00043597  0.00044177  0.00044317  0.00046277  0.00046562
    Gval  0.00046841  0.00049310  0.00049331  0.00053059  0.00053335  0.00053739  0.00055315  0.00055534
    Gval  0.00055583  0.00055933  0.00059854  0.00059927  0.00059960  0.00059988  0.00060221  0.00063810
    Gval  0.00064141  0.00064493  0.00064573  0.00064754  0.00067201  0.00069597  0.00069607  0.00081179
    Gval  0.00084279  0.00090400  0.00105962  0.00109209  0.00109307  0.00109369  0.00109427  0.00114765
    Gval  0.00116346  0.00116365  0.00116393  0.00116420  0.00116529  0.00116585  0.00116968  0.00128766
    Gval  0.00128913  0.00132255  0.00134905  0.00153508  0.00156124  0.00177119  0.00178322  0.00191821
    Gval  0.00227170  0.00234845  0.00252449  0.00254320  0.00259156  0.00277627  0.00292491  0.00294907
    Gval  0.00302030  0.00304160  0.00308349  0.00308694  0.00366036  0.00366222  0.00370829  0.00370983
    Gval  0.00392457  0.00550655
  1.362975878196716E-006  1.362975878196716E-006
  2.963986870562817E-006  1.362975878196716E-006
  3.430558174291160E-006  1.362975878196716E-006
  5.351316099352517E-006  1.362975878196716E-006
  8.800523223534496E-006  1.362975878196716E-006
  1.046956376695494E-005  1.362975878196716E-006
  1.118153395237549E-005  1.362975878196716E-006
  1.436253804064919E-005  1.362975878196716E-006
  1.506331740204338E-005  1.362975878196716E-006
  1.574034429647263E-005  1.362975878196716E-006
  1.779888660524597E-005  1.362975878196716E-006
  1.833161810097473E-005  1.362975878196716E-006
  2.133910465103019E-005  1.362975878196716E-006
  2.302080390065243E-005  1.362975878196716E-006
  2.425710271933181E-005  1.362975878196716E-006
  2.608847961630222E-005  1.362975878196716E-006
  2.890737256140043E-005  1.362975878196716E-006
  3.055706956833550E-005  1.362975878196716E-006
  3.598070027713563E-005  1.362975878196716E-006
  3.996557296800874E-005  1.362975878196716E-006
  4.472562347407439E-005  1.362975878196716E-006
  5.049767792423760E-005  1.362975878196716E-006
  5.221560058302947E-005  1.362975878196716E-006
  5.393987869205452E-005  1.362975878196716E-006
  5.472951942548147E-005  1.362975878196716E-006
  5.742948478271536E-005  1.362975878196716E-006
  5.877748424372917E-005  1.362975878196716E-006
  6.398661027421314E-005  1.362975878196716E-006
  6.928199708854999E-005  1.362975878196716E-006
  7.262205227773873E-005  1.362975878196716E-006
  7.529579802819033E-005  1.362975878196716E-006
  8.141602323140426E-005  1.362975878196716E-006
  8.251614733398831E-005  1.362975878196716E-006
  8.557114520654497E-005  1.362975878196716E-006
  8.720888083735807E-005  1.362975878196716E-006
  8.919519955533890E-005  1.362975878196716E-006
  9.265930555565879E-005  1.362975878196716E-006
  9.787960912927080E-005  1.362975878196716E-006
  9.890750435575579E-005  1.362975878196716E-006
  1.191728772723377E-004  1.362975878196716E-006
  1.261975389499843E-004  1.362975878196716E-006
  1.285860944181426E-004  1.362975878196716E-006
  1.367043583768544E-004  1.362975878196716E-006
  1.397286537479429E-004  1.362975878196716E-006
  1.401413316327308E-004  1.362975878196716E-006
  1.411033438620109E-004  1.362975878196716E-006
  1.605042241324374E-004  1.362975878196716E-006
  1.625768301508377E-004  1.362975878196716E-006
  1.676211023474994E-004  1.362975878196716E-006
  1.823371454888085E-004  1.362975878196716E-006
  1.866819913871046E-004  1.362975878196716E-006
  2.114961473292690E-004  1.362975878196716E-006
  2.234791813190661E-004  1.362975878196716E-006
  2.256304579748138E-004  1.362975878196716E-006
  2.340363480567090E-004  1.362975878196716E-006
  2.473272212262242E-004  1.362975878196716E-006
  2.790068332324721E-004  1.362975878196716E-006
  2.900713292292199E-004  1.362975878196716E-006
  2.944992504643414E-004  1.362975878196716E-006
  3.080026763268674E-004  1.362975878196716E-006
  3.469799471054519E-004  1.362975878196716E-006
  3.725882307233785E-004  1.362975878196716E-006
  3.833018074746368E-004  1.362975878196716E-006
  3.914102429209244E-004  1.362975878196716E-006
  3.942754733052203E-004  1.362975878196716E-006
  3.982031325463334E-004  1.362975878196716E-006
  3.984840871711712E-004  1.362975878196716E-006
  4.268124798016436E-004  1.362975878196716E-006
  4.330502739246548E-004  1.362975878196716E-006
  4.346568068284227E-004  1.362975878196716E-006
  4.359712739288949E-004  1.362975878196716E-006
  4.417700188920369E-004  1.362975878196716E-006
  4.431668161347505E-004  1.362975878196716E-006
  4.627705043709358E-004  1.362975878196716E-006
  4.656187501576939E-004  1.362975878196716E-006
  4.684143843725950E-004  1.362975878196716E-006
  4.931033623064300E-004  1.362975878196716E-006
  4.933124421564813E-004  1.362975878196716E-006
  5.305873991721605E-004  1.362975878196716E-006
  5.333515367844695E-004  1.362975878196716E-006
  5.373939087931460E-004  1.362975878196716E-006
  5.531484220738818E-004  1.362975878196716E-006
  5.553371803077988E-004  1.362975878196716E-006
  5.558328614302808E-004  1.362975878196716E-006
  5.593323959760074E-004  1.362975878196716E-006
  5.985372900290353E-004  1.362975878196716E-006
  5.992715229040986E-004  1.362975878196716E-006
  5.995978912512966E-004  1.362975878196716E-006
  5.998839481720311E-004  1.362975878196716E-006
  6.022123093948011E-004  1.362975878196716E-006
  6.380970807301666E-004  1.362975878196716E-006
  6.414138416119481E-004  1.362975878196716E-006
  6.449299205520408E-004  1.362975878196716E-006
  6.457292494099771E-004  1.362975878196716E-006
  6.475414071250699E-004  1.362975878196716E-006
  6.720093116198869E-004  1.362975878196716E-006
  6.959671256069168E-004  1.362975878196716E-006
  6.960721120588273E-004  1.362975878196716E-006
  8.117905096030692E-004  1.362975878196716E-006
  8.427867552392292E-004  1.362975878196716E-006
  9.040023392510157E-004  1.362975878196716E-006
  1.059616302041659E-003  1.362975878196716E-006
  1.092090803221572E-003  1.362975878196716E-006
  1.093071747966588E-003  1.362975878196716E-006
  1.093689020040340E-003  1.362975878196716E-006
  1.094274916522254E-003  1.362975878196716E-006
  1.147648399725896E-003  1.362975878196716E-006
  1.163462872003472E-003  1.362975878196716E-006
  1.163653126512698E-003  1.362975878196716E-006
  1.163932409796605E-003  1.362975878196716E-006
  1.164196560042258E-003  1.362975878196716E-006
  1.165293597525006E-003  1.362975878196716E-006
  1.165852391229546E-003  1.362975878196716E-006
  1.169676672922414E-003  1.362975878196716E-006
  1.287661590293040E-003  1.362975878196716E-006
  1.289127107376525E-003  1.362975878196716E-006
  1.322550696272992E-003  1.362975878196716E-006
  1.349048519553502E-003  1.362975878196716E-006
  1.535077921220362E-003  1.362975878196716E-006
  1.561241973760844E-003  1.362975878196716E-006
  1.771186127720544E-003  1.362975878196716E-006
  1.783215439471139E-003  1.362975878196716E-006
  1.918211191565123E-003  1.362975878196716E-006
  2.271699544669196E-003  1.362975878196716E-006
  2.348450413234828E-003  1.362975878196716E-006
  2.524486748860921E-003  1.362975878196716E-006
  2.543201831403208E-003  1.362975878196716E-006
  2.591564979488608E-003  1.362975878196716E-006
  2.776272101075804E-003  1.362975878196716E-006
  2.924907073603200E-003  1.362975878196716E-006
  2.949070788576404E-003  1.362975878196716E-006
  3.020296234058043E-003  1.362975878196716E-006
  3.041601089752695E-003  1.362975878196716E-006
  3.083487808009703E-003  1.362975878196716E-006
  3.086943685905877E-003  1.362975878196716E-006
  3.660361437096199E-003  1.362975878196716E-006
  3.662218384831350E-003  1.362975878196716E-006
  3.708294717286668E-003  1.362975878196716E-006
  3.709830780170800E-003  1.362975878196716E-006
  3.924571062058376E-003  1.362975878196716E-006
  5.506552966036556E-003  1.362975878196716E-006
 cut=1d-8, nber non-redundant internal coords=         141
 Check on Eigenvals of non-red overlap matrix:
  0.00000136  0.00000296  0.00000343  0.00000535  0.00000880  0.00001047  0.00001118  0.00001436
  0.00001506  0.00001574  0.00001780  0.00001833  0.00002134  0.00002302  0.00002426  0.00002609
  0.00002891  0.00003056  0.00003598  0.00003997  0.00004473  0.00005050  0.00005222  0.00005394
  0.00005473  0.00005743  0.00005878  0.00006399  0.00006928  0.00007262  0.00007530  0.00008142
  0.00008252  0.00008557  0.00008721  0.00008920  0.00009266  0.00009788  0.00009891  0.00011917
  0.00012620  0.00012859  0.00013670  0.00013973  0.00014014  0.00014110  0.00016050  0.00016258
  0.00016762  0.00018234  0.00018668  0.00021150  0.00022348  0.00022563  0.00023404  0.00024733
  0.00027901  0.00029007  0.00029450  0.00030800  0.00034698  0.00037259  0.00038330  0.00039141
  0.00039428  0.00039820  0.00039848  0.00042681  0.00043305  0.00043466  0.00043597  0.00044177
  0.00044317  0.00046277  0.00046562  0.00046841  0.00049310  0.00049331  0.00053059  0.00053335
[...]
 nber times 1st assigned=          39           0
 nber times 1st assigned=          40           0
 nber times 1st assigned=          41           0
 nber times 1st assigned=          42           0
 nber times 1st assigned=          43           0
 nber times 1st assigned=          44           0
 nber times 1st assigned=          45           0
 nber times 1st assigned=          46           0
 nber times 1st assigned=          47           0
 nber times 1st assigned=          48           0
 nber times 1st assigned=          49           0
 nber times 1st assigned=          50           0
 nber times 1st assigned=          51           0
 nber times 1st assigned=          52           0
 nber times 1st assigned=          53           0
 nber times 1st assigned=          54           0
 nber times 1st assigned=          55           0
 nber times 1st assigned=          56           0
 nber times 1st assigned=          57           0
 nber times 1st assigned=          58           0
 nber times 1st assigned=          59           0
 nber times 1st assigned=          60           0
 nber times 1st assigned=          61           0
 nber times 1st assigned=          62           0
 nber times 1st assigned=          63           0
 nber times 1st assigned=          64           0
 nber times 1st assigned=          65           0
 nber times 1st assigned=          66           0
 nber times 1st assigned=          67           0
 nber times 1st assigned=          68           0
 nber times 1st assigned=          69           0
 nber times 1st assigned=          70           0
 nber times 1st assigned=          71           0
 nber times 1st assigned=          72           0
 nber times 1st assigned=          73           0
 nber times 1st assigned=          74           0
 nber times 1st assigned=          75           0
 nber times 1st assigned=          76           0
 nber times 1st assigned=          77           0
 nber times 1st assigned=          78           0
 nber times 1st assigned=          79           0
 nber times 1st assigned=          80           0
 nber times 1st assigned=          81           0
 nber times 1st assigned=          82           0
 nber times 1st assigned=          83           0
 nber times 1st assigned=          84           0
 nber times 1st assigned=          85           0
 nber times 1st assigned=          86           0
 nber times 1st assigned=          87           0
 nber times 1st assigned=          88           0
 nber times 1st assigned=          89           0
 nber times 1st assigned=          90           0
 nber times 1st assigned=          91           0
 nber times 1st assigned=          92           0
 nber times 1st assigned=          93           0
 nber times 1st assigned=          94           0
 nber times 1st assigned=          95           0
 nber times 1st assigned=          96           0
 nber times 1st assigned=          97           0
 nber times 1st assigned=          98           0
 nber times 1st assigned=          99           0
 nber times 1st assigned=         100           0
 nber times 1st assigned=         101           0
 nber times 1st assigned=         102           0
 nber times 1st assigned=         103           0
 nber times 1st assigned=         104           0
 nber times 1st assigned=         105           0
 nber times 1st assigned=         106           0
 nber times 1st assigned=         107           0
 nber times 1st assigned=         108           0
 nber times 1st assigned=         109           0
 nber times 1st assigned=         110           0
 nber times 1st assigned=         111           0
 nber times 1st assigned=         112           0
 nber times 1st assigned=         113           0
 nber times 1st assigned=         114           0
 nber times 1st assigned=         115           0
 nber times 1st assigned=         116           0
 nber times 1st assigned=         117           0
 nber times 1st assigned=         118           0
 nber times 1st assigned=         119           0
 nber times 1st assigned=         120           0
 nber times 1st assigned=         121           0
 nber times 1st assigned=         122           0
 nber times 1st assigned=         123           0
 nber times 1st assigned=         124           0
 nber times 1st assigned=         125           0
 nber times 1st assigned=         126           0
 nber times 1st assigned=         127           0
 nber times 1st assigned=         128           0
 nber times 1st assigned=         129           0
 nber times 1st assigned=         130           0
 nber times 1st assigned=         131           0
 nber times 1st assigned=         132           0
 nber times 1st assigned=         133           0
 nber times 1st assigned=         134           0
 nber times 1st assigned=         135           0
 nber times 1st assigned=         136           0
 nber times 1st assigned=         137           0
 nber times 1st assigned=         138           0
 nber times 1st assigned=         139           0
 nber times 1st assigned=         140           0
 nber times 1st assigned=         141           0
 nber times 1st assigned=         142           0
 nber times 1st assigned=         143           0
 nber times 1st assigned=         144           0
 nber times 1st assigned=         145           0
 nber times 1st assigned=         146           0
 nber times 1st assigned=         147           0
 modes represented=   140.922012679409     
 p1=
    0.    0.    0.    0.   -0.    0.    0.   -0.   -0.    0.   -0.   -0.    0.    1.   -0.   -0.    0.   -0.    8.    6.
    0.   -0.    1.    0.   -0.    1.   -0.   -0.    0.    4.   -0.   -6.   -0.    2.   -2.   -0.    0.    0.    0.    0.
   -1.   -0.   -0.    5.   -0.   -1.    0.    0.   -0.   -0.   -1.    0.    0.    0.    0.    1.    0.    0.    0.    0.
    0.    0.   -0.    0.   -0.   -1.   -0.   -0.   -0.   -0.   -0.   -0.   -0.    0.    0.    0.   -0.   -0.   -0.   -0.
   -0.    2.   -0.   -0.    0.   -0.    0.   -0.    0.    0.    0.   -0.    0.    0.    0.   -0.   -2.    0.    3.   -0.
    0.    0.   -1.   -0.   -4.    0.    1.    0.    0.   -0.    1.   -0.   -1.   -0.    0.    0.    0.   -0.    0.   -0.
   -0.   -3.   -1.   -3.   -0.    0.   -0.   -0.    1.   -0.   -2.    0.   -0.    0.   -0.   -0.    0.    0.   -0.    0.
   -0.    0.    0.   -0.   -0.    0.    0.
 p2=
   -0.   -0.   -0.   -0.   -0.    0.    0.    0.   -0.    0.   -0.   -0.   -0.   -1.    0.    0.   -8.   -0.    0.    5.
   -0.   -0.   -0.    0.   -0.   -2.   -0.   -0.    0.   -4.    0.    0.   -5.   -2.   -3.    1.   -0.   -0.   -1.   -0.
   -0.    1.    0.    6.   -0.    0.    0.   -0.    0.    0.   -1.    0.   -0.    0.    0.    1.   -0.   -0.    0.    0.
   -0.    0.    0.   -0.    0.   -0.    0.    0.    0.    1.   -0.    0.   -0.    0.    0.    0.    0.   -0.   -0.   -0.
   -0.    2.   -1.    0.    0.   -0.   -0.    0.    0.   -0.   -0.   -0.    0.   -0.    0.   -0.    2.    3.   -0.    0.
    0.    1.    3.    0.   -0.    0.   -0.    0.   -1.    1.   -0.   -0.    0.    0.    1.   -0.   -0.    0.    0.    0.
    0.   -0.   -0.   -0.   -0.   -4.    0.    0.    1.    2.   -0.   -0.   -0.   -0.    0.   -0.   -0.   -0.   -0.   -0.
    0.   -0.    0.   -0.    0.   -0.   -0.

 Displacement: in terms of nc of 1 THEN of nc of 2

   1     freq=    -0. Q=  0.000 lam=    -0.0     freq=    -0. Q=  0.000 lam=    -0.0
   2     freq=    -0. Q=  0.000 lam=    -0.0     freq=    -0. Q=  0.000 lam=    -0.0
   3     freq=    -0. Q=  0.000 lam=    -0.0     freq=     0. Q=  0.000 lam=     0.0
   4     freq=     0. Q=  0.000 lam=     0.0     freq=     0. Q=  0.000 lam=     0.0
   5     freq=     0. Q= -0.000 lam=     0.0     freq=     0. Q= -0.000 lam=     0.0
   6     freq=     0. Q=  0.000 lam=     0.0     freq=     0. Q=  0.000 lam=     0.0
   7     freq=    21. Q=  0.004 lam=     0.0     freq=    24. Q=  0.004 lam=     0.0
   8     freq=    27. Q= -0.004 lam=     0.0     freq=    27. Q= -0.004 lam=     0.0
   9     freq=    52. Q= -0.004 lam=     0.0     freq=    56. Q= -0.004 lam=     0.0
  10     freq=    58. Q=  0.000 lam=     0.0     freq=    60. Q=  0.002 lam=     0.0
  11     freq=    78. Q= -0.002 lam=     0.0     freq=    85. Q= -0.003 lam=     0.0
  12     freq=    88. Q= -0.001 lam=     0.0     freq=    94. Q= -0.000 lam=     0.0
  13     freq=    99. Q=  0.005 lam=     0.0     freq=   100. Q=  0.006 lam=     0.0
  14     freq=   113. Q=  0.037 lam=     0.1     freq=   115. Q=  0.036 lam=     0.1
  15     freq=   142. Q= -0.002 lam=     0.0     freq=   151. Q= -0.002 lam=     0.0
  16     freq=   163. Q= -0.002 lam=     0.0     freq=   170. Q= -0.002 lam=     0.0
  17     freq=   187. Q=  0.003 lam=     0.0     freq=   193. Q=  0.453 lam=    19.8
  18     freq=   188. Q= -0.009 lam=     0.0     freq=   197. Q= -0.012 lam=     0.0
  19     freq=   191. Q=  0.449 lam=    19.2     freq=   201. Q=  0.004 lam=     0.0
  20     freq=   209. Q=  0.326 lam=    11.1     freq=   210. Q=  0.311 lam=    10.2
  21     freq=   219. Q=  0.000 lam=     0.0     freq=   216. Q=  0.000 lam=     0.0
  22     freq=   235. Q= -0.018 lam=     0.0     freq=   234. Q= -0.023 lam=     0.1
  23     freq=   236. Q=  0.034 lam=     0.1     freq=   235. Q=  0.019 lam=     0.0
  24     freq=   272. Q=  0.000 lam=     0.0     freq=   266. Q=  0.000 lam=     0.0
  25     freq=   279. Q= -0.015 lam=     0.0     freq=   281. Q= -0.014 lam=     0.0
  26     freq=   291. Q=  0.103 lam=     1.5     freq=   292. Q=  0.107 lam=     1.7
  27     freq=   315. Q= -0.000 lam=     0.0     freq=   302. Q= -0.000 lam=     0.0
  28     freq=   347. Q= -0.000 lam=     0.0     freq=   344. Q= -0.000 lam=     0.0
  29     freq=   356. Q=  0.035 lam=     0.2     freq=   355. Q=  0.038 lam=     0.3
  30     freq=   379. Q=  0.294 lam=    16.4     freq=   376. Q=  0.298 lam=    16.7
  31     freq=   391. Q= -0.025 lam=     0.1     freq=   392. Q= -0.024 lam=     0.1
  32     freq=   426. Q= -0.481 lam=    49.2     freq=   419. Q= -0.000 lam=     0.0
  33     freq=   430. Q= -0.021 lam=     0.1     freq=   425. Q= -0.455 lam=    43.9
  34     freq=   436. Q=  0.172 lam=     6.5     freq=   437. Q=  0.140 lam=     4.3
  35     freq=   439. Q= -0.178 lam=     7.0     freq=   441. Q= -0.229 lam=    11.6
  36     freq=   447. Q= -0.001 lam=     0.0     freq=   444. Q= -0.067 lam=     1.0
  37     freq=   448. Q=  0.000 lam=     0.0     freq=   454. Q=  0.001 lam=     0.0
  38     freq=   473. Q=  0.000 lam=     0.0     freq=   475. Q=  0.005 lam=     0.0
  39     freq=   478. Q=  0.031 lam=     0.2     freq=   490. Q=  0.094 lam=     2.2
  40     freq=   480. Q=  0.000 lam=     0.0     freq=   504. Q=  0.000 lam=     0.0
  41     freq=   491. Q= -0.070 lam=     1.2     freq=   511. Q= -0.000 lam=     0.0
  42     freq=   517. Q= -0.038 lam=     0.4     freq=   512. Q= -0.055 lam=     0.8
  43     freq=   536. Q= -0.000 lam=     0.0     freq=   519. Q= -0.000 lam=     0.0
  44     freq=   547. Q=  0.512 lam=    71.5     freq=   544. Q=  0.525 lam=    74.9
  45     freq=   577. Q= -0.004 lam=     0.0     freq=   579. Q= -0.001 lam=     0.0
  46     freq=   581. Q= -0.068 lam=     1.3     freq=   581. Q= -0.032 lam=     0.3
  47     freq=   582. Q=  0.000 lam=     0.0     freq=   581. Q=  0.000 lam=     0.0
  48     freq=   620. Q=  0.000 lam=     0.0     freq=   621. Q=  0.000 lam=     0.0
  49     freq=   632. Q= -0.000 lam=     0.0     freq=   625. Q= -0.000 lam=     0.0
  50     freq=   645. Q= -0.001 lam=     0.0     freq=   645. Q= -0.001 lam=     0.0
  51     freq=   661. Q= -0.062 lam=     1.3     freq=   664. Q= -0.079 lam=     2.1
  52     freq=   667. Q=  0.000 lam=     0.0     freq=   665. Q=  0.001 lam=     0.0
  53     freq=   694. Q=  0.002 lam=     0.0     freq=   692. Q=  0.001 lam=     0.0
  54     freq=   709. Q=  0.001 lam=     0.0     freq=   699. Q=  0.001 lam=     0.0
  55     freq=   717. Q=  0.026 lam=     0.2     freq=   717. Q=  0.005 lam=     0.0
  56     freq=   739. Q=  0.080 lam=     2.3     freq=   740. Q=  0.084 lam=     2.6
  57     freq=   744. Q=  0.000 lam=     0.0     freq=   748. Q=  0.001 lam=     0.0
  58     freq=   759. Q=  0.002 lam=     0.0     freq=   758. Q=  0.002 lam=     0.0
  59     freq=   765. Q=  0.000 lam=     0.0     freq=   759. Q=  0.000 lam=     0.0
  60     freq=   775. Q=  0.003 lam=     0.0     freq=   771. Q=  0.000 lam=     0.0
  61     freq=   777. Q=  0.000 lam=     0.0     freq=   774. Q=  0.002 lam=     0.0
  62     freq=   786. Q=  0.000 lam=     0.0     freq=   784. Q=  0.001 lam=     0.0
  63     freq=   806. Q= -0.041 lam=     0.7     freq=   805. Q= -0.032 lam=     0.4
  64     freq=   808. Q=  0.002 lam=     0.0     freq=   809. Q=  0.000 lam=     0.0
  65     freq=   824. Q= -0.004 lam=     0.0     freq=   813. Q= -0.001 lam=     0.0
  66     freq=   845. Q= -0.144 lam=     8.7     freq=   818. Q= -0.000 lam=     0.0
  67     freq=   865. Q= -0.000 lam=     0.0     freq=   824. Q= -0.007 lam=     0.0
  68     freq=   866. Q= -0.000 lam=     0.0     freq=   829. Q= -0.000 lam=     0.0
  69     freq=   871. Q= -0.000 lam=     0.0     freq=   836. Q= -0.001 lam=     0.0
  70     freq=   873. Q= -0.001 lam=     0.0     freq=   847. Q= -0.143 lam=     8.7
  71     freq=   873. Q= -0.050 lam=     1.1     freq=   872. Q= -0.051 lam=     1.1
  72     freq=   923. Q= -0.035 lam=     0.6     freq=   927. Q= -0.035 lam=     0.6
  73     freq=   946. Q= -0.000 lam=     0.0     freq=   942. Q= -0.000 lam=     0.0
  74     freq=   957. Q=  0.000 lam=     0.0     freq=   953. Q=  0.001 lam=     0.0
  75     freq=   961. Q=  0.027 lam=     0.4     freq=   954. Q=  0.025 lam=     0.3
  76     freq=   979. Q=  0.009 lam=     0.0     freq=   963. Q=  0.000 lam=     0.0
  77     freq=   993. Q= -0.000 lam=     0.0     freq=   967. Q= -0.000 lam=     0.0
  78     freq=   997. Q= -0.000 lam=     0.0     freq=   976. Q= -0.000 lam=     0.0
  79     freq=  1001. Q= -0.000 lam=     0.0     freq=   980. Q= -0.000 lam=     0.0
  80     freq=  1006. Q= -0.000 lam=     0.0     freq=   985. Q= -0.014 lam=     0.1
  81     freq=  1057. Q= -0.036 lam=     0.7     freq=  1058. Q= -0.044 lam=     1.0
  82     freq=  1082. Q=  0.292 lam=    46.0     freq=  1079. Q=  0.200 lam=    21.6
  83     freq=  1101. Q= -0.011 lam=     0.1     freq=  1090. Q= -0.139 lam=    10.5
  84     freq=  1127. Q= -0.001 lam=     0.0     freq=  1124. Q= -0.006 lam=     0.0
  85     freq=  1152. Q=  0.004 lam=     0.0     freq=  1154. Q=  0.000 lam=     0.0
  86     freq=  1156. Q= -0.000 lam=     0.0     freq=  1156. Q= -0.009 lam=     0.0
  87     freq=  1171. Q=  0.048 lam=     1.4     freq=  1157. Q=  0.002 lam=     0.0
  88     freq=  1194. Q= -0.036 lam=     0.8     freq=  1176. Q= -0.038 lam=     0.9
  89     freq=  1203. Q=  0.004 lam=     0.0     freq=  1184. Q=  0.058 lam=     2.0
  90     freq=  1204. Q=  0.003 lam=     0.0     freq=  1194. Q=  0.033 lam=     0.7
  91     freq=  1210. Q=  0.001 lam=     0.0     freq=  1202. Q=  0.001 lam=     0.0
  92     freq=  1218. Q= -0.002 lam=     0.0     freq=  1203. Q= -0.053 lam=     1.7
  93     freq=  1225. Q=  0.005 lam=     0.0     freq=  1224. Q=  0.028 lam=     0.5
  94     freq=  1241. Q=  0.017 lam=     0.2     freq=  1234. Q=  0.000 lam=     0.0
  95     freq=  1259. Q=  0.001 lam=     0.0     freq=  1247. Q=  0.011 lam=     0.1
  96     freq=  1277. Q= -0.005 lam=     0.0     freq=  1257. Q= -0.005 lam=     0.0
  97     freq=  1301. Q= -0.300 lam=    58.4     freq=  1293. Q= -0.314 lam=    63.9
  98     freq=  1316. Q=  0.004 lam=     0.0     freq=  1300. Q=  0.474 lam=   145.8
  99     freq=  1325. Q=  0.381 lam=    96.0     freq=  1314. Q=  0.008 lam=     0.0
 100     freq=  1337. Q= -0.002 lam=     0.0     freq=  1345. Q= -0.038 lam=     0.9
 101     freq=  1353. Q=  0.052 lam=     1.8     freq=  1352. Q=  0.004 lam=     0.0
 102     freq=  1369. Q=  0.009 lam=     0.1     freq=  1364. Q=  0.141 lam=    13.6
 103     freq=  1375. Q= -0.167 lam=    19.2     freq=  1377. Q= -0.471 lam=   152.8
 104     freq=  1382. Q= -0.001 lam=     0.0     freq=  1383. Q= -0.002 lam=     0.0
 105     freq=  1389. Q= -0.533 lam=   197.1     freq=  1385. Q= -0.014 lam=     0.1
 106     freq=  1401. Q=  0.001 lam=     0.0     freq=  1391. Q=  0.023 lam=     0.4
 107     freq=  1406. Q=  0.216 lam=    32.7     freq=  1395. Q=  0.000 lam=     0.0
 108     freq=  1417. Q=  0.063 lam=     2.8     freq=  1397. Q=  0.002 lam=     0.0
 109     freq=  1419. Q=  0.001 lam=     0.0     freq=  1406. Q=  0.087 lam=     5.3
 110     freq=  1428. Q= -0.044 lam=     1.4     freq=  1422. Q= -0.099 lam=     6.9
 111     freq=  1437. Q=  0.087 lam=     5.4     freq=  1439. Q=  0.025 lam=     0.5
 112     freq=  1454. Q= -0.020 lam=     0.3     freq=  1464. Q= -0.015 lam=     0.2
 113     freq=  1475. Q= -0.126 lam=    11.7     freq=  1466. Q= -0.006 lam=     0.0
 114     freq=  1485. Q= -0.000 lam=     0.0     freq=  1472. Q= -0.005 lam=     0.0
 115     freq=  1490. Q=  0.001 lam=     0.0     freq=  1480. Q=  0.126 lam=    11.8
 116     freq=  1498. Q=  0.028 lam=     0.6     freq=  1482. Q=  0.001 lam=     0.0
 117     freq=  1505. Q=  0.001 lam=     0.0     freq=  1493. Q=  0.022 lam=     0.4
 118     freq=  1505. Q= -0.000 lam=     0.0     freq=  1508. Q= -0.000 lam=     0.0
 119     freq=  1523. Q=  0.025 lam=     0.5     freq=  1524. Q=  0.026 lam=     0.5
 120     freq=  1543. Q= -0.003 lam=     0.0     freq=  1532. Q= -0.008 lam=     0.1
 121     freq=  1560. Q= -0.002 lam=     0.0     freq=  1563. Q= -0.031 lam=     0.7
 122     freq=  1603. Q= -0.411 lam=   135.3     freq=  1574. Q= -0.004 lam=     0.0
 123     freq=  1615. Q= -0.164 lam=    21.6     freq=  1574. Q= -0.011 lam=     0.1
 124     freq=  1623. Q= -0.452 lam=   165.9     freq=  1589. Q= -0.005 lam=     0.0
 125     freq=  1631. Q= -0.001 lam=     0.0     freq=  1608. Q= -0.003 lam=     0.0
 126     freq=  1632. Q=  0.059 lam=     2.8     freq=  1618. Q=  0.647 lam=   338.3
 127     freq=  1648. Q= -0.002 lam=     0.0     freq=  1626. Q= -0.018 lam=     0.3
 128     freq=  1714. Q= -0.005 lam=     0.0     freq=  1664. Q= -0.006 lam=     0.0
 129     freq=  1752. Q=  0.213 lam=    39.6     freq=  1701. Q=  0.190 lam=    30.8
 130     freq=  1767. Q= -0.000 lam=     0.0     freq=  1719. Q= -0.341 lam=    99.8
 131     freq=  1770. Q= -0.281 lam=    69.8     freq=  1723. Q= -0.002 lam=     0.0
 132     freq=  3035. Q=  0.000 lam=     0.0     freq=  3022. Q=  0.000 lam=     0.0
 133     freq=  3039. Q= -0.018 lam=     0.5     freq=  3027. Q= -0.020 lam=     0.6
 134     freq=  3093. Q=  0.000 lam=     0.0     freq=  3080. Q=  0.000 lam=     0.0
 135     freq=  3096. Q= -0.015 lam=     0.4     freq=  3083. Q= -0.012 lam=     0.2
 136     freq=  3113. Q= -0.009 lam=     0.1     freq=  3104. Q= -0.010 lam=     0.2
 137     freq=  3133. Q=  0.000 lam=     0.0     freq=  3130. Q=  0.000 lam=     0.0
 138     freq=  3144. Q=  0.008 lam=     0.1     freq=  3138. Q=  0.007 lam=     0.1
 139     freq=  3194. Q= -0.001 lam=     0.0     freq=  3181. Q= -0.001 lam=     0.0
 140     freq=  3194. Q=  0.000 lam=     0.0     freq=  3181. Q=  0.000 lam=     0.0
 141     freq=  3200. Q= -0.004 lam=     0.0     freq=  3187. Q= -0.003 lam=     0.0
 142     freq=  3200. Q=  0.002 lam=     0.0     freq=  3188. Q=  0.005 lam=     0.0
 143     freq=  3208. Q=  0.000 lam=     0.0     freq=  3198. Q=  0.000 lam=     0.0
 144     freq=  3208. Q= -0.000 lam=     0.0     freq=  3198. Q= -0.000 lam=     0.0
 145     freq=  3219. Q= -0.003 lam=     0.0     freq=  3212. Q= -0.001 lam=     0.0
 146     freq=  3219. Q=  0.005 lam=     0.0     freq=  3212. Q=  0.011 lam=     0.2
 147     freq=  3580. Q=  0.014 lam=     0.3     freq=  3593. Q=  0.012 lam=     0.3

 total reorg energy (cm**-1, kcal/mol)=     1115.     1118.      3.19      3.20
 Nber of molecules processed=           2
