 Enter ifcurve (0=recti, 1=orth curvi, 2=apprx curvi, -1 = skip
 And atom ordering flag, 0= never changes, 1= use the first order thenceforth,
  2= deduce it (does read on fail), 3= always read it
 Reading file: 
 ./PDI_7_C1S0.log                                                               
                                          
  Entering Gaussian System, Link 0=g16                                          
  
 Gaussian format, type: g94, g98, g03= F F F
  #P Geom=AllCheck Guess=TCheck SCRF=Check GenChk UB3LYP/6-311G(d,p) Fre    
 energy type= B3LYP   
 Original G94 input coords:
  6  0.896292  0.287520 -0.220340
  6  2.337353 -0.185962 -0.012095
  6  3.313495  0.316084 -1.079499
  7  2.827054  0.133135  1.376799
  6  3.135354 -0.950380  2.211822
  8  3.019658 -2.102883  1.848666
  6  3.620966 -0.642467  3.590555
  6  3.934358 -1.690679  4.443219
  6  4.389091 -1.431997  5.732901
  6  4.547517 -0.123765  6.217632
  6  5.023494  0.159642  7.566344
  6  5.366839 -0.856407  8.470798
  6  5.821824 -0.573862  9.754698
  6  5.942533  0.740973 10.180050
  6  6.425140  1.007064 11.560470
  8  6.680944  0.110844 12.333280
  7  6.571779  2.362744 11.936996
  6  7.088765  2.640954 13.252100
  6  6.339265  3.394518 14.159513
  6  6.845956  3.654142 15.419430
  6  8.110034  3.165160 15.817952
  6  8.640926  3.439809 17.158111
  6  8.290459  4.620436 17.850474
  6  8.798020  4.880837 19.112644
  6  9.658500  3.965371 19.725715
  6 10.012059  2.788011 19.059750
  6  9.517021  2.530665 17.792063
  6  8.844438  2.405048 14.882443
  6  8.346605  2.150389 13.618517
  6  6.216367  3.459018 11.117126
  8  6.302110  4.598931 11.516599
  6  5.747243  3.133878  9.747335
  6  5.443557  4.178907  8.884298
  6  4.993178  3.917247  7.596536
  6  4.832666  2.605380  7.117338
  6  4.359829  2.321550  5.770239
  6  4.024514  3.337260  4.858930
  6  3.572605  3.054686  3.573928
  6  3.439636  1.738848  3.154864
  6  2.950748  1.466820  1.768064
  8  2.677283  2.388935  1.026380
  6  3.763804  0.686894  4.034961
  6  4.228325  0.963697  5.353715
  6  5.150325  1.518477  7.986333
  6  5.610967  1.797435  9.307625
  1  0.535835 -0.099314 -1.176460
  1  0.823055  1.374102 -0.239788
  1  0.240099 -0.101377  0.562313
  1  2.344308 -1.273267 -0.028821
  1  3.334674  1.403765 -1.133328
  1  2.998201 -0.070996 -2.051350
  1  4.324554 -0.052462 -0.888926
  1  3.817750 -2.705587  4.085474
  1  4.620813 -2.277747  6.364973
  1  5.283333 -1.894160  8.180891
  1  6.083166 -1.370453 10.439484
  1  5.364774  3.768946 13.878579
  1  6.240068  4.212011 16.121448
  1  7.647035  5.350757 17.376082
  1  8.532229  5.799201 19.622078
  1 10.050501  4.167770 20.715341
  1 10.668875  2.071579 19.538175
  1  9.776581  1.602257 17.299002
  1  9.832300  2.044946 15.138377
  1  8.931076  1.578453 12.910395
  1  5.559671  5.195535  9.237589
  1  4.763731  4.759884  6.959991
  1  4.112381  4.375748  5.145658
  1  3.318034  3.848562  2.883546
 nber atoms=          69
  SCF Done:  E(UB3LYP) =  -1911.34266209     A.U. after    3 cycles             
  
          23          40 "  -1911.34266209"
After scan for Atom:   Atom  AN      X      Y      Z        X      Y      Z        X      Y      Z   
After scan for Atom:   Atom  AN      X      Y      Z        X      Y      Z        X      Y      Z   
After scan for Atom:   Atom  AN      X      Y      Z        X      Y      Z        X      Y      Z   
After scan for Atom:   Atom  AN      X      Y      Z        X      Y      Z        X      Y      Z   
After scan for Atom:   Atom  AN      X      Y      Z        X      Y      Z        X      Y      Z   
After scan for Atom:   Atom  AN      X      Y      Z        X      Y      Z        X      Y      Z   
After scan for Atom:   Atom  AN      X      Y      Z        X      Y      Z        X      Y      Z   
After scan for Atom:   Atom  AN      X      Y      Z        X      Y      Z        X      Y      Z   
After scan for Atom:   Atom  AN      X      Y      Z        X      Y      Z        X      Y      Z   
After scan for Atom:   Atom  AN      X      Y      Z        X      Y      Z        X      Y      Z   
After scan for Atom:   Atom  AN      X      Y      Z        X      Y      Z        X      Y      Z   
After scan for Atom:   Atom  AN      X      Y      Z        X      Y      Z        X      Y      Z   
After scan for Atom:   Atom  AN      X      Y      Z        X      Y      Z        X      Y      Z   
After scan for Atom:   Atom  AN      X      Y      Z        X      Y      Z        X      Y      Z   
After scan for Atom:   Atom  AN      X      Y      Z        X      Y      Z        X      Y      Z   
After scan for Atom:   Atom  AN      X      Y      Z        X      Y      Z        X      Y      Z   
After scan for Atom:   Atom  AN      X      Y      Z        X      Y      Z        X      Y      Z   
After scan for Atom:   Atom  AN      X      Y      Z        X      Y      Z        X      Y      Z   
After scan for Atom:   Atom  AN      X      Y      Z        X      Y      Z        X      Y      Z   
After scan for Atom:   Atom  AN      X      Y      Z        X      Y      Z        X      Y      Z   
After scan for Atom:   Atom  AN      X      Y      Z        X      Y      Z        X      Y      Z   
After scan for Atom:   Atom  AN      X      Y      Z        X      Y      Z        X      Y      Z   
After scan for Atom:   Atom  AN      X      Y      Z        X      Y      Z        X      Y      Z   
After scan for Atom:   Atom  AN      X      Y      Z        X      Y      Z        X      Y      Z   
After scan for Atom:   Atom  AN      X      Y      Z        X      Y      Z        X      Y      Z   
After scan for Atom:   Atom  AN      X      Y      Z        X      Y      Z        X      Y      Z   
After scan for Atom:   Atom  AN      X      Y      Z        X      Y      Z        X      Y      Z   
After scan for Atom:   Atom  AN      X      Y      Z        X      Y      Z        X      Y      Z   
After scan for Atom:   Atom  AN      X      Y      Z        X      Y      Z        X      Y      Z   
After scan for Atom:   Atom  AN      X      Y      Z        X      Y      Z        X      Y      Z   
After scan for Atom:   Atom  AN      X      Y      Z        X      Y      Z        X      Y      Z   
After scan for Atom:   Atom  AN      X      Y      Z        X      Y      Z        X      Y      Z   
After scan for Atom:   Atom  AN      X      Y      Z        X      Y      Z        X      Y      Z   
After scan for Atom:   Atom  AN      X      Y      Z        X      Y      Z        X      Y      Z   
After scan for Atom:   Atom  AN      X      Y      Z        X      Y      Z        X      Y      Z   
After scan for Atom:   Atom  AN      X      Y      Z        X      Y      Z        X      Y      Z   
After scan for Atom:   Atom  AN      X      Y      Z        X      Y      Z        X      Y      Z   
After scan for Atom:   Atom  AN      X      Y      Z        X      Y      Z        X      Y      Z   
After scan for Atom:   Atom  AN      X      Y      Z        X      Y      Z        X      Y      Z   
After scan for Atom:   Atom  AN      X      Y      Z        X      Y      Z        X      Y      Z   
After scan for Atom:   Atom  AN      X      Y      Z        X      Y      Z        X      Y      Z   
After scan for Atom:   Atom  AN      X      Y      Z        X      Y      Z        X      Y      Z   
After scan for Atom:   Atom  AN      X      Y      Z        X      Y      Z        X      Y      Z   
After scan for Atom:   Atom  AN      X      Y      Z        X      Y      Z        X      Y      Z   
After scan for Atom:   Atom  AN      X      Y      Z        X      Y      Z        X      Y      Z   
After scan for Atom:   Atom  AN      X      Y      Z        X      Y      Z        X      Y      Z   
After scan for Atom:   Atom  AN      X      Y      Z        X      Y      Z        X      Y      Z   
After scan for Atom:   Atom  AN      X      Y      Z        X      Y      Z        X      Y      Z   
After scan for Atom:   Atom  AN      X      Y      Z        X      Y      Z        X      Y      Z   
After scan for Atom:   Atom  AN      X      Y      Z        X      Y      Z        X      Y      Z   
After scan for Atom:   Atom  AN      X      Y      Z        X      Y      Z        X      Y      Z   
After scan for Atom:   Atom  AN      X      Y      Z        X      Y      Z        X      Y      Z   
After scan for Atom:   Atom  AN      X      Y      Z        X      Y      Z        X      Y      Z   
After scan for Atom:   Atom  AN      X      Y      Z        X      Y      Z        X      Y      Z   
After scan for Atom:   Atom  AN      X      Y      Z        X      Y      Z        X      Y      Z   
After scan for Atom:   Atom  AN      X      Y      Z        X      Y      Z        X      Y      Z   
After scan for Atom:   Atom  AN      X      Y      Z        X      Y      Z        X      Y      Z   
After scan for Atom:   Atom  AN      X      Y      Z        X      Y      Z        X      Y      Z   
After scan for Atom:   Atom  AN      X      Y      Z        X      Y      Z        X      Y      Z   
After scan for Atom:   Atom  AN      X      Y      Z        X      Y      Z        X      Y      Z   
After scan for Atom:   Atom  AN      X      Y      Z        X      Y      Z        X      Y      Z   
After scan for Atom:   Atom  AN      X      Y      Z        X      Y      Z        X      Y      Z   
After scan for Atom:   Atom  AN      X      Y      Z        X      Y      Z        X      Y      Z   
After scan for Atom:   Atom  AN      X      Y      Z        X      Y      Z        X      Y      Z   
After scan for Atom:   Atom  AN      X      Y      Z        X      Y      Z        X      Y      Z   
After scan for Atom:   Atom  AN      X      Y      Z        X      Y      Z        X      Y      Z   
After scan for Atom:   Atom  AN      X      Y      Z        X      Y      Z        X      Y      Z   
 g94    frequencies=
     0.0    0.0    0.0    0.0    0.0    0.0   11.0   20.6   21.6   31.3
    33.7   52.5   58.0   70.9   74.7   75.6   87.7   95.4  104.7  122.0
   127.4  152.9  163.8  179.3  185.0  198.7  212.6  222.3  235.3  238.1
   241.3  264.4  280.1  292.5  311.8  324.7  334.6  359.0  372.7  388.5
   394.1  400.6  412.8  415.3  429.1  433.4  434.7  437.2  441.3  446.7
   466.3  471.8  478.6  480.3  505.4  508.3  518.4  527.2  549.3  562.3
   574.5  581.4  586.7  616.6  617.5  622.0  635.5  640.5  649.0  665.0
   690.7  708.6  712.5  718.2  719.8  729.9  743.0  747.9  758.5  768.9
   776.5  783.5  791.9  802.2  812.3  819.3  824.6  833.4  844.9  850.3
   857.3  868.8  870.1  872.6  875.1  905.2  921.3  947.5  949.0  958.0
   966.7  974.6  978.3  983.4  995.9 1005.2 1006.4 1007.6 1014.3 1016.5
  1017.6 1020.6 1030.0 1050.7 1064.4 1084.4 1103.4 1114.5 1145.1 1156.0
  1156.6 1157.7 1166.6 1167.6 1187.5 1191.3 1194.7 1204.7 1209.4 1209.9
  1213.5 1223.1 1238.1 1258.3 1262.2 1277.8 1288.1 1297.6 1313.2 1320.4
  1322.9 1339.2 1339.6 1344.4 1352.3 1365.6 1371.4 1376.2 1378.3 1387.9
  1405.2 1410.3 1412.8 1422.9 1440.6 1444.6 1454.3 1482.7 1485.0 1485.6
  1486.2 1493.7 1500.0 1503.5 1509.3 1521.3 1532.4 1538.8 1561.3 1564.0
  1574.6 1584.4 1588.1 1603.2 1611.6 1612.4 1615.2 1627.0 1630.9 1714.5
  1728.1 1758.8 1763.4 3040.6 3044.0 3100.4 3103.6 3117.5 3134.9 3146.0
  3178.1 3183.9 3190.5 3195.3 3197.9 3201.1 3202.5 3202.8 3204.4 3208.3
  3208.4 3212.3 3215.1 3215.1 3218.2 3226.2 3226.9
 g94    symmetries=
                                                 A      A      A      A
       A      A      A      A      A      A      A      A      A      A
       A      A      A      A      A      A      A      A      A      A
       A      A      A      A      A      A      A      A      A      A
       A      A      A      A      A      A      A      A      A      A
       A      A      A      A      A      A      A      A      A      A
       A      A      A      A      A      A      A      A      A      A
       A      A      A      A      A      A      A      A      A      A
       A      A      A      A      A      A      A      A      A      A
       A      A      A      A      A      A      A      A      A      A
       A      A      A      A      A      A      A      A      A      A
       A      A      A      A      A      A      A      A      A      A
       A      A      A      A      A      A      A      A      A      A
       A      A      A      A      A      A      A      A      A      A
       A      A      A      A      A      A      A      A      A      A
       A      A      A      A      A      A      A      A      A      A
       A      A      A      A      A      A      A      A      A      A
       A      A      A      A      A      A      A      A      A      A
       A      A      A      A      A      A      A      A      A      A
       A      A      A      A      A      A      A      A      A      A
       A      A      A      A      A      A      A
 atomic masses:
 12.0000 12.0000 12.0000 14.0031 12.0000 15.9949 12.0000 12.0000 12.0000 12.0000
 12.0000 12.0000 12.0000 12.0000 12.0000 15.9949 14.0031 12.0000 12.0000 12.0000
 12.0000 12.0000 12.0000 12.0000 12.0000 12.0000 12.0000 12.0000 12.0000 12.0000
 15.9949 12.0000 12.0000 12.0000 12.0000 12.0000 12.0000 12.0000 12.0000 12.0000
 15.9949 12.0000 12.0000 12.0000 12.0000  1.0078  1.0078  1.0078  1.0078  1.0078
  1.0078  1.0078  1.0078  1.0078  1.0078  1.0078  1.0078  1.0078  1.0078  1.0078
  1.0078  1.0078  1.0078  1.0078  1.0078  1.0078  1.0078  1.0078  1.0078
 looking for force constants in 
 ./PDI_7_C1S0.fchk                                                              
  
 Cartesian Force Constants                  R   N=       21528                  
  
 n3=         207       21528
 g94-fc frequencies=
    -3.5   -0.8   -0.1   -0.0   -0.0    0.0   11.0   20.6   21.6   31.3
    33.7   52.5   58.0   70.9   74.7   75.6   87.7   95.4  104.7  122.0
   127.4  152.9  163.8  179.3  185.0  198.8  212.6  222.3  235.3  238.1
   241.3  264.4  280.1  292.5  311.8  324.7  334.6  359.0  372.8  388.5
   394.1  400.7  412.8  415.3  429.1  433.4  434.7  437.2  441.3  446.7
   466.3  471.8  478.7  480.3  505.5  508.3  518.4  527.2  549.3  562.3
   574.5  581.4  586.7  616.7  617.6  622.1  635.6  640.5  649.0  665.0
   690.7  708.6  712.5  718.2  719.8  730.0  743.1  747.9  758.5  768.9
   776.6  783.5  792.0  802.2  812.3  819.3  824.7  833.5  844.9  850.4
   857.3  868.8  870.1  872.6  875.1  905.2  921.3  947.5  949.0  958.0
   966.7  974.6  978.3  983.4  995.9 1005.3 1006.4 1007.6 1014.3 1016.5
  1017.6 1020.6 1030.0 1050.7 1064.4 1084.4 1103.5 1114.5 1145.1 1156.1
  1156.6 1157.7 1166.6 1167.7 1187.5 1191.3 1194.7 1204.8 1209.4 1209.9
  1213.5 1223.1 1238.1 1258.3 1262.3 1277.9 1288.1 1297.6 1313.2 1320.5
  1322.9 1339.2 1339.6 1344.4 1352.4 1365.7 1371.4 1376.2 1378.3 1388.0
  1405.2 1410.3 1412.8 1422.9 1440.7 1444.7 1454.3 1482.7 1485.0 1485.7
  1486.2 1493.7 1500.0 1503.5 1509.3 1521.3 1532.5 1538.8 1561.3 1564.1
  1574.6 1584.5 1588.2 1603.2 1611.7 1612.5 1615.2 1627.0 1631.0 1714.6
  1728.1 1758.8 1763.4 3040.7 3044.1 3100.5 3103.7 3117.5 3134.9 3146.1
  3178.1 3184.0 3190.6 3195.4 3197.9 3201.2 3202.5 3202.9 3204.4 3208.4
  3208.5 3212.3 3215.1 3215.2 3218.2 3226.3 3227.0
 at 99999: n3=         207
 symm operator            1 :  F  nop=           0
 symm operator            2 :  F  nop=           0
 symm operator            3 :  F  nop=           0
 symm operator            4 :  F  nop=           0
 symm operator            5 :  F  nop=           0
 symm operator            6 :  F  nop=           0
 symm operator            7 :  F  nop=           0
 The point group of the molecule is  C1
 Symmetry rotation matrix:
   1.00000   0.00000   0.00000
   0.00000   1.00000   0.00000
   0.00000   0.00000   1.00000

 Projecting out zero-frequency components
 generating redundant internal coords
         300        3600          69
 search for int coords
   1 str   2   1   1.531
   2 str   3   2   1.531
   3 str   4   2   1.507
   4 str   5   4   1.402
   5 str   6   5   1.214
   6 str   7   5   1.494
   7 str   8   7   1.387
   8 str   9   8   1.392
   9 str  10   9   1.404
  10 str  11  10   1.458
  11 str  12  11   1.403
  12 str  13  12   1.391
  13 str  14  13   1.387
  14 str  15  14   1.486
  15 str  16  15   1.211
  16 str  17  15   1.415
  17 str  18  17   1.440
  18 str  19  18   1.398
  19 str  20  19   1.383
  20 str  21  20   1.413
  21 str  22  21   1.467
  22 str  23  22   1.413
  23 str  24  23   1.385
  24 str  25  24   1.398
  25 str  26  25   1.398
  26 str  27  22   1.413
  27 str  27  26   1.385
  28 str  28  21   1.411
  29 str  29  18   1.399
  30 str  29  28   1.382
  31 str  30  17   1.414
  32 str  31  30   1.211
  33 str  32  30   1.484
  34 str  33  32   1.389
  35 str  34  33   1.389
  36 str  35  34   1.406
  37 str  36  35   1.456
  38 str  37  36   1.405
  39 str  38  37   1.391
  40 str  39  38   1.387
  41 str  40   4   1.395
  42 str  40  39   1.495
  43 str  41  40   1.215
  44 str  42   7   1.409
  45 str  42  39   1.409
  46 str  43  10   1.425
  47 str  43  36   1.426
  48 str  43  42   1.425
  49 str  44  11   1.428
  50 str  44  35   1.427
  51 str  45  14   1.410
  52 str  45  32   1.414
  53 str  45  44   1.427
  54 str  46   1   1.093
  55 str  47   1   1.089
  56 str  48   1   1.093
  57 str  49   2   1.087
  58 str  50   3   1.089
  59 str  51   3   1.093
  60 str  52   3   1.093
  61 str  53   8   1.082
  62 str  54   9   1.081
  63 str  55  12   1.081
  64 str  56  13   1.082
  65 str  57  19   1.081
  66 str  58  20   1.082
  67 str  59  23   1.083
  68 str  60  24   1.083
  69 str  61  25   1.084
  70 str  62  26   1.083
  71 str  63  27   1.083
  72 str  64  28   1.082
  73 str  65  29   1.082
  74 str  66  33   1.083
  75 str  67  34   1.081
  76 str  68  37   1.081
  77 str  69  38   1.082
 nber stretches=          77
  78 ben   1   2   3
  79 prop tor   1   2   3  50
  80 prop tor   1   2   3  51
  81 prop tor   1   2   3  52
  82 ben   1   2   4
  83 prop tor   1   2   4   5
  84 prop tor   1   2   4  40
  85 ben   1   2  49
  86 ben   2   1  46
  87 ben   2   1  47
  88 ben   2   1  48
  89 ben   2   3  50
  90 ben   2   3  51
  91 ben   2   3  52
  92 ben   2   4   5
  93 prop tor   2   4   5   6
  94 prop tor   2   4   5   7
  95 ben   2   4  40
  96 prop tor   2   4  40  39
  97 prop tor   2   4  40  41
  98 ben   3   2   4
  99 prop tor   3   2   4   5
 100 prop tor   3   2   4  40
 101 ben   3   2  49
 102 prop tor   4   2   3  50
 103 prop tor   4   2   3  51
 104 prop tor   4   2   3  52
 105 ben   4   2  49
 106 ben   4   5   6
 107 ben   4   5   7
 108 prop tor   4   5   7   8
 109 prop tor   4   5   7  42
 110 ben   4  40  39
 111 ben   4  40  41
 112 ben   5   4  40
 113 prop tor   5   4  40  39
 114 prop tor   5   4  40  41
 115 ben   5   7   8
 116 prop tor   5   7   8   9
 117 prop tor   5   7   8  53
 118 ben   5   7  42
 119 prop tor   5   7  42  39
 120 prop tor   5   7  42  43
 121 ben   6   5   7
 122 prop tor   6   5   7   8
 123 prop tor   6   5   7  42
 124 ben   7   8   9
 125 prop tor   7   8   9  10
 126 prop tor   7   8   9  54
 127 ben   7   8  53
 128 ben   7  42  39
 129 ben   7  42  43
 130 prop tor   7  42  43  10
 131 prop tor   7  42  43  36
 132 ben   8   7  42
 133 prop tor   8   7  42  39
 134 prop tor   8   7  42  43
 135 ben   8   9  10
 136 prop tor   8   9  10  11
 137 prop tor   8   9  10  43
 138 ben   8   9  54
 139 ben   9   8  53
 140 ben   9  10  11
 141 prop tor   9  10  11  12
 142 prop tor   9  10  11  44
 143 ben   9  10  43
 144 prop tor   9  10  43  36
 145 prop tor   9  10  43  42
 146 ben  10   9  54
 147 ben  10  11  12
 148 prop tor  10  11  12  13
 149 prop tor  10  11  12  55
 150 ben  10  11  44
 151 prop tor  10  11  44  35
 152 prop tor  10  11  44  45
 153 ben  10  43  36
 154 ben  10  43  42
 155 ben  11  10  43
 156 prop tor  11  10  43  36
 157 prop tor  11  10  43  42
 158 ben  11  12  13
 159 prop tor  11  12  13  14
 160 prop tor  11  12  13  56
 161 ben  11  12  55
 162 ben  11  44  35
 163 ben  11  44  45
 164 prop tor  11  44  45  14
 165 prop tor  11  44  45  32
 166 ben  12  11  44
 167 prop tor  12  11  44  35
 168 prop tor  12  11  44  45
 169 ben  12  13  14
 170 prop tor  12  13  14  15
 171 prop tor  12  13  14  45
 172 ben  12  13  56
 173 ben  13  12  55
 174 ben  13  14  15
 175 prop tor  13  14  15  16
 176 prop tor  13  14  15  17
 177 ben  13  14  45
 178 prop tor  13  14  45  32
 179 prop tor  13  14  45  44
 180 ben  14  13  56
 181 ben  14  15  16
 182 ben  14  15  17
 183 prop tor  14  15  17  18
 184 prop tor  14  15  17  30
 185 ben  14  45  32
 186 ben  14  45  44
 187 ben  15  14  45
 188 prop tor  15  14  45  32
 189 prop tor  15  14  45  44
 190 ben  15  17  18
 191 prop tor  15  17  18  19
 192 prop tor  15  17  18  29
 193 ben  15  17  30
 194 prop tor  15  17  30  31
 195 prop tor  15  17  30  32
 196 ben  16  15  17
 197 prop tor  16  15  17  18
 198 prop tor  16  15  17  30
 199 ben  17  18  19
 200 prop tor  17  18  19  20
 201 prop tor  17  18  19  57
 202 ben  17  18  29
 203 prop tor  17  18  29  28
 204 prop tor  17  18  29  65
 205 ben  17  30  31
 206 ben  17  30  32
 207 prop tor  17  30  32  33
 208 prop tor  17  30  32  45
 209 ben  18  17  30
 210 prop tor  18  17  30  31
 211 prop tor  18  17  30  32
 212 ben  18  19  20
 213 prop tor  18  19  20  21
 214 prop tor  18  19  20  58
 215 ben  18  19  57
 216 ben  18  29  28
 217 ben  18  29  65
 218 ben  19  18  29
 219 prop tor  19  18  29  28
 220 prop tor  19  18  29  65
 221 ben  19  20  21
 222 prop tor  19  20  21  22
 223 prop tor  19  20  21  28
 224 ben  19  20  58
 225 ben  20  19  57
 226 ben  20  21  22
 227 prop tor  20  21  22  23
 228 prop tor  20  21  22  27
 229 ben  20  21  28
 230 prop tor  20  21  28  29
 231 prop tor  20  21  28  64
 232 ben  21  20  58
 233 ben  21  22  23
 234 prop tor  21  22  23  24
 235 prop tor  21  22  23  59
 236 ben  21  22  27
 237 prop tor  21  22  27  26
 238 prop tor  21  22  27  63
 239 ben  21  28  29
 240 prop tor  21  28  29  18
 241 prop tor  21  28  29  65
 242 ben  21  28  64
 243 ben  22  21  28
 244 prop tor  22  21  28  29
 245 prop tor  22  21  28  64
 246 ben  22  23  24
 247 prop tor  22  23  24  25
 248 prop tor  22  23  24  60
 249 ben  22  23  59
 250 ben  22  27  26
 251 ben  22  27  63
 252 ben  23  22  27
 253 prop tor  23  22  27  26
 254 prop tor  23  22  27  63
 255 ben  23  24  25
 256 prop tor  23  24  25  26
 257 prop tor  23  24  25  61
 258 ben  23  24  60
 259 ben  24  23  59
 260 ben  24  25  26
 261 prop tor  24  25  26  27
 262 prop tor  24  25  26  62
 263 ben  24  25  61
 264 ben  25  24  60
 265 ben  25  26  27
 266 prop tor  25  26  27  22
 267 prop tor  25  26  27  63
 268 ben  25  26  62
 269 ben  26  25  61
 270 ben  26  27  63
 271 prop tor  27  22  23  24
 272 prop tor  27  22  23  59
 273 ben  27  26  62
 274 prop tor  28  21  22  23
 275 prop tor  28  21  22  27
 276 ben  28  29  65
 277 prop tor  29  18  19  20
 278 prop tor  29  18  19  57
 279 ben  29  28  64
 280 prop tor  30  17  18  19
 281 prop tor  30  17  18  29
 282 ben  30  32  33
 283 prop tor  30  32  33  34
 284 prop tor  30  32  33  66
 285 ben  30  32  45
 286 prop tor  30  32  45  14
 287 prop tor  30  32  45  44
 288 ben  31  30  32
 289 prop tor  31  30  32  33
 290 prop tor  31  30  32  45
 291 ben  32  33  34
 292 prop tor  32  33  34  35
 293 prop tor  32  33  34  67
 294 ben  32  33  66
 295 ben  32  45  44
 296 ben  33  32  45
 297 prop tor  33  32  45  14
 298 prop tor  33  32  45  44
 299 ben  33  34  35
 300 prop tor  33  34  35  36
 301 prop tor  33  34  35  44
 302 ben  33  34  67
 303 ben  34  33  66
 304 ben  34  35  36
 305 prop tor  34  35  36  37
 306 prop tor  34  35  36  43
 307 ben  34  35  44
 308 prop tor  34  35  44  11
 309 prop tor  34  35  44  45
 310 ben  35  34  67
 311 ben  35  36  37
 312 prop tor  35  36  37  38
 313 prop tor  35  36  37  68
 314 ben  35  36  43
 315 prop tor  35  36  43  10
 316 prop tor  35  36  43  42
 317 ben  35  44  45
 318 prop tor  35  44  45  14
 319 prop tor  35  44  45  32
 320 ben  36  35  44
 321 prop tor  36  35  44  11
 322 prop tor  36  35  44  45
 323 ben  36  37  38
 324 prop tor  36  37  38  39
 325 prop tor  36  37  38  69
 326 ben  36  37  68
 327 ben  36  43  42
 328 ben  37  36  43
 329 prop tor  37  36  43  10
 330 prop tor  37  36  43  42
 331 ben  37  38  39
 332 prop tor  37  38  39  40
 333 prop tor  37  38  39  42
 334 ben  37  38  69
 335 ben  38  37  68
 336 ben  38  39  40
 337 prop tor  38  39  40   4
 338 prop tor  38  39  40  41
 339 ben  38  39  42
 340 prop tor  38  39  42   7
 341 prop tor  38  39  42  43
 342 ben  39  38  69
 343 ben  39  40  41
 344 ben  39  42  43
 345 prop tor  39  42  43  10
 346 prop tor  39  42  43  36
 347 prop tor  40   4   5   6
 348 prop tor  40   4   5   7
 349 ben  40  39  42
 350 prop tor  40  39  42   7
 351 prop tor  40  39  42  43
 352 prop tor  42   7   8   9
 353 prop tor  42   7   8  53
 354 prop tor  42  39  40   4
 355 prop tor  42  39  40  41
 356 prop tor  43  10  11  12
 357 prop tor  43  10  11  44
 358 prop tor  43  36  37  38
 359 prop tor  43  36  37  68
 360 prop tor  44  11  12  13
 361 prop tor  44  11  12  55
 362 prop tor  44  35  36  37
 363 prop tor  44  35  36  43
 364 prop tor  45  14  15  16
 365 prop tor  45  14  15  17
 366 prop tor  45  32  33  34
 367 prop tor  45  32  33  66
 368 prop tor  46   1   2   3
 369 prop tor  46   1   2   4
 370 prop tor  46   1   2  49
 371 ben  46   1  47
 372 ben  46   1  48
 373 prop tor  47   1   2   3
 374 prop tor  47   1   2   4
 375 prop tor  47   1   2  49
 376 ben  47   1  48
 377 prop tor  48   1   2   3
 378 prop tor  48   1   2   4
 379 prop tor  48   1   2  49
 380 prop tor  49   2   3  50
 381 prop tor  49   2   3  51
 382 prop tor  49   2   3  52
 383 prop tor  49   2   4   5
 384 prop tor  49   2   4  40
 385 ben  50   3  51
 386 ben  50   3  52
 387 ben  51   3  52
 388 prop tor  53   8   9  10
 389 prop tor  53   8   9  54
 390 prop tor  54   9  10  11
 391 prop tor  54   9  10  43
 392 prop tor  55  12  13  14
 393 prop tor  55  12  13  56
 394 prop tor  56  13  14  15
 395 prop tor  56  13  14  45
 396 prop tor  57  19  20  21
 397 prop tor  57  19  20  58
 398 prop tor  58  20  21  22
 399 prop tor  58  20  21  28
 400 prop tor  59  23  24  25
 401 prop tor  59  23  24  60
 402 prop tor  60  24  25  26
 403 prop tor  60  24  25  61
 404 prop tor  61  25  26  27
 405 prop tor  61  25  26  62
 406 prop tor  62  26  27  22
 407 prop tor  62  26  27  63
 408 prop tor  64  28  29  18
 409 prop tor  64  28  29  65
 410 prop tor  66  33  34  35
 411 prop tor  66  33  34  67
 412 prop tor  67  34  35  36
 413 prop tor  67  34  35  44
 414 prop tor  68  37  38  39
 415 prop tor  68  37  38  69
 416 prop tor  69  38  39  40
 417 prop tor  69  38  39  42
 nber bend=             132
 nber lin bend=           0
 nber prop tor=         208
 nber impr tor=           0
 nber tot redund int=         417
 Eigenvalues of G in red int coords
    Gval -0.00000000 -0.00000000 -0.00000000 -0.00000000 -0.00000000 -0.00000000 -0.00000000 -0.00000000
    Gval -0.00000000 -0.00000000 -0.00000000 -0.00000000 -0.00000000 -0.00000000 -0.00000000 -0.00000000
    Gval -0.00000000 -0.00000000 -0.00000000 -0.00000000 -0.00000000 -0.00000000 -0.00000000 -0.00000000
    Gval -0.00000000 -0.00000000 -0.00000000 -0.00000000 -0.00000000 -0.00000000 -0.00000000 -0.00000000
    Gval -0.00000000 -0.00000000 -0.00000000 -0.00000000 -0.00000000 -0.00000000 -0.00000000 -0.00000000
    Gval -0.00000000 -0.00000000 -0.00000000 -0.00000000 -0.00000000 -0.00000000 -0.00000000 -0.00000000
    Gval -0.00000000 -0.00000000 -0.00000000 -0.00000000 -0.00000000 -0.00000000 -0.00000000 -0.00000000
    Gval -0.00000000 -0.00000000 -0.00000000 -0.00000000 -0.00000000 -0.00000000 -0.00000000 -0.00000000
    Gval -0.00000000 -0.00000000 -0.00000000 -0.00000000 -0.00000000 -0.00000000 -0.00000000 -0.00000000
    Gval -0.00000000 -0.00000000 -0.00000000 -0.00000000 -0.00000000 -0.00000000 -0.00000000 -0.00000000
    Gval -0.00000000 -0.00000000 -0.00000000 -0.00000000 -0.00000000 -0.00000000 -0.00000000 -0.00000000
    Gval -0.00000000 -0.00000000 -0.00000000 -0.00000000 -0.00000000 -0.00000000 -0.00000000 -0.00000000
    Gval -0.00000000 -0.00000000 -0.00000000 -0.00000000 -0.00000000 -0.00000000 -0.00000000 -0.00000000
    Gval -0.00000000 -0.00000000  0.00000000  0.00000000  0.00000000  0.00000000  0.00000000  0.00000000
    Gval  0.00000000  0.00000000  0.00000000  0.00000000  0.00000000  0.00000000  0.00000000  0.00000000
    Gval  0.00000000  0.00000000  0.00000000  0.00000000  0.00000000  0.00000000  0.00000000  0.00000000
    Gval  0.00000000  0.00000000  0.00000000  0.00000000  0.00000000  0.00000000  0.00000000  0.00000000
    Gval  0.00000000  0.00000000  0.00000000  0.00000000  0.00000000  0.00000000  0.00000000  0.00000000
    Gval  0.00000000  0.00000000  0.00000000  0.00000000  0.00000000  0.00000000  0.00000000  0.00000000
    Gval  0.00000000  0.00000000  0.00000000  0.00000000  0.00000000  0.00000000  0.00000000  0.00000000
    Gval  0.00000000  0.00000000  0.00000000  0.00000000  0.00000000  0.00000000  0.00000000  0.00000000
    Gval  0.00000000  0.00000000  0.00000000  0.00000000  0.00000000  0.00000000  0.00000000  0.00000000
    Gval  0.00000000  0.00000000  0.00000000  0.00000000  0.00000000  0.00000000  0.00000000  0.00000000
    Gval  0.00000000  0.00000000  0.00000000  0.00000000  0.00000000  0.00000000  0.00000000  0.00000000
    Gval  0.00000000  0.00000000  0.00000000  0.00000000  0.00000000  0.00000000  0.00000000  0.00000000
    Gval  0.00000000  0.00000000  0.00000000  0.00000000  0.00000000  0.00000000  0.00000000  0.00000000
    Gval  0.00000000  0.00000000  0.00000000  0.00000000  0.00000000  0.00000000  0.00000000  0.00000000
    Gval  0.00000022  0.00000040  0.00000123  0.00000153  0.00000279  0.00000390  0.00000476  0.00000621
    Gval  0.00000644  0.00000869  0.00001067  0.00001119  0.00001162  0.00001498  0.00001514  0.00001608
    Gval  0.00001653  0.00001800  0.00001832  0.00001897  0.00002168  0.00002177  0.00002408  0.00002494
    Gval  0.00002555  0.00002892  0.00003002  0.00003460  0.00003629  0.00003993  0.00004383  0.00004898
    Gval  0.00004907  0.00005051  0.00005238  0.00005327  0.00005385  0.00005697  0.00005722  0.00005871
    Gval  0.00006240  0.00006556  0.00006581  0.00006815  0.00006962  0.00007284  0.00007512  0.00008138
    Gval  0.00008252  0.00008528  0.00008831  0.00008875  0.00008891  0.00009322  0.00009490  0.00009897
    Gval  0.00010547  0.00011703  0.00011836  0.00012102  0.00012258  0.00012303  0.00013442  0.00013626
    Gval  0.00013714  0.00013956  0.00014305  0.00015220  0.00015874  0.00016064  0.00017177  0.00017543
    Gval  0.00018087  0.00020167  0.00022267  0.00022580  0.00022998  0.00023317  0.00024168  0.00026277
    Gval  0.00027168  0.00028443  0.00029022  0.00029360  0.00029506  0.00030131  0.00034122  0.00035772
    Gval  0.00036116  0.00036360  0.00037963  0.00038191  0.00038447  0.00039274  0.00039383  0.00039867
    Gval  0.00042337  0.00042824  0.00043167  0.00043506  0.00044117  0.00044303  0.00045973  0.00046229
    Gval  0.00046758  0.00047346  0.00048045  0.00049463  0.00051794  0.00053422  0.00053697  0.00054314
    Gval  0.00055471  0.00055601  0.00055613  0.00056761  0.00057286  0.00059305  0.00059352  0.00059850
    Gval  0.00059859  0.00059934  0.00059963  0.00059993  0.00060036  0.00060216  0.00060438  0.00062347
    Gval  0.00063079  0.00063849  0.00064149  0.00064505  0.00064571  0.00064761  0.00065011  0.00066060
    Gval  0.00067169  0.00069467  0.00069881  0.00073474  0.00079935  0.00081829  0.00093185  0.00099276
    Gval  0.00100055  0.00104245  0.00107878  0.00109505  0.00109603  0.00109675  0.00109730  0.00110973
    Gval  0.00111210  0.00113864  0.00113975  0.00115668  0.00116363  0.00116392  0.00116416  0.00116450
    Gval  0.00117289  0.00117319  0.00117499  0.00117521  0.00117565  0.00120364  0.00126498  0.00129970
    Gval  0.00136803  0.00142890  0.00148764  0.00154170  0.00164864  0.00171873  0.00177696  0.00189666
    Gval  0.00192787  0.00229317  0.00234213  0.00235053  0.00236115  0.00248745  0.00253572  0.00253786
    Gval  0.00256572  0.00279515  0.00291793  0.00302484  0.00304136  0.00307986  0.00310266  0.00312787
    Gval  0.00364895  0.00366280  0.00366463  0.00371100  0.00371262  0.00373890  0.00375661  0.00396100
    Gval  0.00406663
  2.240239389749426E-007  2.240239389749426E-007
  4.040180797261137E-007  2.240239389749426E-007
  1.233143655121152E-006  2.240239389749426E-007
  1.534303697361788E-006  2.240239389749426E-007
  2.788643444794240E-006  2.240239389749426E-007
  3.902311840924349E-006  2.240239389749426E-007
  4.759081211534620E-006  2.240239389749426E-007
  6.211400861434607E-006  2.240239389749426E-007
  6.439317918266595E-006  2.240239389749426E-007
  8.694555422713610E-006  2.240239389749426E-007
  1.067167823896947E-005  2.240239389749426E-007
  1.118724100559295E-005  2.240239389749426E-007
  1.161823008769367E-005  2.240239389749426E-007
  1.497681757960396E-005  2.240239389749426E-007
  1.514138252620919E-005  2.240239389749426E-007
  1.608220608809978E-005  2.240239389749426E-007
  1.652828168918852E-005  2.240239389749426E-007
  1.800069691791480E-005  2.240239389749426E-007
  1.832033928548462E-005  2.240239389749426E-007
  1.896740994774021E-005  2.240239389749426E-007
  2.168051974762632E-005  2.240239389749426E-007
  2.177124048914477E-005  2.240239389749426E-007
  2.408022903505184E-005  2.240239389749426E-007
  2.493581733349537E-005  2.240239389749426E-007
  2.555476186476288E-005  2.240239389749426E-007
  2.892101635560859E-005  2.240239389749426E-007
  3.001572924353308E-005  2.240239389749426E-007
  3.459810073164474E-005  2.240239389749426E-007
  3.629398388866891E-005  2.240239389749426E-007
  3.992616008807290E-005  2.240239389749426E-007
  4.383245269765802E-005  2.240239389749426E-007
  4.898175467762047E-005  2.240239389749426E-007
  4.906548284985342E-005  2.240239389749426E-007
  5.051282480586233E-005  2.240239389749426E-007
  5.237534845580732E-005  2.240239389749426E-007
  5.327494176909117E-005  2.240239389749426E-007
  5.384825445536506E-005  2.240239389749426E-007
  5.696683208758034E-005  2.240239389749426E-007
  5.721840094439207E-005  2.240239389749426E-007
  5.871101316518255E-005  2.240239389749426E-007
  6.240006609613311E-005  2.240239389749426E-007
  6.556213906152452E-005  2.240239389749426E-007
  6.581203413225979E-005  2.240239389749426E-007
  6.815280054581355E-005  2.240239389749426E-007
  6.962314734316266E-005  2.240239389749426E-007
  7.284286806981607E-005  2.240239389749426E-007
  7.512371372492899E-005  2.240239389749426E-007
  8.138180498979696E-005  2.240239389749426E-007
  8.252407717352884E-005  2.240239389749426E-007
  8.527963773910880E-005  2.240239389749426E-007
  8.831234958873051E-005  2.240239389749426E-007
  8.875445120030842E-005  2.240239389749426E-007
  8.891305328425050E-005  2.240239389749426E-007
  9.321624815147408E-005  2.240239389749426E-007
  9.489579903216010E-005  2.240239389749426E-007
  9.897217262714241E-005  2.240239389749426E-007
  1.054682079169349E-004  2.240239389749426E-007
  1.170342610025019E-004  2.240239389749426E-007
  1.183555487145955E-004  2.240239389749426E-007
  1.210231539228792E-004  2.240239389749426E-007
  1.225816964885872E-004  2.240239389749426E-007
  1.230300764633523E-004  2.240239389749426E-007
  1.344213904396274E-004  2.240239389749426E-007
  1.362638703047308E-004  2.240239389749426E-007
  1.371417530429806E-004  2.240239389749426E-007
  1.395597828876694E-004  2.240239389749426E-007
  1.430470817666152E-004  2.240239389749426E-007
  1.522026432776672E-004  2.240239389749426E-007
  1.587438483976542E-004  2.240239389749426E-007
  1.606355502985772E-004  2.240239389749426E-007
  1.717695541933574E-004  2.240239389749426E-007
  1.754306945901747E-004  2.240239389749426E-007
  1.808712043143816E-004  2.240239389749426E-007
  2.016723787325901E-004  2.240239389749426E-007
  2.226663785012387E-004  2.240239389749426E-007
  2.258031894845422E-004  2.240239389749426E-007
  2.299762634100929E-004  2.240239389749426E-007
  2.331677740415081E-004  2.240239389749426E-007
  2.416807181632287E-004  2.240239389749426E-007
  2.627658949338059E-004  2.240239389749426E-007
  2.716756141732523E-004  2.240239389749426E-007
  2.844308537035852E-004  2.240239389749426E-007
  2.902195512040841E-004  2.240239389749426E-007
  2.935993646256482E-004  2.240239389749426E-007
  2.950633078842009E-004  2.240239389749426E-007
  3.013123309694996E-004  2.240239389749426E-007
  3.412213246697591E-004  2.240239389749426E-007
  3.577221723659912E-004  2.240239389749426E-007
  3.611637755675673E-004  2.240239389749426E-007
  3.635976066518782E-004  2.240239389749426E-007
  3.796255318105327E-004  2.240239389749426E-007
  3.819131706236352E-004  2.240239389749426E-007
  3.844701009601095E-004  2.240239389749426E-007
  3.927443377884703E-004  2.240239389749426E-007
  3.938345359320289E-004  2.240239389749426E-007
  3.986653640935600E-004  2.240239389749426E-007
  4.233683169001691E-004  2.240239389749426E-007
  4.282386069723385E-004  2.240239389749426E-007
  4.316691341669648E-004  2.240239389749426E-007
  4.350634130949652E-004  2.240239389749426E-007
  4.411664144639268E-004  2.240239389749426E-007
  4.430269579373737E-004  2.240239389749426E-007
  4.597285120007422E-004  2.240239389749426E-007
  4.622906436527958E-004  2.240239389749426E-007
  4.675819203450898E-004  2.240239389749426E-007
  4.734608013732313E-004  2.240239389749426E-007
  4.804498172974361E-004  2.240239389749426E-007
  4.946328018672168E-004  2.240239389749426E-007
  5.179402545100693E-004  2.240239389749426E-007
  5.342212446919756E-004  2.240239389749426E-007
  5.369723972356826E-004  2.240239389749426E-007
  5.431365996277045E-004  2.240239389749426E-007
  5.547065158578690E-004  2.240239389749426E-007
  5.560145734325006E-004  2.240239389749426E-007
  5.561332200014342E-004  2.240239389749426E-007
  5.676071871037700E-004  2.240239389749426E-007
  5.728637988072772E-004  2.240239389749426E-007
  5.930510465223513E-004  2.240239389749426E-007
  5.935201997960080E-004  2.240239389749426E-007
  5.985016096030002E-004  2.240239389749426E-007
  5.985901483057485E-004  2.240239389749426E-007
  5.993438055236378E-004  2.240239389749426E-007
  5.996293977696258E-004  2.240239389749426E-007
  5.999336505330019E-004  2.240239389749426E-007
  6.003576957966892E-004  2.240239389749426E-007
  6.021627550390493E-004  2.240239389749426E-007
  6.043769626269015E-004  2.240239389749426E-007
  6.234657723798233E-004  2.240239389749426E-007
  6.307887924688032E-004  2.240239389749426E-007
  6.384897599694527E-004  2.240239389749426E-007
  6.414850233863746E-004  2.240239389749426E-007
  6.450492331075839E-004  2.240239389749426E-007
  6.457139027677413E-004  2.240239389749426E-007
  6.476124928368168E-004  2.240239389749426E-007
  6.501074033447635E-004  2.240239389749426E-007
  6.606015002761121E-004  2.240239389749426E-007
  6.716889397901194E-004  2.240239389749426E-007
  6.946650394786241E-004  2.240239389749426E-007
  6.988124775808279E-004  2.240239389749426E-007
  7.347414721646237E-004  2.240239389749426E-007
  7.993466527251442E-004  2.240239389749426E-007
  8.182913454614540E-004  2.240239389749426E-007
  9.318523975225232E-004  2.240239389749426E-007
  9.927648843484392E-004  2.240239389749426E-007
  1.000552368933573E-003  2.240239389749426E-007
  1.042446017946216E-003  2.240239389749426E-007
  1.078776844803339E-003  2.240239389749426E-007
  1.095047762833177E-003  2.240239389749426E-007
  1.096027112995419E-003  2.240239389749426E-007
  1.096748968675681E-003  2.240239389749426E-007
  1.097301958990394E-003  2.240239389749426E-007
  1.109726389476068E-003  2.240239389749426E-007
  1.112104257047358E-003  2.240239389749426E-007
  1.138642621756005E-003  2.240239389749426E-007
  1.139750393162696E-003  2.240239389749426E-007
  1.156677439817852E-003  2.240239389749426E-007
  1.163628334290805E-003  2.240239389749426E-007
  1.163915389479076E-003  2.240239389749426E-007
  1.164157650225756E-003  2.240239389749426E-007
  1.164500444152039E-003  2.240239389749426E-007
  1.172888344483400E-003  2.240239389749426E-007
  1.173188062248658E-003  2.240239389749426E-007
  1.174991363814538E-003  2.240239389749426E-007
  1.175205436812737E-003  2.240239389749426E-007
  1.175647485644365E-003  2.240239389749426E-007
  1.203641806373727E-003  2.240239389749426E-007
  1.264977234424578E-003  2.240239389749426E-007
  1.299703922770243E-003  2.240239389749426E-007
  1.368025130608131E-003  2.240239389749426E-007
  1.428901293093081E-003  2.240239389749426E-007
  1.487640441545099E-003  2.240239389749426E-007
  1.541695726332428E-003  2.240239389749426E-007
  1.648640044689661E-003  2.240239389749426E-007
  1.718725239874671E-003  2.240239389749426E-007
  1.776959843954572E-003  2.240239389749426E-007
  1.896664114457205E-003  2.240239389749426E-007
  1.927870517691884E-003  2.240239389749426E-007
  2.293169518589820E-003  2.240239389749426E-007
  2.342129380291328E-003  2.240239389749426E-007
  2.350529506869420E-003  2.240239389749426E-007
  2.361154617864322E-003  2.240239389749426E-007
  2.487446323546477E-003  2.240239389749426E-007
  2.535717699865052E-003  2.240239389749426E-007
  2.537863731692570E-003  2.240239389749426E-007
  2.565718720099381E-003  2.240239389749426E-007
  2.795151387789894E-003  2.240239389749426E-007
  2.917929030769899E-003  2.240239389749426E-007
  3.024844367503888E-003  2.240239389749426E-007
  3.041359162164227E-003  2.240239389749426E-007
  3.079861461212925E-003  2.240239389749426E-007
  3.102657379402783E-003  2.240239389749426E-007
  3.127869069534442E-003  2.240239389749426E-007
  3.648948230891076E-003  2.240239389749426E-007
  3.662797734966279E-003  2.240239389749426E-007
  3.664631726891205E-003  2.240239389749426E-007
  3.711000618544506E-003  2.240239389749426E-007
  3.712620962507547E-003  2.240239389749426E-007
  3.738904811784284E-003  2.240239389749426E-007
  3.756610232685531E-003  2.240239389749426E-007
  3.961003333613307E-003  2.240239389749426E-007
  4.066632278038636E-003  2.240239389749426E-007
 cut=1d-8, nber non-redundant internal coords=         201
 Check on Eigenvals of non-red overlap matrix:
  0.00000022  0.00000040  0.00000123  0.00000153  0.00000279  0.00000390  0.00000476  0.00000621
  0.00000644  0.00000869  0.00001067  0.00001119  0.00001162  0.00001498  0.00001514  0.00001608
  0.00001653  0.00001800  0.00001832  0.00001897  0.00002168  0.00002177  0.00002408  0.00002494
  0.00002555  0.00002892  0.00003002  0.00003460  0.00003629  0.00003993  0.00004383  0.00004898
  0.00004907  0.00005051  0.00005238  0.00005327  0.00005385  0.00005697  0.00005722  0.00005871
  0.00006240  0.00006556  0.00006581  0.00006815  0.00006962  0.00007284  0.00007512  0.00008138
  0.00008252  0.00008528  0.00008831  0.00008875  0.00008891  0.00009322  0.00009490  0.00009897
  0.00010547  0.00011703  0.00011836  0.00012102  0.00012258  0.00012303  0.00013442  0.00013626
  0.00013714  0.00013956  0.00014305  0.00015220  0.00015874  0.00016064  0.00017177  0.00017543
  0.00018087  0.00020167  0.00022267  0.00022580  0.00022998  0.00023317  0.00024168  0.00026277
  0.00027168  0.00028443  0.00029022  0.00029360  0.00029506  0.00030131  0.00034122  0.00035772
  0.00036116  0.00036360  0.00037963  0.00038191  0.00038447  0.00039274  0.00039383  0.00039867
  0.00042337  0.00042824  0.00043167  0.00043506  0.00044117  0.00044303  0.00045973  0.00046229
  0.00046758  0.00047346  0.00048045  0.00049463  0.00051794  0.00053422  0.00053697  0.00054314
  0.00055471  0.00055601  0.00055613  0.00056761  0.00057286  0.00059305  0.00059352  0.00059850
  0.00059859  0.00059934  0.00059963  0.00059993  0.00060036  0.00060216  0.00060438  0.00062347
  0.00063079  0.00063849  0.00064149  0.00064505  0.00064571  0.00064761  0.00065011  0.00066060
  0.00067169  0.00069467  0.00069881  0.00073474  0.00079935  0.00081829  0.00093185  0.00099276
  0.00100055  0.00104245  0.00107878  0.00109505  0.00109603  0.00109675  0.00109730  0.00110973
  0.00111210  0.00113864  0.00113975  0.00115668  0.00116363  0.00116392  0.00116416  0.00116450
  0.00117289  0.00117319  0.00117499  0.00117521  0.00117565  0.00120364  0.00126498  0.00129970
  0.00136803  0.00142890  0.00148764  0.00154170  0.00164864  0.00171873  0.00177696  0.00189666
  0.00192787  0.00229317  0.00234213  0.00235053  0.00236115  0.00248745  0.00253572  0.00253786
  0.00256572  0.00279515  0.00291793  0.00302484  0.00304136  0.00307986  0.00310266  0.00312787
  0.00364895  0.00366280  0.00366463  0.00371100  0.00371262  0.00373890  0.00375661  0.00396100
  0.00406663
 Checking for correct frequencies
 recalc frequencies=
    -0.0   -0.0   -0.0    0.0    0.0    0.0   11.0   20.6   21.6   31.3
    33.7   52.5   58.0   70.9   74.7   75.6   87.7   95.4  104.7  122.0
   127.4  152.9  163.8  179.3  185.0  198.8  212.6  222.3  235.3  238.1
   241.3  264.4  280.1  292.5  311.8  324.7  334.6  359.0  372.8  388.5
   394.1  400.7  412.8  415.3  429.1  433.4  434.7  437.2  441.3  446.7
   466.3  471.8  478.7  480.3  505.5  508.3  518.4  527.2  549.3  562.3
   574.5  581.4  586.7  616.7  617.6  622.1  635.6  640.5  649.0  665.0
   690.7  708.6  712.5  718.2  719.8  730.0  743.1  747.9  758.5  768.9
   776.6  783.5  792.0  802.2  812.3  819.3  824.7  833.5  844.9  850.4
   857.3  868.8  870.1  872.6  875.1  905.2  921.3  947.5  949.0  958.0
   966.7  974.6  978.3  983.4  995.9 1005.3 1006.4 1007.6 1014.3 1016.5
  1017.6 1020.6 1030.0 1050.7 1064.4 1084.4 1103.5 1114.5 1145.1 1156.1
  1156.6 1157.7 1166.6 1167.7 1187.5 1191.3 1194.7 1204.8 1209.4 1209.9
  1213.5 1223.1 1238.1 1258.3 1262.3 1277.9 1288.1 1297.6 1313.2 1320.5
  1322.9 1339.2 1339.6 1344.4 1352.4 1365.7 1371.4 1376.2 1378.3 1388.0
  1405.2 1410.3 1412.8 1422.9 1440.7 1444.7 1454.3 1482.7 1485.0 1485.7
  1486.2 1493.7 1500.0 1503.5 1509.3 1521.3 1532.5 1538.8 1561.3 1564.1
  1574.6 1584.5 1588.2 1603.2 1611.7 1612.5 1615.2 1627.0 1631.0 1714.6
  1728.1 1758.8 1763.4 3040.7 3044.1 3100.5 3103.7 3117.5 3134.9 3146.1
  3178.1 3184.0 3190.6 3195.4 3197.9 3201.2 3202.5 3202.9 3204.4 3208.4
  3208.5 3212.3 3215.1 3215.2 3218.2 3226.3 3227.0
 recalc symmetries=
                                                                       
                                                                       
                                                                       
                                                                       
                                                                       
                                                                       
                                                                       
                                                                       
                                                                       
                                                                       
                                                                       
                                                                       
                                                                       
                                                                       
                                                                       
                                                                       
                                                                       
                                                                       
                                                                       
                                                                       
                                                  
 recalc freqs check OK
 Zero-point lengths:
 10.0000 10.0000 10.0000 10.0000 10.0000 10.0000 74.7703 54.6853 53.3909 44.3227
 42.7281 34.2167 32.5546 29.4321 28.6854 28.5203 26.4702 25.3862 24.2241 22.4406
 21.9635 20.0500 19.3687 18.5155 18.2255 17.5850 17.0018 16.6278 16.1626 16.0647
 15.9608 15.2462 14.8137 14.4960 14.0404 13.7576 13.5532 13.0837 12.8406 12.5771
 12.4880 12.3854 12.2013 12.1650 11.9676 11.9079 11.8910 11.8561 11.8017 11.7291
 11.4800 11.4134 11.3315 11.3118 11.0270 10.9963 10.8882 10.7966 10.5777 10.4549
 10.3427 10.2817 10.2350  9.9833  9.9760  9.9399  9.8337  9.7958  9.7316  9.6138
  9.4331  9.3129  9.2876  9.2507  9.2404  9.1759  9.0946  9.0650  9.0015  8.9405
  8.8963  8.8567  8.8094  8.7528  8.6984  8.6612  8.6329  8.5873  8.5289  8.5014
  8.4671  8.4109  8.4043  8.3924  8.3804  8.2398  8.1677  8.0537  8.0474  8.0095
  7.9734  7.9411  7.9259  7.9053  7.8556  7.8191  7.8146  7.8101  7.7843  7.7758
  7.7716  7.7601  7.7245  7.6482  7.5986  7.5283  7.4630  7.4261  7.3261  7.2913
  7.2896  7.2860  7.2583  7.2550  7.1941  7.1827  7.1724  7.1424  7.1286  7.1273
  7.1166  7.0887  7.0455  6.9888  6.9779  6.9351  6.9075  6.8821  6.8411  6.8224
  6.8160  6.7745  6.7734  6.7612  6.7414  6.7085  6.6944  6.6828  6.6777  6.6543
  6.6133  6.6014  6.5956  6.5721  6.5315  6.5225  6.5007  6.4382  6.4332  6.4318
  6.4307  6.4145  6.4010  6.3935  6.3813  6.3560  6.3329  6.3197  6.2740  6.2686
  6.2475  6.2281  6.2208  6.1915  6.1753  6.1738  6.1685  6.1461  6.1387  5.9871
  5.9636  5.9114  5.9036  4.4958  4.4933  4.4523  4.4500  4.4401  4.4277  4.4199
  4.3975  4.3935  4.3890  4.3856  4.3839  4.3817  4.3808  4.3805  4.3794  4.3767
  4.3767  4.3741  4.3722  4.3721  4.3701  4.3646  4.3641
 highest evec of mol 1
  0.0000  0.0000 -0.0000
  0.0000 -0.0000  0.0001
 -0.0000  0.0000  0.0000
 -0.0001 -0.0001 -0.0002
 -0.0000  0.0001 -0.0000
  0.0000 -0.0001  0.0000
  0.0000 -0.0003  0.0001
  0.0005  0.0044  0.0016
 -0.0021  0.0079 -0.0058
 -0.0001 -0.0003 -0.0003
  0.0001 -0.0002  0.0004
  0.0009  0.0108  0.0030
 -0.0012  0.0035 -0.0032
 -0.0000 -0.0002 -0.0000
  0.0000  0.0002  0.0000
  0.0000 -0.0001  0.0000
  0.0001 -0.0000  0.0002
  0.0000 -0.0001 -0.0000
  0.0002 -0.0001  0.0000
  0.0002 -0.0001 -0.0001
 -0.0000 -0.0000 -0.0001
  0.0000  0.0000  0.0001
  0.0001 -0.0002  0.0001
  0.0001 -0.0002 -0.0001
 -0.0001 -0.0000 -0.0002
 -0.0001  0.0002 -0.0000
 -0.0001  0.0002  0.0001
 -0.0003  0.0001 -0.0001
 -0.0002  0.0002  0.0002
 -0.0001 -0.0009 -0.0003
 -0.0001  0.0004 -0.0001
 -0.0008  0.0027 -0.0023
 -0.0094 -0.0668 -0.0282
  0.0443 -0.1576  0.1231
  0.0009  0.0042  0.0025
 -0.0011  0.0021 -0.0032
 -0.0151 -0.1679 -0.0490
  0.0163 -0.0452  0.0445
  0.0003  0.0029  0.0009
  0.0002 -0.0007  0.0006
 -0.0000  0.0004 -0.0000
  0.0000  0.0004  0.0000
 -0.0001  0.0013 -0.0001
 -0.0002  0.0014 -0.0004
 -0.0001  0.0004 -0.0002
 -0.0000 -0.0000 -0.0001
  0.0000 -0.0000  0.0000
 -0.0000 -0.0000  0.0001
 -0.0000 -0.0000 -0.0001
 -0.0000 -0.0000  0.0000
 -0.0000 -0.0000 -0.0001
  0.0001 -0.0000  0.0000
 -0.0016 -0.0141 -0.0049
  0.0074 -0.0261  0.0201
 -0.0031 -0.0364 -0.0107
  0.0037 -0.0115  0.0098
 -0.0005  0.0002 -0.0001
 -0.0004  0.0004  0.0005
 -0.0004  0.0005 -0.0003
 -0.0002  0.0006  0.0003
  0.0002  0.0001  0.0004
  0.0004 -0.0004  0.0003
  0.0002 -0.0006 -0.0003
  0.0008 -0.0003  0.0002
  0.0005 -0.0005 -0.0007
  0.0243  0.2145  0.0737
 -0.1486  0.5287 -0.4122
  0.0513  0.5644  0.1655
 -0.0480  0.1512 -0.1300
 generating redundant internal coords
         300        3600          69
 Adding extra bonds for z output only
           6           6           6           7           6           8
           6           6           6           6           6           6
           6           6           6           8           7           6
           6           6           6           6           6           6
           6           6           6           6           6           6
           8           6           6           6           6           6
           6           6           6           6           8           6
           6           6           6           1           1           1
           1           1           1           1           1           1
           1           1           1           1           1           1
           1           1           1           1           1           1
           1           1           1
 search for int coords
   1 str   2   1   1.531
   2 str   3   2   1.531
   3 str   4   2   1.507
   4 str   5   4   1.402
   5 str   6   5   1.214
   6 str   7   5   1.494
   7 str   8   7   1.387
   8 str   9   8   1.392
   9 str  10   9   1.404
  10 str  11  10   1.458
  11 str  12  11   1.403
  12 str  13  12   1.391
  13 str  14  13   1.387
  14 str  15  14   1.486
  15 str  16  15   1.211
  16 str  17  15   1.415
  17 str  18  17   1.440
  18 str  19  18   1.398
  19 str  20  19   1.383
  20 str  21  20   1.413
  21 str  22  21   1.467
  22 str  23  22   1.413
  23 str  24  23   1.385
  24 str  25  24   1.398
  25 str  26  25   1.398
  26 str  27  22   1.413
  27 str  27  26   1.385
  28 str  28  21   1.411
  29 str  29  18   1.399
  30 str  29  28   1.382
  31 str  30  17   1.414
  32 str  31  30   1.211
  33 str  32  30   1.484
  34 str  33  32   1.389
  35 str  34  33   1.389
  36 str  35  34   1.406
  37 str  36  35   1.456
  38 str  37  36   1.405
  39 str  38  37   1.391
  40 str  39  38   1.387
  41 str  40   4   1.395
  42 str  40  39   1.495
  43 str  41  40   1.215
  44 str  42   7   1.409
  45 str  42  39   1.409
  46 str  43  10   1.425
  47 str  43  36   1.426
  48 str  43  42   1.425
  49 str  44  11   1.428
  50 str  44  35   1.427
  51 str  45  14   1.410
  52 str  45  32   1.414
  53 str  45  44   1.427
  54 str  46   1   1.093
  55 str  47   1   1.089
  56 str  48   1   1.093
  57 str  49   2   1.087
  58 str  50   3   1.089
  59 str  51   3   1.093
  60 str  52   3   1.093
  61 str  53   8   1.082
  62 str  54   9   1.081
  63 str  55  12   1.081
  64 str  56  13   1.082
  65 str  57  19   1.081
  66 str  58  20   1.082
  67 str  59  23   1.083
  68 str  60  24   1.083
  69 str  61  25   1.084
  70 str  62  26   1.083
  71 str  63  27   1.083
  72 str  64  28   1.082
  73 str  65  29   1.082
  74 str  66  33   1.083
  75 str  67  34   1.081
  76 str  68  37   1.081
  77 str  69  38   1.082
 nber stretches=          77
  78 ben   1   2   3
  79 prop tor   1   2   3  50
  80 prop tor   1   2   3  51
  81 prop tor   1   2   3  52
  82 ben   1   2   4
  83 prop tor   1   2   4   5
  84 prop tor   1   2   4  40
  85 ben   1   2  49
  86 ben   2   1  46
  87 ben   2   1  47
  88 ben   2   1  48
  89 ben   2   3  50
  90 ben   2   3  51
  91 ben   2   3  52
  92 ben   2   4   5
  93 prop tor   2   4   5   6
  94 prop tor   2   4   5   7
  95 ben   2   4  40
  96 prop tor   2   4  40  39
  97 prop tor   2   4  40  41
  98 ben   3   2   4
  99 prop tor   3   2   4   5
 100 prop tor   3   2   4  40
 101 ben   3   2  49
 102 prop tor   4   2   3  50
 103 prop tor   4   2   3  51
 104 prop tor   4   2   3  52
 105 ben   4   2  49
 106 ben   4   5   6
 107 ben   4   5   7
 108 prop tor   4   5   7   8
 109 prop tor   4   5   7  42
 110 ben   4  40  39
 111 ben   4  40  41
 112 ben   5   4  40
 113 prop tor   5   4  40  39
 114 prop tor   5   4  40  41
 115 ben   5   7   8
 116 prop tor   5   7   8   9
 117 prop tor   5   7   8  53
 118 ben   5   7  42
 119 prop tor   5   7  42  39
 120 prop tor   5   7  42  43
 121 ben   6   5   7
 122 prop tor   6   5   7   8
 123 prop tor   6   5   7  42
 124 ben   7   8   9
 125 prop tor   7   8   9  10
 126 prop tor   7   8   9  54
 127 ben   7   8  53
 128 ben   7  42  39
 129 ben   7  42  43
 130 prop tor   7  42  43  10
 131 prop tor   7  42  43  36
 132 ben   8   7  42
 133 prop tor   8   7  42  39
 134 prop tor   8   7  42  43
 135 ben   8   9  10
 136 prop tor   8   9  10  11
 137 prop tor   8   9  10  43
 138 ben   8   9  54
 139 ben   9   8  53
 140 ben   9  10  11
 141 prop tor   9  10  11  12
 142 prop tor   9  10  11  44
 143 ben   9  10  43
 144 prop tor   9  10  43  36
 145 prop tor   9  10  43  42
 146 ben  10   9  54
 147 ben  10  11  12
 148 prop tor  10  11  12  13
 149 prop tor  10  11  12  55
 150 ben  10  11  44
 151 prop tor  10  11  44  35
 152 prop tor  10  11  44  45
 153 ben  10  43  36
 154 ben  10  43  42
 155 ben  11  10  43
 156 prop tor  11  10  43  36
 157 prop tor  11  10  43  42
 158 ben  11  12  13
 159 prop tor  11  12  13  14
 160 prop tor  11  12  13  56
 161 ben  11  12  55
 162 ben  11  44  35
 163 ben  11  44  45
 164 prop tor  11  44  45  14
 165 prop tor  11  44  45  32
 166 ben  12  11  44
 167 prop tor  12  11  44  35
 168 prop tor  12  11  44  45
 169 ben  12  13  14
 170 prop tor  12  13  14  15
 171 prop tor  12  13  14  45
 172 ben  12  13  56
 173 ben  13  12  55
 174 ben  13  14  15
 175 prop tor  13  14  15  16
 176 prop tor  13  14  15  17
 177 ben  13  14  45
 178 prop tor  13  14  45  32
 179 prop tor  13  14  45  44
 180 ben  14  13  56
 181 ben  14  15  16
 182 ben  14  15  17
 183 prop tor  14  15  17  18
 184 prop tor  14  15  17  30
 185 ben  14  45  32
 186 ben  14  45  44
 187 ben  15  14  45
 188 prop tor  15  14  45  32
 189 prop tor  15  14  45  44
 190 ben  15  17  18
 191 prop tor  15  17  18  19
 192 prop tor  15  17  18  29
 193 ben  15  17  30
 194 prop tor  15  17  30  31
 195 prop tor  15  17  30  32
 196 ben  16  15  17
 197 prop tor  16  15  17  18
 198 prop tor  16  15  17  30
 199 ben  17  18  19
 200 prop tor  17  18  19  20
 201 prop tor  17  18  19  57
 202 ben  17  18  29
 203 prop tor  17  18  29  28
 204 prop tor  17  18  29  65
 205 ben  17  30  31
 206 ben  17  30  32
 207 prop tor  17  30  32  33
 208 prop tor  17  30  32  45
 209 ben  18  17  30
 210 prop tor  18  17  30  31
 211 prop tor  18  17  30  32
 212 ben  18  19  20
 213 prop tor  18  19  20  21
 214 prop tor  18  19  20  58
 215 ben  18  19  57
 216 ben  18  29  28
 217 ben  18  29  65
 218 ben  19  18  29
 219 prop tor  19  18  29  28
 220 prop tor  19  18  29  65
 221 ben  19  20  21
 222 prop tor  19  20  21  22
 223 prop tor  19  20  21  28
 224 ben  19  20  58
 225 ben  20  19  57
 226 ben  20  21  22
 227 prop tor  20  21  22  23
 228 prop tor  20  21  22  27
 229 ben  20  21  28
 230 prop tor  20  21  28  29
 231 prop tor  20  21  28  64
 232 ben  21  20  58
 233 ben  21  22  23
 234 prop tor  21  22  23  24
 235 prop tor  21  22  23  59
 236 ben  21  22  27
 237 prop tor  21  22  27  26
 238 prop tor  21  22  27  63
 239 ben  21  28  29
 240 prop tor  21  28  29  18
 241 prop tor  21  28  29  65
 242 ben  21  28  64
 243 ben  22  21  28
 244 prop tor  22  21  28  29
 245 prop tor  22  21  28  64
 246 ben  22  23  24
 247 prop tor  22  23  24  25
 248 prop tor  22  23  24  60
 249 ben  22  23  59
 250 ben  22  27  26
 251 ben  22  27  63
 252 ben  23  22  27
 253 prop tor  23  22  27  26
 254 prop tor  23  22  27  63
 255 ben  23  24  25
 256 prop tor  23  24  25  26
 257 prop tor  23  24  25  61
 258 ben  23  24  60
 259 ben  24  23  59
 260 ben  24  25  26
 261 prop tor  24  25  26  27
 262 prop tor  24  25  26  62
 263 ben  24  25  61
 264 ben  25  24  60
 265 ben  25  26  27
 266 prop tor  25  26  27  22
 267 prop tor  25  26  27  63
 268 ben  25  26  62
 269 ben  26  25  61
 270 ben  26  27  63
 271 prop tor  27  22  23  24
 272 prop tor  27  22  23  59
 273 ben  27  26  62
 274 prop tor  28  21  22  23
 275 prop tor  28  21  22  27
 276 ben  28  29  65
 277 prop tor  29  18  19  20
 278 prop tor  29  18  19  57
 279 ben  29  28  64
 280 prop tor  30  17  18  19
 281 prop tor  30  17  18  29
 282 ben  30  32  33
 283 prop tor  30  32  33  34
 284 prop tor  30  32  33  66
 285 ben  30  32  45
 286 prop tor  30  32  45  14
 287 prop tor  30  32  45  44
 288 ben  31  30  32
 289 prop tor  31  30  32  33
 290 prop tor  31  30  32  45
 291 ben  32  33  34
 292 prop tor  32  33  34  35
 293 prop tor  32  33  34  67
 294 ben  32  33  66
 295 ben  32  45  44
 296 ben  33  32  45
 297 prop tor  33  32  45  14
 298 prop tor  33  32  45  44
 299 ben  33  34  35
 300 prop tor  33  34  35  36
 301 prop tor  33  34  35  44
 302 ben  33  34  67
 303 ben  34  33  66
 304 ben  34  35  36
 305 prop tor  34  35  36  37
 306 prop tor  34  35  36  43
 307 ben  34  35  44
 308 prop tor  34  35  44  11
 309 prop tor  34  35  44  45
 310 ben  35  34  67
 311 ben  35  36  37
 312 prop tor  35  36  37  38
 313 prop tor  35  36  37  68
 314 ben  35  36  43
 315 prop tor  35  36  43  10
 316 prop tor  35  36  43  42
 317 ben  35  44  45
 318 prop tor  35  44  45  14
 319 prop tor  35  44  45  32
 320 ben  36  35  44
 321 prop tor  36  35  44  11
 322 prop tor  36  35  44  45
 323 ben  36  37  38
 324 prop tor  36  37  38  39
 325 prop tor  36  37  38  69
 326 ben  36  37  68
 327 ben  36  43  42
 328 ben  37  36  43
 329 prop tor  37  36  43  10
 330 prop tor  37  36  43  42
 331 ben  37  38  39
 332 prop tor  37  38  39  40
 333 prop tor  37  38  39  42
 334 ben  37  38  69
 335 ben  38  37  68
 336 ben  38  39  40
 337 prop tor  38  39  40   4
 338 prop tor  38  39  40  41
 339 ben  38  39  42
 340 prop tor  38  39  42   7
 341 prop tor  38  39  42  43
 342 ben  39  38  69
 343 ben  39  40  41
 344 ben  39  42  43
 345 prop tor  39  42  43  10
 346 prop tor  39  42  43  36
 347 prop tor  40   4   5   6
 348 prop tor  40   4   5   7
 349 ben  40  39  42
 350 prop tor  40  39  42   7
 351 prop tor  40  39  42  43
 352 prop tor  42   7   8   9
 353 prop tor  42   7   8  53
 354 prop tor  42  39  40   4
 355 prop tor  42  39  40  41
 356 prop tor  43  10  11  12
 357 prop tor  43  10  11  44
 358 prop tor  43  36  37  38
 359 prop tor  43  36  37  68
 360 prop tor  44  11  12  13
 361 prop tor  44  11  12  55
 362 prop tor  44  35  36  37
 363 prop tor  44  35  36  43
 364 prop tor  45  14  15  16
 365 prop tor  45  14  15  17
 366 prop tor  45  32  33  34
 367 prop tor  45  32  33  66
 368 prop tor  46   1   2   3
 369 prop tor  46   1   2   4
 370 prop tor  46   1   2  49
 371 ben  46   1  47
 372 ben  46   1  48
 373 prop tor  47   1   2   3
 374 prop tor  47   1   2   4
 375 prop tor  47   1   2  49
 376 ben  47   1  48
 377 prop tor  48   1   2   3
 378 prop tor  48   1   2   4
 379 prop tor  48   1   2  49
 380 prop tor  49   2   3  50
 381 prop tor  49   2   3  51
 382 prop tor  49   2   3  52
 383 prop tor  49   2   4   5
 384 prop tor  49   2   4  40
 385 ben  50   3  51
 386 ben  50   3  52
 387 ben  51   3  52
 388 prop tor  53   8   9  10
 389 prop tor  53   8   9  54
 390 prop tor  54   9  10  11
 391 prop tor  54   9  10  43
 392 prop tor  55  12  13  14
 393 prop tor  55  12  13  56
 394 prop tor  56  13  14  15
 395 prop tor  56  13  14  45
 396 prop tor  57  19  20  21
 397 prop tor  57  19  20  58
 398 prop tor  58  20  21  22
 399 prop tor  58  20  21  28
 400 prop tor  59  23  24  25
 401 prop tor  59  23  24  60
 402 prop tor  60  24  25  26
 403 prop tor  60  24  25  61
 404 prop tor  61  25  26  27
 405 prop tor  61  25  26  62
 406 prop tor  62  26  27  22
 407 prop tor  62  26  27  63
 408 prop tor  64  28  29  18
 409 prop tor  64  28  29  65
 410 prop tor  66  33  34  35
 411 prop tor  66  33  34  67
 412 prop tor  67  34  35  36
 413 prop tor  67  34  35  44
 414 prop tor  68  37  38  39
 415 prop tor  68  37  38  69
 416 prop tor  69  38  39  40
 417 prop tor  69  38  39  42
 nber bend=             132
 nber lin bend=           0
 nber prop tor=         208
 nber impr tor=           0
 nber tot redund int=         417
 Reading file: 
 ./PDI_7_C0S1.log                                                               
                                          
  Entering Gaussian System, Link 0=g16                                          
  
 Gaussian format, type: g94, g98, g03= F F F
  #P Geom=AllCheck Guess=TCheck SCRF=Check GenChk RB3LYP TD(FC,Read)/6-3    
 energy type= TD      
 Original G94 input coords:
  6  0.839993  0.254012 -0.134456
  6  2.301496 -0.169923  0.049511
  6  3.231774  0.373307 -1.040934
  7  2.804580  0.147180  1.418438
  6  3.169899 -0.948031  2.231344
  8  3.074120 -2.097612  1.820833
  6  3.665475 -0.640768  3.580868
  6  4.040050 -1.686691  4.424886
  6  4.509894 -1.432123  5.699771
  6  4.630522 -0.116518  6.200896
  6  5.120051  0.163025  7.533116
  6  5.508355 -0.871609  8.421508
  6  5.971814 -0.600236  9.684180
  6  6.081350  0.724849 10.144321
  6  6.572817  0.947646 11.480699
  8  6.887802  0.079516 12.278736
  7  6.658273  2.343030 11.899296
  6  7.129649  2.612313 13.184832
  6  6.516280  3.609140 13.992495
  6  6.981908  3.868039 15.254459
  6  8.088287  3.158287 15.804892
  6  8.576009  3.435659 17.139824
  6  8.304109  4.674985 17.778156
  6  8.778436  4.939253 19.048477
  6  9.523970  3.974419 19.734797
  6  9.798575  2.741928 19.132052
  6  9.342378  2.477386 17.855177
  6  8.693413  2.163348 14.983539
  6  8.235327  1.896236 13.720567
  6  6.280646  3.474003 11.057962
  8  6.420829  4.602504 11.501295
  6  5.798176  3.140137  9.741535
  6  5.422486  4.188053  8.881124
  6  4.957330  3.928980  7.616475
  6  4.838317  2.604626  7.124211
  6  4.348484  2.324980  5.791993
  6  3.957024  3.348054  4.899633
  6  3.490589  3.068030  3.628688
  6  3.389537  1.750957  3.180634
  6  2.888996  1.489276  1.822104
  8  2.556854  2.395385  1.066821
  6  3.767831  0.692311  4.034334
  6  4.253322  0.969388  5.354295
  6  5.217039  1.519687  7.975832
  6  5.704259  1.797968  9.301809
  1  0.474034 -0.126583 -1.092606
  1  0.733455  1.337904 -0.123600
  1  0.214669 -0.171616  0.654848
  1  2.343596 -1.256506  0.017402
  1  3.224591  1.462152 -1.066823
  1  2.903447 -0.004589 -2.013673
  1  4.256528  0.029293 -0.877481
  1  3.952541 -2.699988  4.054023
  1  4.788425 -2.273940  6.317728
  1  5.440821 -1.903299  8.108725
  1  6.262435 -1.400827 10.352277
  1  5.660656  4.140302 13.611404
  1  6.452581  4.590023 15.860784
  1  7.750479  5.440252 17.251688
  1  8.575973  5.896879 19.511432
  1  9.888720  4.181746 20.733355
  1 10.366005  1.991728 19.668324
  1  9.542060  1.510983 17.413043
  1  9.572859  1.640882 15.333771
  1  8.728583  1.158805 13.110366
  1  5.509900  5.204687  9.242480
  1  4.679323  4.763359  6.989342
  1  4.017834  4.383450  5.203608
  1  3.194102  3.861580  2.954558
 nber atoms=          69
  Total Energy, E(TD-HF/TD-DFT) =  -1911.54216125                               
  
          32          49 "  -1911.54216125"
After scan for Atom:   Atom  AN      X      Y      Z        X      Y      Z        X      Y      Z   
After scan for Atom:   Atom  AN      X      Y      Z        X      Y      Z        X      Y      Z   
After scan for Atom:   Atom  AN      X      Y      Z        X      Y      Z        X      Y      Z   
After scan for Atom:   Atom  AN      X      Y      Z        X      Y      Z        X      Y      Z   
After scan for Atom:   Atom  AN      X      Y      Z        X      Y      Z        X      Y      Z   
After scan for Atom:   Atom  AN      X      Y      Z        X      Y      Z        X      Y      Z   
After scan for Atom:   Atom  AN      X      Y      Z        X      Y      Z        X      Y      Z   
After scan for Atom:   Atom  AN      X      Y      Z        X      Y      Z        X      Y      Z   
After scan for Atom:   Atom  AN      X      Y      Z        X      Y      Z        X      Y      Z   
After scan for Atom:   Atom  AN      X      Y      Z        X      Y      Z        X      Y      Z   
After scan for Atom:   Atom  AN      X      Y      Z        X      Y      Z        X      Y      Z   
After scan for Atom:   Atom  AN      X      Y      Z        X      Y      Z        X      Y      Z   
After scan for Atom:   Atom  AN      X      Y      Z        X      Y      Z        X      Y      Z   
After scan for Atom:   Atom  AN      X      Y      Z        X      Y      Z        X      Y      Z   
After scan for Atom:   Atom  AN      X      Y      Z        X      Y      Z        X      Y      Z   
After scan for Atom:   Atom  AN      X      Y      Z        X      Y      Z        X      Y      Z   
After scan for Atom:   Atom  AN      X      Y      Z        X      Y      Z        X      Y      Z   
After scan for Atom:   Atom  AN      X      Y      Z        X      Y      Z        X      Y      Z   
After scan for Atom:   Atom  AN      X      Y      Z        X      Y      Z        X      Y      Z   
After scan for Atom:   Atom  AN      X      Y      Z        X      Y      Z        X      Y      Z   
After scan for Atom:   Atom  AN      X      Y      Z        X      Y      Z        X      Y      Z   
After scan for Atom:   Atom  AN      X      Y      Z        X      Y      Z        X      Y      Z   
After scan for Atom:   Atom  AN      X      Y      Z        X      Y      Z        X      Y      Z   
After scan for Atom:   Atom  AN      X      Y      Z        X      Y      Z        X      Y      Z   
After scan for Atom:   Atom  AN      X      Y      Z        X      Y      Z        X      Y      Z   
After scan for Atom:   Atom  AN      X      Y      Z        X      Y      Z        X      Y      Z   
After scan for Atom:   Atom  AN      X      Y      Z        X      Y      Z        X      Y      Z   
After scan for Atom:   Atom  AN      X      Y      Z        X      Y      Z        X      Y      Z   
After scan for Atom:   Atom  AN      X      Y      Z        X      Y      Z        X      Y      Z   
After scan for Atom:   Atom  AN      X      Y      Z        X      Y      Z        X      Y      Z   
After scan for Atom:   Atom  AN      X      Y      Z        X      Y      Z        X      Y      Z   
After scan for Atom:   Atom  AN      X      Y      Z        X      Y      Z        X      Y      Z   
After scan for Atom:   Atom  AN      X      Y      Z        X      Y      Z        X      Y      Z   
After scan for Atom:   Atom  AN      X      Y      Z        X      Y      Z        X      Y      Z   
After scan for Atom:   Atom  AN      X      Y      Z        X      Y      Z        X      Y      Z   
After scan for Atom:   Atom  AN      X      Y      Z        X      Y      Z        X      Y      Z   
After scan for Atom:   Atom  AN      X      Y      Z        X      Y      Z        X      Y      Z   
After scan for Atom:   Atom  AN      X      Y      Z        X      Y      Z        X      Y      Z   
After scan for Atom:   Atom  AN      X      Y      Z        X      Y      Z        X      Y      Z   
After scan for Atom:   Atom  AN      X      Y      Z        X      Y      Z        X      Y      Z   
After scan for Atom:   Atom  AN      X      Y      Z        X      Y      Z        X      Y      Z   
After scan for Atom:   Atom  AN      X      Y      Z        X      Y      Z        X      Y      Z   
After scan for Atom:   Atom  AN      X      Y      Z        X      Y      Z        X      Y      Z   
After scan for Atom:   Atom  AN      X      Y      Z        X      Y      Z        X      Y      Z   
After scan for Atom:   Atom  AN      X      Y      Z        X      Y      Z        X      Y      Z   
After scan for Atom:   Atom  AN      X      Y      Z        X      Y      Z        X      Y      Z   
After scan for Atom:   Atom  AN      X      Y      Z        X      Y      Z        X      Y      Z   
After scan for Atom:   Atom  AN      X      Y      Z        X      Y      Z        X      Y      Z   
After scan for Atom:   Atom  AN      X      Y      Z        X      Y      Z        X      Y      Z   
After scan for Atom:   Atom  AN      X      Y      Z        X      Y      Z        X      Y      Z   
After scan for Atom:   Atom  AN      X      Y      Z        X      Y      Z        X      Y      Z   
After scan for Atom:   Atom  AN      X      Y      Z        X      Y      Z        X      Y      Z   
After scan for Atom:   Atom  AN      X      Y      Z        X      Y      Z        X      Y      Z   
After scan for Atom:   Atom  AN      X      Y      Z        X      Y      Z        X      Y      Z   
After scan for Atom:   Atom  AN      X      Y      Z        X      Y      Z        X      Y      Z   
After scan for Atom:   Atom  AN      X      Y      Z        X      Y      Z        X      Y      Z   
After scan for Atom:   Atom  AN      X      Y      Z        X      Y      Z        X      Y      Z   
After scan for Atom:   Atom  AN      X      Y      Z        X      Y      Z        X      Y      Z   
After scan for Atom:   Atom  AN      X      Y      Z        X      Y      Z        X      Y      Z   
After scan for Atom:   Atom  AN      X      Y      Z        X      Y      Z        X      Y      Z   
After scan for Atom:   Atom  AN      X      Y      Z        X      Y      Z        X      Y      Z   
After scan for Atom:   Atom  AN      X      Y      Z        X      Y      Z        X      Y      Z   
After scan for Atom:   Atom  AN      X      Y      Z        X      Y      Z        X      Y      Z   
After scan for Atom:   Atom  AN      X      Y      Z        X      Y      Z        X      Y      Z   
After scan for Atom:   Atom  AN      X      Y      Z        X      Y      Z        X      Y      Z   
After scan for Atom:   Atom  AN      X      Y      Z        X      Y      Z        X      Y      Z   
After scan for Atom:   Atom  AN      X      Y      Z        X      Y      Z        X      Y      Z   
 g94    frequencies=
     0.0    0.0    0.0    0.0    0.0    0.0    9.5   20.7   21.2   30.1
    42.4   54.7   58.2   73.4   76.4   88.4   99.6  105.3  107.0  130.6
   144.9  168.2  169.6  179.9  195.2  210.4  212.7  230.8  234.8  236.4
   243.5  260.8  279.7  297.1  297.5  330.7  341.1  367.6  377.2  385.7
   390.4  395.3  400.8  417.0  421.9  433.6  435.5  442.7  448.2  453.4
   458.2  472.8  486.3  496.3  501.7  512.0  514.1  516.0  542.6  562.5
   579.1  582.1  591.7  607.7  623.2  624.3  628.5  632.4  660.0  667.0
   678.8  708.8  712.9  727.6  740.0  744.1  747.4  756.4  760.7  768.9
   785.6  796.8  797.6  803.1  808.8  815.8  820.4  821.7  826.8  832.6
   837.2  841.2  841.5  859.5  861.6  902.3  928.8  943.7  955.7  956.3
   971.1  971.5  974.5  980.5  981.3  983.6  984.9  988.0  996.0 1002.8
  1008.8 1010.0 1020.4 1024.7 1046.7 1068.0 1076.8 1094.2 1118.7 1144.6
  1146.6 1155.2 1164.4 1171.0 1174.6 1189.0 1189.5 1200.2 1204.9 1210.0
  1226.8 1234.7 1236.2 1247.0 1263.7 1283.1 1291.3 1294.8 1300.7 1317.4
  1330.3 1339.8 1349.9 1353.3 1359.7 1363.4 1368.4 1371.0 1384.2 1392.7
  1395.3 1397.7 1411.6 1424.9 1437.7 1457.7 1460.9 1470.8 1478.6 1483.2
  1484.0 1490.0 1496.1 1499.1 1501.2 1506.6 1523.6 1525.1 1536.1 1558.4
  1574.9 1575.9 1581.5 1591.3 1612.1 1614.0 1618.7 1632.1 1658.7 1683.6
  1705.8 1719.3 1750.0 3029.4 3034.0 3086.7 3089.8 3109.2 3131.7 3141.4
  3186.2 3192.1 3192.4 3194.4 3198.3 3198.6 3201.6 3205.9 3207.8 3208.0
  3208.3 3217.3 3218.3 3222.8 3223.0 3265.0 3265.6
 g94    symmetries=
                                                 A      A      A      A
       A      A      A      A      A      A      A      A      A      A
       A      A      A      A      A      A      A      A      A      A
       A      A      A      A      A      A      A      A      A      A
       A      A      A      A      A      A      A      A      A      A
       A      A      A      A      A      A      A      A      A      A
       A      A      A      A      A      A      A      A      A      A
       A      A      A      A      A      A      A      A      A      A
       A      A      A      A      A      A      A      A      A      A
       A      A      A      A      A      A      A      A      A      A
       A      A      A      A      A      A      A      A      A      A
       A      A      A      A      A      A      A      A      A      A
       A      A      A      A      A      A      A      A      A      A
       A      A      A      A      A      A      A      A      A      A
       A      A      A      A      A      A      A      A      A      A
       A      A      A      A      A      A      A      A      A      A
       A      A      A      A      A      A      A      A      A      A
       A      A      A      A      A      A      A      A      A      A
       A      A      A      A      A      A      A      A      A      A
       A      A      A      A      A      A      A      A      A      A
       A      A      A      A      A      A      A
 atomic masses:
 12.0000 12.0000 12.0000 14.0031 12.0000 15.9949 12.0000 12.0000 12.0000 12.0000
 12.0000 12.0000 12.0000 12.0000 12.0000 15.9949 14.0031 12.0000 12.0000 12.0000
 12.0000 12.0000 12.0000 12.0000 12.0000 12.0000 12.0000 12.0000 12.0000 12.0000
 15.9949 12.0000 12.0000 12.0000 12.0000 12.0000 12.0000 12.0000 12.0000 12.0000
 15.9949 12.0000 12.0000 12.0000 12.0000  1.0078  1.0078  1.0078  1.0078  1.0078
  1.0078  1.0078  1.0078  1.0078  1.0078  1.0078  1.0078  1.0078  1.0078  1.0078
  1.0078  1.0078  1.0078  1.0078  1.0078  1.0078  1.0078  1.0078  1.0078
 looking for force constants in 
 ./PDI_7_C0S1.fchk                                                              
  
 Cartesian Force Constants                  R   N=       21528                  
  
 n3=         207       21528
 g94-fc frequencies=
    -5.5   -1.7   -0.8   -0.0    0.0    0.0    9.5   20.7   21.2   30.1
    42.4   54.7   58.2   73.4   76.4   88.4   99.6  105.3  107.0  130.6
   144.9  168.2  169.6  179.9  195.2  210.4  212.7  230.8  234.8  236.4
   243.5  260.8  279.7  297.1  297.5  330.7  341.1  367.6  377.2  385.7
   390.4  395.3  400.9  417.0  421.9  433.6  435.5  442.7  448.2  453.4
   458.2  472.8  486.4  496.3  501.8  512.0  514.1  516.0  542.6  562.5
   579.1  582.1  591.7  607.7  623.2  624.3  628.5  632.4  660.0  667.0
   678.8  708.9  713.0  727.6  740.0  744.1  747.4  756.4  760.7  768.9
   785.6  796.9  797.7  803.1  808.8  815.8  820.4  821.8  826.8  832.6
   837.2  841.2  841.5  859.6  861.7  902.3  928.9  943.7  955.7  956.4
   971.1  971.5  974.5  980.5  981.3  983.6  984.9  988.1  996.0 1002.8
  1008.8 1010.0 1020.4 1024.7 1046.7 1068.1 1076.9 1094.2 1118.7 1144.6
  1146.6 1155.2 1164.4 1171.0 1174.6 1189.0 1189.5 1200.3 1204.9 1210.0
  1226.9 1234.7 1236.3 1247.0 1263.7 1283.1 1291.3 1294.9 1300.7 1317.4
  1330.4 1339.8 1349.9 1353.3 1359.7 1363.5 1368.4 1371.0 1384.2 1392.7
  1395.3 1397.8 1411.7 1424.9 1437.7 1457.7 1460.9 1470.8 1478.6 1483.3
  1484.1 1490.0 1496.1 1499.1 1501.3 1506.7 1523.6 1525.2 1536.2 1558.4
  1575.0 1576.0 1581.5 1591.3 1612.1 1614.1 1618.8 1632.1 1658.7 1683.6
  1705.9 1719.4 1750.1 3029.5 3034.1 3086.7 3089.9 3109.3 3131.8 3141.5
  3186.2 3192.2 3192.4 3194.5 3198.4 3198.6 3201.6 3206.0 3207.9 3208.1
  3208.4 3217.4 3218.4 3222.9 3223.0 3265.1 3265.6
 at 99999: n3=         207
 symm operator            1 :  F  nop=           0
 symm operator            2 :  F  nop=           0
 symm operator            3 :  F  nop=           0
 symm operator            4 :  F  nop=           0
 symm operator            5 :  F  nop=           0
 symm operator            6 :  F  nop=           0
 symm operator            7 :  F  nop=           0
 The point group of the molecule is  C1
 Symmetry rotation matrix:
   1.00000   0.00000   0.00000
   0.00000   1.00000   0.00000
   0.00000   0.00000   1.00000

 Projecting out zero-frequency components
 generating redundant internal coords
         300        3600          69
 search for int coords
   1 str   2   1   1.533
   2 str   3   2   1.533
   3 str   4   2   1.493
   4 str   5   4   1.412
   5 str   6   5   1.224
   6 str   7   5   1.470
   7 str   8   7   1.395
   8 str   9   8   1.382
   9 str  10   9   1.413
  10 str  11  10   1.447
  11 str  12  11   1.418
  12 str  13  12   1.372
  13 str  14  13   1.407
  14 str  15  14   1.441
  15 str  16  15   1.221
  16 str  17  15   1.459
  17 str  18  17   1.395
  18 str  19  18   1.422
  19 str  20  19   1.370
  20 str  21  20   1.425
  21 str  22  21   1.448
  22 str  23  22   1.420
  23 str  24  23   1.381
  24 str  25  24   1.399
  25 str  26  25   1.399
  26 str  27  22   1.420
[...]
    0.   -0.   -0.    0.   -0.    1.   -1.   -0.    0.   -0.    0.   -0.   -0.    0.   -0.   -0.    0.   -1.   -1.   -1.
    0.   -0.   -0.   -0.    1.    2.    1.    1.    1.   -3.   -1.   -0.   -0.   -0.    0.    1.    1.   -0.   -0.    0.
   -0.    0.   -0.   -0.    0.   -0.    0.    0.   -0.   -0.    0.   -0.    0.    0.   -0.   -2.    0.    0.    0.    0.
   -1.   -0.    1.   -0.    0.    0.    0.    2.    0.    1.    0.    0.   -0.    0.   -0.    0.   -2.   -0.    3.   -2.
    0.   -2.   -2.    0.    0.   -0.   -4.   -0.   -0.    0.   -0.   -2.    2.    0.   -1.    0.   -0.   -0.    0.    0.
   -0.   -0.    0.    0.   -1.    0.    0.    1.    0.   -0.    0.    1.   -0.   -0.   -2.    2.   -0.   -1.    2.   -0.
   -0.   -1.    1.   -0.   -0.   -0.    0.   -0.   -0.    0.   -0.    0.    0.    0.   -0.    0.   -0.    0.    0.   -0.
   -0.   -0.   -0.    0.    0.    0.   -0.
 p2=
   -0.   -0.   -0.   -0.    0.   -0.  -70.  -61.    8.   24.   63.    5.   -2.    2.  -37.  -15.   -7.   -2.  -37.    0.
  -65.   -1.   -2.   -0.   -2.    7.   -4.   10.   -3.    7.   -3.   -0.    2.   -3.    8.   -1.   -2.    1.    6.   -0.
   -5.   -2.   -4.   -1.  -12.   -3.   -9.    2.   -0.   -0.    8.   -1.   -0.   -4.    0.   -0.    1.    1.   -6.   -0.
   -0.    1.   -0.    0.   -1.   -0.   -0.    1.   -0.    1.    0.   -0.   -0.    1.   -0.    0.   -0.   -1.   -0.    1.
    0.   -0.    0.   -0.   -1.    0.    0.   -2.   -0.    0.   -2.   -0.   -0.   -4.   -2.    1.   -1.   -0.   -0.    0.
    0.    0.   -0.   -0.    0.   -0.    0.    0.   -0.    0.    0.    0.    1.   -0.    0.    0.   -0.    1.   -0.   -3.
   -0.   -0.    0.    0.   -0.    0.    0.   -0.   -0.    0.   -0.   -2.   -0.    0.    0.    3.   -2.    0.    1.    0.
    1.   -0.   -2.    0.    0.   -0.   -0.   -4.    0.    0.    0.   -0.   -1.   -0.    1.    0.    0.   -0.   -0.    0.
   -0.   -0.    0.   -0.    1.    0.   -0.   -0.    0.    1.    1.   -0.    0.    0.   -0.    0.    2.   -2.    2.   -0.
    0.    1.    4.   -0.   -0.    0.   -0.    0.    0.   -0.   -0.    0.    0.    0.    0.    0.    0.   -0.    0.   -0.
    0.   -0.    0.   -0.    0.   -0.   -0.

 Displacement: in terms of nc of 1 THEN of nc of 2

   1     freq=    -0. Q=  0.000 lam=    -0.0     freq=    -0. Q=  0.000 lam=    -0.0
   2     freq=    -0. Q= -0.000 lam=    -0.0     freq=    -0. Q= -0.000 lam=    -0.0
   3     freq=    -0. Q=  0.000 lam=    -0.0     freq=     0. Q=  0.000 lam=     0.0
   4     freq=     0. Q= -0.000 lam=     0.0     freq=     0. Q= -0.000 lam=     0.0
   5     freq=     0. Q= -0.000 lam=     0.0     freq=     0. Q= -0.000 lam=     0.0
   6     freq=     0. Q=  0.000 lam=     0.0     freq=     0. Q=  0.000 lam=     0.0
   7     freq=    11. Q= -0.904 lam=     4.5     freq=     9. Q= -0.867 lam=     3.5
   8     freq=    21. Q= -0.569 lam=     3.3     freq=    21. Q= -1.117 lam=    12.9
   9     freq=    22. Q=  1.571 lam=    26.6     freq=    21. Q=  0.141 lam=     0.2
  10     freq=    31. Q= -0.676 lam=     7.2     freq=    30. Q= -0.534 lam=     4.3
  11     freq=    34. Q= -1.419 lam=    33.9     freq=    42. Q= -1.655 lam=    58.0
  12     freq=    52. Q= -0.032 lam=     0.0     freq=    55. Q= -0.140 lam=     0.5
  13     freq=    58. Q= -0.212 lam=     1.3     freq=    58. Q= -0.063 lam=     0.1
  14     freq=    71. Q= -1.546 lam=    84.8     freq=    73. Q= -0.077 lam=     0.2
  15     freq=    75. Q=  0.200 lam=     1.5     freq=    76. Q=  1.318 lam=    66.3
  16     freq=    76. Q= -0.806 lam=    24.5     freq=    88. Q= -0.579 lam=    14.8
  17     freq=    88. Q= -0.258 lam=     2.9     freq=   100. Q= -0.289 lam=     4.1
  18     freq=    95. Q= -0.002 lam=     0.0     freq=   105. Q= -0.094 lam=     0.5
  19     freq=   105. Q=  0.337 lam=     6.0     freq=   107. Q=  1.543 lam=   127.4
  20     freq=   122. Q=  0.246 lam=     3.7     freq=   131. Q=  0.013 lam=     0.0
  21     freq=   127. Q= -1.500 lam=   143.3     freq=   145. Q= -3.139 lam=   714.1
  22     freq=   153. Q=  0.054 lam=     0.2     freq=   168. Q=  0.045 lam=     0.2
  23     freq=   164. Q= -0.011 lam=     0.0     freq=   170. Q= -0.100 lam=     0.8
  24     freq=   179. Q= -0.168 lam=     2.5     freq=   180. Q= -0.019 lam=     0.0
  25     freq=   185. Q= -0.047 lam=     0.2     freq=   195. Q= -0.107 lam=     1.1
  26     freq=   199. Q= -0.001 lam=     0.0     freq=   210. Q= -0.427 lam=    19.2
  27     freq=   213. Q=  0.093 lam=     0.9     freq=   213. Q=  0.233 lam=     5.8
  28     freq=   222. Q= -0.090 lam=     0.9     freq=   231. Q= -0.630 lam=    45.8
  29     freq=   235. Q=  0.030 lam=     0.1     freq=   235. Q=  0.165 lam=     3.2
  30     freq=   238. Q=  0.046 lam=     0.3     freq=   236. Q=  0.411 lam=    20.0
  31     freq=   241. Q=  0.004 lam=     0.0     freq=   244. Q=  0.197 lam=     4.7
  32     freq=   264. Q= -0.039 lam=     0.2     freq=   261. Q= -0.017 lam=     0.0
  33     freq=   280. Q= -0.071 lam=     0.7     freq=   280. Q= -0.146 lam=     3.0
  34     freq=   292. Q=  0.260 lam=     9.9     freq=   297. Q=  0.218 lam=     7.1
  35     freq=   312. Q= -0.053 lam=     0.4     freq=   297. Q= -0.549 lam=    44.9
  36     freq=   325. Q= -0.040 lam=     0.3     freq=   331. Q= -0.084 lam=     1.2
  37     freq=   335. Q=  0.075 lam=     1.0     freq=   341. Q=  0.115 lam=     2.3
  38     freq=   359. Q=  0.017 lam=     0.1     freq=   368. Q=  0.066 lam=     0.8
  39     freq=   373. Q= -0.509 lam=    48.3     freq=   377. Q= -0.477 lam=    43.0
  40     freq=   389. Q=  0.148 lam=     4.3     freq=   386. Q=  0.006 lam=     0.0
  41     freq=   394. Q= -0.129 lam=     3.3     freq=   390. Q= -0.367 lam=    26.3
  42     freq=   401. Q=  0.127 lam=     3.2     freq=   395. Q=  0.155 lam=     4.8
  43     freq=   413. Q= -0.015 lam=     0.0     freq=   401. Q= -0.357 lam=    25.5
  44     freq=   415. Q=  0.086 lam=     1.5     freq=   417. Q=  0.093 lam=     1.8
  45     freq=   429. Q= -0.492 lam=    51.9     freq=   422. Q= -0.955 lam=   192.4
  46     freq=   433. Q= -0.178 lam=     6.9     freq=   434. Q= -0.226 lam=    11.1
  47     freq=   435. Q=  0.231 lam=    11.6     freq=   435. Q=  0.750 lam=   122.5
  48     freq=   437. Q=  0.096 lam=     2.0     freq=   443. Q=  0.134 lam=     4.0
  49     freq=   441. Q= -0.031 lam=     0.2     freq=   448. Q= -0.008 lam=     0.0
  50     freq=   447. Q=  0.064 lam=     0.9     freq=   453. Q=  0.011 lam=     0.0
  51     freq=   466. Q= -0.298 lam=    20.6     freq=   458. Q= -0.706 lam=   114.2
  52     freq=   472. Q=  0.019 lam=     0.1     freq=   473. Q=  0.053 lam=     0.7
  53     freq=   479. Q= -0.042 lam=     0.4     freq=   486. Q= -0.030 lam=     0.2
  54     freq=   480. Q= -0.267 lam=    17.2     freq=   496. Q= -0.362 lam=    32.5
  55     freq=   505. Q=  0.104 lam=     2.7     freq=   502. Q=  0.039 lam=     0.4
  56     freq=   508. Q=  0.371 lam=    34.9     freq=   512. Q=  0.023 lam=     0.1
  57     freq=   518. Q= -0.292 lam=    22.1     freq=   514. Q= -0.083 lam=     1.8
  58     freq=   527. Q=  0.065 lam=     1.1     freq=   516. Q=  0.075 lam=     1.5
  59     freq=   549. Q= -0.629 lam=   108.6     freq=   543. Q= -0.560 lam=    84.9
  60     freq=   562. Q=  0.005 lam=     0.0     freq=   563. Q=  0.038 lam=     0.4
  61     freq=   575. Q=  0.013 lam=     0.0     freq=   579. Q=  0.009 lam=     0.0
  62     freq=   581. Q= -0.036 lam=     0.4     freq=   582. Q= -0.086 lam=     2.1
  63     freq=   587. Q= -0.017 lam=     0.1     freq=   592. Q= -0.022 lam=     0.1
  64     freq=   617. Q=  0.004 lam=     0.0     freq=   608. Q=  0.007 lam=     0.0
  65     freq=   618. Q= -0.014 lam=     0.1     freq=   623. Q= -0.062 lam=     1.2
  66     freq=   622. Q=  0.058 lam=     1.0     freq=   624. Q=  0.013 lam=     0.1
  67     freq=   636. Q= -0.099 lam=     3.1     freq=   628. Q= -0.032 lam=     0.3
  68     freq=   640. Q= -0.034 lam=     0.4     freq=   632. Q= -0.145 lam=     6.7
  69     freq=   649. Q=  0.021 lam=     0.1     freq=   660. Q=  0.030 lam=     0.3
  70     freq=   665. Q= -0.047 lam=     0.7     freq=   667. Q= -0.089 lam=     2.6
  71     freq=   691. Q=  0.002 lam=     0.0     freq=   679. Q=  0.002 lam=     0.0
  72     freq=   709. Q= -0.030 lam=     0.3     freq=   709. Q= -0.050 lam=     0.9
  73     freq=   712. Q= -0.018 lam=     0.1     freq=   713. Q= -0.030 lam=     0.3
  74     freq=   718. Q=  0.053 lam=     1.0     freq=   728. Q=  0.139 lam=     7.0
  75     freq=   720. Q= -0.010 lam=     0.0     freq=   740. Q= -0.009 lam=     0.0
  76     freq=   730. Q= -0.004 lam=     0.0     freq=   744. Q= -0.040 lam=     0.6
  77     freq=   743. Q=  0.020 lam=     0.1     freq=   747. Q=  0.000 lam=     0.0
  78     freq=   748. Q= -0.165 lam=    10.2     freq=   756. Q= -0.146 lam=     8.0
  79     freq=   758. Q= -0.088 lam=     3.0     freq=   761. Q= -0.026 lam=     0.2
  80     freq=   769. Q= -0.085 lam=     2.8     freq=   769. Q= -0.100 lam=     3.8
  81     freq=   777. Q=  0.007 lam=     0.0     freq=   786. Q=  0.022 lam=     0.2
  82     freq=   783. Q= -0.013 lam=     0.1     freq=   797. Q= -0.010 lam=     0.0
  83     freq=   792. Q= -0.013 lam=     0.1     freq=   798. Q= -0.026 lam=     0.3
  84     freq=   802. Q= -0.031 lam=     0.4     freq=   803. Q= -0.051 lam=     1.1
  85     freq=   812. Q=  0.156 lam=     9.9     freq=   809. Q=  0.092 lam=     3.5
  86     freq=   819. Q=  0.203 lam=    16.8     freq=   816. Q=  0.043 lam=     0.8
  87     freq=   825. Q=  0.138 lam=     7.9     freq=   820. Q=  0.032 lam=     0.4
  88     freq=   833. Q=  0.153 lam=     9.7     freq=   822. Q=  0.192 lam=    15.2
  89     freq=   845. Q=  0.128 lam=     6.9     freq=   827. Q=  0.006 lam=     0.0
  90     freq=   850. Q= -0.313 lam=    41.7     freq=   833. Q= -0.021 lam=     0.2
  91     freq=   857. Q= -0.078 lam=     2.6     freq=   837. Q= -0.229 lam=    21.9
  92     freq=   869. Q= -0.012 lam=     0.1     freq=   841. Q= -0.015 lam=     0.1
  93     freq=   870. Q= -0.008 lam=     0.0     freq=   842. Q= -0.001 lam=     0.0
  94     freq=   873. Q= -0.041 lam=     0.7     freq=   860. Q= -0.501 lam=   107.9
  95     freq=   875. Q=  0.001 lam=     0.0     freq=   862. Q=  0.194 lam=    16.3
  96     freq=   905. Q=  0.085 lam=     3.3     freq=   902. Q=  0.099 lam=     4.4
  97     freq=   921. Q=  0.075 lam=     2.6     freq=   929. Q=  0.151 lam=    10.6
  98     freq=   948. Q= -0.000 lam=     0.0     freq=   944. Q= -0.001 lam=     0.0
  99     freq=   949. Q= -0.003 lam=     0.0     freq=   956. Q= -0.000 lam=     0.0
 100     freq=   958. Q=  0.000 lam=     0.0     freq=   956. Q=  0.003 lam=     0.0
 101     freq=   967. Q= -0.035 lam=     0.6     freq=   971. Q= -0.032 lam=     0.5
 102     freq=   975. Q=  0.025 lam=     0.3     freq=   971. Q=  0.008 lam=     0.0
 103     freq=   978. Q= -0.021 lam=     0.2     freq=   974. Q= -0.004 lam=     0.0
 104     freq=   983. Q= -0.011 lam=     0.1     freq=   980. Q= -0.001 lam=     0.0
 105     freq=   996. Q=  0.009 lam=     0.0     freq=   981. Q=  0.027 lam=     0.4
 106     freq=  1005. Q= -0.008 lam=     0.0     freq=   984. Q= -0.062 lam=     1.9
 107     freq=  1006. Q=  0.003 lam=     0.0     freq=   985. Q=  0.010 lam=     0.1
 108     freq=  1008. Q=  0.003 lam=     0.0     freq=   988. Q=  0.001 lam=     0.0
 109     freq=  1014. Q= -0.008 lam=     0.0     freq=   996. Q= -0.001 lam=     0.0
 110     freq=  1016. Q= -0.004 lam=     0.0     freq=  1003. Q= -0.001 lam=     0.0
 111     freq=  1018. Q=  0.000 lam=     0.0     freq=  1009. Q=  0.034 lam=     0.6
 112     freq=  1021. Q= -0.055 lam=     1.5     freq=  1010. Q= -0.038 lam=     0.7
 113     freq=  1030. Q=  0.012 lam=     0.1     freq=  1020. Q=  0.104 lam=     5.6
 114     freq=  1051. Q=  0.021 lam=     0.2     freq=  1025. Q=  0.002 lam=     0.0
 115     freq=  1064. Q= -0.044 lam=     1.0     freq=  1047. Q= -0.034 lam=     0.6
 116     freq=  1084. Q= -0.207 lam=    23.2     freq=  1068. Q= -0.032 lam=     0.6
 117     freq=  1103. Q=  0.052 lam=     1.5     freq=  1077. Q=  0.040 lam=     0.9
 118     freq=  1114. Q=  0.001 lam=     0.0     freq=  1094. Q=  0.090 lam=     4.4
 119     freq=  1145. Q=  0.019 lam=     0.2     freq=  1119. Q=  0.001 lam=     0.0
 120     freq=  1156. Q=  0.001 lam=     0.0     freq=  1145. Q=  0.397 lam=    90.0
 121     freq=  1157. Q= -0.148 lam=    12.7     freq=  1147. Q= -0.045 lam=     1.1
 122     freq=  1158. Q= -0.061 lam=     2.2     freq=  1155. Q= -0.000 lam=     0.0
 123     freq=  1167. Q=  0.083 lam=     4.0     freq=  1164. Q=  0.008 lam=     0.0
 124     freq=  1168. Q= -0.050 lam=     1.4     freq=  1171. Q= -0.001 lam=     0.0
 125     freq=  1187. Q=  0.001 lam=     0.0     freq=  1175. Q=  0.014 lam=     0.1
 126     freq=  1191. Q=  0.018 lam=     0.2     freq=  1189. Q=  0.016 lam=     0.2
 127     freq=  1195. Q=  0.026 lam=     0.4     freq=  1190. Q=  0.003 lam=     0.0
 128     freq=  1205. Q=  0.270 lam=    43.8     freq=  1200. Q=  0.012 lam=     0.1
 129     freq=  1209. Q=  0.025 lam=     0.4     freq=  1205. Q=  0.030 lam=     0.5
 130     freq=  1210. Q=  0.076 lam=     3.5     freq=  1210. Q=  0.043 lam=     1.1
 131     freq=  1213. Q=  0.016 lam=     0.2     freq=  1227. Q=  0.029 lam=     0.5
 132     freq=  1223. Q=  0.015 lam=     0.1     freq=  1235. Q=  0.227 lam=    31.9
 133     freq=  1238. Q= -0.018 lam=     0.2     freq=  1236. Q= -0.041 lam=     1.0
 134     freq=  1258. Q=  0.015 lam=     0.2     freq=  1247. Q=  0.025 lam=     0.4
 135     freq=  1262. Q= -0.060 lam=     2.2     freq=  1264. Q= -0.033 lam=     0.7
 136     freq=  1278. Q=  0.013 lam=     0.1     freq=  1283. Q=  0.505 lam=   163.6
 137     freq=  1288. Q= -0.244 lam=    38.3     freq=  1291. Q= -0.327 lam=    68.9
 138     freq=  1298. Q= -0.010 lam=     0.1     freq=  1295. Q= -0.011 lam=     0.1
 139     freq=  1313. Q=  0.440 lam=   127.0     freq=  1301. Q=  0.098 lam=     6.2
 140     freq=  1320. Q= -0.255 lam=    42.9     freq=  1317. Q= -0.029 lam=     0.6
 141     freq=  1323. Q=  0.015 lam=     0.1     freq=  1330. Q=  0.131 lam=    11.4
 142     freq=  1339. Q= -0.344 lam=    79.3     freq=  1340. Q= -0.001 lam=     0.0
 143     freq=  1340. Q= -0.333 lam=    74.1     freq=  1350. Q= -0.332 lam=    74.4
 144     freq=  1344. Q=  0.024 lam=     0.4     freq=  1353. Q=  0.000 lam=     0.0
 145     freq=  1352. Q=  0.026 lam=     0.4     freq=  1360. Q=  0.016 lam=     0.2
 146     freq=  1366. Q= -0.003 lam=     0.0     freq=  1363. Q= -0.036 lam=     0.9
 147     freq=  1371. Q= -0.576 lam=   227.8     freq=  1368. Q= -0.002 lam=     0.0
 148     freq=  1376. Q= -0.047 lam=     1.5     freq=  1371. Q= -0.526 lam=   189.5
 149     freq=  1378. Q= -0.001 lam=     0.0     freq=  1384. Q= -0.001 lam=     0.0
 150     freq=  1388. Q=  0.042 lam=     1.2     freq=  1393. Q=  0.009 lam=     0.1
 151     freq=  1405. Q= -0.000 lam=     0.0     freq=  1395. Q= -0.003 lam=     0.0
 152     freq=  1410. Q= -0.231 lam=    37.8     freq=  1398. Q= -0.000 lam=     0.0
 153     freq=  1413. Q=  0.234 lam=    38.6     freq=  1412. Q=  0.083 lam=     4.8
 154     freq=  1423. Q=  0.066 lam=     3.1     freq=  1425. Q=  0.013 lam=     0.1
 155     freq=  1441. Q= -0.091 lam=     6.0     freq=  1438. Q= -0.136 lam=    13.4
 156     freq=  1445. Q=  0.004 lam=     0.0     freq=  1458. Q=  0.005 lam=     0.0
 157     freq=  1454. Q= -0.024 lam=     0.4     freq=  1461. Q= -0.004 lam=     0.0
 158     freq=  1483. Q= -0.001 lam=     0.0     freq=  1471. Q= -0.008 lam=     0.1
 159     freq=  1485. Q=  0.060 lam=     2.6     freq=  1479. Q=  0.011 lam=     0.1
 160     freq=  1486. Q=  0.022 lam=     0.4     freq=  1483. Q=  0.054 lam=     2.2
 161     freq=  1486. Q= -0.000 lam=     0.0     freq=  1484. Q= -0.000 lam=     0.0
 162     freq=  1494. Q= -0.026 lam=     0.5     freq=  1490. Q= -0.009 lam=     0.1
 163     freq=  1500. Q=  0.027 lam=     0.5     freq=  1496. Q=  0.029 lam=     0.6
 164     freq=  1504. Q=  0.001 lam=     0.0     freq=  1499. Q=  0.000 lam=     0.0
 165     freq=  1509. Q= -0.101 lam=     7.7     freq=  1501. Q= -0.121 lam=    11.0
 166     freq=  1521. Q=  0.026 lam=     0.5     freq=  1507. Q=  0.000 lam=     0.0
 167     freq=  1532. Q=  0.029 lam=     0.6     freq=  1524. Q=  0.038 lam=     1.1
 168     freq=  1539. Q=  0.098 lam=     7.4     freq=  1525. Q=  0.041 lam=     1.3
 169     freq=  1561. Q=  0.018 lam=     0.2     freq=  1536. Q=  0.028 lam=     0.6
 170     freq=  1564. Q= -0.020 lam=     0.3     freq=  1558. Q= -0.126 lam=    12.3
 171     freq=  1575. Q=  0.002 lam=     0.0     freq=  1575. Q=  0.114 lam=    10.3
 172     freq=  1584. Q=  0.127 lam=    12.8     freq=  1576. Q=  0.001 lam=     0.0
 173     freq=  1588. Q= -0.019 lam=     0.3     freq=  1581. Q= -0.017 lam=     0.2
 174     freq=  1603. Q= -0.006 lam=     0.0     freq=  1591. Q= -0.021 lam=     0.3
 175     freq=  1612. Q= -0.307 lam=    75.7     freq=  1612. Q= -0.062 lam=     3.1
 176     freq=  1612. Q=  0.331 lam=    88.1     freq=  1614. Q=  0.001 lam=     0.0
 177     freq=  1615. Q= -0.000 lam=     0.0     freq=  1619. Q= -0.366 lam=   108.5
 178     freq=  1627. Q= -0.132 lam=    14.2     freq=  1632. Q= -0.346 lam=    97.5
 179     freq=  1631. Q=  0.324 lam=    85.6     freq=  1659. Q=  0.305 lam=    77.4
 180     freq=  1715. Q= -0.001 lam=     0.0     freq=  1684. Q= -0.006 lam=     0.0
 181     freq=  1728. Q= -0.022 lam=     0.4     freq=  1706. Q= -0.005 lam=     0.0
 182     freq=  1759. Q= -0.203 lam=    36.4     freq=  1719. Q= -0.188 lam=    30.4
 183     freq=  1763. Q=  0.220 lam=    42.5     freq=  1750. Q=  0.652 lam=   372.0
 184     freq=  3041. Q= -0.000 lam=     0.0     freq=  3029. Q= -0.000 lam=     0.0
 185     freq=  3044. Q= -0.015 lam=     0.3     freq=  3034. Q= -0.019 lam=     0.5
 186     freq=  3100. Q= -0.000 lam=     0.0     freq=  3087. Q= -0.000 lam=     0.0
 187     freq=  3104. Q=  0.015 lam=     0.3     freq=  3090. Q=  0.015 lam=     0.4
 188     freq=  3117. Q= -0.006 lam=     0.0     freq=  3109. Q= -0.009 lam=     0.1
 189     freq=  3135. Q= -0.000 lam=     0.0     freq=  3132. Q= -0.000 lam=     0.0
 190     freq=  3146. Q=  0.009 lam=     0.1     freq=  3141. Q=  0.009 lam=     0.1
 191     freq=  3178. Q= -0.003 lam=     0.0     freq=  3186. Q= -0.002 lam=     0.0
 192     freq=  3184. Q=  0.001 lam=     0.0     freq=  3192. Q=  0.001 lam=     0.0
 193     freq=  3191. Q=  0.009 lam=     0.1     freq=  3192. Q=  0.000 lam=     0.0
 194     freq=  3195. Q=  0.005 lam=     0.0     freq=  3194. Q=  0.000 lam=     0.0
 195     freq=  3198. Q= -0.015 lam=     0.3     freq=  3198. Q= -0.001 lam=     0.0
 196     freq=  3201. Q=  0.002 lam=     0.0     freq=  3199. Q=  0.000 lam=     0.0
 197     freq=  3202. Q= -0.001 lam=     0.0     freq=  3202. Q= -0.003 lam=     0.0
 198     freq=  3203. Q=  0.000 lam=     0.0     freq=  3206. Q=  0.000 lam=     0.0
 199     freq=  3204. Q=  0.001 lam=     0.0     freq=  3208. Q=  0.006 lam=     0.1
 200     freq=  3208. Q= -0.000 lam=     0.0     freq=  3208. Q= -0.003 lam=     0.0
 201     freq=  3208. Q= -0.001 lam=     0.0     freq=  3208. Q= -0.003 lam=     0.0
 202     freq=  3212. Q= -0.026 lam=     1.1     freq=  3217. Q= -0.000 lam=     0.0
 203     freq=  3215. Q= -0.001 lam=     0.0     freq=  3218. Q= -0.021 lam=     0.7
 204     freq=  3215. Q=  0.003 lam=     0.0     freq=  3223. Q=  0.001 lam=     0.0
 205     freq=  3218. Q=  0.026 lam=     1.1     freq=  3223. Q=  0.004 lam=     0.0
 206     freq=  3226. Q=  0.001 lam=     0.0     freq=  3265. Q=  0.011 lam=     0.2
 207     freq=  3227. Q= -0.000 lam=     0.0     freq=  3266. Q= -0.001 lam=     0.0

 total reorg energy (cm**-1, kcal/mol)=     1990.     3462.      5.69      9.90
 Nber of molecules processed=           2
