 Enter ifcurve (0=recti, 1=orth curvi, 2=apprx curvi, -1 = skip
 And atom ordering flag, 0= never changes, 1= use the first order thenceforth,
  2= deduce it (does read on fail), 3= always read it
 Reading file: 
 ./Non-cov-phenyl-N_3_C0S0.log                                                  
                                          
  Entering Gaussian System, Link 0=g16                                          
  
 Gaussian format, type: g94, g98, g03= F F F
  #P Geom=AllCheck Guess=TCheck SCRF=Check GenChk RB3LYP/6-311G(d,p) Fre    
 energy type= B3LYP   
 Original G94 input coords:
  6  7.567728  0.000000  0.000000
  6  6.862042 -1.200570  0.000000
  6  5.471631 -1.200142  0.000000
  6  4.740102  0.000000  0.000000
  6  3.256015  0.000000  0.000000
  6  2.484644  1.172910  0.000000
  7  1.157748  1.185635  0.000000
  6  0.527750  0.000000  0.000000
  6 -0.952057  0.000000  0.000000
  6 -1.665400  1.207653  0.000000
  6 -3.051862  1.207501  0.000000
  6 -3.764864  0.000000  0.000000
  6 -5.247330  0.000000  0.000000
  7 -5.869523  1.191504  0.000000
  6 -7.199965  1.179548  0.000000
  6 -7.937199  0.000000  0.000000
  6 -7.199965 -1.179548  0.000000
  7 -5.869523 -1.191504  0.000000
  6 -3.051862 -1.207501  0.000000
  6 -1.665400 -1.207653  0.000000
  7  1.157748 -1.185635  0.000000
  6  2.484644 -1.172910  0.000000
  6  5.471631  1.200142  0.000000
  6  6.862042  1.200570  0.000000
  1  8.651721  0.000000  0.000000
  1  7.394711 -2.145051  0.000000
  1  4.959308 -2.153025  0.000000
  1  2.953556  2.151769  0.000000
  1 -1.113593  2.137975  0.000000
  1 -3.603971  2.137668  0.000000
  1 -7.690762  2.149523  0.000000
  1 -9.018993  0.000000  0.000000
  1 -7.690762 -2.149523  0.000000
  1 -3.603971 -2.137668  0.000000
  1 -1.113593 -2.137975  0.000000
  1  2.953556 -2.151769  0.000000
  1  4.959308  2.153025  0.000000
  1  7.394711  2.145051  0.000000
 nber atoms=          38
 Original standard coords:
  6  0.000000  0.000000 -7.793529
  6  0.000000  1.200570 -7.087842
  6  0.000000  1.200142 -5.697431
  6  0.000000  0.000000 -4.965902
  6  0.000000  0.000000 -3.481816
  6  0.000000 -1.172910 -2.710444
  7  0.000000 -1.185635 -1.383549
  6  0.000000  0.000000 -0.753550
  6  0.000000  0.000000  0.726256
  6  0.000000 -1.207653  1.439600
  6  0.000000 -1.207501  2.826062
  6  0.000000  0.000000  3.539063
  6  0.000000  0.000000  5.021530
  7  0.000000 -1.191504  5.643722
  6  0.000000 -1.179548  6.974165
  6  0.000000  0.000000  7.711398
  6  0.000000  1.179548  6.974165
  7  0.000000  1.191504  5.643722
  6  0.000000  1.207501  2.826062
  6  0.000000  1.207653  1.439600
  7  0.000000  1.185635 -1.383549
  6  0.000000  1.172910 -2.710444
  6  0.000000 -1.200142 -5.697431
  6  0.000000 -1.200570 -7.087842
  1  0.000000  0.000000 -8.877522
  1  0.000000  2.145051 -7.620511
  1  0.000000  2.153025 -5.185108
  1  0.000000 -2.151769 -3.179357
  1  0.000000 -2.137975  0.887793
  1  0.000000 -2.137668  3.378171
  1  0.000000 -2.149523  7.464962
  1  0.000000  0.000000  8.793193
  1  0.000000  2.149523  7.464962
  1  0.000000  2.137668  3.378171
  1  0.000000  2.137975  0.887793
  1  0.000000  2.151769 -3.179357
  1  0.000000 -2.153025 -5.185108
  1  0.000000 -2.145051 -7.620511
  SCF Done:  E(RB3LYP) =  -989.811856142     A.U. after    1 cycles             
  
          23          40 "  -989.811856142"
After scan for Atom:   Atom  AN      X      Y      Z        X      Y      Z        X      Y      Z   
After scan for Atom:   Atom  AN      X      Y      Z        X      Y      Z        X      Y      Z   
After scan for Atom:   Atom  AN      X      Y      Z        X      Y      Z        X      Y      Z   
After scan for Atom:   Atom  AN      X      Y      Z        X      Y      Z        X      Y      Z   
After scan for Atom:   Atom  AN      X      Y      Z        X      Y      Z        X      Y      Z   
After scan for Atom:   Atom  AN      X      Y      Z        X      Y      Z        X      Y      Z   
After scan for Atom:   Atom  AN      X      Y      Z        X      Y      Z        X      Y      Z   
After scan for Atom:   Atom  AN      X      Y      Z        X      Y      Z        X      Y      Z   
After scan for Atom:   Atom  AN      X      Y      Z        X      Y      Z        X      Y      Z   
After scan for Atom:   Atom  AN      X      Y      Z        X      Y      Z        X      Y      Z   
After scan for Atom:   Atom  AN      X      Y      Z        X      Y      Z        X      Y      Z   
After scan for Atom:   Atom  AN      X      Y      Z        X      Y      Z        X      Y      Z   
After scan for Atom:   Atom  AN      X      Y      Z        X      Y      Z        X      Y      Z   
After scan for Atom:   Atom  AN      X      Y      Z        X      Y      Z        X      Y      Z   
After scan for Atom:   Atom  AN      X      Y      Z        X      Y      Z        X      Y      Z   
After scan for Atom:   Atom  AN      X      Y      Z        X      Y      Z        X      Y      Z   
After scan for Atom:   Atom  AN      X      Y      Z        X      Y      Z        X      Y      Z   
After scan for Atom:   Atom  AN      X      Y      Z        X      Y      Z        X      Y      Z   
After scan for Atom:   Atom  AN      X      Y      Z        X      Y      Z        X      Y      Z   
After scan for Atom:   Atom  AN      X      Y      Z        X      Y      Z        X      Y      Z   
After scan for Atom:   Atom  AN      X      Y      Z        X      Y      Z        X      Y      Z   
After scan for Atom:   Atom  AN      X      Y      Z        X      Y      Z        X      Y      Z   
After scan for Atom:   Atom  AN      X      Y      Z        X      Y      Z        X      Y      Z   
After scan for Atom:   Atom  AN      X      Y      Z        X      Y      Z        X      Y      Z   
After scan for Atom:   Atom  AN      X      Y      Z        X      Y      Z        X      Y      Z   
After scan for Atom:   Atom  AN      X      Y      Z        X      Y      Z        X      Y      Z   
After scan for Atom:   Atom  AN      X      Y      Z        X      Y      Z        X      Y      Z   
After scan for Atom:   Atom  AN      X      Y      Z        X      Y      Z        X      Y      Z   
After scan for Atom:   Atom  AN      X      Y      Z        X      Y      Z        X      Y      Z   
After scan for Atom:   Atom  AN      X      Y      Z        X      Y      Z        X      Y      Z   
After scan for Atom:   Atom  AN      X      Y      Z        X      Y      Z        X      Y      Z   
After scan for Atom:   Atom  AN      X      Y      Z        X      Y      Z        X      Y      Z   
After scan for Atom:   Atom  AN      X      Y      Z        X      Y      Z        X      Y      Z   
After scan for Atom:   Atom  AN      X      Y      Z        X      Y      Z        X      Y      Z   
After scan for Atom:   Atom  AN      X      Y      Z        X      Y      Z        X      Y      Z   
After scan for Atom:   Atom  AN      X      Y      Z        X      Y      Z        X      Y      Z   
 g94    frequencies=
     0.0    0.0    0.0    0.0    0.0    0.0  -74.4   19.9   33.7   52.9
    58.3   66.1  119.8  134.1  162.2  173.4  211.3  256.9  336.8  349.4
   378.2  390.4  409.3  414.3  420.9  442.8  444.6  482.9  506.8  514.5
   562.1  590.0  631.9  640.8  656.4  657.7  671.1  700.2  713.3  750.7
   779.8  784.6  814.0  816.4  826.2  840.9  849.1  875.7  905.0  925.8
   961.5  970.0  986.8 1001.4 1003.4 1005.7 1009.2 1012.9 1018.7 1018.9
  1020.0 1033.5 1054.4 1064.2 1071.0 1100.1 1110.6 1112.2 1113.1 1128.4
  1186.4 1194.3 1219.7 1222.6 1237.5 1274.9 1288.4 1303.0 1313.8 1332.3
  1344.0 1351.1 1366.0 1371.5 1409.9 1435.1 1448.3 1468.2 1471.7 1483.6
  1538.0 1541.9 1564.2 1589.2 1614.8 1614.9 1619.0 1621.7 1646.4 1652.5
  3143.1 3145.0 3156.6 3157.7 3164.0 3172.6 3186.6 3201.1 3201.9 3202.8
  3203.3 3206.5 3214.8 3216.4
 g94    symmetries=
                                                A2     B1     A2     B2
      B1     A2     B1     B2     B1     A1     B2     B1     A1     B1
      B2     A2     A2     A2     A2     B1     B2     A1     B2     B1
      B1     B1     B2     B2     B2     A1     B2     B1     A1     B1
      B1     A1     B1     B1     A1     A2     B1     A2     B1     B1
      B1     A2     A2     A2     B1     B1     A1     A1     A2     B1
      A1     A1     A1     A1     A1     A1     B2     A1     B2     B2
      B2     A1     A1     B2     B2     B2     B2     A1     B2     B2
      A1     B2     A1     B2     B2     B2     A1     B2     A1     B2
      A1     A1     B2     B2     B2     A1     A1     B2     A1     A1
      A1     B2     B2     A1     A1     B2     A1     B2     A1     B2
      A1     A1     B2     A1
 atomic masses:
 12.0000 12.0000 12.0000 12.0000 12.0000 12.0000 14.0031 12.0000 12.0000 12.0000
 12.0000 12.0000 12.0000 14.0031 12.0000 12.0000 12.0000 14.0031 12.0000 12.0000
 14.0031 12.0000 12.0000 12.0000  1.0078  1.0078  1.0078  1.0078  1.0078  1.0078
  1.0078  1.0078  1.0078  1.0078  1.0078  1.0078  1.0078  1.0078
 looking for force constants in 
 ./Non-cov-phenyl-N_3_C0S0.fchk                                                 
  
 Cartesian Force Constants                  R   N=        6555                  
  
 n3=         114        6555
 g94-fc frequencies=
   -74.4   -2.1   -1.8   -0.0   -0.0    0.0    2.1   19.9   33.7   52.9
    58.3   66.1  119.8  134.1  162.3  173.4  211.3  256.9  336.8  349.4
   378.2  390.4  409.3  414.3  420.9  442.8  444.6  482.9  506.8  514.5
   562.1  590.0  632.0  640.8  656.5  657.7  671.2  700.2  713.3  750.7
   779.8  784.6  814.0  816.4  826.2  841.0  849.1  875.7  905.0  925.8
   961.5  970.0  986.8 1001.5 1003.4 1005.7 1009.2 1012.9 1018.7 1018.9
  1020.0 1033.5 1054.4 1064.2 1071.0 1100.1 1110.7 1112.2 1113.1 1128.5
  1186.4 1194.3 1219.7 1222.6 1237.5 1274.9 1288.5 1303.0 1313.8 1332.3
  1344.0 1351.1 1366.1 1371.6 1410.0 1435.1 1448.3 1468.2 1471.7 1483.7
  1538.0 1542.0 1564.2 1589.3 1614.8 1615.0 1619.0 1621.8 1646.5 1652.6
  3143.2 3145.0 3156.7 3157.8 3164.0 3172.7 3186.7 3201.2 3201.9 3202.8
  3203.3 3206.5 3214.9 3216.5
 at 99999: n3=         114
 symm operator            1 :  T  nop=           1
 symm operator            2 :  F  nop=           1
 symm operator            3 :  F  nop=           1
 symm operator            4 :  F  nop=           1
 symm operator            5 :  F  nop=           1
 symm operator            6 :  T  nop=           2
 symm operator            7 :  T  nop=           3
 The point group of the molecule is C2V
 enforcing symm op           1  jsymt=          -1          -1           1
 enforcing symm op           6  jsymt=           1          -1           1
 enforcing symm op           7  jsymt=          -1           1           1
 cartesian coord symmetries:
 A1 :   38 A2 :   14 B1 :   24 B2 :   38
 Symmetry rotation matrix:
   1.00000   0.00000   0.00000
   0.00000   1.00000   0.00000
   0.00000   0.00000   1.00000

 Projecting out zero-frequency components
 generating redundant internal coords
         300        3600          38
 search for int coords
   1 str   2   1   1.393
   2 str   3   2   1.390
   3 str   4   3   1.406
   4 str   5   4   1.484
   5 str   6   5   1.404
   6 str   7   6   1.327
   7 str   8   7   1.343
   8 str   9   8   1.480
   9 str  10   9   1.403
  10 str  11  10   1.386
  11 str  12  11   1.402
  12 str  13  12   1.482
  13 str  14  13   1.344
  14 str  15  14   1.330
  15 str  16  15   1.391
  16 str  17  16   1.391
  17 str  18  13   1.344
  18 str  18  17   1.330
  19 str  19  12   1.402
  20 str  20   9   1.403
  21 str  20  19   1.386
  22 str  21   8   1.343
  23 str  22   5   1.404
  24 str  22  21   1.327
  25 str  23   4   1.406
  26 str  24   1   1.393
  27 str  24  23   1.390
  28 str  25   1   1.084
  29 str  26   2   1.084
  30 str  27   3   1.082
  31 str  28   6   1.085
  32 str  29  10   1.082
  33 str  30  11   1.082
  34 str  31  15   1.087
  35 str  32  16   1.082
  36 str  33  17   1.087
  37 str  34  19   1.082
  38 str  35  20   1.082
  39 str  36  22   1.085
  40 str  37  23   1.082
  41 str  38  24   1.084
 nber stretches=          41
  42 ben   1   2   3
  43 prop tor   1   2   3   4
  44 prop tor   1   2   3  27
  45 ben   1   2  26
  46 ben   1  24  23
  47 ben   1  24  38
  48 ben   2   1  24
  49 prop tor   2   1  24  23
  50 prop tor   2   1  24  38
  51 ben   2   1  25
  52 ben   2   3   4
  53 prop tor   2   3   4   5
  54 prop tor   2   3   4  23
  55 ben   2   3  27
  56 ben   3   2  26
  57 ben   3   4   5
  58 prop tor   3   4   5   6
  59 prop tor   3   4   5  22
  60 ben   3   4  23
  61 prop tor   3   4  23  24
  62 prop tor   3   4  23  37
  63 ben   4   3  27
  64 ben   4   5   6
  65 prop tor   4   5   6   7
  66 prop tor   4   5   6  28
  67 ben   4   5  22
  68 prop tor   4   5  22  21
  69 prop tor   4   5  22  36
  70 ben   4  23  24
  71 prop tor   4  23  24   1
  72 prop tor   4  23  24  38
  73 ben   4  23  37
  74 ben   5   4  23
  75 prop tor   5   4  23  24
  76 prop tor   5   4  23  37
  77 ben   5   6   7
  78 prop tor   5   6   7   8
  79 ben   5   6  28
  80 ben   5  22  21
  81 ben   5  22  36
  82 ben   6   5  22
  83 prop tor   6   5  22  21
  84 prop tor   6   5  22  36
  85 ben   6   7   8
  86 prop tor   6   7   8   9
  87 prop tor   6   7   8  21
  88 ben   7   6  28
  89 ben   7   8   9
  90 prop tor   7   8   9  10
  91 prop tor   7   8   9  20
  92 ben   7   8  21
  93 prop tor   7   8  21  22
  94 ben   8   9  10
  95 prop tor   8   9  10  11
  96 prop tor   8   9  10  29
  97 ben   8   9  20
  98 prop tor   8   9  20  19
  99 prop tor   8   9  20  35
 100 ben   8  21  22
 101 prop tor   8  21  22   5
 102 prop tor   8  21  22  36
 103 ben   9   8  21
 104 prop tor   9   8  21  22
 105 ben   9  10  11
 106 prop tor   9  10  11  12
 107 prop tor   9  10  11  30
 108 ben   9  10  29
 109 ben   9  20  19
 110 ben   9  20  35
 111 ben  10   9  20
 112 prop tor  10   9  20  19
 113 prop tor  10   9  20  35
 114 ben  10  11  12
 115 prop tor  10  11  12  13
 116 prop tor  10  11  12  19
 117 ben  10  11  30
 118 ben  11  10  29
 119 ben  11  12  13
 120 prop tor  11  12  13  14
 121 prop tor  11  12  13  18
 122 ben  11  12  19
 123 prop tor  11  12  19  20
 124 prop tor  11  12  19  34
 125 ben  12  11  30
 126 ben  12  13  14
 127 prop tor  12  13  14  15
 128 ben  12  13  18
 129 prop tor  12  13  18  17
 130 ben  12  19  20
 131 prop tor  12  19  20   9
 132 prop tor  12  19  20  35
 133 ben  12  19  34
 134 ben  13  12  19
 135 prop tor  13  12  19  20
 136 prop tor  13  12  19  34
 137 ben  13  14  15
 138 prop tor  13  14  15  16
 139 prop tor  13  14  15  31
 140 ben  13  18  17
 141 ben  14  13  18
 142 prop tor  14  13  18  17
 143 ben  14  15  16
 144 prop tor  14  15  16  17
 145 prop tor  14  15  16  32
 146 ben  14  15  31
 147 ben  15  16  17
 148 prop tor  15  16  17  18
 149 prop tor  15  16  17  33
 150 ben  15  16  32
 151 ben  16  15  31
 152 ben  16  17  18
 153 prop tor  16  17  18  13
 154 ben  16  17  33
 155 ben  17  16  32
 156 prop tor  18  13  14  15
 157 ben  18  17  33
 158 prop tor  19  12  13  14
 159 prop tor  19  12  13  18
 160 ben  19  20  35
 161 prop tor  20   9  10  11
 162 prop tor  20   9  10  29
 163 ben  20  19  34
 164 prop tor  21   8   9  10
 165 prop tor  21   8   9  20
 166 ben  21  22  36
 167 prop tor  22   5   6   7
 168 prop tor  22   5   6  28
 169 prop tor  23   4   5   6
 170 prop tor  23   4   5  22
 171 ben  23  24  38
 172 prop tor  24   1   2   3
 173 prop tor  24   1   2  26
 174 ben  24   1  25
 175 ben  24  23  37
 176 prop tor  25   1   2   3
 177 prop tor  25   1   2  26
 178 prop tor  25   1  24  23
 179 prop tor  25   1  24  38
 180 prop tor  26   2   3   4
 181 prop tor  26   2   3  27
 182 prop tor  27   3   4   5
 183 prop tor  27   3   4  23
 184 prop tor  28   6   7   8
 185 prop tor  29  10  11  12
 186 prop tor  29  10  11  30
 187 prop tor  30  11  12  13
 188 prop tor  30  11  12  19
 189 prop tor  31  15  16  17
 190 prop tor  31  15  16  32
 191 prop tor  32  16  17  18
 192 prop tor  32  16  17  33
 193 prop tor  33  17  18  13
 194 prop tor  34  19  20   9
 195 prop tor  34  19  20  35
 196 prop tor  37  23  24   1
 197 prop tor  37  23  24  38
 nber bend=              64
 nber lin bend=           0
 nber prop tor=          92
 nber impr tor=           0
 nber tot redund int=         197
 Eigenvalues of G in red int coords
    Gval -0.00000000 -0.00000000 -0.00000000 -0.00000000 -0.00000000 -0.00000000 -0.00000000 -0.00000000
    Gval -0.00000000 -0.00000000 -0.00000000 -0.00000000 -0.00000000 -0.00000000 -0.00000000 -0.00000000
    Gval -0.00000000 -0.00000000 -0.00000000 -0.00000000 -0.00000000 -0.00000000 -0.00000000 -0.00000000
    Gval -0.00000000 -0.00000000 -0.00000000 -0.00000000 -0.00000000 -0.00000000 -0.00000000 -0.00000000
    Gval -0.00000000 -0.00000000 -0.00000000 -0.00000000 -0.00000000 -0.00000000 -0.00000000 -0.00000000
    Gval -0.00000000 -0.00000000 -0.00000000 -0.00000000 -0.00000000 -0.00000000 -0.00000000 -0.00000000
    Gval  0.00000000  0.00000000  0.00000000  0.00000000  0.00000000  0.00000000  0.00000000  0.00000000
    Gval  0.00000000  0.00000000  0.00000000  0.00000000  0.00000000  0.00000000  0.00000000  0.00000000
    Gval  0.00000000  0.00000000  0.00000000  0.00000000  0.00000000  0.00000000  0.00000000  0.00000000
    Gval  0.00000000  0.00000000  0.00000000  0.00000000  0.00000000  0.00000000  0.00000000  0.00000000
    Gval  0.00000000  0.00000000  0.00000000  0.00000000  0.00000000  0.00000000  0.00000000  0.00000000
    Gval  0.00000000  0.00000049  0.00000168  0.00000205  0.00000303  0.00000769  0.00000853  0.00001274
    Gval  0.00001375  0.00001542  0.00001981  0.00002818  0.00002998  0.00004216  0.00004502  0.00004608
    Gval  0.00004788  0.00004929  0.00005020  0.00005609  0.00005613  0.00005724  0.00005827  0.00006701
    Gval  0.00006856  0.00007774  0.00008441  0.00008823  0.00010032  0.00010200  0.00010589  0.00011532
    Gval  0.00011692  0.00011777  0.00012093  0.00012245  0.00012684  0.00013285  0.00017142  0.00020928
    Gval  0.00022819  0.00025215  0.00026523  0.00027354  0.00027712  0.00029297  0.00031467  0.00035176
    Gval  0.00036125  0.00037745  0.00037969  0.00038957  0.00039228  0.00041562  0.00042938  0.00050676
    Gval  0.00053043  0.00056563  0.00059307  0.00059350  0.00059365  0.00059798  0.00059806  0.00060053
    Gval  0.00060364  0.00060409  0.00060428  0.00061665  0.00062625  0.00062877  0.00063582  0.00064171
    Gval  0.00064989  0.00066095  0.00070507  0.00092137  0.00104130  0.00105088  0.00106093  0.00107764
    Gval  0.00110373  0.00111043  0.00111099  0.00112693  0.00112886  0.00113913  0.00115759  0.00117045
    Gval  0.00117282  0.00117543  0.00117570  0.00140349  0.00142939  0.00145392  0.00151765  0.00176127
    Gval  0.00181389  0.00226287  0.00227073  0.00233755  0.00235460  0.00243750  0.00247848  0.00315948
    Gval  0.00366937  0.00371455  0.00373977  0.00378181  0.00406604
  4.892829324492240E-007  4.892829324492240E-007
  1.680322602680852E-006  4.892829324492240E-007
  2.051143260701791E-006  4.892829324492240E-007
  3.032889472472572E-006  4.892829324492240E-007
  7.693669709618935E-006  4.892829324492240E-007
  8.533842998854969E-006  4.892829324492240E-007
  1.273996529736847E-005  4.892829324492240E-007
  1.374674612912493E-005  4.892829324492240E-007
  1.542485323690862E-005  4.892829324492240E-007
  1.981128985167111E-005  4.892829324492240E-007
  2.818265640032384E-005  4.892829324492240E-007
  2.998189077279798E-005  4.892829324492240E-007
  4.215749218691213E-005  4.892829324492240E-007
  4.502419883693601E-005  4.892829324492240E-007
  4.608020812016653E-005  4.892829324492240E-007
  4.788275777966260E-005  4.892829324492240E-007
  4.928766595911318E-005  4.892829324492240E-007
  5.020321359587218E-005  4.892829324492240E-007
  5.608527197143217E-005  4.892829324492240E-007
  5.613075147548388E-005  4.892829324492240E-007
  5.724162081759323E-005  4.892829324492240E-007
  5.826759927285874E-005  4.892829324492240E-007
  6.701102129671529E-005  4.892829324492240E-007
  6.855521640358312E-005  4.892829324492240E-007
  7.773718989587729E-005  4.892829324492240E-007
  8.440985100026941E-005  4.892829324492240E-007
  8.823393683077563E-005  4.892829324492240E-007
  1.003230872845769E-004  4.892829324492240E-007
  1.019973836059746E-004  4.892829324492240E-007
  1.058857996828081E-004  4.892829324492240E-007
  1.153232575678071E-004  4.892829324492240E-007
  1.169189658766082E-004  4.892829324492240E-007
  1.177663473434209E-004  4.892829324492240E-007
  1.209290937942000E-004  4.892829324492240E-007
  1.224474700137426E-004  4.892829324492240E-007
  1.268364575778207E-004  4.892829324492240E-007
  1.328495839445441E-004  4.892829324492240E-007
  1.714171497992360E-004  4.892829324492240E-007
  2.092765546196353E-004  4.892829324492240E-007
  2.281916608577874E-004  4.892829324492240E-007
  2.521497242232887E-004  4.892829324492240E-007
  2.652330096612006E-004  4.892829324492240E-007
  2.735369134837343E-004  4.892829324492240E-007
  2.771209207756383E-004  4.892829324492240E-007
  2.929683142758009E-004  4.892829324492240E-007
  3.146675598830943E-004  4.892829324492240E-007
  3.517577339638136E-004  4.892829324492240E-007
  3.612528529726039E-004  4.892829324492240E-007
  3.774464233060299E-004  4.892829324492240E-007
  3.796890035731858E-004  4.892829324492240E-007
  3.895722618497112E-004  4.892829324492240E-007
  3.922840250394714E-004  4.892829324492240E-007
  4.156174416724941E-004  4.892829324492240E-007
  4.293844548093411E-004  4.892829324492240E-007
  5.067600555512575E-004  4.892829324492240E-007
  5.304263295626997E-004  4.892829324492240E-007
  5.656325583197949E-004  4.892829324492240E-007
  5.930715515537828E-004  4.892829324492240E-007
  5.935027303588769E-004  4.892829324492240E-007
  5.936457611075805E-004  4.892829324492240E-007
  5.979812742028012E-004  4.892829324492240E-007
  5.980578222844303E-004  4.892829324492240E-007
  6.005324098128473E-004  4.892829324492240E-007
  6.036380840791479E-004  4.892829324492240E-007
  6.040895232318107E-004  4.892829324492240E-007
  6.042752266115118E-004  4.892829324492240E-007
  6.166528589519782E-004  4.892829324492240E-007
  6.262536199132272E-004  4.892829324492240E-007
  6.287707756753135E-004  4.892829324492240E-007
  6.358176370235703E-004  4.892829324492240E-007
  6.417131674472119E-004  4.892829324492240E-007
  6.498857255230773E-004  4.892829324492240E-007
  6.609543799160832E-004  4.892829324492240E-007
  7.050694124252065E-004  4.892829324492240E-007
  9.213656823146495E-004  4.892829324492240E-007
  1.041302275595802E-003  4.892829324492240E-007
  1.050880432450648E-003  4.892829324492240E-007
  1.060931499731767E-003  4.892829324492240E-007
  1.077636889220662E-003  4.892829324492240E-007
  1.103728459448566E-003  4.892829324492240E-007
  1.110426256264256E-003  4.892829324492240E-007
  1.110988442927220E-003  4.892829324492240E-007
  1.126932944290529E-003  4.892829324492240E-007
  1.128859780267604E-003  4.892829324492240E-007
  1.139132128074283E-003  4.892829324492240E-007
  1.157585531039886E-003  4.892829324492240E-007
  1.170449484613776E-003  4.892829324492240E-007
  1.172815929429720E-003  4.892829324492240E-007
  1.175433461924992E-003  4.892829324492240E-007
  1.175704423472661E-003  4.892829324492240E-007
  1.403490643949628E-003  4.892829324492240E-007
  1.429387334592331E-003  4.892829324492240E-007
  1.453922856236643E-003  4.892829324492240E-007
  1.517653453217775E-003  4.892829324492240E-007
  1.761265725053609E-003  4.892829324492240E-007
  1.813886208318215E-003  4.892829324492240E-007
  2.262874433076711E-003  4.892829324492240E-007
  2.270734073721523E-003  4.892829324492240E-007
  2.337548138203475E-003  4.892829324492240E-007
  2.354597422975164E-003  4.892829324492240E-007
  2.437501597481569E-003  4.892829324492240E-007
  2.478477054865495E-003  4.892829324492240E-007
  3.159475403292570E-003  4.892829324492240E-007
  3.669365653567556E-003  4.892829324492240E-007
  3.714545219634502E-003  4.892829324492240E-007
  3.739774430072458E-003  4.892829324492240E-007
  3.781811200840404E-003  4.892829324492240E-007
  4.066039274525201E-003  4.892829324492240E-007
 cut=1d-8, nber non-redundant internal coords=         108
 Check on Eigenvals of non-red overlap matrix:
  0.00000049  0.00000168  0.00000205  0.00000303  0.00000769  0.00000853  0.00001274  0.00001375
  0.00001542  0.00001981  0.00002818  0.00002998  0.00004216  0.00004502  0.00004608  0.00004788
  0.00004929  0.00005020  0.00005609  0.00005613  0.00005724  0.00005827  0.00006701  0.00006856
  0.00007774  0.00008441  0.00008823  0.00010032  0.00010200  0.00010589  0.00011532  0.00011692
  0.00011777  0.00012093  0.00012245  0.00012684  0.00013285  0.00017142  0.00020928  0.00022819
  0.00025215  0.00026523  0.00027354  0.00027712  0.00029297  0.00031467  0.00035176  0.00036125
  0.00037745  0.00037969  0.00038957  0.00039228  0.00041562  0.00042938  0.00050676  0.00053043
  0.00056563  0.00059307  0.00059350  0.00059365  0.00059798  0.00059806  0.00060053  0.00060364
  0.00060409  0.00060428  0.00061665  0.00062625  0.00062877  0.00063582  0.00064171  0.00064989
  0.00066095  0.00070507  0.00092137  0.00104130  0.00105088  0.00106093  0.00107764  0.00110373
  0.00111043  0.00111099  0.00112693  0.00112886  0.00113913  0.00115759  0.00117045  0.00117282
  0.00117543  0.00117570  0.00140349  0.00142939  0.00145392  0.00151765  0.00176127  0.00181389
  0.00226287  0.00227073  0.00233755  0.00235460  0.00243750  0.00247848  0.00315948  0.00366937
  0.00371455  0.00373977  0.00378181  0.00406604
 Checking for correct frequencies
 recalc frequencies=
   -74.4   -0.0   -0.0   -0.0    0.0    0.0    0.0   19.9   33.7   52.9
    58.3   66.1  119.8  134.1  162.3  173.4  211.3  256.9  336.8  349.4
   378.2  390.4  409.3  414.3  420.9  442.8  444.6  482.9  506.8  514.5
   562.1  590.0  632.0  640.8  656.5  657.7  671.2  700.2  713.3  750.7
   779.8  784.6  814.0  816.4  826.2  841.0  849.1  875.7  905.0  925.8
   961.5  970.0  986.8 1001.5 1003.4 1005.7 1009.2 1012.9 1018.7 1018.9
  1020.0 1033.5 1054.4 1064.2 1071.0 1100.1 1110.7 1112.2 1113.1 1128.5
  1186.4 1194.3 1219.7 1222.6 1237.5 1274.9 1288.5 1303.0 1313.8 1332.3
  1344.0 1351.1 1366.1 1371.6 1410.0 1435.1 1448.3 1468.2 1471.7 1483.7
  1538.0 1542.0 1564.2 1589.3 1614.8 1615.0 1619.0 1621.8 1646.5 1652.6
  3143.2 3145.0 3156.7 3157.8 3164.0 3172.7 3186.7 3201.2 3201.9 3202.8
  3203.3 3206.5 3214.9 3216.5
 recalc symmetries=
     A2     B2     B2     B1     B1     A2     A1     B1     A2     B2 
     B1     A2     B1     B2     B1     A1     B2     B1     A1     B1 
     B2     A2     A2     A2     A2     B1     B2     A1     B2     B1 
     B1     B1     B2     B2     B2     A1     B2     B1     A1     B1 
     B1     A1     B1     B1     A1     A2     B1     A2     B1     B1 
     B1     A2     A2     A2     B1     B1     A1     A1     A2     B1 
     A1     A1     A1     A1     A1     A1     B2     A1     B2     B2 
     B2     A1     A1     B2     B2     B2     B2     A1     B2     B2 
     A1     B2     A1     B2     B2     B2     A1     B2     A1     B2 
     A1     A1     B2     B2     B2     A1     A1     B2     A1     A1 
     A1     B2     B2     A1     A1     B2     A1     B2     A1     B2 
     A1     A1     B2     A1 
 recalc freqs check OK
 Zero-point lengths:
 28.7322 10.0000 10.0000 10.0000 10.0000 10.0000 10.0000 55.5997 42.7086 34.0804
 32.4736 30.5011 22.6479 21.4078 19.4627 18.8247 17.0562 15.4675 13.5092 13.2620
 12.7481 12.5471 12.2533 12.1797 12.0836 11.7806 11.7570 11.2814 11.0127 10.9296
 10.4567 10.2065  9.8617  9.7936  9.6759  9.6669  9.5694  9.3686  9.2822  9.0484
  8.8776  8.8507  8.6892  8.6766  8.6247  8.5488  8.5077  8.3775  8.2409  8.1479
  7.9950  7.9599  7.8917  7.8339  7.8262  7.8173  7.8038  7.7894  7.7672  7.7667
  7.7624  7.7116  7.6346  7.5995  7.5752  7.4745  7.4388  7.4337  7.4307  7.3799
  7.1974  7.1735  7.0985  7.0900  7.0472  6.9431  6.9065  6.8678  6.8396  6.7918
  6.7623  6.7446  6.7075  6.6940  6.6022  6.5442  6.5142  6.4699  6.4623  6.4362
  6.3215  6.3134  6.2683  6.2187  6.1693  6.1690  6.1612  6.1560  6.1097  6.0984
  4.4219  4.4206  4.4125  4.4117  4.4073  4.4013  4.3917  4.3817  4.3812  4.3805
  4.3802  4.3780  4.3723  4.3712
 highest evec of mol 1
  0.0000  0.0000  0.0001
  0.0000 -0.0002  0.0001
  0.0000  0.0000 -0.0000
  0.0000  0.0000  0.0001
  0.0000  0.0000 -0.0000
  0.0000 -0.0007 -0.0002
  0.0000 -0.0008  0.0003
  0.0000  0.0000  0.0014
  0.0000  0.0000  0.0068
  0.0000  0.1252  0.0778
  0.0000  0.1244 -0.0774
  0.0000  0.0000 -0.0068
  0.0000  0.0000 -0.0014
  0.0000 -0.0008 -0.0003
  0.0000 -0.0009  0.0002
  0.0000  0.0000  0.0026
  0.0000  0.0009  0.0002
  0.0000  0.0008 -0.0003
  0.0000 -0.1244 -0.0774
  0.0000 -0.1252  0.0778
  0.0000  0.0008  0.0003
  0.0000  0.0007 -0.0002
  0.0000 -0.0000 -0.0000
  0.0000  0.0002  0.0001
  0.0000  0.0000 -0.0004
  0.0000  0.0005 -0.0003
  0.0000 -0.0002 -0.0001
  0.0000  0.0016  0.0007
  0.0000 -0.4136 -0.2422
  0.0000 -0.4111  0.2409
  0.0000  0.0021 -0.0010
  0.0000  0.0000 -0.0083
  0.0000 -0.0021 -0.0010
  0.0000  0.4111  0.2409
  0.0000  0.4136 -0.2422
  0.0000 -0.0016  0.0007
  0.0000  0.0002 -0.0001
  0.0000 -0.0005 -0.0003
 generating redundant internal coords
         300        3600          38
 Adding extra bonds for z output only
           6           6           6           6           6           6
           7           6           6           6           6           6
           6           7           6           6           6           7
           6           6           7           6           6           6
           1           1           1           1           1           1
           1           1           1           1           1           1
           1           1
 search for int coords
   1 str   2   1   1.393
   2 str   3   2   1.390
   3 str   4   3   1.406
   4 str   5   4   1.484
   5 str   6   5   1.404
   6 str   7   6   1.327
   7 str   8   7   1.343
   8 str   9   8   1.480
   9 str  10   9   1.403
  10 str  11  10   1.386
  11 str  12  11   1.402
  12 str  13  12   1.482
  13 str  14  13   1.344
  14 str  15  14   1.330
  15 str  16  15   1.391
  16 str  17  16   1.391
  17 str  18  13   1.344
  18 str  18  17   1.330
  19 str  19  12   1.402
  20 str  20   9   1.403
  21 str  20  19   1.386
  22 str  21   8   1.343
  23 str  22   5   1.404
  24 str  22  21   1.327
  25 str  23   4   1.406
  26 str  24   1   1.393
  27 str  24  23   1.390
  28 str  25   1   1.084
  29 str  26   2   1.084
  30 str  27   3   1.082
  31 str  28   6   1.085
  32 str  29  10   1.082
  33 str  30  11   1.082
  34 str  31  15   1.087
  35 str  32  16   1.082
  36 str  33  17   1.087
  37 str  34  19   1.082
  38 str  35  20   1.082
  39 str  36  22   1.085
  40 str  37  23   1.082
  41 str  38  24   1.084
 nber stretches=          41
  42 ben   1   2   3
  43 prop tor   1   2   3   4
  44 prop tor   1   2   3  27
  45 ben   1   2  26
  46 ben   1  24  23
  47 ben   1  24  38
  48 ben   2   1  24
  49 prop tor   2   1  24  23
  50 prop tor   2   1  24  38
  51 ben   2   1  25
  52 ben   2   3   4
  53 prop tor   2   3   4   5
  54 prop tor   2   3   4  23
  55 ben   2   3  27
  56 ben   3   2  26
  57 ben   3   4   5
  58 prop tor   3   4   5   6
  59 prop tor   3   4   5  22
  60 ben   3   4  23
  61 prop tor   3   4  23  24
  62 prop tor   3   4  23  37
  63 ben   4   3  27
  64 ben   4   5   6
  65 prop tor   4   5   6   7
  66 prop tor   4   5   6  28
  67 ben   4   5  22
  68 prop tor   4   5  22  21
  69 prop tor   4   5  22  36
  70 ben   4  23  24
  71 prop tor   4  23  24   1
  72 prop tor   4  23  24  38
  73 ben   4  23  37
  74 ben   5   4  23
  75 prop tor   5   4  23  24
  76 prop tor   5   4  23  37
  77 ben   5   6   7
  78 prop tor   5   6   7   8
  79 ben   5   6  28
  80 ben   5  22  21
  81 ben   5  22  36
  82 ben   6   5  22
  83 prop tor   6   5  22  21
  84 prop tor   6   5  22  36
  85 ben   6   7   8
  86 prop tor   6   7   8   9
  87 prop tor   6   7   8  21
  88 ben   7   6  28
  89 ben   7   8   9
  90 prop tor   7   8   9  10
  91 prop tor   7   8   9  20
  92 ben   7   8  21
  93 prop tor   7   8  21  22
  94 ben   8   9  10
  95 prop tor   8   9  10  11
  96 prop tor   8   9  10  29
  97 ben   8   9  20
  98 prop tor   8   9  20  19
  99 prop tor   8   9  20  35
 100 ben   8  21  22
 101 prop tor   8  21  22   5
 102 prop tor   8  21  22  36
 103 ben   9   8  21
 104 prop tor   9   8  21  22
 105 ben   9  10  11
 106 prop tor   9  10  11  12
 107 prop tor   9  10  11  30
 108 ben   9  10  29
 109 ben   9  20  19
 110 ben   9  20  35
 111 ben  10   9  20
 112 prop tor  10   9  20  19
 113 prop tor  10   9  20  35
 114 ben  10  11  12
 115 prop tor  10  11  12  13
 116 prop tor  10  11  12  19
 117 ben  10  11  30
 118 ben  11  10  29
 119 ben  11  12  13
 120 prop tor  11  12  13  14
 121 prop tor  11  12  13  18
 122 ben  11  12  19
 123 prop tor  11  12  19  20
 124 prop tor  11  12  19  34
 125 ben  12  11  30
 126 ben  12  13  14
 127 prop tor  12  13  14  15
 128 ben  12  13  18
 129 prop tor  12  13  18  17
 130 ben  12  19  20
 131 prop tor  12  19  20   9
 132 prop tor  12  19  20  35
 133 ben  12  19  34
 134 ben  13  12  19
 135 prop tor  13  12  19  20
 136 prop tor  13  12  19  34
 137 ben  13  14  15
 138 prop tor  13  14  15  16
 139 prop tor  13  14  15  31
 140 ben  13  18  17
 141 ben  14  13  18
 142 prop tor  14  13  18  17
 143 ben  14  15  16
 144 prop tor  14  15  16  17
 145 prop tor  14  15  16  32
 146 ben  14  15  31
 147 ben  15  16  17
 148 prop tor  15  16  17  18
 149 prop tor  15  16  17  33
 150 ben  15  16  32
 151 ben  16  15  31
 152 ben  16  17  18
 153 prop tor  16  17  18  13
 154 ben  16  17  33
 155 ben  17  16  32
 156 prop tor  18  13  14  15
 157 ben  18  17  33
 158 prop tor  19  12  13  14
 159 prop tor  19  12  13  18
 160 ben  19  20  35
 161 prop tor  20   9  10  11
 162 prop tor  20   9  10  29
 163 ben  20  19  34
 164 prop tor  21   8   9  10
 165 prop tor  21   8   9  20
 166 ben  21  22  36
 167 prop tor  22   5   6   7
 168 prop tor  22   5   6  28
 169 prop tor  23   4   5   6
 170 prop tor  23   4   5  22
 171 ben  23  24  38
 172 prop tor  24   1   2   3
 173 prop tor  24   1   2  26
 174 ben  24   1  25
 175 ben  24  23  37
 176 prop tor  25   1   2   3
 177 prop tor  25   1   2  26
 178 prop tor  25   1  24  23
 179 prop tor  25   1  24  38
 180 prop tor  26   2   3   4
 181 prop tor  26   2   3  27
 182 prop tor  27   3   4   5
 183 prop tor  27   3   4  23
 184 prop tor  28   6   7   8
 185 prop tor  29  10  11  12
 186 prop tor  29  10  11  30
 187 prop tor  30  11  12  13
 188 prop tor  30  11  12  19
 189 prop tor  31  15  16  17
 190 prop tor  31  15  16  32
 191 prop tor  32  16  17  18
 192 prop tor  32  16  17  33
 193 prop tor  33  17  18  13
 194 prop tor  34  19  20   9
 195 prop tor  34  19  20  35
 196 prop tor  37  23  24   1
 197 prop tor  37  23  24  38
 nber bend=              64
 nber lin bend=           0
 nber prop tor=          92
 nber impr tor=           0
 nber tot redund int=         197
 Reading file: 
 ./Non-cov-phenyl-N_3_C1S0.log                                                  
                                          
  Entering Gaussian System, Link 0=g16                                          
  
 Gaussian format, type: g94, g98, g03= F F F
  #P Geom=AllCheck Guess=TCheck SCRF=Check GenChk UB3LYP/6-311G(d,p) Fre    
 energy type= B3LYP   
 Original G94 input coords:
  6  7.512949  0.000000  0.000000
  6  6.812749 -1.210849  0.000000
  6  5.430351 -1.213796  0.000000
  6  4.695729  0.000000  0.000000
  6  3.241863  0.000000  0.000000
  6  2.462750  1.190514  0.000000
  7  1.148787  1.196508  0.000000
  6  0.515026  0.000000  0.000000
  6 -0.932907  0.000000  0.000000
  6 -1.651126  1.226321  0.000000
  6 -3.024787  1.223896  0.000000
  6 -3.737208  0.000000  0.000000
  6 -5.210545  0.000000  0.000000
  7 -5.821498  1.196180  0.000000
  6 -7.151450  1.187759  0.000000
  6 -7.882439  0.000000  0.000000
  6 -7.151450 -1.187759  0.000000
  7 -5.821498 -1.196180  0.000000
  6 -3.024787 -1.223896  0.000000
  6 -1.651126 -1.226321  0.000000
  7  1.148787 -1.196508  0.000000
  6  2.462750 -1.190514  0.000000
  6  5.430351  1.213796  0.000000
  6  6.812749  1.210849  0.000000
  1  8.596275  0.000000  0.000000
  1  7.353113 -2.149236  0.000000
  1  4.917891 -2.165588  0.000000
  1  2.932736  2.167063  0.000000
  1 -1.094236  2.153059  0.000000
  1 -3.587574  2.147229  0.000000
  1 -7.644624  2.154852  0.000000
  1 -8.964910  0.000000  0.000000
  1 -7.644624 -2.154852  0.000000
  1 -3.587574 -2.147229  0.000000
  1 -1.094236 -2.153059  0.000000
  1  2.932736 -2.167063  0.000000
  1  4.917891  2.165588  0.000000
  1  7.353113  2.149236  0.000000
 nber atoms=          38
 Original standard coords:
  6  0.000000  0.000000 -7.736871
  6  0.000000  1.210849 -7.036670
  6  0.000000  1.213796 -5.654273
  6  0.000000  0.000000 -4.919650
  6  0.000000  0.000000 -3.465785
  6  0.000000 -1.190514 -2.686672
  7  0.000000 -1.196508 -1.372709
  6  0.000000  0.000000 -0.738948
  6  0.000000  0.000000  0.708985
  6  0.000000 -1.226321  1.427204
  6  0.000000 -1.223896  2.800865
  6  0.000000  0.000000  3.513287
  6  0.000000  0.000000  4.986623
  7  0.000000 -1.196180  5.597576
  6  0.000000 -1.187759  6.927528
  6  0.000000  0.000000  7.658517
  6  0.000000  1.187759  6.927528
  7  0.000000  1.196180  5.597576
  6  0.000000  1.223896  2.800865
  6  0.000000  1.226321  1.427204
  7  0.000000  1.196508 -1.372709
  6  0.000000  1.190514 -2.686672
  6  0.000000 -1.213796 -5.654273
  6  0.000000 -1.210849 -7.036670
  1  0.000000  0.000000 -8.820197
  1  0.000000  2.149236 -7.577035
  1  0.000000  2.165588 -5.141813
  1  0.000000 -2.167063 -3.156658
  1  0.000000 -2.153059  0.870315
  1  0.000000 -2.147229  3.363653
  1  0.000000 -2.154852  7.420703
  1  0.000000  0.000000  8.740989
  1  0.000000  2.154852  7.420703
  1  0.000000  2.147229  3.363653
  1  0.000000  2.153059  0.870315
  1  0.000000  2.167063 -3.156658
  1  0.000000 -2.165588 -5.141813
  1  0.000000 -2.149236 -7.577035
  SCF Done:  E(UB3LYP) =  -989.542065183     A.U. after    1 cycles             
  
          23          40 "  -989.542065183"
After scan for Atom:   Atom  AN      X      Y      Z        X      Y      Z        X      Y      Z   
After scan for Atom:   Atom  AN      X      Y      Z        X      Y      Z        X      Y      Z   
After scan for Atom:   Atom  AN      X      Y      Z        X      Y      Z        X      Y      Z   
After scan for Atom:   Atom  AN      X      Y      Z        X      Y      Z        X      Y      Z   
After scan for Atom:   Atom  AN      X      Y      Z        X      Y      Z        X      Y      Z   
After scan for Atom:   Atom  AN      X      Y      Z        X      Y      Z        X      Y      Z   
After scan for Atom:   Atom  AN      X      Y      Z        X      Y      Z        X      Y      Z   
After scan for Atom:   Atom  AN      X      Y      Z        X      Y      Z        X      Y      Z   
After scan for Atom:   Atom  AN      X      Y      Z        X      Y      Z        X      Y      Z   
After scan for Atom:   Atom  AN      X      Y      Z        X      Y      Z        X      Y      Z   
After scan for Atom:   Atom  AN      X      Y      Z        X      Y      Z        X      Y      Z   
After scan for Atom:   Atom  AN      X      Y      Z        X      Y      Z        X      Y      Z   
After scan for Atom:   Atom  AN      X      Y      Z        X      Y      Z        X      Y      Z   
After scan for Atom:   Atom  AN      X      Y      Z        X      Y      Z        X      Y      Z   
After scan for Atom:   Atom  AN      X      Y      Z        X      Y      Z        X      Y      Z   
After scan for Atom:   Atom  AN      X      Y      Z        X      Y      Z        X      Y      Z   
After scan for Atom:   Atom  AN      X      Y      Z        X      Y      Z        X      Y      Z   
After scan for Atom:   Atom  AN      X      Y      Z        X      Y      Z        X      Y      Z   
After scan for Atom:   Atom  AN      X      Y      Z        X      Y      Z        X      Y      Z   
After scan for Atom:   Atom  AN      X      Y      Z        X      Y      Z        X      Y      Z   
After scan for Atom:   Atom  AN      X      Y      Z        X      Y      Z        X      Y      Z   
After scan for Atom:   Atom  AN      X      Y      Z        X      Y      Z        X      Y      Z   
After scan for Atom:   Atom  AN      X      Y      Z        X      Y      Z        X      Y      Z   
After scan for Atom:   Atom  AN      X      Y      Z        X      Y      Z        X      Y      Z   
After scan for Atom:   Atom  AN      X      Y      Z        X      Y      Z        X      Y      Z   
After scan for Atom:   Atom  AN      X      Y      Z        X      Y      Z        X      Y      Z   
After scan for Atom:   Atom  AN      X      Y      Z        X      Y      Z        X      Y      Z   
After scan for Atom:   Atom  AN      X      Y      Z        X      Y      Z        X      Y      Z   
After scan for Atom:   Atom  AN      X      Y      Z        X      Y      Z        X      Y      Z   
After scan for Atom:   Atom  AN      X      Y      Z        X      Y      Z        X      Y      Z   
After scan for Atom:   Atom  AN      X      Y      Z        X      Y      Z        X      Y      Z   
After scan for Atom:   Atom  AN      X      Y      Z        X      Y      Z        X      Y      Z   
After scan for Atom:   Atom  AN      X      Y      Z        X      Y      Z        X      Y      Z   
After scan for Atom:   Atom  AN      X      Y      Z        X      Y      Z        X      Y      Z   
After scan for Atom:   Atom  AN      X      Y      Z        X      Y      Z        X      Y      Z   
After scan for Atom:   Atom  AN      X      Y      Z        X      Y      Z        X      Y      Z   
 g94    frequencies=
     0.0    0.0    0.0    0.0    0.0    0.0  -52.5   18.1   42.6   53.4
    54.7   83.9  113.4  136.9  151.6  175.1  212.9  237.7  327.5  337.9
   380.7  384.5  393.0  406.4  412.2  428.4  446.0  477.7  488.7  507.9
   545.2  587.7  612.8  618.5  648.8  651.7  658.8  671.5  711.0  745.9
   774.8  789.9  814.2  815.3  823.7  829.1  853.6  854.0  912.8  950.2
   955.7  967.7  997.0  997.9 1004.8 1005.7 1013.4 1017.9 1025.3 1027.7
  1028.3 1037.3 1037.4 1048.5 1058.3 1078.1 1102.4 1121.6 1122.2 1139.5
  1193.8 1201.3 1225.7 1226.1 1265.0 1275.5 1310.3 1316.6 1324.7 1338.3
  1347.8 1365.7 1377.8 1394.1 1430.6 1433.5 1457.7 1461.2 1462.7 1485.5
  1502.5 1504.7 1524.9 1535.5 1578.7 1584.7 1588.8 1596.4 1626.0 1651.0
  3168.4 3170.9 3182.2 3182.2 3187.9 3196.7 3204.9 3209.8 3215.3 3215.9
  3218.4 3219.9 3226.3 3227.8
 g94    symmetries=
                                                A2     B1     A2     B1
      B2     A2     B1     B2     B1     A1     B2     B1     B1     A1
      B2     A2     A2     A2     A2     B1     B2     B1     A1     B2
      B1     B1     B2     B2     B2     A1     B2     B1     A1     B1
      A1     B1     B1     A1     B1     A2     B1     A2     B1     B1
      A2     B1     A2     A1     A2     A1     A1     A1     B1     B1
      A1     B1     A2     A1     A1     A1     A1     B2     B2     B2
      B2     A1     A1     B2     B2     B2     B2     A1     B2     B2
      A1     B2     B2     A1     A1     B2     A1     B2     B2     B2
      A1     B2     B2     A1     B2     B2     A1     A1     A1     A1
      A1     B2     B2     A1     A1     B2     A1     A1     A1     B2
      B2     A1     B2     A1
 atomic masses:
 12.0000 12.0000 12.0000 12.0000 12.0000 12.0000 14.0031 12.0000 12.0000 12.0000
 12.0000 12.0000 12.0000 14.0031 12.0000 12.0000 12.0000 14.0031 12.0000 12.0000
 14.0031 12.0000 12.0000 12.0000  1.0078  1.0078  1.0078  1.0078  1.0078  1.0078
  1.0078  1.0078  1.0078  1.0078  1.0078  1.0078  1.0078  1.0078
 looking for force constants in 
 ./Non-cov-phenyl-N_3_C1S0.fchk                                                 
  
 Cartesian Force Constants                  R   N=        6555                  
  
 n3=         114        6555
 g94-fc frequencies=
   -52.5   -5.7   -1.8   -1.0   -0.0   -0.0    0.0   18.1   42.6   53.4
    54.7   83.9  113.4  136.9  151.6  175.1  212.9  237.7  327.5  337.9
   380.7  384.5  393.1  406.4  412.2  428.4  446.0  477.7  488.8  507.9
   545.2  587.7  612.8  618.5  648.8  651.7  658.8  671.5  711.0  745.9
   774.8  789.9  814.2  815.3  823.7  829.1  853.6  854.0  912.8  950.2
   955.7  967.7  997.0  997.9 1004.8 1005.7 1013.5 1017.9 1025.3 1027.7
  1028.3 1037.4 1037.4 1048.5 1058.3 1078.1 1102.5 1121.6 1122.2 1139.5
  1193.8 1201.3 1225.7 1226.2 1265.0 1275.5 1310.4 1316.6 1324.8 1338.3
  1347.9 1365.7 1377.9 1394.1 1430.6 1433.6 1457.8 1461.2 1462.8 1485.5
  1502.5 1504.7 1524.9 1535.6 1578.7 1584.7 1588.8 1596.4 1626.1 1651.0
  3168.4 3171.0 3182.2 3182.3 3188.0 3196.7 3204.9 3209.8 3215.4 3215.9
  3218.5 3219.9 3226.4 3227.8
 at 99999: n3=         114
 symm operator            1 :  T  nop=           1
 symm operator            2 :  F  nop=           1
 symm operator            3 :  F  nop=           1
 symm operator            4 :  F  nop=           1
 symm operator            5 :  F  nop=           1
 symm operator            6 :  T  nop=           2
 symm operator            7 :  T  nop=           3
 The point group of the molecule is C2V
 enforcing symm op           1  jsymt=          -1          -1           1
 enforcing symm op           6  jsymt=           1          -1           1
 enforcing symm op           7  jsymt=          -1           1           1
 cartesian coord symmetries:
 A1 :   38 A2 :   14 B1 :   24 B2 :   38
 Symmetry rotation matrix:
   1.00000   0.00000   0.00000
   0.00000   1.00000   0.00000
   0.00000   0.00000   1.00000

 Projecting out zero-frequency components
 generating redundant internal coords
         300        3600          38
 search for int coords
   1 str   2   1   1.399
   2 str   3   2   1.382
   3 str   4   3   1.419
   4 str   5   4   1.454
   5 str   6   5   1.423
   6 str   7   6   1.314
   7 str   8   7   1.354
   8 str   9   8   1.448
   9 str  10   9   1.421
  10 str  11  10   1.374
  11 str  12  11   1.416
  12 str  13  12   1.473
  13 str  14  13   1.343
  14 str  15  14   1.330
  15 str  16  15   1.395
  16 str  17  16   1.395
  17 str  18  13   1.343
  18 str  18  17   1.330
  19 str  19  12   1.416
  20 str  20   9   1.421
  21 str  20  19   1.374
  22 str  21   8   1.354
  23 str  22   5   1.423
  24 str  22  21   1.314
  25 str  23   4   1.419
  26 str  24   1   1.399
  27 str  24  23   1.382
  28 str  25   1   1.083
  29 str  26   2   1.083
  30 str  27   3   1.081
  31 str  28   6   1.084
  32 str  29  10   1.081
  33 str  30  11   1.081
  34 str  31  15   1.086
  35 str  32  16   1.082
  36 str  33  17   1.086
  37 str  34  19   1.081
  38 str  35  20   1.081
  39 str  36  22   1.084
  40 str  37  23   1.081
  41 str  38  24   1.083
 nber stretches=          41
  42 ben   1   2   3
  43 prop tor   1   2   3   4
  44 prop tor   1   2   3  27
  45 ben   1   2  26
  46 ben   1  24  23
  47 ben   1  24  38
  48 ben   2   1  24
  49 prop tor   2   1  24  23
  50 prop tor   2   1  24  38
  51 ben   2   1  25
  52 ben   2   3   4
  53 prop tor   2   3   4   5
  54 prop tor   2   3   4  23
  55 ben   2   3  27
  56 ben   3   2  26
  57 ben   3   4   5
  58 prop tor   3   4   5   6
  59 prop tor   3   4   5  22
  60 ben   3   4  23
  61 prop tor   3   4  23  24
  62 prop tor   3   4  23  37
  63 ben   4   3  27
  64 ben   4   5   6
  65 prop tor   4   5   6   7
  66 prop tor   4   5   6  28
  67 ben   4   5  22
  68 prop tor   4   5  22  21
  69 prop tor   4   5  22  36
  70 ben   4  23  24
  71 prop tor   4  23  24   1
  72 prop tor   4  23  24  38
  73 ben   4  23  37
  74 ben   5   4  23
  75 prop tor   5   4  23  24
  76 prop tor   5   4  23  37
  77 ben   5   6   7
  78 prop tor   5   6   7   8
  79 ben   5   6  28
  80 ben   5  22  21
  81 ben   5  22  36
  82 ben   6   5  22
  83 prop tor   6   5  22  21
  84 prop tor   6   5  22  36
  85 ben   6   7   8
  86 prop tor   6   7   8   9
  87 prop tor   6   7   8  21
  88 ben   7   6  28
  89 ben   7   8   9
  90 prop tor   7   8   9  10
  91 prop tor   7   8   9  20
  92 ben   7   8  21
  93 prop tor   7   8  21  22
  94 ben   8   9  10
  95 prop tor   8   9  10  11
  96 prop tor   8   9  10  29
  97 ben   8   9  20
  98 prop tor   8   9  20  19
  99 prop tor   8   9  20  35
 100 ben   8  21  22
 101 prop tor   8  21  22   5
 102 prop tor   8  21  22  36
 103 ben   9   8  21
 104 prop tor   9   8  21  22
 105 ben   9  10  11
 106 prop tor   9  10  11  12
 107 prop tor   9  10  11  30
 108 ben   9  10  29
 109 ben   9  20  19
 110 ben   9  20  35
 111 ben  10   9  20
 112 prop tor  10   9  20  19
 113 prop tor  10   9  20  35
 114 ben  10  11  12
 115 prop tor  10  11  12  13
 116 prop tor  10  11  12  19
 117 ben  10  11  30
 118 ben  11  10  29
 119 ben  11  12  13
 120 prop tor  11  12  13  14
 121 prop tor  11  12  13  18
 122 ben  11  12  19
 123 prop tor  11  12  19  20
 124 prop tor  11  12  19  34
 125 ben  12  11  30
 126 ben  12  13  14
 127 prop tor  12  13  14  15
 128 ben  12  13  18
 129 prop tor  12  13  18  17
 130 ben  12  19  20
 131 prop tor  12  19  20   9
 132 prop tor  12  19  20  35
 133 ben  12  19  34
 134 ben  13  12  19
 135 prop tor  13  12  19  20
 136 prop tor  13  12  19  34
 137 ben  13  14  15
 138 prop tor  13  14  15  16
 139 prop tor  13  14  15  31
 140 ben  13  18  17
 141 ben  14  13  18
 142 prop tor  14  13  18  17
 143 ben  14  15  16
 144 prop tor  14  15  16  17
 145 prop tor  14  15  16  32
 146 ben  14  15  31
 147 ben  15  16  17
 148 prop tor  15  16  17  18
 149 prop tor  15  16  17  33
 150 ben  15  16  32
 151 ben  16  15  31
 152 ben  16  17  18
 153 prop tor  16  17  18  13
 154 ben  16  17  33
 155 ben  17  16  32
 156 prop tor  18  13  14  15
 157 ben  18  17  33
 158 prop tor  19  12  13  14
 159 prop tor  19  12  13  18
 160 ben  19  20  35
 161 prop tor  20   9  10  11
 162 prop tor  20   9  10  29
 163 ben  20  19  34
 164 prop tor  21   8   9  10
 165 prop tor  21   8   9  20
 166 ben  21  22  36
 167 prop tor  22   5   6   7
 168 prop tor  22   5   6  28
 169 prop tor  23   4   5   6
 170 prop tor  23   4   5  22
 171 ben  23  24  38
 172 prop tor  24   1   2   3
 173 prop tor  24   1   2  26
 174 ben  24   1  25
 175 ben  24  23  37
 176 prop tor  25   1   2   3
 177 prop tor  25   1   2  26
 178 prop tor  25   1  24  23
 179 prop tor  25   1  24  38
 180 prop tor  26   2   3   4
 181 prop tor  26   2   3  27
 182 prop tor  27   3   4   5
 183 prop tor  27   3   4  23
 184 prop tor  28   6   7   8
 185 prop tor  29  10  11  12
 186 prop tor  29  10  11  30
 187 prop tor  30  11  12  13
 188 prop tor  30  11  12  19
 189 prop tor  31  15  16  17
 190 prop tor  31  15  16  32
 191 prop tor  32  16  17  18
 192 prop tor  32  16  17  33
 193 prop tor  33  17  18  13
 194 prop tor  34  19  20   9
 195 prop tor  34  19  20  35
 196 prop tor  37  23  24   1
 197 prop tor  37  23  24  38
 nber bend=              64
 nber lin bend=           0
 nber prop tor=          92
 nber impr tor=           0
 nber tot redund int=         197
 Eigenvalues of G in red int coords
    Gval -0.00000000 -0.00000000 -0.00000000 -0.00000000 -0.00000000 -0.00000000 -0.00000000 -0.00000000
    Gval -0.00000000 -0.00000000 -0.00000000 -0.00000000 -0.00000000 -0.00000000 -0.00000000 -0.00000000
    Gval -0.00000000 -0.00000000 -0.00000000 -0.00000000 -0.00000000 -0.00000000 -0.00000000 -0.00000000
    Gval -0.00000000 -0.00000000 -0.00000000 -0.00000000 -0.00000000 -0.00000000 -0.00000000 -0.00000000
    Gval -0.00000000 -0.00000000 -0.00000000 -0.00000000 -0.00000000 -0.00000000 -0.00000000 -0.00000000
    Gval -0.00000000 -0.00000000 -0.00000000  0.00000000  0.00000000  0.00000000  0.00000000  0.00000000
    Gval  0.00000000  0.00000000  0.00000000  0.00000000  0.00000000  0.00000000  0.00000000  0.00000000
    Gval  0.00000000  0.00000000  0.00000000  0.00000000  0.00000000  0.00000000  0.00000000  0.00000000
    Gval  0.00000000  0.00000000  0.00000000  0.00000000  0.00000000  0.00000000  0.00000000  0.00000000
    Gval  0.00000000  0.00000000  0.00000000  0.00000000  0.00000000  0.00000000  0.00000000  0.00000000
    Gval  0.00000000  0.00000000  0.00000000  0.00000000  0.00000000  0.00000000  0.00000000  0.00000000
    Gval  0.00000000  0.00000050  0.00000169  0.00000205  0.00000306  0.00000768  0.00000852  0.00001259
    Gval  0.00001383  0.00001539  0.00001999  0.00002803  0.00002968  0.00004214  0.00004492  0.00004530
    Gval  0.00004768  0.00004902  0.00005021  0.00005589  0.00005628  0.00005744  0.00005808  0.00006691
    Gval  0.00006905  0.00007772  0.00008259  0.00008905  0.00010035  0.00010273  0.00010581  0.00011505
    Gval  0.00011676  0.00011788  0.00012082  0.00012198  0.00012742  0.00013231  0.00017287  0.00020962
    Gval  0.00022976  0.00025203  0.00026328  0.00027155  0.00027663  0.00029143  0.00031138  0.00035050
    Gval  0.00035973  0.00037706  0.00038302  0.00038960  0.00039304  0.00041791  0.00043309  0.00050055
    Gval  0.00052570  0.00055950  0.00059305  0.00059355  0.00059364  0.00059671  0.00059799  0.00060040
    Gval  0.00060044  0.00060393  0.00060420  0.00061652  0.00062556  0.00062889  0.00063540  0.00064143
    Gval  0.00064869  0.00066036  0.00070884  0.00092361  0.00104308  0.00105395  0.00106249  0.00107690
    Gval  0.00110733  0.00110888  0.00111203  0.00112962  0.00113234  0.00114122  0.00116097  0.00117372
    Gval  0.00117407  0.00117424  0.00117843  0.00140125  0.00142388  0.00145610  0.00151144  0.00175339
    Gval  0.00180684  0.00227619  0.00227736  0.00233253  0.00235831  0.00243935  0.00247084  0.00316296
    Gval  0.00369394  0.00372101  0.00373720  0.00380823  0.00406422
  4.952964071077071E-007  4.952964071077071E-007
  1.694329911150292E-006  4.952964071077071E-007
  2.046760169847449E-006  4.952964071077071E-007
  3.057739476571062E-006  4.952964071077071E-007
  7.684158508725960E-006  4.952964071077071E-007
  8.519422247735250E-006  4.952964071077071E-007
  1.258664080126963E-005  4.952964071077071E-007
  1.383415014437185E-005  4.952964071077071E-007
  1.539220313585661E-005  4.952964071077071E-007
  1.998959314236399E-005  4.952964071077071E-007
  2.802526383352256E-005  4.952964071077071E-007
  2.968119976098113E-005  4.952964071077071E-007
  4.213702300446595E-005  4.952964071077071E-007
  4.492403370549086E-005  4.952964071077071E-007
  4.530143600267595E-005  4.952964071077071E-007
  4.767722329205811E-005  4.952964071077071E-007
  4.902386355110755E-005  4.952964071077071E-007
  5.021380734808827E-005  4.952964071077071E-007
  5.588775679961261E-005  4.952964071077071E-007
  5.627942400635812E-005  4.952964071077071E-007
  5.744162928639188E-005  4.952964071077071E-007
  5.807645046450104E-005  4.952964071077071E-007
  6.690904759187673E-005  4.952964071077071E-007
  6.905314788426582E-005  4.952964071077071E-007
  7.772129475402358E-005  4.952964071077071E-007
  8.258756553066490E-005  4.952964071077071E-007
  8.904563391316865E-005  4.952964071077071E-007
  1.003519131852041E-004  4.952964071077071E-007
  1.027270881927947E-004  4.952964071077071E-007
  1.058095816888643E-004  4.952964071077071E-007
  1.150501172061712E-004  4.952964071077071E-007
  1.167647518670427E-004  4.952964071077071E-007
  1.178824955058587E-004  4.952964071077071E-007
  1.208158889922493E-004  4.952964071077071E-007
  1.219823876186737E-004  4.952964071077071E-007
  1.274166592901605E-004  4.952964071077071E-007
  1.323119941808574E-004  4.952964071077071E-007
  1.728731770372151E-004  4.952964071077071E-007
  2.096193398039659E-004  4.952964071077071E-007
  2.297644418865472E-004  4.952964071077071E-007
  2.520257824057950E-004  4.952964071077071E-007
  2.632838866056576E-004  4.952964071077071E-007
  2.715454476149555E-004  4.952964071077071E-007
  2.766332844256181E-004  4.952964071077071E-007
  2.914307995121903E-004  4.952964071077071E-007
  3.113820981416748E-004  4.952964071077071E-007
  3.505012578293706E-004  4.952964071077071E-007
  3.597336743057782E-004  4.952964071077071E-007
  3.770598137582498E-004  4.952964071077071E-007
  3.830236042016728E-004  4.952964071077071E-007
  3.896004043094593E-004  4.952964071077071E-007
  3.930357413560557E-004  4.952964071077071E-007
  4.179074798151146E-004  4.952964071077071E-007
  4.330922505077875E-004  4.952964071077071E-007
  5.005547158598233E-004  4.952964071077071E-007
  5.256952194982471E-004  4.952964071077071E-007
  5.594982357950030E-004  4.952964071077071E-007
  5.930491066170318E-004  4.952964071077071E-007
  5.935477855953458E-004  4.952964071077071E-007
  5.936358857986768E-004  4.952964071077071E-007
  5.967148292258574E-004  4.952964071077071E-007
  5.979942699665825E-004  4.952964071077071E-007
  6.004042777248887E-004  4.952964071077071E-007
  6.004449645665676E-004  4.952964071077071E-007
  6.039274119749890E-004  4.952964071077071E-007
  6.042026239038176E-004  4.952964071077071E-007
  6.165159499582560E-004  4.952964071077071E-007
  6.255569134291706E-004  4.952964071077071E-007
  6.288938457662864E-004  4.952964071077071E-007
  6.353961411711298E-004  4.952964071077071E-007
  6.414267485322058E-004  4.952964071077071E-007
  6.486930007937550E-004  4.952964071077071E-007
  6.603601802099596E-004  4.952964071077071E-007
  7.088409908203797E-004  4.952964071077071E-007
  9.236130802106372E-004  4.952964071077071E-007
  1.043083362618617E-003  4.952964071077071E-007
  1.053949604096995E-003  4.952964071077071E-007
  1.062489488846722E-003  4.952964071077071E-007
  1.076901891706284E-003  4.952964071077071E-007
  1.107331345060099E-003  4.952964071077071E-007
  1.108880696884475E-003  4.952964071077071E-007
  1.112030479642832E-003  4.952964071077071E-007
  1.129619259689891E-003  4.952964071077071E-007
  1.132335459348397E-003  4.952964071077071E-007
  1.141217085853530E-003  4.952964071077071E-007
  1.160968905874120E-003  4.952964071077071E-007
  1.173717796511352E-003  4.952964071077071E-007
  1.174065771084990E-003  4.952964071077071E-007
  1.174239111798210E-003  4.952964071077071E-007
  1.178431879070175E-003  4.952964071077071E-007
  1.401252806056493E-003  4.952964071077071E-007
  1.423881645058205E-003  4.952964071077071E-007
  1.456103023591474E-003  4.952964071077071E-007
  1.511441181592641E-003  4.952964071077071E-007
  1.753392094759090E-003  4.952964071077071E-007
  1.806842047713624E-003  4.952964071077071E-007
  2.276187186599567E-003  4.952964071077071E-007
  2.277357677146214E-003  4.952964071077071E-007
  2.332531274327700E-003  4.952964071077071E-007
  2.358311473006961E-003  4.952964071077071E-007
  2.439346658665345E-003  4.952964071077071E-007
  2.470836523998072E-003  4.952964071077071E-007
  3.162959606576567E-003  4.952964071077071E-007
  3.693937359420433E-003  4.952964071077071E-007
  3.721006332329631E-003  4.952964071077071E-007
  3.737198156200796E-003  4.952964071077071E-007
  3.808228655221903E-003  4.952964071077071E-007
  4.064223144303096E-003  4.952964071077071E-007
 cut=1d-8, nber non-redundant internal coords=         108
 Check on Eigenvals of non-red overlap matrix:
  0.00000050  0.00000169  0.00000205  0.00000306  0.00000768  0.00000852  0.00001259  0.00001383
  0.00001539  0.00001999  0.00002803  0.00002968  0.00004214  0.00004492  0.00004530  0.00004768
  0.00004902  0.00005021  0.00005589  0.00005628  0.00005744  0.00005808  0.00006691  0.00006905
  0.00007772  0.00008259  0.00008905  0.00010035  0.00010273  0.00010581  0.00011505  0.00011676
  0.00011788  0.00012082  0.00012198  0.00012742  0.00013231  0.00017287  0.00020962  0.00022976
  0.00025203  0.00026328  0.00027155  0.00027663  0.00029143  0.00031138  0.00035050  0.00035973
  0.00037706  0.00038302  0.00038960  0.00039304  0.00041791  0.00043309  0.00050055  0.00052570
  0.00055950  0.00059305  0.00059355  0.00059364  0.00059671  0.00059799  0.00060040  0.00060044
  0.00060393  0.00060420  0.00061652  0.00062556  0.00062889  0.00063540  0.00064143  0.00064869
  0.00066036  0.00070884  0.00092361  0.00104308  0.00105395  0.00106249  0.00107690  0.00110733
  0.00110888  0.00111203  0.00112962  0.00113234  0.00114122  0.00116097  0.00117372  0.00117407
  0.00117424  0.00117843  0.00140125  0.00142388  0.00145610  0.00151144  0.00175339  0.00180684
  0.00227619  0.00227736  0.00233253  0.00235831  0.00243935  0.00247084  0.00316296  0.00369394
  0.00372101  0.00373720  0.00380823  0.00406422
 Checking for correct frequencies
 recalc frequencies=
   -52.5   -0.0   -0.0    0.0    0.0    0.0    0.0   18.1   42.6   53.4
    54.7   83.9  113.4  136.9  151.6  175.1  212.9  237.7  327.5  337.9
   380.7  384.5  393.1  406.4  412.2  428.4  446.0  477.7  488.8  507.9
   545.2  587.7  612.8  618.5  648.8  651.7  658.8  671.5  711.0  745.9
   774.8  789.9  814.2  815.3  823.7  829.1  853.6  854.0  912.8  950.2
   955.7  967.7  997.0  997.9 1004.8 1005.7 1013.5 1017.9 1025.3 1027.7
  1028.3 1037.4 1037.4 1048.5 1058.3 1078.1 1102.5 1121.6 1122.2 1139.5
  1193.8 1201.3 1225.7 1226.2 1265.0 1275.5 1310.4 1316.6 1324.8 1338.3
  1347.9 1365.7 1377.9 1394.1 1430.6 1433.6 1457.8 1461.2 1462.8 1485.5
  1502.5 1504.7 1524.9 1535.6 1578.7 1584.7 1588.8 1596.4 1626.1 1651.0
  3168.4 3171.0 3182.2 3182.3 3188.0 3196.7 3204.9 3209.8 3215.4 3215.9
  3218.5 3219.9 3226.4 3227.8
 recalc symmetries=
     A2     B2     A2     B1     B2     B1     A1     B1     A2     B1 
     B2     A2     B1     B2     B1     A1     B2     B1     B1     A1 
     B2     A2     A2     A2     A2     B1     B2     B1     A1     B2 
     B1     B1     B2     B2     B2     A1     B2     B1     A1     B1 
     A1     B1     B1     A1     B1     A2     B1     A2     B1     B1 
     A2     B1     A2     A1     A2     A1     A1     A1     B1     B1 
     A1     B1     A2     A1     A1     A1     A1     B2     B2     B2 
     B2     A1     A1     B2     B2     B2     B2     A1     B2     B2 
     A1     B2     B2     A1     A1     B2     A1     B2     B2     B2 
     A1     B2     B2     A1     B2     B2     A1     A1     A1     A1 
     A1     B2     B2     A1     A1     B2     A1     A1     A1     B2 
     B2     A1     B2     A1 
 recalc freqs check OK
 Zero-point lengths:
 34.2003 10.0000 10.0000 10.0000 10.0000 10.0000 10.0000 58.3060 37.9614 33.9317
 33.5176 27.0683 23.2841 21.1877 20.1348 18.7340 16.9903 16.0791 13.6991 13.4868
 12.7058 12.6426 12.5045 12.2973 12.2113 11.9770 11.7389 11.3427 11.2138 11.0000
 10.6175 10.2261 10.0145  9.9680  9.7326  9.7113  9.6584  9.5668  9.2974  9.0774
  8.9061  8.8210  8.6881  8.6825  8.6380  8.6098  8.4852  8.4834  8.2055  8.0423
  8.0191  7.9693  7.8513  7.8478  7.8208  7.8175  7.7874  7.7703  7.7423  7.7331
  7.7310  7.6972  7.6970  7.6561  7.6205  7.5503  7.4664  7.4025  7.4003  7.3441
  7.1752  7.1527  7.0812  7.0798  6.9702  6.9416  6.8486  6.8323  6.8112  6.7766
  6.7526  6.7084  6.6787  6.6396  6.5544  6.5477  6.4931  6.4855  6.4820  6.4321
  6.3957  6.3910  6.3485  6.3265  6.2395  6.2276  6.2195  6.2047  6.1479  6.1013
  4.4043  4.4025  4.3947  4.3947  4.3908  4.3847  4.3791  4.3758  4.3720  4.3716
  4.3699  4.3689  4.3645  4.3636
 highest evec of mol 2
  0.0000  0.0000 -0.0001
  0.0000 -0.0000  0.0001
  0.0000 -0.0005 -0.0004
  0.0000  0.0000  0.0001
  0.0000  0.0000 -0.0001
  0.0000  0.0015  0.0008
  0.0000  0.0006 -0.0008
  0.0000  0.0000 -0.0004
  0.0000  0.0000 -0.0059
  0.0000 -0.1305 -0.0843
  0.0000 -0.1173  0.0777
  0.0000  0.0000  0.0051
  0.0000  0.0000  0.0007
  0.0000  0.0006  0.0006
  0.0000  0.0009 -0.0004
  0.0000  0.0000 -0.0009
  0.0000 -0.0009 -0.0004
  0.0000 -0.0006  0.0006
  0.0000  0.1173  0.0777
  0.0000  0.1305 -0.0843
  0.0000 -0.0006 -0.0008
  0.0000 -0.0015  0.0008
  0.0000  0.0005 -0.0004
  0.0000  0.0000  0.0001
  0.0000  0.0000  0.0002
  0.0000  0.0001 -0.0001
  0.0000  0.0018  0.0010
  0.0000 -0.0043 -0.0022
  0.0000  0.4311  0.2567
  0.0000  0.3874 -0.2327
  0.0000 -0.0023  0.0012
  0.0000  0.0000  0.0032
  0.0000  0.0023  0.0012
  0.0000 -0.3874 -0.2327
  0.0000 -0.4311  0.2567
  0.0000  0.0043 -0.0022
  0.0000 -0.0018  0.0010
  0.0000 -0.0001 -0.0001
 Enter nber and list of atoms to keep of mol #2
 keep list:          38           1           2           3           4
           5           6           7           8           9          10
          11          12          13          14          15          16
          17          18          19          20          21          22
          23          24          25          26          27          28
          29          30          31          32          33          34
          35          36          37          38
 reordering atoms
           1  -7.79452969133328     
           2  -7.09432869133328     
           3  -5.71193169133328     
           4  -4.97730869133328     
           5  -3.52344369133328     
           6  -2.74433069133328     
           7  -1.43036769133328     
           8 -0.796606691333278     
           9  0.651326308666722     
          10   1.36954530866672     
          11   2.74320630866672     
          12   3.45562830866672     
          13   4.92896430866672     
          14   5.53991730866672     
          15   6.86986930866672     
          16   7.60085830866672     
          17   6.86986930866672     
          18   5.53991730866672     
          19   2.74320630866672     
          20   1.36954530866672     
          21  -1.43036769133328     
          22  -2.74433069133328     
          23  -5.71193169133328     
          24  -7.09432869133328     
          25  -8.87785569133328     
          26  -7.63469369133328     
          27  -5.19947169133328     
          28  -3.21431669133328     
          29  0.812656308666722     
          30   3.30599430866672     
          31   7.36304430866672     
          32   8.68333030866672     
          33   7.36304430866672     
          34   3.30599430866672     
          35  0.812656308666722     
          36  -3.21431669133328     
          37  -5.19947169133328     
          38  -7.63469369133328     
           1           1
           2           2
           3           3
           4           4
           5           5
           6           6
           7           7
           8           8
           9           9
          10          10
          11          11
          12          12
          13          13
          14          14
          15          15
          16          16
          17          17
          18          18
          19          19
          20          20
          21          21
          22          22
          23          23
          24          24
          25          25
          26          26
          27          27
          28          28
          29          29
          30          30
          31          31
          32          32
          33          33
          34          34
          35          35
          36          36
          37          37
          38          38
 initial cartes coords mol 1
   6   0.00000   0.00000  -7.85167
   6   0.00000  -1.20057  -7.14598
   6   0.00000  -1.20014  -5.75557
   6   0.00000   0.00000  -5.02404
   6   0.00000   0.00000  -3.53996
   6   0.00000   1.17291  -2.76859
   7   0.00000   1.18563  -1.44169
   6   0.00000   0.00000  -0.81169
   6   0.00000   0.00000   0.66811
   6   0.00000   1.20765   1.38146
   6   0.00000   1.20750   2.76792
   6   0.00000   0.00000   3.48092
   6   0.00000   0.00000   4.96339
   7   0.00000   1.19150   5.58558
   6   0.00000   1.17955   6.91602
   6   0.00000   0.00000   7.65326
   6   0.00000  -1.17955   6.91602
   7   0.00000  -1.19150   5.58558
   6   0.00000  -1.20750   2.76792
   6   0.00000  -1.20765   1.38146
   7   0.00000  -1.18563  -1.44169
   6   0.00000  -1.17291  -2.76859
   6   0.00000   1.20014  -5.75557
   6   0.00000   1.20057  -7.14598
   1   0.00000   0.00000  -8.93566
   1   0.00000  -2.14505  -7.67865
   1   0.00000  -2.15302  -5.24325
   1   0.00000   2.15177  -3.23750
   1   0.00000   2.13797   0.82965
   1   0.00000   2.13767   3.32003
   1   0.00000   2.14952   7.40682
   1   0.00000   0.00000   8.73505
   1   0.00000  -2.14952   7.40682
   1   0.00000  -2.13767   3.32003
   1   0.00000  -2.13797   0.82965
   1   0.00000  -2.15177  -3.23750
   1   0.00000   2.15302  -5.24325
   1   0.00000   2.14505  -7.67865
 initial cartes coords mol 2
   6   0.00000  -0.00000  -7.79453
   6   0.00000  -1.21085  -7.09433
   6   0.00000  -1.21380  -5.71193
   6   0.00000  -0.00000  -4.97731
   6   0.00000  -0.00000  -3.52344
   6   0.00000   1.19051  -2.74433
   7   0.00000   1.19651  -1.43037
   6   0.00000  -0.00000  -0.79661
   6   0.00000  -0.00000   0.65133
   6   0.00000   1.22632   1.36955
   6   0.00000   1.22390   2.74321
   6   0.00000  -0.00000   3.45563
   6   0.00000  -0.00000   4.92896
   7   0.00000   1.19618   5.53992
   6   0.00000   1.18776   6.86987
   6   0.00000  -0.00000   7.60086
   6   0.00000  -1.18776   6.86987
   7   0.00000  -1.19618   5.53992
   6   0.00000  -1.22390   2.74321
   6   0.00000  -1.22632   1.36955
   7   0.00000  -1.19651  -1.43037
   6   0.00000  -1.19051  -2.74433
   6   0.00000   1.21380  -5.71193
   6   0.00000   1.21085  -7.09433
   1   0.00000  -0.00000  -8.87786
   1   0.00000  -2.14924  -7.63469
   1   0.00000  -2.16559  -5.19947
   1   0.00000   2.16706  -3.21432
   1   0.00000   2.15306   0.81266
   1   0.00000   2.14723   3.30599
   1   0.00000   2.15485   7.36304
   1   0.00000  -0.00000   8.68333
   1   0.00000  -2.15485   7.36304
   1   0.00000  -2.14723   3.30599
   1   0.00000  -2.15306   0.81266
   1   0.00000  -2.16706  -3.21432
   1   0.00000   2.16559  -5.19947
   1   0.00000   2.14924  -7.63469
 loop 1 0
 mod cartes coords mol 2
   6   0.00000  -0.00000  -7.79453
   6   0.00000  -1.21085  -7.09433
   6   0.00000  -1.21380  -5.71193
   6   0.00000  -0.00000  -4.97731
   6   0.00000  -0.00000  -3.52344
   6   0.00000   1.19051  -2.74433
   7   0.00000   1.19651  -1.43037
   6   0.00000  -0.00000  -0.79661
   6   0.00000  -0.00000   0.65133
   6   0.00000   1.22632   1.36955
   6   0.00000   1.22390   2.74321
   6   0.00000  -0.00000   3.45563
   6   0.00000  -0.00000   4.92896
   7   0.00000   1.19618   5.53992
   6   0.00000   1.18776   6.86987
   6   0.00000  -0.00000   7.60086
   6   0.00000  -1.18776   6.86987
   7   0.00000  -1.19618   5.53992
   6   0.00000  -1.22390   2.74321
   6   0.00000  -1.22632   1.36955
   7   0.00000  -1.19651  -1.43037
   6   0.00000  -1.19051  -2.74433
   6   0.00000   1.21380  -5.71193
   6   0.00000   1.21085  -7.09433
   1   0.00000  -0.00000  -8.87786
   1   0.00000  -2.14924  -7.63469
   1   0.00000  -2.16559  -5.19947
   1   0.00000   2.16706  -3.21432
   1   0.00000   2.15306   0.81266
   1   0.00000   2.14723   3.30599
   1   0.00000   2.15485   7.36304
   1   0.00000  -0.00000   8.68333
   1   0.00000  -2.15485   7.36304
   1   0.00000  -2.14723   3.30599
   1   0.00000  -2.15306   0.81266
   1   0.00000  -2.16706  -3.21432
   1   0.00000   2.16559  -5.19947
   1   0.00000   2.14924  -7.63469
 read in order, maxerr=  0.06 for atom  25
 final axis swaps:           1           1           1
 final xyz swap pattern=           1
 reorder list:
   1   2   3   4   5   6   7   8   9  10  11  12  13  14  15  16  17  18  19  20
  21  22  23  24  25  26  27  28  29  30  31  32  33  34  35  36  37  38
 axis signs=           1           1           1
  6     0.000000 -0.000000 -7.794530     0.000000  0.000000 -7.851672
  6     0.000000 -1.210849 -7.094329     0.000000 -1.200570 -7.145985
  6     0.000000 -1.213796 -5.711932     0.000000 -1.200142 -5.755574
  6     0.000000 -0.000000 -4.977309     0.000000  0.000000 -5.024045
  6     0.000000 -0.000000 -3.523444     0.000000  0.000000 -3.539959
  6     0.000000  1.190514 -2.744331     0.000000  1.172910 -2.768587
  7     0.000000  1.196508 -1.430368     0.000000  1.185635 -1.441692
  6     0.000000 -0.000000 -0.796607     0.000000  0.000000 -0.811693
  6     0.000000 -0.000000  0.651326     0.000000  0.000000  0.668113
  6     0.000000  1.226321  1.369545     0.000000  1.207653  1.381457
  6     0.000000  1.223896  2.743206     0.000000  1.207501  2.767919
  6     0.000000 -0.000000  3.455628     0.000000  0.000000  3.480920
  6     0.000000 -0.000000  4.928964     0.000000  0.000000  4.963387
  7     0.000000  1.196180  5.539917     0.000000  1.191504  5.585579
  6     0.000000  1.187759  6.869869     0.000000  1.179548  6.916022
  6     0.000000 -0.000000  7.600858     0.000000  0.000000  7.653255
  6     0.000000 -1.187759  6.869869     0.000000 -1.179548  6.916022
  7     0.000000 -1.196180  5.539917     0.000000 -1.191504  5.585579
  6     0.000000 -1.223896  2.743206     0.000000 -1.207501  2.767919
  6     0.000000 -1.226321  1.369545     0.000000 -1.207653  1.381457
  7     0.000000 -1.196508 -1.430368     0.000000 -1.185635 -1.441692
  6     0.000000 -1.190514 -2.744331     0.000000 -1.172910 -2.768587
  6     0.000000  1.213796 -5.711932     0.000000  1.200142 -5.755574
  6     0.000000  1.210849 -7.094329     0.000000  1.200570 -7.145985
  1     0.000000 -0.000000 -8.877856     0.000000  0.000000 -8.935665
  1     0.000000 -2.149236 -7.634694     0.000000 -2.145051 -7.678654
  1     0.000000 -2.165588 -5.199472     0.000000 -2.153025 -5.243251
  1     0.000000  2.167063 -3.214317     0.000000  2.151769 -3.237500
  1     0.000000  2.153059  0.812656     0.000000  2.137975  0.829650
  1     0.000000  2.147229  3.305994     0.000000  2.137668  3.320028
  1     0.000000  2.154852  7.363044     0.000000  2.149523  7.406819
  1     0.000000 -0.000000  8.683330     0.000000  0.000000  8.735050
  1     0.000000 -2.154852  7.363044     0.000000 -2.149523  7.406819
  1     0.000000 -2.147229  3.305994     0.000000 -2.137668  3.320028
  1     0.000000 -2.153059  0.812656     0.000000 -2.137975  0.829650
  1     0.000000 -2.167063 -3.214317     0.000000 -2.151769 -3.237500
  1     0.000000  2.165588 -5.199472     0.000000  2.153025 -5.243251
  1     0.000000  2.149236 -7.634694     0.000000  2.145051 -7.678654
 generating redundant internal coords
         300        3600          38
 Adding extra bonds for z output only
           6           6           6           6           6           6
           7           6           6           6           6           6
           6           7           6           6           6           7
           6           6           7           6           6           6
           1           1           1           1           1           1
           1           1           1           1           1           1
           1           1
 search for int coords
   1 str   2   1   1.399
   2 str   3   2   1.382
   3 str   4   3   1.419
   4 str   5   4   1.454
   5 str   6   5   1.423
   6 str   7   6   1.314
   7 str   8   7   1.354
   8 str   9   8   1.448
   9 str  10   9   1.421
  10 str  11  10   1.374
  11 str  12  11   1.416
  12 str  13  12   1.473
  13 str  14  13   1.343
  14 str  15  14   1.330
  15 str  16  15   1.395
  16 str  17  16   1.395
  17 str  18  13   1.343
  18 str  18  17   1.330
  19 str  19  12   1.416
  20 str  20   9   1.421
  21 str  20  19   1.374
  22 str  21   8   1.354
  23 str  22   5   1.423
  24 str  22  21   1.314
  25 str  23   4   1.419
  26 str  24   1   1.399
  27 str  24  23   1.382
  28 str  25   1   1.083
  29 str  26   2   1.083
  30 str  27   3   1.081
  31 str  28   6   1.084
  32 str  29  10   1.081
  33 str  30  11   1.081
  34 str  31  15   1.086
  35 str  32  16   1.082
  36 str  33  17   1.086
  37 str  34  19   1.081
  38 str  35  20   1.081
  39 str  36  22   1.084
  40 str  37  23   1.081
  41 str  38  24   1.083
 nber stretches=          41
  42 ben   1   2   3
  43 prop tor   1   2   3   4
  44 prop tor   1   2   3  27
  45 ben   1   2  26
  46 ben   1  24  23
  47 ben   1  24  38
  48 ben   2   1  24
  49 prop tor   2   1  24  23
  50 prop tor   2   1  24  38
  51 ben   2   1  25
  52 ben   2   3   4
  53 prop tor   2   3   4   5
  54 prop tor   2   3   4  23
  55 ben   2   3  27
  56 ben   3   2  26
  57 ben   3   4   5
  58 prop tor   3   4   5   6
  59 prop tor   3   4   5  22
  60 ben   3   4  23
  61 prop tor   3   4  23  24
  62 prop tor   3   4  23  37
  63 ben   4   3  27
  64 ben   4   5   6
  65 prop tor   4   5   6   7
  66 prop tor   4   5   6  28
  67 ben   4   5  22
  68 prop tor   4   5  22  21
  69 prop tor   4   5  22  36
  70 ben   4  23  24
  71 prop tor   4  23  24   1
  72 prop tor   4  23  24  38
  73 ben   4  23  37
  74 ben   5   4  23
  75 prop tor   5   4  23  24
  76 prop tor   5   4  23  37
  77 ben   5   6   7
  78 prop tor   5   6   7   8
  79 ben   5   6  28
  80 ben   5  22  21
  81 ben   5  22  36
  82 ben   6   5  22
  83 prop tor   6   5  22  21
  84 prop tor   6   5  22  36
  85 ben   6   7   8
  86 prop tor   6   7   8   9
  87 prop tor   6   7   8  21
  88 ben   7   6  28
  89 ben   7   8   9
  90 prop tor   7   8   9  10
  91 prop tor   7   8   9  20
  92 ben   7   8  21
  93 prop tor   7   8  21  22
  94 ben   8   9  10
  95 prop tor   8   9  10  11
  96 prop tor   8   9  10  29
  97 ben   8   9  20
  98 prop tor   8   9  20  19
  99 prop tor   8   9  20  35
 100 ben   8  21  22
 101 prop tor   8  21  22   5
 102 prop tor   8  21  22  36
 103 ben   9   8  21
 104 prop tor   9   8  21  22
 105 ben   9  10  11
 106 prop tor   9  10  11  12
 107 prop tor   9  10  11  30
 108 ben   9  10  29
 109 ben   9  20  19
 110 ben   9  20  35
 111 ben  10   9  20
 112 prop tor  10   9  20  19
 113 prop tor  10   9  20  35
 114 ben  10  11  12
 115 prop tor  10  11  12  13
 116 prop tor  10  11  12  19
 117 ben  10  11  30
 118 ben  11  10  29
 119 ben  11  12  13
 120 prop tor  11  12  13  14
 121 prop tor  11  12  13  18
 122 ben  11  12  19
 123 prop tor  11  12  19  20
 124 prop tor  11  12  19  34
 125 ben  12  11  30
 126 ben  12  13  14
 127 prop tor  12  13  14  15
 128 ben  12  13  18
 129 prop tor  12  13  18  17
 130 ben  12  19  20
 131 prop tor  12  19  20   9
 132 prop tor  12  19  20  35
 133 ben  12  19  34
 134 ben  13  12  19
 135 prop tor  13  12  19  20
 136 prop tor  13  12  19  34
 137 ben  13  14  15
 138 prop tor  13  14  15  16
 139 prop tor  13  14  15  31
 140 ben  13  18  17
 141 ben  14  13  18
 142 prop tor  14  13  18  17
 143 ben  14  15  16
 144 prop tor  14  15  16  17
 145 prop tor  14  15  16  32
 146 ben  14  15  31
 147 ben  15  16  17
 148 prop tor  15  16  17  18
 149 prop tor  15  16  17  33
 150 ben  15  16  32
 151 ben  16  15  31
 152 ben  16  17  18
 153 prop tor  16  17  18  13
 154 ben  16  17  33
 155 ben  17  16  32
 156 prop tor  18  13  14  15
 157 ben  18  17  33
 158 prop tor  19  12  13  14
 159 prop tor  19  12  13  18
 160 ben  19  20  35
 161 prop tor  20   9  10  11
 162 prop tor  20   9  10  29
 163 ben  20  19  34
 164 prop tor  21   8   9  10
 165 prop tor  21   8   9  20
 166 ben  21  22  36
 167 prop tor  22   5   6   7
 168 prop tor  22   5   6  28
 169 prop tor  23   4   5   6
 170 prop tor  23   4   5  22
 171 ben  23  24  38
 172 prop tor  24   1   2   3
 173 prop tor  24   1   2  26
 174 ben  24   1  25
 175 ben  24  23  37
 176 prop tor  25   1   2   3
 177 prop tor  25   1   2  26
 178 prop tor  25   1  24  23
 179 prop tor  25   1  24  38
 180 prop tor  26   2   3   4
 181 prop tor  26   2   3  27
 182 prop tor  27   3   4   5
 183 prop tor  27   3   4  23
 184 prop tor  28   6   7   8
 185 prop tor  29  10  11  12
 186 prop tor  29  10  11  30
 187 prop tor  30  11  12  13
 188 prop tor  30  11  12  19
[...]
                -0.6676    44.6          79 B2   1325.
                -0.4517    20.4          80 B2   1338.
  78 A1   1303.  0.8981    80.7    99.9  78 A1   1317.
                 0.3505    12.3          81 A1   1348.
  79 B2   1314. -0.8564    73.3   100.0  77 B2   1310.
                 0.3454    11.9          79 B2   1325.
  80 B2   1332. -0.4611    21.3   100.2  79 B2   1325.
                 0.8022    64.4          80 B2   1338.
  81 A1   1344.  0.3312    11.0   100.1  78 A1   1317.
                -0.9276    86.0          81 A1   1348.
  82 B2   1351. -0.9345    87.3   100.2  82 B2   1366.
  83 A1   1366. -0.9801    96.1    99.9  84 A1   1394.
  84 B2   1372. -0.9163    84.0   100.2  83 B2   1378.
  85 B2   1410. -0.8841    78.2    99.8  86 B2   1434.
  86 B2   1435.  0.5243    27.5    99.5  88 B2   1461.
                 0.7053    49.7          89 B2   1463.
  87 A1   1448.  0.9607    92.3   100.0  85 A1   1431.
  88 B2   1468.  0.7874    62.0    99.9  88 B2   1461.
                -0.4147    17.2          89 B2   1463.
                -0.4200    17.6          92 B2   1505.
  89 A1   1472. -0.9693    93.9   100.1  87 A1   1458.
  90 B2   1484.  0.9471    89.7    99.8  90 B2   1485.
  91 A1   1538.  0.9376    87.9   100.0  91 A1   1502.
  92 A1   1542. -0.9632    92.8   100.1  94 A1   1536.
  93 B2   1564. -0.3277    10.7   100.4  89 B2   1463.
                 0.6540    42.8          92 B2   1505.
                 0.5935    35.2          93 B2   1525.
  94 B2   1589. -0.5195    27.0   100.4  93 B2   1525.
                -0.7862    61.8          96 B2   1585.
  95 B2   1615.  0.4979    24.8   100.5  92 B2   1505.
                -0.5141    26.4          93 B2   1525.
                 0.5935    35.2          96 B2   1585.
  96 A1   1615. -0.4685    22.0    99.7  97 A1   1589.
                -0.8352    69.8          98 A1   1596.
  97 A1   1619. -0.8373    70.1    99.7  97 A1   1589.
                 0.3871    15.0          98 A1   1596.
  98 B2   1622.  0.9343    87.3   100.4  95 B2   1579.
  99 A1   1646. -0.9511    90.5    99.6  99 A1   1626.
 100 A1   1653.  0.3424    11.7    99.5  98 A1   1596.
                 0.9062    82.1         100 A1   1651.
 101 A1   3143.  0.9985    99.7   100.0 101 A1   3168.
 102 B2   3145.  1.0000   100.0   100.0 102 B2   3171.
 103 B2   3157. -0.9968    99.4   100.0 103 B2   3182.
 104 A1   3158. -0.9940    98.8   100.0 104 A1   3182.
 105 A1   3164. -0.9883    97.7   100.0 105 A1   3188.
 106 B2   3173.  0.9989    99.8   100.0 106 B2   3197.
 107 A1   3187. -0.9910    98.2   100.0 107 A1   3205.
 108 B2   3201.  0.9953    99.1   100.0 111 B2   3218.
 109 A1   3202. -0.9974    99.5   100.0 109 A1   3215.
 110 B2   3203.  0.9959    99.2   100.0 110 B2   3216.
 111 A1   3203.  0.9963    99.3   100.0 112 A1   3220.
 112 A1   3206. -0.9976    99.5   100.0 108 A1   3210.
 113 B2   3215.  0.9980    99.6   100.0 113 B2   3226.
 114 A1   3216. -0.9987    99.7   100.0 114 A1   3228.
 nber times 1st assigned=           1           0
 nber times 1st assigned=           2           0
 nber times 1st assigned=           3           0
 nber times 1st assigned=           4           0
 nber times 1st assigned=           5           0
 nber times 1st assigned=           6           0
 nber times 1st assigned=           7           0
 nber times 1st assigned=           8           0
 nber times 1st assigned=           9           0
 nber times 1st assigned=          10           0
 nber times 1st assigned=          11           0
 nber times 1st assigned=          12           0
 nber times 1st assigned=          13           0
 nber times 1st assigned=          14           0
 nber times 1st assigned=          15           0
 nber times 1st assigned=          16           0
 nber times 1st assigned=          17           0
 nber times 1st assigned=          18           0
 nber times 1st assigned=          19           0
 nber times 1st assigned=          20           0
 nber times 1st assigned=          21           0
 nber times 1st assigned=          22           0
 nber times 1st assigned=          23           0
 nber times 1st assigned=          24           0
 nber times 1st assigned=          25           0
 nber times 1st assigned=          26           0
 nber times 1st assigned=          27           0
 nber times 1st assigned=          28           0
 nber times 1st assigned=          29           0
 nber times 1st assigned=          30           0
 nber times 1st assigned=          31           0
 nber times 1st assigned=          32           0
 nber times 1st assigned=          33           0
 nber times 1st assigned=          34           0
 nber times 1st assigned=          35           0
 nber times 1st assigned=          36           0
 nber times 1st assigned=          37           0
 nber times 1st assigned=          38           0
 nber times 1st assigned=          39           0
 nber times 1st assigned=          40           0
 nber times 1st assigned=          41           0
 nber times 1st assigned=          42           0
 nber times 1st assigned=          43           0
 nber times 1st assigned=          44           0
 nber times 1st assigned=          45           0
 nber times 1st assigned=          46           0
 nber times 1st assigned=          47           0
 nber times 1st assigned=          48           0
 nber times 1st assigned=          49           0
 nber times 1st assigned=          50           0
 nber times 1st assigned=          51           0
 nber times 1st assigned=          52           0
 nber times 1st assigned=          53           0
 nber times 1st assigned=          54           0
 nber times 1st assigned=          55           0
 nber times 1st assigned=          56           0
 nber times 1st assigned=          57           0
 nber times 1st assigned=          58           0
 nber times 1st assigned=          59           0
 nber times 1st assigned=          60           0
 nber times 1st assigned=          61           0
 nber times 1st assigned=          62           0
 nber times 1st assigned=          63           0
 nber times 1st assigned=          64           0
 nber times 1st assigned=          65           0
 nber times 1st assigned=          66           0
 nber times 1st assigned=          67           0
 nber times 1st assigned=          68           0
 nber times 1st assigned=          69           0
 nber times 1st assigned=          70           0
 nber times 1st assigned=          71           0
 nber times 1st assigned=          72           0
 nber times 1st assigned=          73           0
 nber times 1st assigned=          74           0
 nber times 1st assigned=          75           0
 nber times 1st assigned=          76           0
 nber times 1st assigned=          77           0
 nber times 1st assigned=          78           0
 nber times 1st assigned=          79           0
 nber times 1st assigned=          80           0
 nber times 1st assigned=          81           0
 nber times 1st assigned=          82           0
 nber times 1st assigned=          83           0
 nber times 1st assigned=          84           0
 nber times 1st assigned=          85           0
 nber times 1st assigned=          86           0
 nber times 1st assigned=          87           0
 nber times 1st assigned=          88           0
 nber times 1st assigned=          89           0
 nber times 1st assigned=          90           0
 nber times 1st assigned=          91           0
 nber times 1st assigned=          92           0
 nber times 1st assigned=          93           0
 nber times 1st assigned=          94           0
 nber times 1st assigned=          95           0
 nber times 1st assigned=          96           0
 nber times 1st assigned=          97           0
 nber times 1st assigned=          98           0
 nber times 1st assigned=          99           0
 nber times 1st assigned=         100           0
 nber times 1st assigned=         101           0
 nber times 1st assigned=         102           0
 nber times 1st assigned=         103           0
 nber times 1st assigned=         104           0
 nber times 1st assigned=         105           0
 nber times 1st assigned=         106           0
 nber times 1st assigned=         107           0
 nber times 1st assigned=         108           0
 nber times 1st assigned=         109           0
 nber times 1st assigned=         110           0
 nber times 1st assigned=         111           0
 nber times 1st assigned=         112           0
 nber times 1st assigned=         113           0
 nber times 1st assigned=         114           0
 modes represented=   107.993896388096     
 p1=
    0.    0.   -0.   -0.    0.    0.   -0.    0.   -0.    0.   -0.    0.   -0.    0.    0.  -27.    0.   -0.   -1.   -0.
   -0.   -0.   -0.    0.   -0.    0.    0.   -1.   -0.    0.   -0.    0.    0.   -0.    0.    1.   -0.    0.   -1.   -0.
    0.   -1.   -0.   -0.    5.   -0.    0.    0.   -0.    0.    0.    0.   -0.    0.   -0.   -0.   -0.   -1.   -0.    0.
   -0.   -1.   -0.   -0.    1.   -2.    0.    1.   -0.   -0.   -0.   -2.   -1.    0.   -0.   -0.    0.   -3.   -0.    0.
   -0.   -0.   -1.   -0.   -0.    0.   -0.   -0.    1.    0.   -1.    0.    0.   -0.    0.   -1.    3.    0.   -0.   -2.
   -0.   -0.   -0.    0.   -0.    0.    0.   -0.   -0.    0.    0.    0.    0.   -0.
 p2=
    0.    0.   -0.    0.    0.    0.    0.    0.   -0.   -0.   -0.   -0.    0.    0.   -0.  -27.   -0.    0.   -0.   -2.
   -0.   -0.   -0.   -0.   -0.    0.   -0.    0.    1.   -0.    0.   -0.    0.   -0.    0.   -1.    0.    0.    1.   -0.
   -0.   -0.    0.   -5.    0.    0.    0.   -0.   -0.   -0.    0.   -0.   -0.    1.    0.    1.    0.    0.    0.    0.
    1.   -0.   -0.   -0.   -1.    1.   -1.    0.   -0.    0.    0.   -2.    1.   -0.    0.   -0.   -0.    3.    0.   -0.
    1.   -0.    0.   -1.    0.   -0.    1.    0.    0.    0.    1.    0.   -0.   -0.    0.   -0.    1.   -1.    1.    3.
    0.    0.   -0.    0.   -0.   -0.    0.    0.   -0.    0.   -0.   -0.    0.   -0.

 Displacement: in terms of nc of 1 THEN of nc of 2

   1 A2  freq=   -74. Q=  0.000 lam=    -0.0 A2  freq=   -53. Q=  0.000 lam=    -0.0
   2 B2  freq=    -0. Q=  0.000 lam=    -0.0 B2  freq=    -0. Q=  0.000 lam=    -0.0
   3 B2  freq=    -0. Q= -0.000 lam=    -0.0 A2  freq=    -0. Q= -0.000 lam=    -0.0
   4 B1  freq=    -0. Q= -0.000 lam=    -0.0 B1  freq=     0. Q= -0.000 lam=     0.0
   5 B1  freq=     0. Q=  0.000 lam=     0.0 B2  freq=     0. Q=  0.000 lam=     0.0
   6 A2  freq=     0. Q=  0.000 lam=     0.0 B1  freq=     0. Q=  0.000 lam=     0.0
   7 A1  freq=     0. Q= -0.000 lam=     0.0 A1  freq=     0. Q= -0.000 lam=     0.0
   8 B1  freq=    20. Q=  0.000 lam=     0.0 B1  freq=    18. Q=  0.000 lam=     0.0
   9 A2  freq=    34. Q= -0.000 lam=     0.0 A2  freq=    43. Q= -0.000 lam=     0.0
  10 B2  freq=    53. Q=  0.000 lam=     0.0 B1  freq=    53. Q=  0.000 lam=     0.0
  11 B1  freq=    58. Q= -0.000 lam=     0.0 B2  freq=    55. Q= -0.000 lam=     0.0
  12 A2  freq=    66. Q=  0.000 lam=     0.0 A2  freq=    84. Q=  0.000 lam=     0.0
  13 B1  freq=   120. Q= -0.000 lam=     0.0 B1  freq=   113. Q= -0.000 lam=     0.0
  14 B2  freq=   134. Q=  0.000 lam=     0.0 B2  freq=   137. Q=  0.000 lam=     0.0
  15 B1  freq=   162. Q=  0.000 lam=     0.0 B1  freq=   152. Q=  0.000 lam=     0.0
  16 A1  freq=   173. Q= -1.443 lam=   180.5 A1  freq=   175. Q= -1.458 lam=   186.1
  17 B2  freq=   211. Q=  0.000 lam=     0.0 B2  freq=   213. Q=  0.000 lam=     0.0
  18 B1  freq=   257. Q= -0.000 lam=     0.0 B1  freq=   238. Q= -0.000 lam=     0.0
  19 A1  freq=   337. Q= -0.109 lam=     2.0 B1  freq=   327. Q= -0.000 lam=     0.0
  20 B1  freq=   349. Q= -0.000 lam=     0.0 A1  freq=   338. Q= -0.117 lam=     2.3
  21 B2  freq=   378. Q= -0.000 lam=     0.0 B2  freq=   381. Q= -0.000 lam=     0.0
  22 A2  freq=   390. Q= -0.000 lam=     0.0 A2  freq=   385. Q= -0.000 lam=     0.0
  23 A2  freq=   409. Q= -0.000 lam=     0.0 A2  freq=   393. Q= -0.000 lam=     0.0
  24 A2  freq=   414. Q=  0.000 lam=     0.0 A2  freq=   406. Q=  0.000 lam=     0.0
  25 A2  freq=   421. Q= -0.000 lam=     0.0 A2  freq=   412. Q= -0.000 lam=     0.0
  26 B1  freq=   443. Q=  0.000 lam=     0.0 B1  freq=   428. Q=  0.000 lam=     0.0
  27 B2  freq=   445. Q=  0.000 lam=     0.0 B2  freq=   446. Q=  0.000 lam=     0.0
  28 A1  freq=   483. Q= -0.111 lam=     3.0 B1  freq=   478. Q= -0.000 lam=     0.0
  29 B2  freq=   507. Q= -0.000 lam=     0.0 A1  freq=   489. Q= -0.109 lam=     2.9
  30 B1  freq=   514. Q=  0.000 lam=     0.0 B2  freq=   508. Q=  0.000 lam=     0.0
  31 B1  freq=   562. Q= -0.000 lam=     0.0 B1  freq=   545. Q= -0.000 lam=     0.0
  32 B1  freq=   590. Q=  0.000 lam=     0.0 B1  freq=   588. Q=  0.000 lam=     0.0
  33 B2  freq=   632. Q=  0.000 lam=     0.0 B2  freq=   613. Q=  0.000 lam=     0.0
  34 B2  freq=   641. Q= -0.000 lam=     0.0 B2  freq=   619. Q= -0.000 lam=     0.0
  35 B2  freq=   656. Q=  0.000 lam=     0.0 B2  freq=   649. Q=  0.000 lam=     0.0
  36 A1  freq=   658. Q=  0.106 lam=     3.7 A1  freq=   652. Q=  0.103 lam=     3.5
  37 B2  freq=   671. Q= -0.000 lam=     0.0 B2  freq=   659. Q= -0.000 lam=     0.0
  38 B1  freq=   700. Q=  0.000 lam=     0.0 B1  freq=   672. Q=  0.000 lam=     0.0
  39 A1  freq=   713. Q= -0.134 lam=     6.4 A1  freq=   711. Q= -0.126 lam=     5.6
  40 B1  freq=   751. Q= -0.000 lam=     0.0 B1  freq=   746. Q= -0.000 lam=     0.0
  41 B1  freq=   780. Q=  0.000 lam=     0.0 A1  freq=   775. Q=  0.019 lam=     0.1
  42 A1  freq=   785. Q= -0.071 lam=     1.9 B1  freq=   790. Q= -0.000 lam=     0.0
  43 B1  freq=   814. Q= -0.000 lam=     0.0 B1  freq=   814. Q= -0.000 lam=     0.0
  44 B1  freq=   816. Q= -0.000 lam=     0.0 A1  freq=   815. Q= -0.568 lam=   131.3
  45 A1  freq=   826. Q=  0.539 lam=   120.1 B1  freq=   824. Q=  0.000 lam=     0.0
  46 A2  freq=   841. Q= -0.000 lam=     0.0 A2  freq=   829. Q= -0.000 lam=     0.0
  47 B1  freq=   849. Q=  0.000 lam=     0.0 B1  freq=   854. Q=  0.000 lam=     0.0
  48 A2  freq=   876. Q=  0.000 lam=     0.0 A2  freq=   854. Q=  0.000 lam=     0.0
  49 B1  freq=   905. Q= -0.000 lam=     0.0 B1  freq=   913. Q= -0.000 lam=     0.0
  50 B1  freq=   926. Q=  0.000 lam=     0.0 B1  freq=   950. Q=  0.000 lam=     0.0
  51 B1  freq=   962. Q=  0.000 lam=     0.0 A2  freq=   956. Q=  0.000 lam=     0.0
  52 A2  freq=   970. Q=  0.000 lam=     0.0 B1  freq=   968. Q=  0.000 lam=     0.0
  53 A2  freq=   987. Q= -0.000 lam=     0.0 A2  freq=   997. Q= -0.000 lam=     0.0
  54 A2  freq=  1001. Q=  0.000 lam=     0.0 A1  freq=   998. Q=  0.121 lam=     7.3
  55 B1  freq=  1003. Q= -0.000 lam=     0.0 A2  freq=  1005. Q= -0.000 lam=     0.0
  56 B1  freq=  1006. Q= -0.000 lam=     0.0 A1  freq=  1006. Q= -0.074 lam=     2.7
  57 A1  freq=  1009. Q= -0.038 lam=     0.7 A1  freq=  1013. Q= -0.064 lam=     2.1
  58 A1  freq=  1013. Q= -0.138 lam=     9.6 A1  freq=  1018. Q= -0.017 lam=     0.1
  59 A2  freq=  1019. Q= -0.000 lam=     0.0 B1  freq=  1025. Q= -0.000 lam=     0.0
  60 B1  freq=  1019. Q=  0.000 lam=     0.0 B1  freq=  1028. Q=  0.000 lam=     0.0
  61 A1  freq=  1020. Q= -0.041 lam=     0.9 A1  freq=  1028. Q= -0.117 lam=     7.0
  62 A1  freq=  1033. Q= -0.082 lam=     3.5 B1  freq=  1037. Q= -0.000 lam=     0.0
  63 A1  freq=  1054. Q= -0.048 lam=     1.2 A2  freq=  1037. Q= -0.000 lam=     0.0
  64 A1  freq=  1064. Q= -0.014 lam=     0.1 A1  freq=  1048. Q= -0.002 lam=     0.0
  65 A1  freq=  1071. Q=  0.121 lam=     7.8 A1  freq=  1058. Q=  0.178 lam=    16.7
  66 A1  freq=  1100. Q= -0.253 lam=    35.2 A1  freq=  1078. Q= -0.175 lam=    16.4
  67 B2  freq=  1111. Q=  0.000 lam=     0.0 A1  freq=  1102. Q=  0.154 lam=    13.0
  68 A1  freq=  1112. Q=  0.106 lam=     6.3 B2  freq=  1122. Q=  0.000 lam=     0.0
  69 B2  freq=  1113. Q= -0.000 lam=     0.0 B2  freq=  1122. Q= -0.000 lam=     0.0
  70 B2  freq=  1128. Q= -0.000 lam=     0.0 B2  freq=  1139. Q= -0.000 lam=     0.0
  71 B2  freq=  1186. Q= -0.000 lam=     0.0 B2  freq=  1194. Q= -0.000 lam=     0.0
  72 A1  freq=  1194. Q= -0.260 lam=    40.3 A1  freq=  1201. Q= -0.225 lam=    30.4
  73 A1  freq=  1220. Q= -0.171 lam=    17.8 A1  freq=  1226. Q= -0.203 lam=    25.2
  74 B2  freq=  1223. Q=  0.000 lam=     0.0 B2  freq=  1226. Q=  0.000 lam=     0.0
  75 B2  freq=  1238. Q= -0.000 lam=     0.0 B2  freq=  1265. Q= -0.000 lam=     0.0
  76 B2  freq=  1275. Q= -0.000 lam=     0.0 B2  freq=  1275. Q= -0.000 lam=     0.0
  77 B2  freq=  1288. Q=  0.000 lam=     0.0 B2  freq=  1310. Q=  0.000 lam=     0.0
  78 A1  freq=  1303. Q= -0.371 lam=    89.5 A1  freq=  1317. Q= -0.389 lam=    99.4
  79 B2  freq=  1314. Q= -0.000 lam=     0.0 B2  freq=  1325. Q= -0.000 lam=     0.0
  80 B2  freq=  1332. Q=  0.000 lam=     0.0 B2  freq=  1338. Q=  0.000 lam=     0.0
  81 A1  freq=  1344. Q= -0.004 lam=     0.0 A1  freq=  1348. Q= -0.127 lam=    10.8
  82 B2  freq=  1351. Q= -0.000 lam=     0.0 B2  freq=  1366. Q= -0.000 lam=     0.0
  83 A1  freq=  1366. Q= -0.091 lam=     5.7 B2  freq=  1378. Q= -0.000 lam=     0.0
  84 B2  freq=  1372. Q= -0.000 lam=     0.0 A1  freq=  1394. Q= -0.137 lam=    13.2
  85 B2  freq=  1410. Q= -0.000 lam=     0.0 A1  freq=  1431. Q= -0.032 lam=     0.7
  86 B2  freq=  1435. Q=  0.000 lam=     0.0 B2  freq=  1434. Q=  0.000 lam=     0.0
  87 A1  freq=  1448. Q= -0.070 lam=     3.5 A1  freq=  1458. Q= -0.118 lam=    10.2
  88 B2  freq=  1468. Q= -0.000 lam=     0.0 B2  freq=  1461. Q= -0.000 lam=     0.0
  89 A1  freq=  1472. Q=  0.172 lam=    21.8 B2  freq=  1463. Q=  0.000 lam=     0.0
  90 B2  freq=  1484. Q=  0.000 lam=     0.0 B2  freq=  1485. Q=  0.000 lam=     0.0
  91 A1  freq=  1538. Q= -0.129 lam=    12.8 A1  freq=  1502. Q= -0.133 lam=    13.3
  92 A1  freq=  1542. Q=  0.040 lam=     1.2 B2  freq=  1505. Q=  0.000 lam=     0.0
  93 B2  freq=  1564. Q=  0.000 lam=     0.0 B2  freq=  1525. Q=  0.000 lam=     0.0
  94 B2  freq=  1589. Q= -0.000 lam=     0.0 A1  freq=  1536. Q= -0.013 lam=     0.1
  95 B2  freq=  1615. Q=  0.000 lam=     0.0 B2  freq=  1579. Q=  0.000 lam=     0.0
  96 A1  freq=  1615. Q= -0.239 lam=    46.2 B2  freq=  1585. Q= -0.000 lam=     0.0
  97 A1  freq=  1619. Q=  0.435 lam=   153.1 A1  freq=  1589. Q=  0.141 lam=    15.8
  98 B2  freq=  1622. Q=  0.000 lam=     0.0 A1  freq=  1596. Q=  0.227 lam=    41.3
  99 A1  freq=  1646. Q= -0.056 lam=     2.6 A1  freq=  1626. Q= -0.098 lam=     7.8
 100 A1  freq=  1653. Q= -0.267 lam=    58.9 A1  freq=  1651. Q= -0.412 lam=   140.3
 101 A1  freq=  3143. Q= -0.022 lam=     0.8 A1  freq=  3168. Q= -0.023 lam=     0.9
 102 B2  freq=  3145. Q= -0.000 lam=     0.0 B2  freq=  3171. Q= -0.000 lam=     0.0
 103 B2  freq=  3157. Q= -0.000 lam=     0.0 B2  freq=  3182. Q= -0.000 lam=     0.0
 104 A1  freq=  3158. Q=  0.032 lam=     1.6 A1  freq=  3182. Q=  0.027 lam=     1.2
 105 A1  freq=  3164. Q= -0.001 lam=     0.0 A1  freq=  3188. Q= -0.004 lam=     0.0
 106 B2  freq=  3173. Q=  0.000 lam=     0.0 B2  freq=  3197. Q=  0.000 lam=     0.0
 107 A1  freq=  3187. Q=  0.010 lam=     0.2 A1  freq=  3205. Q=  0.010 lam=     0.2
 108 B2  freq=  3201. Q= -0.000 lam=     0.0 A1  freq=  3210. Q= -0.001 lam=     0.0
 109 A1  freq=  3202. Q= -0.002 lam=     0.0 A1  freq=  3215. Q= -0.001 lam=     0.0
 110 B2  freq=  3203. Q=  0.000 lam=     0.0 B2  freq=  3216. Q=  0.000 lam=     0.0
 111 A1  freq=  3203. Q=  0.026 lam=     1.1 B2  freq=  3218. Q=  0.000 lam=     0.0
 112 A1  freq=  3206. Q=  0.000 lam=     0.0 A1  freq=  3220. Q=  0.027 lam=     1.2
 113 B2  freq=  3215. Q=  0.000 lam=     0.0 B2  freq=  3226. Q=  0.000 lam=     0.0
 114 A1  freq=  3216. Q= -0.008 lam=     0.1 A1  freq=  3228. Q= -0.007 lam=     0.1

 total reorg energy (cm**-1, kcal/mol)=      840.      809.      2.40      2.31
 Nber of molecules processed=           2
