 Enter ifcurve (0=recti, 1=orth curvi, 2=apprx curvi, -1 = skip
 And atom ordering flag, 0= never changes, 1= use the first order thenceforth,
  2= deduce it (does read on fail), 3= always read it
 Reading file: 
 ./Phenyls_0_C0S0.log                                                           
                                          
  Entering Gaussian System, Link 0=g16                                          
  
 Gaussian format, type: g94, g98, g03= F F F
  #P Geom=AllCheck Guess=TCheck SCRF=Check GenChk RB3LYP/6-311G(d,p) Fre    
 energy type= B3LYP   
 Original G94 input coords:
  6 -1.483552 -1.196984  0.000000
  6 -2.874166 -1.198774  0.000000
  6 -3.581826  0.000000  0.000000
  6 -2.874166  1.198774  0.000000
  6 -1.483552  1.196984  0.000000
  6 -0.746979  0.000000  0.000000
  6  0.746979  0.000000  0.000000
  6  1.483552 -1.196984  0.000000
  6  2.874166 -1.198774  0.000000
  6  3.581826  0.000000  0.000000
  6  2.874166  1.198774  0.000000
  6  1.483552  1.196984  0.000000
  1 -0.975039 -2.151634  0.000000
  1 -3.405267 -2.144203  0.000000
  1 -4.665481  0.000000  0.000000
  1 -3.405267  2.144203  0.000000
  1 -0.975039  2.151634  0.000000
  1  0.975039 -2.151634  0.000000
  1  3.405267 -2.144203  0.000000
  1  4.665481  0.000000  0.000000
  1  3.405267  2.144203  0.000000
  1  0.975039  2.151634  0.000000
 nber atoms=          22
 Original standard coords:
  6  0.000000  1.196984  1.483552
  6  0.000000  1.198774  2.874166
  6  0.000000  0.000000  3.581826
  6  0.000000 -1.198774  2.874166
  6  0.000000 -1.196984  1.483552
  6  0.000000  0.000000  0.746979
  6  0.000000  0.000000 -0.746979
  6  0.000000  1.196984 -1.483552
  6  0.000000  1.198774 -2.874166
  6  0.000000  0.000000 -3.581826
  6  0.000000 -1.198774 -2.874166
  6  0.000000 -1.196984 -1.483552
  1  0.000000  2.151634  0.975039
  1  0.000000  2.144203  3.405267
  1  0.000000  0.000000  4.665481
  1  0.000000 -2.144203  3.405267
  1  0.000000 -2.151634  0.975039
  1  0.000000  2.151634 -0.975039
  1  0.000000  2.144203 -3.405267
  1  0.000000  0.000000 -4.665481
  1  0.000000 -2.144203 -3.405267
  1  0.000000 -2.151634 -0.975039
  SCF Done:  E(RB3LYP) =  -463.414537481     A.U. after    1 cycles             
  
          23          40 "  -463.414537481"
After scan for Atom:   Atom  AN      X      Y      Z        X      Y      Z        X      Y      Z   
After scan for Atom:   Atom  AN      X      Y      Z        X      Y      Z        X      Y      Z   
After scan for Atom:   Atom  AN      X      Y      Z        X      Y      Z        X      Y      Z   
After scan for Atom:   Atom  AN      X      Y      Z        X      Y      Z        X      Y      Z   
After scan for Atom:   Atom  AN      X      Y      Z        X      Y      Z        X      Y      Z   
After scan for Atom:   Atom  AN      X      Y      Z        X      Y      Z        X      Y      Z   
After scan for Atom:   Atom  AN      X      Y      Z        X      Y      Z        X      Y      Z   
After scan for Atom:   Atom  AN      X      Y      Z        X      Y      Z        X      Y      Z   
After scan for Atom:   Atom  AN      X      Y      Z        X      Y      Z        X      Y      Z   
After scan for Atom:   Atom  AN      X      Y      Z        X      Y      Z        X      Y      Z   
After scan for Atom:   Atom  AN      X      Y      Z        X      Y      Z        X      Y      Z   
After scan for Atom:   Atom  AN      X      Y      Z        X      Y      Z        X      Y      Z   
After scan for Atom:   Atom  AN      X      Y      Z        X      Y      Z        X      Y      Z   
After scan for Atom:   Atom  AN      X      Y      Z        X      Y      Z        X      Y      Z   
After scan for Atom:   Atom  AN      X      Y      Z        X      Y      Z        X      Y      Z   
After scan for Atom:   Atom  AN      X      Y      Z        X      Y      Z        X      Y      Z   
After scan for Atom:   Atom  AN      X      Y      Z        X      Y      Z        X      Y      Z   
After scan for Atom:   Atom  AN      X      Y      Z        X      Y      Z        X      Y      Z   
After scan for Atom:   Atom  AN      X      Y      Z        X      Y      Z        X      Y      Z   
After scan for Atom:   Atom  AN      X      Y      Z        X      Y      Z        X      Y      Z   
 g94    frequencies=
     0.0    0.0    0.0    0.0    0.0    0.0  -84.4   95.4  189.9  224.4
   335.6  392.6  413.3  415.2  447.8  555.2  624.3  626.9  644.9  679.5
   714.1  747.5  753.5  802.1  820.8  851.0  919.4  919.7  962.5  976.7
   995.0  999.2 1009.8 1019.0 1024.1 1063.8 1064.4 1106.0 1118.9 1181.5
  1190.3 1204.9 1238.5 1283.4 1300.1 1323.8 1356.3 1379.2 1460.1 1494.3
  1517.8 1550.8 1614.5 1628.4 1640.6 1649.4 3161.5 3162.5 3168.7 3170.6
  3184.6 3188.1 3192.6 3196.4 3209.1 3211.1
 g94    symmetries=
                                                AU     B3     B2     B2
      AG     AU     B3     B1     B3     B2     B1     B3     B2     B2
      B3     B3     AG     B2     AU     B1     B3     B2     AU     B1
      B2     B3     B1     AG     B1     B1     AG     B3     B2     B3
      B2     B1     AG     AG     B2     B3     B3     B2     B2     B3
      B1     AG     B2     B3     AG     B1     B1     AG     B3     B2
      B1     AG     B3     B1     B2     AG
 atomic masses:
 12.0000 12.0000 12.0000 12.0000 12.0000 12.0000 12.0000 12.0000 12.0000 12.0000
 12.0000 12.0000  1.0078  1.0078  1.0078  1.0078  1.0078  1.0078  1.0078  1.0078
  1.0078  1.0078
 looking for force constants in 
 ./Phenyls_0_C0S0.fchk                                                          
  
 Cartesian Force Constants                  R   N=        2211                  
  
 n3=          66        2211
 g94-fc frequencies=
   -84.4   -5.0   -4.3   -4.2   -0.0   -0.0    0.0   95.4  189.9  224.5
   335.6  392.6  413.3  415.2  447.8  555.2  624.3  626.9  644.9  679.5
   714.1  747.5  753.5  802.1  820.8  851.0  919.5  919.7  962.5  976.8
   995.1  999.2 1009.8 1019.0 1024.2 1063.8 1064.5 1106.1 1119.0 1181.5
  1190.3 1204.9 1238.5 1283.4 1300.1 1323.8 1356.4 1379.3 1460.2 1494.3
  1517.8 1550.9 1614.5 1628.4 1640.6 1649.4 3161.5 3162.6 3168.8 3170.7
  3184.7 3188.1 3192.6 3196.4 3209.2 3211.1
 at 99999: n3=          66
 symm operator            1 :  T  nop=           1
 symm operator            2 :  T  nop=           2
 symm operator            3 :  T  nop=           3
 symm operator            4 :  T  nop=           4
 symm operator            5 :  T  nop=           5
 symm operator            6 :  T  nop=           6
 symm operator            7 :  T  nop=           7
 The point group of the molecule is D2H
 enforcing symm op           1  jsymt=          -1          -1           1
 enforcing symm op           2  jsymt=          -1           1          -1
 enforcing symm op           3  jsymt=           1          -1          -1
 enforcing symm op           4  jsymt=          -1          -1          -1
 enforcing symm op           5  jsymt=           1           1          -1
 enforcing symm op           6  jsymt=           1          -1           1
 enforcing symm op           7  jsymt=          -1           1           1
 cartesian coord symmetries:
 Ag :   11 Au :    4 B1g:    4 B1u:   11 B2g:    7 B2u:   11 B3g:   11 B3u:    7
 Symmetry rotation matrix:
   1.00000   0.00000   0.00000
   0.00000   1.00000   0.00000
   0.00000   0.00000   1.00000

 Projecting out zero-frequency components
 generating redundant internal coords
         300        3600          22
 search for int coords
   1 str   2   1   1.391
   2 str   3   2   1.392
   3 str   4   3   1.392
   4 str   5   4   1.391
   5 str   6   1   1.405
   6 str   6   5   1.405
   7 str   7   6   1.494
   8 str   8   7   1.405
   9 str   9   8   1.391
  10 str  10   9   1.392
  11 str  11  10   1.392
  12 str  12   7   1.405
  13 str  12  11   1.391
  14 str  13   1   1.082
  15 str  14   2   1.084
  16 str  15   3   1.084
  17 str  16   4   1.084
  18 str  17   5   1.082
  19 str  18   8   1.082
  20 str  19   9   1.084
  21 str  20  10   1.084
  22 str  21  11   1.084
  23 str  22  12   1.082
 nber stretches=          23
  24 ben   1   2   3
  25 prop tor   1   2   3   4
  26 prop tor   1   2   3  15
  27 ben   1   2  14
  28 ben   1   6   5
  29 ben   1   6   7
  30 prop tor   1   6   7   8
  31 prop tor   1   6   7  12
  32 ben   2   1   6
  33 prop tor   2   1   6   5
  34 prop tor   2   1   6   7
  35 ben   2   1  13
  36 ben   2   3   4
  37 prop tor   2   3   4   5
  38 prop tor   2   3   4  16
  39 ben   2   3  15
  40 ben   3   2  14
  41 ben   3   4   5
  42 prop tor   3   4   5   6
  43 prop tor   3   4   5  17
  44 ben   3   4  16
  45 ben   4   3  15
  46 ben   4   5   6
  47 prop tor   4   5   6   1
  48 prop tor   4   5   6   7
  49 ben   4   5  17
  50 ben   5   4  16
  51 ben   5   6   7
  52 prop tor   5   6   7   8
  53 prop tor   5   6   7  12
  54 prop tor   6   1   2   3
  55 prop tor   6   1   2  14
  56 ben   6   1  13
  57 ben   6   5  17
  58 ben   6   7   8
  59 prop tor   6   7   8   9
  60 prop tor   6   7   8  18
  61 ben   6   7  12
  62 prop tor   6   7  12  11
  63 prop tor   6   7  12  22
  64 ben   7   8   9
  65 prop tor   7   8   9  10
  66 prop tor   7   8   9  19
  67 ben   7   8  18
  68 ben   7  12  11
  69 ben   7  12  22
  70 ben   8   7  12
  71 prop tor   8   7  12  11
  72 prop tor   8   7  12  22
  73 ben   8   9  10
  74 prop tor   8   9  10  11
  75 prop tor   8   9  10  20
  76 ben   8   9  19
  77 ben   9   8  18
  78 ben   9  10  11
  79 prop tor   9  10  11  12
  80 prop tor   9  10  11  21
  81 ben   9  10  20
  82 ben  10   9  19
  83 ben  10  11  12
  84 prop tor  10  11  12   7
  85 prop tor  10  11  12  22
  86 ben  10  11  21
  87 ben  11  10  20
  88 ben  11  12  22
  89 prop tor  12   7   8   9
  90 prop tor  12   7   8  18
  91 ben  12  11  21
  92 prop tor  13   1   2   3
  93 prop tor  13   1   2  14
  94 prop tor  13   1   6   5
  95 prop tor  13   1   6   7
  96 prop tor  14   2   3   4
  97 prop tor  14   2   3  15
  98 prop tor  15   3   4   5
  99 prop tor  15   3   4  16
 100 prop tor  16   4   5   6
 101 prop tor  16   4   5  17
 102 prop tor  17   5   6   1
 103 prop tor  17   5   6   7
 104 prop tor  18   8   9  10
 105 prop tor  18   8   9  19
 106 prop tor  19   9  10  11
 107 prop tor  19   9  10  20
 108 prop tor  20  10  11  12
 109 prop tor  20  10  11  21
 110 prop tor  21  11  12   7
 111 prop tor  21  11  12  22
 nber bend=              36
 nber lin bend=           0
 nber prop tor=          52
 nber impr tor=           0
 nber tot redund int=         111
 Eigenvalues of G in red int coords
    Gval -0.00000000 -0.00000000 -0.00000000 -0.00000000 -0.00000000 -0.00000000 -0.00000000 -0.00000000
    Gval -0.00000000 -0.00000000 -0.00000000 -0.00000000 -0.00000000 -0.00000000 -0.00000000 -0.00000000
    Gval -0.00000000 -0.00000000 -0.00000000 -0.00000000 -0.00000000 -0.00000000 -0.00000000 -0.00000000
    Gval  0.00000000  0.00000000  0.00000000  0.00000000  0.00000000  0.00000000  0.00000000  0.00000000
    Gval  0.00000000  0.00000000  0.00000000  0.00000000  0.00000000  0.00000000  0.00000000  0.00000000
    Gval  0.00000000  0.00000000  0.00000000  0.00000000  0.00000000  0.00000000  0.00000000  0.00000000
    Gval  0.00000000  0.00000000  0.00000000  0.00000532  0.00000768  0.00002373  0.00003668  0.00004250
    Gval  0.00004496  0.00004919  0.00005754  0.00005758  0.00006679  0.00006709  0.00009792  0.00011445
    Gval  0.00011700  0.00011718  0.00012817  0.00019226  0.00020048  0.00025793  0.00027687  0.00027741
    Gval  0.00035457  0.00037854  0.00041377  0.00052155  0.00057640  0.00058168  0.00059307  0.00059308
    Gval  0.00059312  0.00059389  0.00060385  0.00060428  0.00062000  0.00063005  0.00066002  0.00066198
    Gval  0.00088772  0.00104026  0.00104311  0.00111018  0.00111208  0.00113844  0.00114003  0.00116956
    Gval  0.00117058  0.00117332  0.00117333  0.00141602  0.00143644  0.00163995  0.00201632  0.00234534
    Gval  0.00235968  0.00302916  0.00323554  0.00370024  0.00371371  0.00406380  0.00407187
  5.322266402832551E-006  5.322266402832551E-006
  7.683763339459627E-006  5.322266402832551E-006
  2.372792668672354E-005  5.322266402832551E-006
  3.668414215374891E-005  5.322266402832551E-006
  4.250296716327768E-005  5.322266402832551E-006
  4.495726142759069E-005  5.322266402832551E-006
  4.919015804123424E-005  5.322266402832551E-006
  5.754090860579417E-005  5.322266402832551E-006
  5.757954554855313E-005  5.322266402832551E-006
  6.679456130855756E-005  5.322266402832551E-006
  6.709387625738571E-005  5.322266402832551E-006
  9.792191414165662E-005  5.322266402832551E-006
  1.144528277576116E-004  5.322266402832551E-006
  1.170004488183275E-004  5.322266402832551E-006
  1.171798537675073E-004  5.322266402832551E-006
  1.281684700471759E-004  5.322266402832551E-006
  1.922621541397580E-004  5.322266402832551E-006
  2.004780243318978E-004  5.322266402832551E-006
  2.579265111821138E-004  5.322266402832551E-006
  2.768668602616753E-004  5.322266402832551E-006
  2.774065254664240E-004  5.322266402832551E-006
  3.545684583522049E-004  5.322266402832551E-006
  3.785429070860316E-004  5.322266402832551E-006
  4.137730492448435E-004  5.322266402832551E-006
  5.215464423358882E-004  5.322266402832551E-006
  5.764001300541822E-004  5.322266402832551E-006
  5.816769274114355E-004  5.322266402832551E-006
  5.930724156458141E-004  5.322266402832551E-006
  5.930814178418265E-004  5.322266402832551E-006
  5.931189396939563E-004  5.322266402832551E-006
  5.938927867461781E-004  5.322266402832551E-006
  6.038532324682895E-004  5.322266402832551E-006
  6.042758443079490E-004  5.322266402832551E-006
  6.200016962736423E-004  5.322266402832551E-006
  6.300472015298337E-004  5.322266402832551E-006
  6.600217256213872E-004  5.322266402832551E-006
  6.619803119674984E-004  5.322266402832551E-006
  8.877239485617670E-004  5.322266402832551E-006
  1.040263813498708E-003  5.322266402832551E-006
  1.043107066275153E-003  5.322266402832551E-006
  1.110183663393455E-003  5.322266402832551E-006
  1.112084351935949E-003  5.322266402832551E-006
  1.138440487831875E-003  5.322266402832551E-006
  1.140031274481161E-003  5.322266402832551E-006
  1.169557093576042E-003  5.322266402832551E-006
  1.170579403646204E-003  5.322266402832551E-006
  1.173322142589803E-003  5.322266402832551E-006
  1.173328090879020E-003  5.322266402832551E-006
  1.416024291513456E-003  5.322266402832551E-006
  1.436439261051637E-003  5.322266402832551E-006
  1.639947704030103E-003  5.322266402832551E-006
  2.016321816519426E-003  5.322266402832551E-006
  2.345337334246751E-003  5.322266402832551E-006
  2.359684800580871E-003  5.322266402832551E-006
  3.029157874099304E-003  5.322266402832551E-006
  3.235544325883333E-003  5.322266402832551E-006
  3.700241317112754E-003  5.322266402832551E-006
  3.713712768582969E-003  5.322266402832551E-006
  4.063804481981751E-003  5.322266402832551E-006
  4.071874717061007E-003  5.322266402832551E-006
 cut=1d-8, nber non-redundant internal coords=          60
 Check on Eigenvals of non-red overlap matrix:
  0.00000532  0.00000768  0.00002373  0.00003668  0.00004250  0.00004496  0.00004919  0.00005754
  0.00005758  0.00006679  0.00006709  0.00009792  0.00011445  0.00011700  0.00011718  0.00012817
  0.00019226  0.00020048  0.00025793  0.00027687  0.00027741  0.00035457  0.00037854  0.00041377
  0.00052155  0.00057640  0.00058168  0.00059307  0.00059308  0.00059312  0.00059389  0.00060385
  0.00060428  0.00062000  0.00063005  0.00066002  0.00066198  0.00088772  0.00104026  0.00104311
  0.00111018  0.00111208  0.00113844  0.00114003  0.00116956  0.00117058  0.00117332  0.00117333
  0.00141602  0.00143644  0.00163995  0.00201632  0.00234534  0.00235968  0.00302916  0.00323554
  0.00370024  0.00371371  0.00406380  0.00407187
 Checking for correct frequencies
 recalc frequencies=
   -84.4   -0.0   -0.0   -0.0    0.0    0.0    0.0   95.4  189.9  224.5
   335.6  392.6  413.3  415.2  447.8  555.2  624.3  626.9  644.9  679.5
   714.1  747.5  753.5  802.1  820.8  851.0  919.5  919.7  962.5  976.8
   995.1  999.2 1009.8 1019.0 1024.2 1063.8 1064.5 1106.1 1119.0 1181.5
  1190.3 1204.9 1238.5 1283.4 1300.1 1323.8 1356.4 1379.3 1460.2 1494.3
  1517.8 1550.9 1614.5 1628.4 1640.6 1649.4 3161.5 3162.6 3168.8 3170.7
  3184.7 3188.1 3192.6 3196.4 3209.2 3211.1
 recalc symmetries=
     Au     B2u    B1u    B3u    B1g    B2g    B3g    B3u    B2u    B2g
     Ag     Au     B3g    B1g    B3u    B2g    B1u    B3g    B2u    B2g
     B3u    B3u    Ag     B2g    Au     B1g    B3u    B2g    Au     B1g
     B2g    B3u    B1u    Ag     B1u    B1u    Ag     B3g    B2u    B3g
     B2u    B1u    Ag     Ag     B2u    B3g    B3g    B2u    B2u    B3g
     B1u    Ag     B2u    B3g    Ag     B1u    B1u    Ag     B3g    B2u
     B1u    Ag     B3g    B1u    B2u    Ag 
 recalc freqs check OK
 Zero-point lengths:
 26.9842 10.0000 10.0000 10.0000 10.0000 10.0000 10.0000 25.3829 17.9917 16.5476
 13.5333 12.5120 12.1941 12.1668 11.7154 10.5216  9.9222  9.9016  9.7623  9.5102
  9.2769  9.0674  9.0313  8.7534  8.6530  8.4983  8.1758  8.1747  7.9908  7.9324
  7.8591  7.8428  7.8014  7.7662  7.7466  7.6010  7.5986  7.4543  7.4112  7.2123
  7.1857  7.1419  7.0443  6.9200  6.8756  6.8136  6.7315  6.6753  6.4878  6.4131
  6.3634  6.2952  6.1699  6.1435  6.1205  6.1042  4.4091  4.4084  4.4040  4.4027
  4.3930  4.3906  4.3875  4.3849  4.3762  4.3749
 highest evec of mol 1
  0.0000  0.1203 -0.0645
  0.0000  0.0350  0.0227
  0.0000  0.0000  0.0241
  0.0000 -0.0350  0.0227
  0.0000 -0.1203 -0.0645
  0.0000  0.0000 -0.0052
  0.0000  0.0000  0.0052
  0.0000  0.1203  0.0645
  0.0000  0.0350 -0.0227
  0.0000  0.0000 -0.0241
  0.0000 -0.0350 -0.0227
  0.0000 -0.1203  0.0645
  0.0000 -0.4017  0.2220
  0.0000 -0.1099 -0.0629
  0.0000  0.0000 -0.0727
  0.0000  0.1099 -0.0629
  0.0000  0.4017  0.2220
  0.0000 -0.4017 -0.2220
  0.0000 -0.1099  0.0629
  0.0000  0.0000  0.0727
  0.0000  0.1099  0.0629
  0.0000  0.4017 -0.2220
 generating redundant internal coords
         300        3600          22
 Adding extra bonds for z output only
           6           6           6           6           6           6
           6           6           6           6           6           6
           1           1           1           1           1           1
           1           1           1           1
 search for int coords
   1 str   2   1   1.391
   2 str   3   2   1.392
   3 str   4   3   1.392
   4 str   5   4   1.391
   5 str   6   1   1.405
   6 str   6   5   1.405
   7 str   7   6   1.494
   8 str   8   7   1.405
   9 str   9   8   1.391
  10 str  10   9   1.392
  11 str  11  10   1.392
  12 str  12   7   1.405
  13 str  12  11   1.391
  14 str  13   1   1.082
  15 str  14   2   1.084
  16 str  15   3   1.084
  17 str  16   4   1.084
  18 str  17   5   1.082
  19 str  18   8   1.082
  20 str  19   9   1.084
  21 str  20  10   1.084
  22 str  21  11   1.084
  23 str  22  12   1.082
 nber stretches=          23
  24 ben   1   2   3
  25 prop tor   1   2   3   4
  26 prop tor   1   2   3  15
  27 ben   1   2  14
  28 ben   1   6   5
  29 ben   1   6   7
  30 prop tor   1   6   7   8
  31 prop tor   1   6   7  12
  32 ben   2   1   6
  33 prop tor   2   1   6   5
  34 prop tor   2   1   6   7
  35 ben   2   1  13
  36 ben   2   3   4
  37 prop tor   2   3   4   5
  38 prop tor   2   3   4  16
  39 ben   2   3  15
  40 ben   3   2  14
  41 ben   3   4   5
  42 prop tor   3   4   5   6
  43 prop tor   3   4   5  17
  44 ben   3   4  16
  45 ben   4   3  15
  46 ben   4   5   6
  47 prop tor   4   5   6   1
  48 prop tor   4   5   6   7
  49 ben   4   5  17
  50 ben   5   4  16
  51 ben   5   6   7
  52 prop tor   5   6   7   8
  53 prop tor   5   6   7  12
  54 prop tor   6   1   2   3
  55 prop tor   6   1   2  14
  56 ben   6   1  13
  57 ben   6   5  17
  58 ben   6   7   8
  59 prop tor   6   7   8   9
  60 prop tor   6   7   8  18
  61 ben   6   7  12
  62 prop tor   6   7  12  11
  63 prop tor   6   7  12  22
  64 ben   7   8   9
  65 prop tor   7   8   9  10
  66 prop tor   7   8   9  19
  67 ben   7   8  18
  68 ben   7  12  11
  69 ben   7  12  22
  70 ben   8   7  12
  71 prop tor   8   7  12  11
  72 prop tor   8   7  12  22
  73 ben   8   9  10
  74 prop tor   8   9  10  11
  75 prop tor   8   9  10  20
  76 ben   8   9  19
  77 ben   9   8  18
  78 ben   9  10  11
  79 prop tor   9  10  11  12
  80 prop tor   9  10  11  21
  81 ben   9  10  20
  82 ben  10   9  19
  83 ben  10  11  12
  84 prop tor  10  11  12   7
  85 prop tor  10  11  12  22
  86 ben  10  11  21
  87 ben  11  10  20
  88 ben  11  12  22
  89 prop tor  12   7   8   9
  90 prop tor  12   7   8  18
  91 ben  12  11  21
  92 prop tor  13   1   2   3
  93 prop tor  13   1   2  14
  94 prop tor  13   1   6   5
  95 prop tor  13   1   6   7
  96 prop tor  14   2   3   4
  97 prop tor  14   2   3  15
  98 prop tor  15   3   4   5
  99 prop tor  15   3   4  16
 100 prop tor  16   4   5   6
 101 prop tor  16   4   5  17
 102 prop tor  17   5   6   1
 103 prop tor  17   5   6   7
 104 prop tor  18   8   9  10
 105 prop tor  18   8   9  19
 106 prop tor  19   9  10  11
 107 prop tor  19   9  10  20
 108 prop tor  20  10  11  12
 109 prop tor  20  10  11  21
 110 prop tor  21  11  12   7
 111 prop tor  21  11  12  22
 nber bend=              36
 nber lin bend=           0
 nber prop tor=          52
 nber impr tor=           0
 nber tot redund int=         111
 Reading file: 
 ./Phenyls_0_C-1S0.log                                                          
                                          
  Entering Gaussian System, Link 0=g16                                          
  
 Gaussian format, type: g94, g98, g03= F F F
  #P Geom=AllCheck Guess=TCheck SCRF=Check GenChk UB3LYP/6-311G(d,p) Fre    
 energy type= B3LYP   
 Original G94 input coords:
  6 -1.500942 -1.208731  0.000000
  6 -2.882013 -1.201156  0.000000
  6 -3.617222  0.000000  0.000000
  6 -2.882013  1.201156  0.000000
  6 -1.500942  1.208731  0.000000
  6 -0.718955  0.000000  0.000000
  6  0.718955  0.000000  0.000000
  6  1.500942 -1.208731  0.000000
  6  2.882013 -1.201156  0.000000
  6  3.617222  0.000000  0.000000
  6  2.882013  1.201156  0.000000
  6  1.500942  1.208731  0.000000
  1 -0.997857 -2.168949  0.000000
  1 -3.410460 -2.153231  0.000000
  1 -4.702057  0.000000  0.000000
  1 -3.410460  2.153231  0.000000
  1 -0.997857  2.168949  0.000000
  1  0.997857 -2.168949  0.000000
  1  3.410460 -2.153231  0.000000
  1  4.702057  0.000000  0.000000
  1  3.410460  2.153231  0.000000
  1  0.997857  2.168949  0.000000
 nber atoms=          22
 Original standard coords:
  6  0.000000  1.208731  1.500942
  6  0.000000  1.201156  2.882013
  6  0.000000  0.000000  3.617222
  6  0.000000 -1.201156  2.882013
  6  0.000000 -1.208731  1.500942
  6  0.000000  0.000000  0.718955
  6  0.000000  0.000000 -0.718955
  6  0.000000  1.208731 -1.500942
  6  0.000000  1.201156 -2.882013
  6  0.000000  0.000000 -3.617222
  6  0.000000 -1.201156 -2.882013
  6  0.000000 -1.208731 -1.500942
  1  0.000000  2.168949  0.997857
  1  0.000000  2.153231  3.410460
  1  0.000000  0.000000  4.702057
  1  0.000000 -2.153231  3.410460
  1  0.000000 -2.168949  0.997857
  1  0.000000  2.168949 -0.997857
  1  0.000000  2.153231 -3.410460
  1  0.000000  0.000000 -4.702057
  1  0.000000 -2.153231 -3.410460
  1  0.000000 -2.168949 -0.997857
  SCF Done:  E(UB3LYP) =  -463.404399426     A.U. after    1 cycles             
  
          23          40 "  -463.404399426"
After scan for Atom:   Atom  AN      X      Y      Z        X      Y      Z        X      Y      Z   
After scan for Atom:   Atom  AN      X      Y      Z        X      Y      Z        X      Y      Z   
After scan for Atom:   Atom  AN      X      Y      Z        X      Y      Z        X      Y      Z   
After scan for Atom:   Atom  AN      X      Y      Z        X      Y      Z        X      Y      Z   
After scan for Atom:   Atom  AN      X      Y      Z        X      Y      Z        X      Y      Z   
After scan for Atom:   Atom  AN      X      Y      Z        X      Y      Z        X      Y      Z   
After scan for Atom:   Atom  AN      X      Y      Z        X      Y      Z        X      Y      Z   
After scan for Atom:   Atom  AN      X      Y      Z        X      Y      Z        X      Y      Z   
After scan for Atom:   Atom  AN      X      Y      Z        X      Y      Z        X      Y      Z   
After scan for Atom:   Atom  AN      X      Y      Z        X      Y      Z        X      Y      Z   
After scan for Atom:   Atom  AN      X      Y      Z        X      Y      Z        X      Y      Z   
After scan for Atom:   Atom  AN      X      Y      Z        X      Y      Z        X      Y      Z   
After scan for Atom:   Atom  AN      X      Y      Z        X      Y      Z        X      Y      Z   
After scan for Atom:   Atom  AN      X      Y      Z        X      Y      Z        X      Y      Z   
After scan for Atom:   Atom  AN      X      Y      Z        X      Y      Z        X      Y      Z   
After scan for Atom:   Atom  AN      X      Y      Z        X      Y      Z        X      Y      Z   
After scan for Atom:   Atom  AN      X      Y      Z        X      Y      Z        X      Y      Z   
After scan for Atom:   Atom  AN      X      Y      Z        X      Y      Z        X      Y      Z   
After scan for Atom:   Atom  AN      X      Y      Z        X      Y      Z        X      Y      Z   
After scan for Atom:   Atom  AN      X      Y      Z        X      Y      Z        X      Y      Z   
 g94    frequencies=
     0.0    0.0    0.0    0.0    0.0    0.0  -31.5   87.7  154.6  180.9
   331.5  363.1  406.1  426.4  429.8  479.2  598.2  619.6  621.4  637.7
   639.1  655.3  673.0  728.6  729.9  745.4  768.0  771.8  895.9  899.1
   910.3  912.9  952.8  992.0 1004.5 1019.6 1024.3 1083.1 1086.5 1122.1
  1155.2 1185.1 1226.7 1256.2 1322.3 1345.2 1348.1 1359.5 1413.0 1477.0
  1478.0 1502.9 1513.7 1521.0 1616.6 1645.0 3100.5 3102.2 3104.0 3105.2
  3149.1 3153.0 3154.9 3161.4 3171.8 3176.7
 g94    symmetries=
                                                AU     B3     B2     B2
      AG     B3     B3     AU     B1     B2     B1     B3     B3     B2
      B2     B2     B3     AU     AG     B3     B2     B1     AU     B2
      B1     B3     B1     AG     B1     B1     AG     B3     B2     B2
      B3     B1     AG     B2     B3     AG     B3     B2     B2     B3
      B1     B3     B2     AG     B1     AG     B1     AG     B3     B2
      B1     B3     AG     B1     B2     AG
 atomic masses:
 12.0000 12.0000 12.0000 12.0000 12.0000 12.0000 12.0000 12.0000 12.0000 12.0000
 12.0000 12.0000  1.0078  1.0078  1.0078  1.0078  1.0078  1.0078  1.0078  1.0078
  1.0078  1.0078
 looking for force constants in 
 ./Phenyls_0_C-1S0.fchk                                                         
  
 Cartesian Force Constants                  R   N=        2211                  
  
 n3=          66        2211
 g94-fc frequencies=
   -31.5   -6.2   -2.8   -0.0    0.0    0.0    0.5   87.7  154.6  180.9
   331.5  363.1  406.1  426.4  429.8  479.3  598.2  619.6  621.4  637.7
   639.1  655.3  673.0  728.6  730.0  745.4  768.0  771.8  896.0  899.1
   910.3  913.0  952.8  992.0 1004.5 1019.6 1024.3 1083.1 1086.5 1122.1
  1155.2 1185.2 1226.7 1256.2 1322.4 1345.2 1348.1 1359.5 1413.0 1477.1
  1478.0 1502.9 1513.8 1521.0 1616.6 1645.1 3100.6 3102.3 3104.1 3105.2
  3149.2 3153.0 3154.9 3161.5 3171.8 3176.8
 at 99999: n3=          66
 symm operator            1 :  T  nop=           1
 symm operator            2 :  T  nop=           2
 symm operator            3 :  T  nop=           3
 symm operator            4 :  T  nop=           4
 symm operator            5 :  T  nop=           5
 symm operator            6 :  T  nop=           6
 symm operator            7 :  T  nop=           7
 The point group of the molecule is D2H
 enforcing symm op           1  jsymt=          -1          -1           1
 enforcing symm op           2  jsymt=          -1           1          -1
 enforcing symm op           3  jsymt=           1          -1          -1
 enforcing symm op           4  jsymt=          -1          -1          -1
 enforcing symm op           5  jsymt=           1           1          -1
 enforcing symm op           6  jsymt=           1          -1           1
 enforcing symm op           7  jsymt=          -1           1           1
 cartesian coord symmetries:
 Ag :   11 Au :    4 B1g:    4 B1u:   11 B2g:    7 B2u:   11 B3g:   11 B3u:    7
 Symmetry rotation matrix:
   1.00000   0.00000   0.00000
   0.00000   1.00000   0.00000
   0.00000   0.00000   1.00000

 Projecting out zero-frequency components
 generating redundant internal coords
         300        3600          22
 search for int coords
   1 str   2   1   1.381
   2 str   3   2   1.408
   3 str   4   3   1.408
   4 str   5   4   1.381
   5 str   6   1   1.440
   6 str   6   5   1.440
   7 str   7   6   1.438
   8 str   8   7   1.440
   9 str   9   8   1.381
  10 str  10   9   1.408
  11 str  11  10   1.408
  12 str  12   7   1.440
  13 str  12  11   1.381
  14 str  13   1   1.084
  15 str  14   2   1.089
  16 str  15   3   1.085
  17 str  16   4   1.089
  18 str  17   5   1.084
  19 str  18   8   1.084
  20 str  19   9   1.089
  21 str  20  10   1.085
  22 str  21  11   1.089
  23 str  22  12   1.084
 nber stretches=          23
  24 ben   1   2   3
  25 prop tor   1   2   3   4
  26 prop tor   1   2   3  15
  27 ben   1   2  14
  28 ben   1   6   5
  29 ben   1   6   7
  30 prop tor   1   6   7   8
  31 prop tor   1   6   7  12
  32 ben   2   1   6
  33 prop tor   2   1   6   5
  34 prop tor   2   1   6   7
  35 ben   2   1  13
  36 ben   2   3   4
  37 prop tor   2   3   4   5
  38 prop tor   2   3   4  16
  39 ben   2   3  15
  40 ben   3   2  14
  41 ben   3   4   5
  42 prop tor   3   4   5   6
  43 prop tor   3   4   5  17
  44 ben   3   4  16
  45 ben   4   3  15
  46 ben   4   5   6
  47 prop tor   4   5   6   1
  48 prop tor   4   5   6   7
  49 ben   4   5  17
  50 ben   5   4  16
  51 ben   5   6   7
  52 prop tor   5   6   7   8
  53 prop tor   5   6   7  12
  54 prop tor   6   1   2   3
  55 prop tor   6   1   2  14
  56 ben   6   1  13
  57 ben   6   5  17
  58 ben   6   7   8
  59 prop tor   6   7   8   9
  60 prop tor   6   7   8  18
  61 ben   6   7  12
  62 prop tor   6   7  12  11
  63 prop tor   6   7  12  22
  64 ben   7   8   9
  65 prop tor   7   8   9  10
  66 prop tor   7   8   9  19
  67 ben   7   8  18
  68 ben   7  12  11
  69 ben   7  12  22
  70 ben   8   7  12
  71 prop tor   8   7  12  11
  72 prop tor   8   7  12  22
  73 ben   8   9  10
  74 prop tor   8   9  10  11
  75 prop tor   8   9  10  20
  76 ben   8   9  19
  77 ben   9   8  18
  78 ben   9  10  11
  79 prop tor   9  10  11  12
  80 prop tor   9  10  11  21
  81 ben   9  10  20
  82 ben  10   9  19
  83 ben  10  11  12
  84 prop tor  10  11  12   7
  85 prop tor  10  11  12  22
  86 ben  10  11  21
  87 ben  11  10  20
  88 ben  11  12  22
  89 prop tor  12   7   8   9
  90 prop tor  12   7   8  18
  91 ben  12  11  21
  92 prop tor  13   1   2   3
  93 prop tor  13   1   2  14
  94 prop tor  13   1   6   5
  95 prop tor  13   1   6   7
  96 prop tor  14   2   3   4
  97 prop tor  14   2   3  15
  98 prop tor  15   3   4   5
  99 prop tor  15   3   4  16
 100 prop tor  16   4   5   6
 101 prop tor  16   4   5  17
 102 prop tor  17   5   6   1
 103 prop tor  17   5   6   7
 104 prop tor  18   8   9  10
 105 prop tor  18   8   9  19
 106 prop tor  19   9  10  11
 107 prop tor  19   9  10  20
 108 prop tor  20  10  11  12
 109 prop tor  20  10  11  21
 110 prop tor  21  11  12   7
 111 prop tor  21  11  12  22
 nber bend=              36
 nber lin bend=           0
 nber prop tor=          52
 nber impr tor=           0
 nber tot redund int=         111
 Eigenvalues of G in red int coords
    Gval -0.00000000 -0.00000000 -0.00000000 -0.00000000 -0.00000000 -0.00000000 -0.00000000 -0.00000000
    Gval -0.00000000 -0.00000000 -0.00000000 -0.00000000 -0.00000000 -0.00000000 -0.00000000 -0.00000000
    Gval -0.00000000 -0.00000000 -0.00000000 -0.00000000 -0.00000000 -0.00000000 -0.00000000 -0.00000000
    Gval -0.00000000  0.00000000  0.00000000  0.00000000  0.00000000  0.00000000  0.00000000  0.00000000
    Gval  0.00000000  0.00000000  0.00000000  0.00000000  0.00000000  0.00000000  0.00000000  0.00000000
    Gval  0.00000000  0.00000000  0.00000000  0.00000000  0.00000000  0.00000000  0.00000000  0.00000000
    Gval  0.00000000  0.00000000  0.00000000  0.00000524  0.00000760  0.00002397  0.00003734  0.00004252
    Gval  0.00004473  0.00004938  0.00005703  0.00005759  0.00006666  0.00006673  0.00009836  0.00011273
    Gval  0.00011707  0.00011817  0.00012797  0.00019298  0.00020345  0.00025024  0.00027152  0.00027732
    Gval  0.00034845  0.00037053  0.00042533  0.00054431  0.00054700  0.00059301  0.00059307  0.00059308
    Gval  0.00059384  0.00059751  0.00060310  0.00060346  0.00061985  0.00063094  0.00065786  0.00065959
    Gval  0.00089522  0.00103390  0.00103699  0.00109894  0.00110060  0.00113414  0.00113571  0.00116028
    Gval  0.00116126  0.00116682  0.00116683  0.00140036  0.00143032  0.00161749  0.00202537  0.00230178
    Gval  0.00231557  0.00301593  0.00324512  0.00363782  0.00365126  0.00404295  0.00405082
  5.238055189812210E-006  5.238055189812210E-006
  7.601616040695465E-006  5.238055189812210E-006
  2.397427781319224E-005  5.238055189812210E-006
  3.734404480636351E-005  5.238055189812210E-006
  4.252350102403130E-005  5.238055189812210E-006
  4.473051256198383E-005  5.238055189812210E-006
  4.938088442150181E-005  5.238055189812210E-006
  5.702567557639929E-005  5.238055189812210E-006
  5.759239651572116E-005  5.238055189812210E-006
  6.665899122596323E-005  5.238055189812210E-006
  6.672584886267791E-005  5.238055189812210E-006
  9.836106636310681E-005  5.238055189812210E-006
  1.127278856139712E-004  5.238055189812210E-006
  1.170676359169077E-004  5.238055189812210E-006
  1.181689351658948E-004  5.238055189812210E-006
  1.279725091605111E-004  5.238055189812210E-006
  1.929801879457890E-004  5.238055189812210E-006
  2.034541541330895E-004  5.238055189812210E-006
  2.502414032866272E-004  5.238055189812210E-006
  2.715226776564172E-004  5.238055189812210E-006
  2.773169080160815E-004  5.238055189812210E-006
  3.484472425804398E-004  5.238055189812210E-006
  3.705301069280386E-004  5.238055189812210E-006
  4.253334758740524E-004  5.238055189812210E-006
  5.443056439759847E-004  5.238055189812210E-006
  5.470019615187863E-004  5.238055189812210E-006
  5.930058270175087E-004  5.238055189812210E-006
  5.930720778855323E-004  5.238055189812210E-006
  5.930807000792151E-004  5.238055189812210E-006
  5.938408917208212E-004  5.238055189812210E-006
  5.975136757265116E-004  5.238055189812210E-006
  6.031005926914637E-004  5.238055189812210E-006
  6.034602526711225E-004  5.238055189812210E-006
  6.198526788887937E-004  5.238055189812210E-006
  6.309432952877224E-004  5.238055189812210E-006
  6.578592644410616E-004  5.238055189812210E-006
  6.595868640346059E-004  5.238055189812210E-006
  8.952179842943810E-004  5.238055189812210E-006
  1.033904476998789E-003  5.238055189812210E-006
  1.036993991634335E-003  5.238055189812210E-006
  1.098937300780672E-003  5.238055189812210E-006
  1.100596112222071E-003  5.238055189812210E-006
  1.134143108709459E-003  5.238055189812210E-006
  1.135714333642077E-003  5.238055189812210E-006
  1.160279093682127E-003  5.238055189812210E-006
  1.161258965471924E-003  5.238055189812210E-006
  1.166819326439544E-003  5.238055189812210E-006
  1.166825533005405E-003  5.238055189812210E-006
  1.400357583667992E-003  5.238055189812210E-006
  1.430316347842939E-003  5.238055189812210E-006
  1.617491999499054E-003  5.238055189812210E-006
  2.025366936336867E-003  5.238055189812210E-006
  2.301782516159786E-003  5.238055189812210E-006
  2.315565452552347E-003  5.238055189812210E-006
  3.015932671044043E-003  5.238055189812210E-006
  3.245118912081972E-003  5.238055189812210E-006
  3.637817081203689E-003  5.238055189812210E-006
  3.651256791190530E-003  5.238055189812210E-006
  4.042948946034059E-003  5.238055189812210E-006
  4.050824056240212E-003  5.238055189812210E-006
 cut=1d-8, nber non-redundant internal coords=          60
 Check on Eigenvals of non-red overlap matrix:
  0.00000524  0.00000760  0.00002397  0.00003734  0.00004252  0.00004473  0.00004938  0.00005703
  0.00005759  0.00006666  0.00006673  0.00009836  0.00011273  0.00011707  0.00011817  0.00012797
  0.00019298  0.00020345  0.00025024  0.00027152  0.00027732  0.00034845  0.00037053  0.00042533
  0.00054431  0.00054700  0.00059301  0.00059307  0.00059308  0.00059384  0.00059751  0.00060310
  0.00060346  0.00061985  0.00063094  0.00065786  0.00065959  0.00089522  0.00103390  0.00103699
  0.00109894  0.00110060  0.00113414  0.00113571  0.00116028  0.00116126  0.00116682  0.00116683
  0.00140036  0.00143032  0.00161749  0.00202537  0.00230178  0.00231557  0.00301593  0.00324512
  0.00363782  0.00365126  0.00404295  0.00405082
 Checking for correct frequencies
 recalc frequencies=
   -31.5   -0.0   -0.0   -0.0    0.0    0.0    0.0   87.7  154.6  180.9
   331.5  363.1  406.1  426.4  429.8  479.3  598.2  619.6  621.4  637.7
   639.1  655.3  673.0  728.6  730.0  745.4  768.0  771.8  896.0  899.1
   910.3  913.0  952.8  992.0 1004.5 1019.6 1024.3 1083.1 1086.5 1122.1
  1155.2 1185.2 1226.7 1256.2 1322.4 1345.2 1348.1 1359.5 1413.0 1477.1
  1478.0 1502.9 1513.8 1521.0 1616.6 1645.1 3100.6 3102.3 3104.1 3105.2
  3149.2 3153.0 3154.9 3161.5 3171.8 3176.8
 recalc symmetries=
     Au     B2u    B1u    B3u    B1g    B2g    B3g    B3u    B2g    B2u
     Ag     B3u    B3g    Au     B1g    B2g    B1u    B3u    B3g    B2g
     B2u    B2g    B3u    Au     Ag     B3u    B2g    B1g    Au     B2g
     B1g    B3u    B1u    Ag     B1u    B1u    Ag     B3g    B2u    B2u
     B3g    B1u    Ag     B2u    B3g    Ag     B3g    B2u    B2u    B3g
     B1u    B3g    B2u    Ag     B1u    Ag     B1u    Ag     B3g    B2u
     B1u    B3g    Ag     B1u    B2u    Ag 
 recalc freqs check OK
 Zero-point lengths:
 44.1831 10.0000 10.0000 10.0000 10.0000 10.0000 10.0000 26.4673 19.9397 18.4338
 13.6156 13.0101 12.3024 12.0056 11.9584 11.3244 10.1363  9.9593  9.9448  9.8173
  9.8061  9.6845  9.5564  9.1845  9.1759  9.0801  8.9456  8.9237  8.2823  8.2678
  8.2169  8.2049  8.0314  7.8711  7.8220  7.7637  7.7461  7.5329  7.5210  7.4007
  7.2941  7.2013  7.0783  6.9947  6.8174  6.7593  6.7520  6.7235  6.5951  6.4505
  6.4485  6.3948  6.3719  6.3566  6.1659  6.1123  4.4522  4.4510  4.4497  4.4489
  4.4177  4.4150  4.4137  4.4091  4.4019  4.3985
 highest evec of mol 2
  0.0000 -0.1180  0.0636
  0.0000 -0.0322 -0.0205
  0.0000  0.0000 -0.0427
  0.0000  0.0322 -0.0205
  0.0000  0.1180  0.0636
  0.0000  0.0000  0.0052
  0.0000  0.0000 -0.0052
  0.0000 -0.1180 -0.0636
  0.0000 -0.0322  0.0205
  0.0000  0.0000  0.0427
  0.0000  0.0322  0.0205
  0.0000  0.1180 -0.0636
  0.0000  0.4007 -0.2170
  0.0000  0.0991  0.0557
  0.0000  0.0000  0.1350
  0.0000 -0.0991  0.0557
  0.0000 -0.4007 -0.2170
  0.0000  0.4007  0.2170
  0.0000  0.0991 -0.0557
  0.0000  0.0000 -0.1350
  0.0000 -0.0991 -0.0557
  0.0000 -0.4007  0.2170
 Enter nber and list of atoms to keep of mol #2
 keep list:          22           1           2           3           4
           5           6           7           8           9          10
          11          12          13          14          15          16
          17          18          19          20          21          22
 reordering atoms
           1   1.50094200000000     
           2   2.88201300000000     
           3   3.61722200000000     
           4   2.88201300000000     
           5   1.50094200000000     
           6  0.718955000000000     
           7 -0.718955000000000     
           8  -1.50094200000000     
           9  -2.88201300000000     
          10  -3.61722200000000     
          11  -2.88201300000000     
          12  -1.50094200000000     
          13  0.997857000000000     
          14   3.41046000000000     
          15   4.70205700000000     
          16   3.41046000000000     
          17  0.997857000000000     
          18 -0.997857000000000     
          19  -3.41046000000000     
          20  -4.70205700000000     
          21  -3.41046000000000     
          22 -0.997857000000000     
           1           1
           2           2
           3           3
           4           4
           5           5
           6           6
           7           7
           8           8
           9           9
          10          10
          11          11
          12          12
          13          13
          14          14
          15          15
          16          16
          17          17
          18          18
          19          19
          20          20
          21          21
          22          22
 initial cartes coords mol 1
   6   0.00000  -1.19698   1.48355
   6   0.00000  -1.19877   2.87417
   6   0.00000   0.00000   3.58183
   6   0.00000   1.19877   2.87417
   6   0.00000   1.19698   1.48355
   6   0.00000   0.00000   0.74698
   6   0.00000   0.00000  -0.74698
   6   0.00000  -1.19698  -1.48355
   6   0.00000  -1.19877  -2.87417
   6   0.00000   0.00000  -3.58183
   6   0.00000   1.19877  -2.87417
   6   0.00000   1.19698  -1.48355
   1   0.00000  -2.15163   0.97504
   1   0.00000  -2.14420   3.40527
   1   0.00000   0.00000   4.66548
   1   0.00000   2.14420   3.40527
   1   0.00000   2.15163   0.97504
   1   0.00000  -2.15163  -0.97504
   1   0.00000  -2.14420  -3.40527
   1   0.00000   0.00000  -4.66548
   1   0.00000   2.14420  -3.40527
   1   0.00000   2.15163  -0.97504
 initial cartes coords mol 2
   6   0.00000   1.20873   1.50094
   6   0.00000   1.20116   2.88201
   6   0.00000   0.00000   3.61722
   6   0.00000  -1.20116   2.88201
   6   0.00000  -1.20873   1.50094
   6   0.00000   0.00000   0.71895
   6   0.00000   0.00000  -0.71896
   6   0.00000   1.20873  -1.50094
   6   0.00000   1.20116  -2.88201
   6   0.00000   0.00000  -3.61722
   6   0.00000  -1.20116  -2.88201
   6   0.00000  -1.20873  -1.50094
   1   0.00000   2.16895   0.99786
   1   0.00000   2.15323   3.41046
   1   0.00000   0.00000   4.70206
   1   0.00000  -2.15323   3.41046
   1   0.00000  -2.16895   0.99786
   1   0.00000   2.16895  -0.99786
   1   0.00000   2.15323  -3.41046
   1   0.00000   0.00000  -4.70206
   1   0.00000  -2.15323  -3.41046
   1   0.00000  -2.16895  -0.99786
 loop 1 0
 mod cartes coords mol 2
   6   0.00000   1.20873   1.50094
   6   0.00000   1.20116   2.88201
   6   0.00000   0.00000   3.61722
   6   0.00000  -1.20116   2.88201
   6   0.00000  -1.20873   1.50094
   6   0.00000   0.00000   0.71895
   6   0.00000   0.00000  -0.71896
   6   0.00000   1.20873  -1.50094
   6   0.00000   1.20116  -2.88201
   6   0.00000   0.00000  -3.61722
   6   0.00000  -1.20116  -2.88201
   6   0.00000  -1.20873  -1.50094
   1   0.00000   2.16895   0.99786
   1   0.00000   2.15323   3.41046
   1   0.00000   0.00000   4.70206
   1   0.00000  -2.15323   3.41046
   1   0.00000  -2.16895   0.99786
   1   0.00000   2.16895  -0.99786
   1   0.00000   2.15323  -3.41046
   1   0.00000   0.00000  -4.70206
   1   0.00000  -2.15323  -3.41046
   1   0.00000  -2.16895  -0.99786
 read in order, maxerr=  4.32 for atom  13
 loop 1 1
 mod cartes coords mol 2
   6   0.00000   1.20873   1.50094
   6   0.00000   1.20116   2.88201
   6   0.00000   0.00000   3.61722
   6   0.00000  -1.20116   2.88201
   6   0.00000  -1.20873   1.50094
   6   0.00000   0.00000   0.71895
   6   0.00000   0.00000  -0.71896
   6   0.00000   1.20873  -1.50094
   6   0.00000   1.20116  -2.88201
   6   0.00000   0.00000  -3.61722
   6   0.00000  -1.20116  -2.88201
   6   0.00000  -1.20873  -1.50094
   1   0.00000   2.16895   0.99786
   1   0.00000   2.15323   3.41046
   1   0.00000   0.00000   4.70206
   1   0.00000  -2.15323   3.41046
   1   0.00000  -2.16895   0.99786
   1   0.00000   2.16895  -0.99786
   1   0.00000   2.15323  -3.41046
   1   0.00000   0.00000  -4.70206
   1   0.00000  -2.15323  -3.41046
   1   0.00000  -2.16895  -0.99786
 read in order, maxerr=  4.32 for atom  13
 loop 1 2
 mod cartes coords mol 2
   6   0.00000  -1.20873   1.50094
   6   0.00000  -1.20116   2.88201
   6   0.00000   0.00000   3.61722
   6   0.00000   1.20116   2.88201
   6   0.00000   1.20873   1.50094
   6   0.00000   0.00000   0.71895
   6   0.00000   0.00000  -0.71896
   6   0.00000  -1.20873  -1.50094
   6   0.00000  -1.20116  -2.88201
   6   0.00000   0.00000  -3.61722
   6   0.00000   1.20116  -2.88201
   6   0.00000   1.20873  -1.50094
   1   0.00000  -2.16895   0.99786
   1   0.00000  -2.15323   3.41046
   1   0.00000   0.00000   4.70206
   1   0.00000   2.15323   3.41046
   1   0.00000   2.16895   0.99786
   1   0.00000  -2.16895  -0.99786
   1   0.00000  -2.15323  -3.41046
   1   0.00000   0.00000  -4.70206
   1   0.00000   2.15323  -3.41046
   1   0.00000   2.16895  -0.99786
 read in order, maxerr=  0.04 for atom  15
 final axis swaps:           1          -1           1
 final xyz swap pattern=           1
 reorder list:
   1   2   3   4   5   6   7   8   9  10  11  12  13  14  15  16  17  18  19  20
  21  22
 axis signs=           1          -1           1
  6     0.000000 -1.208731  1.500942     0.000000 -1.196984  1.483552
  6     0.000000 -1.201156  2.882013     0.000000 -1.198774  2.874166
  6     0.000000  0.000000  3.617222     0.000000  0.000000  3.581826
  6     0.000000  1.201156  2.882013     0.000000  1.198774  2.874166
  6     0.000000  1.208731  1.500942     0.000000  1.196984  1.483552
  6     0.000000  0.000000  0.718955     0.000000  0.000000  0.746979
  6     0.000000  0.000000 -0.718955     0.000000  0.000000 -0.746979
  6     0.000000 -1.208731 -1.500942     0.000000 -1.196984 -1.483552
  6     0.000000 -1.201156 -2.882013     0.000000 -1.198774 -2.874166
  6     0.000000  0.000000 -3.617222     0.000000  0.000000 -3.581826
  6     0.000000  1.201156 -2.882013     0.000000  1.198774 -2.874166
  6     0.000000  1.208731 -1.500942     0.000000  1.196984 -1.483552
  1     0.000000 -2.168949  0.997857     0.000000 -2.151634  0.975039
  1     0.000000 -2.153231  3.410460     0.000000 -2.144203  3.405267
  1     0.000000  0.000000  4.702057     0.000000  0.000000  4.665481
  1     0.000000  2.153231  3.410460     0.000000  2.144203  3.405267
  1     0.000000  2.168949  0.997857     0.000000  2.151634  0.975039
  1     0.000000 -2.168949 -0.997857     0.000000 -2.151634 -0.975039
  1     0.000000 -2.153231 -3.410460     0.000000 -2.144203 -3.405267
  1     0.000000  0.000000 -4.702057     0.000000  0.000000 -4.665481
  1     0.000000  2.153231 -3.410460     0.000000  2.144203 -3.405267
  1     0.000000  2.168949 -0.997857     0.000000  2.151634 -0.975039
 generating redundant internal coords
         300        3600          22
 Adding extra bonds for z output only
           6           6           6           6           6           6
           6           6           6           6           6           6
           1           1           1           1           1           1
           1           1           1           1
 search for int coords
   1 str   2   1   1.381
   2 str   3   2   1.408
   3 str   4   3   1.408
   4 str   5   4   1.381
   5 str   6   1   1.440
   6 str   6   5   1.440
   7 str   7   6   1.438
   8 str   8   7   1.440
   9 str   9   8   1.381
  10 str  10   9   1.408
  11 str  11  10   1.408
  12 str  12   7   1.440
  13 str  12  11   1.381
  14 str  13   1   1.084
  15 str  14   2   1.089
  16 str  15   3   1.085
  17 str  16   4   1.089
  18 str  17   5   1.084
  19 str  18   8   1.084
  20 str  19   9   1.089
  21 str  20  10   1.085
  22 str  21  11   1.089
  23 str  22  12   1.084
 nber stretches=          23
  24 ben   1   2   3
  25 prop tor   1   2   3   4
  26 prop tor   1   2   3  15
  27 ben   1   2  14
  28 ben   1   6   5
  29 ben   1   6   7
  30 prop tor   1   6   7   8
  31 prop tor   1   6   7  12
  32 ben   2   1   6
  33 prop tor   2   1   6   5
  34 prop tor   2   1   6   7
  35 ben   2   1  13
  36 ben   2   3   4
  37 prop tor   2   3   4   5
  38 prop tor   2   3   4  16
  39 ben   2   3  15
  40 ben   3   2  14
  41 ben   3   4   5
  42 prop tor   3   4   5   6
  43 prop tor   3   4   5  17
  44 ben   3   4  16
  45 ben   4   3  15
  46 ben   4   5   6
  47 prop tor   4   5   6   1
  48 prop tor   4   5   6   7
  49 ben   4   5  17
  50 ben   5   4  16
  51 ben   5   6   7
  52 prop tor   5   6   7   8
  53 prop tor   5   6   7  12
  54 prop tor   6   1   2   3
  55 prop tor   6   1   2  14
  56 ben   6   1  13
  57 ben   6   5  17
  58 ben   6   7   8
  59 prop tor   6   7   8   9
  60 prop tor   6   7   8  18
  61 ben   6   7  12
  62 prop tor   6   7  12  11
  63 prop tor   6   7  12  22
  64 ben   7   8   9
  65 prop tor   7   8   9  10
  66 prop tor   7   8   9  19
  67 ben   7   8  18
  68 ben   7  12  11
  69 ben   7  12  22
  70 ben   8   7  12
  71 prop tor   8   7  12  11
  72 prop tor   8   7  12  22
  73 ben   8   9  10
  74 prop tor   8   9  10  11
  75 prop tor   8   9  10  20
  76 ben   8   9  19
  77 ben   9   8  18
  78 ben   9  10  11
  79 prop tor   9  10  11  12
  80 prop tor   9  10  11  21
  81 ben   9  10  20
  82 ben  10   9  19
  83 ben  10  11  12
  84 prop tor  10  11  12   7
  85 prop tor  10  11  12  22
  86 ben  10  11  21
  87 ben  11  10  20
  88 ben  11  12  22
  89 prop tor  12   7   8   9
  90 prop tor  12   7   8  18
  91 ben  12  11  21
  92 prop tor  13   1   2   3
  93 prop tor  13   1   2  14
  94 prop tor  13   1   6   5
  95 prop tor  13   1   6   7
  96 prop tor  14   2   3   4
  97 prop tor  14   2   3  15
  98 prop tor  15   3   4   5
  99 prop tor  15   3   4  16
 100 prop tor  16   4   5   6
 101 prop tor  16   4   5  17
 102 prop tor  17   5   6   1
 103 prop tor  17   5   6   7
 104 prop tor  18   8   9  10
 105 prop tor  18   8   9  19
 106 prop tor  19   9  10  11
 107 prop tor  19   9  10  20
 108 prop tor  20  10  11  12
 109 prop tor  20  10  11  21
 110 prop tor  21  11  12   7
 111 prop tor  21  11  12  22
 nber bend=              36
 nber lin bend=           0
 nber prop tor=          52
 nber impr tor=           0
 nber tot redund int=         111
 generating redundant internal coords
         300        3600          22
 search for int coords
   1 str   2   1   1.391
   2 str   3   2   1.392
   3 str   4   3   1.392
   4 str   5   4   1.391
   5 str   6   1   1.405
   6 str   6   5   1.405
   7 str   7   6   1.494
   8 str   8   7   1.405
   9 str   9   8   1.391
  10 str  10   9   1.392
  11 str  11  10   1.392
  12 str  12   7   1.405
  13 str  12  11   1.391
  14 str  13   1   1.082
  15 str  14   2   1.084
  16 str  15   3   1.084
  17 str  16   4   1.084
  18 str  17   5   1.082
  19 str  18   8   1.082
  20 str  19   9   1.084
  21 str  20  10   1.084
  22 str  21  11   1.084
  23 str  22  12   1.082
 nber stretches=          23
  24 ben   1   2   3
  25 prop tor   1   2   3   4
  26 prop tor   1   2   3  15
  27 ben   1   2  14
  28 ben   1   6   5
  29 ben   1   6   7
  30 prop tor   1   6   7   8
  31 prop tor   1   6   7  12
  32 ben   2   1   6
  33 prop tor   2   1   6   5
  34 prop tor   2   1   6   7
  35 ben   2   1  13
  36 ben   2   3   4
  37 prop tor   2   3   4   5
  38 prop tor   2   3   4  16
  39 ben   2   3  15
  40 ben   3   2  14
  41 ben   3   4   5
  42 prop tor   3   4   5   6
  43 prop tor   3   4   5  17
  44 ben   3   4  16
  45 ben   4   3  15
  46 ben   4   5   6
  47 prop tor   4   5   6   1
  48 prop tor   4   5   6   7
  49 ben   4   5  17
  50 ben   5   4  16
  51 ben   5   6   7
  52 prop tor   5   6   7   8
  53 prop tor   5   6   7  12
  54 prop tor   6   1   2   3
  55 prop tor   6   1   2  14
  56 ben   6   1  13
  57 ben   6   5  17
  58 ben   6   7   8
  59 prop tor   6   7   8   9
  60 prop tor   6   7   8  18
  61 ben   6   7  12
  62 prop tor   6   7  12  11
  63 prop tor   6   7  12  22
  64 ben   7   8   9
  65 prop tor   7   8   9  10
  66 prop tor   7   8   9  19
  67 ben   7   8  18
  68 ben   7  12  11
  69 ben   7  12  22
  70 ben   8   7  12
  71 prop tor   8   7  12  11
  72 prop tor   8   7  12  22
  73 ben   8   9  10
  74 prop tor   8   9  10  11
  75 prop tor   8   9  10  20
  76 ben   8   9  19
  77 ben   9   8  18
  78 ben   9  10  11
  79 prop tor   9  10  11  12
  80 prop tor   9  10  11  21
  81 ben   9  10  20
  82 ben  10   9  19
  83 ben  10  11  12
  84 prop tor  10  11  12   7
  85 prop tor  10  11  12  22
  86 ben  10  11  21
  87 ben  11  10  20
  88 ben  11  12  22
  89 prop tor  12   7   8   9
  90 prop tor  12   7   8  18
  91 ben  12  11  21
  92 prop tor  13   1   2   3
  93 prop tor  13   1   2  14
  94 prop tor  13   1   6   5
  95 prop tor  13   1   6   7
  96 prop tor  14   2   3   4
  97 prop tor  14   2   3  15
  98 prop tor  15   3   4   5
  99 prop tor  15   3   4  16
 100 prop tor  16   4   5   6
 101 prop tor  16   4   5  17
 102 prop tor  17   5   6   1
 103 prop tor  17   5   6   7
 104 prop tor  18   8   9  10
 105 prop tor  18   8   9  19
 106 prop tor  19   9  10  11
 107 prop tor  19   9  10  20
 108 prop tor  20  10  11  12
 109 prop tor  20  10  11  21
 110 prop tor  21  11  12   7
 111 prop tor  21  11  12  22
 nber bend=              36
 nber lin bend=           0
 nber prop tor=          52
 nber impr tor=           0
 nber tot redund int=         111
 Eigenvalues of G in red int coords
    Gval -0.00000000 -0.00000000 -0.00000000 -0.00000000 -0.00000000 -0.00000000 -0.00000000 -0.00000000
    Gval -0.00000000 -0.00000000 -0.00000000 -0.00000000 -0.00000000 -0.00000000 -0.00000000 -0.00000000
    Gval -0.00000000 -0.00000000 -0.00000000 -0.00000000 -0.00000000 -0.00000000 -0.00000000 -0.00000000
    Gval  0.00000000  0.00000000  0.00000000  0.00000000  0.00000000  0.00000000  0.00000000  0.00000000
    Gval  0.00000000  0.00000000  0.00000000  0.00000000  0.00000000  0.00000000  0.00000000  0.00000000
    Gval  0.00000000  0.00000000  0.00000000  0.00000000  0.00000000  0.00000000  0.00000000  0.00000000
    Gval  0.00000000  0.00000000  0.00000000  0.00000532  0.00000768  0.00002373  0.00003668  0.00004250
    Gval  0.00004496  0.00004919  0.00005754  0.00005758  0.00006679  0.00006709  0.00009792  0.00011445
    Gval  0.00011700  0.00011718  0.00012817  0.00019226  0.00020048  0.00025793  0.00027687  0.00027741
    Gval  0.00035457  0.00037854  0.00041377  0.00052155  0.00057640  0.00058168  0.00059307  0.00059308
    Gval  0.00059312  0.00059389  0.00060385  0.00060428  0.00062000  0.00063005  0.00066002  0.00066198
    Gval  0.00088772  0.00104026  0.00104311  0.00111018  0.00111208  0.00113844  0.00114003  0.00116956
    Gval  0.00117058  0.00117332  0.00117333  0.00141602  0.00143644  0.00163995  0.00201632  0.00234534
    Gval  0.00235968  0.00302916  0.00323554  0.00370024  0.00371371  0.00406380  0.00407187
  5.322266402832551E-006  5.322266402832551E-006
  7.683763339459627E-006  5.322266402832551E-006
  2.372792668672354E-005  5.322266402832551E-006
  3.668414215374891E-005  5.322266402832551E-006
  4.250296716327768E-005  5.322266402832551E-006
  4.495726142759069E-005  5.322266402832551E-006
  4.919015804123424E-005  5.322266402832551E-006
  5.754090860579417E-005  5.322266402832551E-006
  5.757954554855313E-005  5.322266402832551E-006
  6.679456130855756E-005  5.322266402832551E-006
  6.709387625738571E-005  5.322266402832551E-006
  9.792191414165662E-005  5.322266402832551E-006
  1.144528277576116E-004  5.322266402832551E-006
  1.170004488183275E-004  5.322266402832551E-006
  1.171798537675073E-004  5.322266402832551E-006
  1.281684700471759E-004  5.322266402832551E-006
  1.922621541397580E-004  5.322266402832551E-006
  2.004780243318978E-004  5.322266402832551E-006
  2.579265111821138E-004  5.322266402832551E-006
  2.768668602616753E-004  5.322266402832551E-006
  2.774065254664240E-004  5.322266402832551E-006
  3.545684583522049E-004  5.322266402832551E-006
  3.785429070860316E-004  5.322266402832551E-006
  4.137730492448435E-004  5.322266402832551E-006
  5.215464423358882E-004  5.322266402832551E-006
  5.764001300541822E-004  5.322266402832551E-006
  5.816769274114355E-004  5.322266402832551E-006
  5.930724156458141E-004  5.322266402832551E-006
  5.930814178418265E-004  5.322266402832551E-006
  5.931189396939563E-004  5.322266402832551E-006
  5.938927867461781E-004  5.322266402832551E-006
  6.038532324682895E-004  5.322266402832551E-006
  6.042758443079490E-004  5.322266402832551E-006
  6.200016962736423E-004  5.322266402832551E-006
  6.300472015298337E-004  5.322266402832551E-006
  6.600217256213872E-004  5.322266402832551E-006
  6.619803119674984E-004  5.322266402832551E-006
  8.877239485617670E-004  5.322266402832551E-006
  1.040263813498708E-003  5.322266402832551E-006
  1.043107066275153E-003  5.322266402832551E-006
  1.110183663393455E-003  5.322266402832551E-006
  1.112084351935949E-003  5.322266402832551E-006
  1.138440487831875E-003  5.322266402832551E-006
  1.140031274481161E-003  5.322266402832551E-006
  1.169557093576042E-003  5.322266402832551E-006
  1.170579403646204E-003  5.322266402832551E-006
  1.173322142589803E-003  5.322266402832551E-006
  1.173328090879020E-003  5.322266402832551E-006
  1.416024291513456E-003  5.322266402832551E-006
  1.436439261051637E-003  5.322266402832551E-006
  1.639947704030103E-003  5.322266402832551E-006
  2.016321816519426E-003  5.322266402832551E-006
  2.345337334246751E-003  5.322266402832551E-006
  2.359684800580871E-003  5.322266402832551E-006
  3.029157874099304E-003  5.322266402832551E-006
  3.235544325883333E-003  5.322266402832551E-006
  3.700241317112754E-003  5.322266402832551E-006
  3.713712768582969E-003  5.322266402832551E-006
  4.063804481981751E-003  5.322266402832551E-006
  4.071874717061007E-003  5.322266402832551E-006
 cut=1d-8, nber non-redundant internal coords=          60
 Check on Eigenvals of non-red overlap matrix:
  0.00000532  0.00000768  0.00002373  0.00003668  0.00004250  0.00004496  0.00004919  0.00005754
  0.00005758  0.00006679  0.00006709  0.00009792  0.00011445  0.00011700  0.00011718  0.00012817
  0.00019226  0.00020048  0.00025793  0.00027687  0.00027741  0.00035457  0.00037854  0.00041377
  0.00052155  0.00057640  0.00058168  0.00059307  0.00059308  0.00059312  0.00059389  0.00060385
  0.00060428  0.00062000  0.00063005  0.00066002  0.00066198  0.00088772  0.00104026  0.00104311
  0.00111018  0.00111208  0.00113844  0.00114003  0.00116956  0.00117058  0.00117332  0.00117333
  0.00141602  0.00143644  0.00163995  0.00201632  0.00234534  0.00235968  0.00302916  0.00323554
  0.00370024  0.00371371  0.00406380  0.00407187
 generating redundant internal coords
         300        3600          22
 search for int coords
   1 str   2   1   1.381
   2 str   3   2   1.408
   3 str   4   3   1.408
   4 str   5   4   1.381
   5 str   6   1   1.440
   6 str   6   5   1.440
   7 str   7   6   1.438
   8 str   8   7   1.440
   9 str   9   8   1.381
  10 str  10   9   1.408
  11 str  11  10   1.408
  12 str  12   7   1.440
  13 str  12  11   1.381
  14 str  13   1   1.084
  15 str  14   2   1.089
  16 str  15   3   1.085
  17 str  16   4   1.089
  18 str  17   5   1.084
  19 str  18   8   1.084
  20 str  19   9   1.089
  21 str  20  10   1.085
  22 str  21  11   1.089
  23 str  22  12   1.084
 nber stretches=          23
  24 ben   1   2   3
  25 prop tor   1   2   3   4
  26 prop tor   1   2   3  15
  27 ben   1   2  14
  28 ben   1   6   5
  29 ben   1   6   7
  30 prop tor   1   6   7   8
  31 prop tor   1   6   7  12
  32 ben   2   1   6
  33 prop tor   2   1   6   5
  34 prop tor   2   1   6   7
  35 ben   2   1  13
  36 ben   2   3   4
  37 prop tor   2   3   4   5
  38 prop tor   2   3   4  16
  39 ben   2   3  15
  40 ben   3   2  14
  41 ben   3   4   5
  42 prop tor   3   4   5   6
  43 prop tor   3   4   5  17
  44 ben   3   4  16
  45 ben   4   3  15
  46 ben   4   5   6
  47 prop tor   4   5   6   1
  48 prop tor   4   5   6   7
  49 ben   4   5  17
  50 ben   5   4  16
  51 ben   5   6   7
  52 prop tor   5   6   7   8
  53 prop tor   5   6   7  12
  54 prop tor   6   1   2   3
  55 prop tor   6   1   2  14
  56 ben   6   1  13
  57 ben   6   5  17
  58 ben   6   7   8
  59 prop tor   6   7   8   9
  60 prop tor   6   7   8  18
  61 ben   6   7  12
  62 prop tor   6   7  12  11
  63 prop tor   6   7  12  22
  64 ben   7   8   9
  65 prop tor   7   8   9  10
  66 prop tor   7   8   9  19
  67 ben   7   8  18
  68 ben   7  12  11
  69 ben   7  12  22
  70 ben   8   7  12
  71 prop tor   8   7  12  11
  72 prop tor   8   7  12  22
  73 ben   8   9  10
  74 prop tor   8   9  10  11
  75 prop tor   8   9  10  20
  76 ben   8   9  19
  77 ben   9   8  18
  78 ben   9  10  11
  79 prop tor   9  10  11  12
  80 prop tor   9  10  11  21
  81 ben   9  10  20
  82 ben  10   9  19
  83 ben  10  11  12
  84 prop tor  10  11  12   7
  85 prop tor  10  11  12  22
  86 ben  10  11  21
  87 ben  11  10  20
  88 ben  11  12  22
  89 prop tor  12   7   8   9
  90 prop tor  12   7   8  18
  91 ben  12  11  21
  92 prop tor  13   1   2   3
  93 prop tor  13   1   2  14
  94 prop tor  13   1   6   5
  95 prop tor  13   1   6   7
  96 prop tor  14   2   3   4
  97 prop tor  14   2   3  15
  98 prop tor  15   3   4   5
  99 prop tor  15   3   4  16
 100 prop tor  16   4   5   6
 101 prop tor  16   4   5  17
 102 prop tor  17   5   6   1
 103 prop tor  17   5   6   7
 104 prop tor  18   8   9  10
 105 prop tor  18   8   9  19
 106 prop tor  19   9  10  11
 107 prop tor  19   9  10  20
 108 prop tor  20  10  11  12
 109 prop tor  20  10  11  21
 110 prop tor  21  11  12   7
 111 prop tor  21  11  12  22
 nber bend=              36
 nber lin bend=           0
 nber prop tor=          52
 nber impr tor=           0
 nber tot redund int=         111
 Eigenvalues of G in red int coords
    Gval -0.00000000 -0.00000000 -0.00000000 -0.00000000 -0.00000000 -0.00000000 -0.00000000 -0.00000000
    Gval -0.00000000 -0.00000000 -0.00000000 -0.00000000 -0.00000000 -0.00000000 -0.00000000 -0.00000000
    Gval -0.00000000 -0.00000000 -0.00000000 -0.00000000 -0.00000000 -0.00000000 -0.00000000 -0.00000000
    Gval -0.00000000 -0.00000000  0.00000000  0.00000000  0.00000000  0.00000000  0.00000000  0.00000000
    Gval  0.00000000  0.00000000  0.00000000  0.00000000  0.00000000  0.00000000  0.00000000  0.00000000
    Gval  0.00000000  0.00000000  0.00000000  0.00000000  0.00000000  0.00000000  0.00000000  0.00000000
    Gval  0.00000000  0.00000000  0.00000000  0.00000524  0.00000760  0.00002397  0.00003734  0.00004252
    Gval  0.00004473  0.00004938  0.00005703  0.00005759  0.00006666  0.00006673  0.00009836  0.00011273
    Gval  0.00011707  0.00011817  0.00012797  0.00019298  0.00020345  0.00025024  0.00027152  0.00027732
    Gval  0.00034845  0.00037053  0.00042533  0.00054431  0.00054700  0.00059301  0.00059307  0.00059308
    Gval  0.00059384  0.00059751  0.00060310  0.00060346  0.00061985  0.00063094  0.00065786  0.00065959
    Gval  0.00089522  0.00103390  0.00103699  0.00109894  0.00110060  0.00113414  0.00113571  0.00116028
    Gval  0.00116126  0.00116682  0.00116683  0.00140036  0.00143032  0.00161749  0.00202537  0.00230178
    Gval  0.00231557  0.00301593  0.00324512  0.00363782  0.00365126  0.00404295  0.00405082
  5.238055189812287E-006  5.238055189812287E-006
  7.601616040695415E-006  5.238055189812287E-006
  2.397427781319214E-005  5.238055189812287E-006
  3.734404480636354E-005  5.238055189812287E-006
  4.252350102403133E-005  5.238055189812287E-006
  4.473051256198414E-005  5.238055189812287E-006
  4.938088442150185E-005  5.238055189812287E-006
  5.702567557639943E-005  5.238055189812287E-006
  5.759239651572120E-005  5.238055189812287E-006
  6.665899122596327E-005  5.238055189812287E-006
  6.672584886267802E-005  5.238055189812287E-006
  9.836106636310716E-005  5.238055189812287E-006
  1.127278856139712E-004  5.238055189812287E-006
  1.170676359169077E-004  5.238055189812287E-006
  1.181689351658949E-004  5.238055189812287E-006
  1.279725091605113E-004  5.238055189812287E-006
  1.929801879457889E-004  5.238055189812287E-006
  2.034541541330896E-004  5.238055189812287E-006
  2.502414032866277E-004  5.238055189812287E-006
  2.715226776564180E-004  5.238055189812287E-006
  2.773169080160812E-004  5.238055189812287E-006
  3.484472425804403E-004  5.238055189812287E-006
  3.705301069280386E-004  5.238055189812287E-006
  4.253334758740521E-004  5.238055189812287E-006
  5.443056439759838E-004  5.238055189812287E-006
  5.470019615187856E-004  5.238055189812287E-006
  5.930058270175086E-004  5.238055189812287E-006
  5.930720778855322E-004  5.238055189812287E-006
  5.930807000792150E-004  5.238055189812287E-006
  5.938408917208212E-004  5.238055189812287E-006
  5.975136757265108E-004  5.238055189812287E-006
  6.031005926914639E-004  5.238055189812287E-006
  6.034602526711227E-004  5.238055189812287E-006
  6.198526788887939E-004  5.238055189812287E-006
  6.309432952877230E-004  5.238055189812287E-006
  6.578592644410619E-004  5.238055189812287E-006
  6.595868640346062E-004  5.238055189812287E-006
  8.952179842943805E-004  5.238055189812287E-006
  1.033904476998788E-003  5.238055189812287E-006
  1.036993991634334E-003  5.238055189812287E-006
  1.098937300780672E-003  5.238055189812287E-006
  1.100596112222071E-003  5.238055189812287E-006
  1.134143108709458E-003  5.238055189812287E-006
  1.135714333642077E-003  5.238055189812287E-006
  1.160279093682128E-003  5.238055189812287E-006
  1.161258965471924E-003  5.238055189812287E-006
  1.166819326439544E-003  5.238055189812287E-006
  1.166825533005405E-003  5.238055189812287E-006
  1.400357583667990E-003  5.238055189812287E-006
  1.430316347842938E-003  5.238055189812287E-006
  1.617491999499054E-003  5.238055189812287E-006
  2.025366936336869E-003  5.238055189812287E-006
  2.301782516159786E-003  5.238055189812287E-006
  2.315565452552345E-003  5.238055189812287E-006
  3.015932671044046E-003  5.238055189812287E-006
  3.245118912081976E-003  5.238055189812287E-006
  3.637817081203693E-003  5.238055189812287E-006
  3.651256791190534E-003  5.238055189812287E-006
  4.042948946034061E-003  5.238055189812287E-006
  4.050824056240214E-003  5.238055189812287E-006
 cut=1d-8, nber non-redundant internal coords=          60
 Check on Eigenvals of non-red overlap matrix:
  0.00000524  0.00000760  0.00002397  0.00003734  0.00004252  0.00004473  0.00004938  0.00005703
  0.00005759  0.00006666  0.00006673  0.00009836  0.00011273  0.00011707  0.00011817  0.00012797
  0.00019298  0.00020345  0.00025024  0.00027152  0.00027732  0.00034845  0.00037053  0.00042533
  0.00054431  0.00054700  0.00059301  0.00059307  0.00059308  0.00059384  0.00059751  0.00060310
  0.00060346  0.00061985  0.00063094  0.00065786  0.00065959  0.00089522  0.00103390  0.00103699
  0.00109894  0.00110060  0.00113414  0.00113571  0.00116028  0.00116126  0.00116682  0.00116683
  0.00140036  0.00143032  0.00161749  0.00202537  0.00230178  0.00231557  0.00301593  0.00324512
  0.00363782  0.00365126  0.00404295  0.00405082
 d1=
  -0.0  -7.1  -0.0  -0.0   0.0   0.0   4.5   0.0  -0.0  -0.9   0.0   0.0   0.0   2.4   0.0  -0.0   0.0   0.0  -0.0   0.0
  -7.5  -0.0   2.6  -0.0   0.0  -0.0   0.0  -0.0   0.2   0.0  -0.0  -0.0   1.2  -0.0  -0.0  -0.0   0.2  -0.0   0.0   0.0
   0.0   1.4  -0.0   0.0  -0.0  -0.7   0.0   0.0   0.0  -0.0  -0.0  -0.0   0.0   0.0   0.0  -0.0   0.0   0.0   0.0   0.0
 d2=
   0.0  -7.5  -0.0  -0.0   0.0  -0.0  -4.1  -0.0  -0.0  -1.0   0.0  -0.0   0.0   0.0   2.3  -0.0  -0.0  -0.0  -0.0  -7.7
   0.0   0.0  -2.4  -0.0   0.0   0.0  -0.0   0.0  -0.2  -0.0   0.0   0.0  -1.1   0.0   0.0  -0.0   0.2  -0.0  -0.0   0.0
   0.0   1.3   0.0  -0.0   0.0  -0.7   0.0   0.0  -0.0   0.0  -0.0   0.0  -0.0  -0.0   0.0   0.0  -0.0  -0.0  -0.0  -0.0
 curvilinear- renormalizn of Dush matrix done
  mol 1 sym            1  -> mol 2 sym            1
  mol 1 sym            2  -> mol 2 sym            2
  mol 1 sym            3  -> mol 2 sym            3
  mol 1 sym            4  -> mol 2 sym            4
  mol 1 sym            5  -> mol 2 sym            5
  mol 1 sym            6  -> mol 2 sym            6
  mol 1 sym            7  -> mol 2 sym            7
  mol 1 sym            8  -> mol 2 sym            8

 Dushinsky matrix, ncs 2 in terms of ncs 1

   mode   freq    coeff     %      %tot     of    at

   1 Au    -31. -0.9988    99.8    98.8   1 Au    -84.
   2 B2u    -0.  0.0000     0.0     0.0   9 B2u   190.
   3 B1u    -0. -0.0000     0.0     0.0  17 B1u   624.
   4 B3u    -0.  0.0000     0.0     0.0   8 B3u    95.
   5 B1g     0. -0.0000     0.0     0.0  14 B1g   415.
   6 B2g     0. -0.0000     0.0     0.0  10 B2g   224.
   7 B3g     0. -0.0000     0.0     0.0  13 B3g   413.
   8 B3u    88.  0.9990    99.8   101.4   8 B3u    95.
   9 B2g   155. -0.9937    98.7    99.9  10 B2g   224.
  10 B2u   181.  1.0000   100.0    98.6   9 B2u   190.
  11 Ag    332.  0.9993    99.9    98.2  11 Ag    336.
  12 B3u   363. -0.9831    96.6    94.3  15 B3u   448.
  13 B3g   406. -0.9989    99.8   105.1  13 B3g   413.
  14 Au    426.  0.9988    99.8   104.3  12 Au    393.
  15 B1g   430. -0.9978    99.6   104.2  14 B1g   415.
  16 B2g   479. -0.9721    94.5   102.7  16 B2g   555.
  17 B1u   598. -0.9991    99.8    95.7  17 B1u   624.
  18 B3u   620. -0.7782    60.6   100.3  22 B3u   748.
                -0.4734    22.4          27 B3u   919.
                 0.3593    12.9          32 B3u   999.
  19 B3g   621. -0.9995    99.9   100.7  18 B3g   627.
  20 B2g   638.  0.5351    28.6   102.0  20 B2g   680.
                 0.6424    41.3          24 B2g   802.
                -0.3853    14.8          28 B2g   920.
                 0.3458    12.0          31 B2g   995.
  21 B2u   639. -0.9993    99.9   100.6  19 B2u   645.
  22 B2g   655. -0.8122    66.0    98.9  20 B2g   680.
                 0.3281    10.8          24 B2g   802.
                -0.4164    17.3          28 B2g   920.
  23 B3u   673.  0.9610    92.3    99.7  21 B3u   714.
  24 Au    729.  0.9890    97.8    98.3  25 Au    821.
  25 Ag    730.  0.9925    98.5    97.0  23 Ag    753.
  26 B3u   745.  0.5304    28.1    98.4  22 B3u   748.
                -0.8104    65.7          27 B3u   919.
  27 B2g   768. -0.6114    37.4   100.4  24 B2g   802.
                -0.7705    59.4          28 B2g   920.
  28 B1g   772.  0.9916    98.3    98.2  26 B1g   851.
  29 Au    896.  0.9894    97.9    98.3  29 Au    962.
  30 B2g   899. -0.9079    82.4    98.5  31 B2g   995.
  31 B1g   910.  0.9921    98.4    98.4  30 B1g   977.
  32 B3u   913.  0.3543    12.5    98.5  27 B3u   919.
                 0.9135    83.4          32 B3u   999.
  33 B1u   953. -0.9351    87.4   100.9  33 B1u  1010.
  34 Ag    992.  0.9582    91.8    99.8  34 Ag   1019.
  35 B1u  1004. -0.7955    63.3    99.9  35 B1u  1024.
                -0.5999    36.0          36 B1u  1064.
  36 B1u  1020. -0.5570    31.0    98.3  35 B1u  1024.
                 0.7662    58.7          36 B1u  1064.
  37 Ag   1024.  0.9614    92.4    99.9  37 Ag   1064.
  38 B3g  1083.  0.9498    90.2    99.0  38 B3g  1106.
  39 B2u  1087.  0.9909    98.2    98.6  39 B2u  1119.
  40 B2u  1122.  0.8958    80.3    99.0  41 B2u  1190.
                -0.3178    10.1          45 B2u  1300.
  41 B3g  1155. -0.9427    88.9    99.5  40 B3g  1182.
  42 B1u  1185.  0.9916    98.3    99.8  42 B1u  1205.
  43 Ag   1227. -0.9975    99.5    99.7  43 Ag   1239.
  44 B2u  1256. -0.4249    18.1    99.1  41 B2u  1190.
                -0.7468    55.8          45 B2u  1300.
                 0.3615    13.1          48 B2u  1379.
  45 B3g  1322. -0.6676    44.6   100.5  46 B3g  1324.
                 0.6862    47.1          47 B3g  1356.
  46 Ag   1345. -0.9842    96.9    99.9  44 Ag   1283.
  47 B3g  1348. -0.6412    41.1    99.7  46 B3g  1324.
                -0.7132    50.9          47 B3g  1356.
  48 B2u  1360. -0.4357    19.0    99.9  45 B2u  1300.
                -0.8436    71.2          48 B2u  1379.
  49 B2u  1413.  0.3606    13.0    99.4  45 B2u  1300.
                 0.7356    54.1          49 B2u  1460.
                 0.5136    26.4          53 B2u  1614.
  50 B3g  1477.  0.6760    45.7   100.0  50 B3g  1494.
                 0.6698    44.9          54 B3g  1628.
  51 B1u  1478.  0.9977    99.5    99.3  51 B1u  1518.
  52 B3g  1503. -0.6573    43.2    99.3  50 B3g  1494.
                 0.7219    52.1          54 B3g  1628.
  53 B2u  1514.  0.5881    34.6    99.3  49 B2u  1460.
                -0.7412    54.9          53 B2u  1614.
  54 Ag   1521.  0.9893    97.9    99.4  52 Ag   1551.
  55 B1u  1617.  0.9973    99.5    99.9  56 B1u  1649.
  56 Ag   1645. -0.9947    98.9   100.2  55 Ag   1641.
  57 B1u  3101.  0.9686    93.8   100.0  57 B1u  3161.
  58 Ag   3102.  0.9646    93.1   100.0  58 Ag   3162.
  59 B3g  3104. -0.9923    98.5   100.0  59 B3g  3169.
  60 B2u  3105. -0.9997    99.9   100.0  60 B2u  3171.
  61 B1u  3149. -0.9627    92.7   100.0  61 B1u  3185.
  62 B3g  3153.  0.9923    98.5   100.0  63 B3g  3193.
  63 Ag   3155. -0.9639    92.9   100.0  62 Ag   3188.
  64 B1u  3161.  0.9555    91.3   100.0  64 B1u  3196.
  65 B2u  3172.  0.9997    99.9   100.0  65 B2u  3209.
  66 Ag   3177. -0.9954    99.1   100.0  66 Ag   3211.
 nber times 1st assigned=           1           0
 nber times 1st assigned=           2           0
 nber times 1st assigned=           3           0
 nber times 1st assigned=           4           0
 nber times 1st assigned=           5           0
 nber times 1st assigned=           6           0
 nber times 1st assigned=           7           0
 nber times 1st assigned=          11           0
 nber times 1st assigned=          12           0
 nber times 1st assigned=          15           0
 nber times 1st assigned=          16           0
 nber times 1st assigned=          18           0
 nber times 1st assigned=          19           0
 nber times 1st assigned=          20           0
 nber times 1st assigned=          21           0
 nber times 1st assigned=          22           0
 nber times 1st assigned=          23           0
 nber times 1st assigned=          24           0
 nber times 1st assigned=          25           0
 nber times 1st assigned=          26           0
 nber times 1st assigned=          27           0
 nber times 1st assigned=          28           0
 nber times 1st assigned=          29           0
 nber times 1st assigned=          30           0
 nber times 1st assigned=          31           0
 nber times 1st assigned=          32           0
 nber times 1st assigned=          33           0
 nber times 1st assigned=          34           0
 nber times 1st assigned=          35           0
 nber times 1st assigned=          36           0
 nber times 1st assigned=          37           0
 nber times 1st assigned=          38           0
 nber times 1st assigned=          39           0
 nber times 1st assigned=          40           0
 nber times 1st assigned=          41           0
 nber times 1st assigned=          42           0
 nber times 1st assigned=          43           0
 nber times 1st assigned=          44           0
 nber times 1st assigned=          45           0
 nber times 1st assigned=          46           0
 nber times 1st assigned=          47           0
 nber times 1st assigned=          48           0
 nber times 1st assigned=          49           0
 nber times 1st assigned=          50           0
 nber times 1st assigned=          51           0
 nber times 1st assigned=          52           0
 nber times 1st assigned=          53           0
 nber times 1st assigned=          54           0
 nber times 1st assigned=          55           0
 nber times 1st assigned=          56           0
 nber times 1st assigned=          57           0
 nber times 1st assigned=          58           0
 nber times 1st assigned=          59           0
 nber times 1st assigned=          60           0
 nber times 1st assigned=          61           0
 nber times 1st assigned=          62           0
 nber times 1st assigned=          63           0
 nber times 1st assigned=          64           0
 nber times 1st assigned=          65           0
 nber times 1st assigned=          66           0
 Dushinsky matrix written to .out file
 modes represented=   59.8164046274081     

 Dushinsky matrix, ncs 1 in terms of ncs 2

   mode   freq    coeff     %      %tot     of    at

   1 Au    -84. -0.9988    99.8    98.7   1 Au    -31.
   8 B3u    95.  0.9990    99.8   101.8   8 B3u    88.
   9 B2u   190.  1.0000   100.0    98.7  10 B2u   181.
  10 B2g   224. -0.9937    98.7   101.7   9 B2g   155.
  11 Ag    336.  0.9993    99.9    98.7  11 Ag    332.
  12 Au    393.  0.9988    99.8   104.4  14 Au    426.
  13 B3g   413. -0.9989    99.8   106.0  13 B3g   406.
  14 B1g   415. -0.9978    99.6   104.1  15 B1g   430.
  15 B3u   448. -0.9831    96.6    94.3  12 B3u   363.
  16 B2g   555. -0.9721    94.5   101.5  16 B2g   479.
  17 B1u   624. -0.9991    99.8    95.9  17 B1u   598.
  18 B3g   627. -0.9995    99.9   100.7  19 B3g   621.
  19 B2u   645. -0.9993    99.9   100.6  21 B2u   639.
  20 B2g   680.  0.5351    28.6    99.9  20 B2g   638.
                -0.8122    66.0          22 B2g   655.
  21 B3u   714.  0.9610    92.3    99.7  23 B3u   673.
  22 B3u   748. -0.7782    60.6    98.0  18 B3u   620.
                 0.5304    28.1          26 B3u   745.
  23 Ag    753.  0.9925    98.5    96.9  25 Ag    730.
  24 B2g   802.  0.6424    41.3   100.1  20 B2g   638.
                 0.3281    10.8          22 B2g   655.
                -0.6114    37.4          27 B2g   768.
  25 Au    821.  0.9890    97.8    98.2  24 Au    729.
  26 B1g   851.  0.9916    98.3    98.2  28 B1g   772.
  27 B3u   919. -0.4734    22.4    99.6  18 B3u   620.
                -0.8104    65.7          26 B3u   745.
                 0.3543    12.5          32 B3u   913.
  28 B2g   920. -0.3853    14.8    99.8  20 B2g   638.
                -0.4164    17.3          22 B2g   655.
                -0.7705    59.4          27 B2g   768.
  29 Au    962.  0.9894    97.9    98.5  29 Au    896.
  30 B1g   977.  0.9921    98.4    98.6  31 B1g   910.
  31 B2g   995.  0.3458    12.0    99.3  20 B2g   638.
                -0.9079    82.4          30 B2g   899.
  32 B3u   999.  0.3593    12.9    99.2  18 B3u   620.
                 0.9135    83.4          32 B3u   913.
  33 B1u  1010. -0.9351    87.4    99.9  33 B1u   953.
  34 Ag   1019.  0.9582    91.8    99.4  34 Ag    992.
  35 B1u  1024. -0.7955    63.3    98.8  35 B1u  1004.
                -0.5570    31.0          36 B1u  1020.
  36 B1u  1064. -0.5999    36.0    99.8  35 B1u  1004.
                 0.7662    58.7          36 B1u  1020.
  37 Ag   1064.  0.9614    92.4   100.1  37 Ag   1024.
  38 B3g  1106.  0.9498    90.2    99.1  38 B3g  1083.
  39 B2u  1119.  0.9909    98.2    98.6  39 B2u  1087.
  40 B3g  1182. -0.9427    88.9    99.5  41 B3g  1155.
  41 B2u  1190.  0.8958    80.3    99.4  40 B2u  1122.
                -0.4249    18.1          44 B2u  1256.
  42 B1u  1205.  0.9916    98.3    99.9  42 B1u  1185.
  43 Ag   1239. -0.9975    99.5    99.8  43 Ag   1227.
  44 Ag   1283. -0.9842    96.9    99.8  46 Ag   1345.
  45 B2u  1300. -0.3178    10.1    99.3  40 B2u  1122.
                -0.7468    55.8          44 B2u  1256.
                -0.4357    19.0          48 B2u  1360.
                 0.3606    13.0          49 B2u  1413.
  46 B3g  1324. -0.6676    44.6   100.1  45 B3g  1322.
                -0.6412    41.1          47 B3g  1348.
  47 B3g  1356.  0.6862    47.1    99.5  45 B3g  1322.
                -0.7132    50.9          47 B3g  1348.
  48 B2u  1379.  0.3615    13.1    99.5  44 B2u  1256.
                -0.8436    71.2          48 B2u  1360.
  49 B2u  1460.  0.7356    54.1    99.1  49 B2u  1413.
                 0.5881    34.6          53 B2u  1514.
  50 B3g  1494.  0.6760    45.7    99.4  50 B3g  1477.
                -0.6573    43.2          52 B3g  1503.
  51 B1u  1518.  0.9977    99.5    99.3  51 B1u  1478.
  52 Ag   1551.  0.9893    97.9    99.4  54 Ag   1521.
  53 B2u  1614.  0.5136    26.4    99.3  49 B2u  1413.
                -0.7412    54.9          53 B2u  1514.
  54 B3g  1628.  0.6698    44.9    99.5  50 B3g  1477.
                 0.7219    52.1          52 B3g  1503.
  55 Ag   1641. -0.9947    98.9   100.0  56 Ag   1645.
  56 B1u  1649.  0.9973    99.5   100.1  55 B1u  1617.
  57 B1u  3161.  0.9686    93.8   100.0  57 B1u  3101.
  58 Ag   3162.  0.9646    93.1   100.0  58 Ag   3102.
  59 B3g  3169. -0.9923    98.5   100.0  59 B3g  3104.
  60 B2u  3171. -0.9997    99.9   100.0  60 B2u  3105.
  61 B1u  3185. -0.9627    92.7   100.0  61 B1u  3149.
  62 Ag   3188. -0.9639    92.9   100.0  63 Ag   3155.
  63 B3g  3193.  0.9923    98.5   100.0  62 B3g  3153.
  64 B1u  3196.  0.9555    91.3   100.0  64 B1u  3161.
  65 B2u  3209.  0.9997    99.9   100.0  65 B2u  3172.
  66 Ag   3211. -0.9954    99.1   100.0  66 Ag   3177.
 nber times 1st assigned=           1           0
 nber times 1st assigned=           2           0
 nber times 1st assigned=           3           0
 nber times 1st assigned=           4           0
 nber times 1st assigned=           5           0
 nber times 1st assigned=           6           0
 nber times 1st assigned=           7           0
 nber times 1st assigned=           8           0
 nber times 1st assigned=           9           0
 nber times 1st assigned=          10           0
 nber times 1st assigned=          11           0
 nber times 1st assigned=          12           0
 nber times 1st assigned=          13           0
 nber times 1st assigned=          14           0
 nber times 1st assigned=          15           0
 nber times 1st assigned=          16           0
 nber times 1st assigned=          17           0
 nber times 1st assigned=          18           0
 nber times 1st assigned=          19           0
 nber times 1st assigned=          20           0
 nber times 1st assigned=          21           0
 nber times 1st assigned=          22           0
 nber times 1st assigned=          23           0
 nber times 1st assigned=          24           0
 nber times 1st assigned=          25           0
 nber times 1st assigned=          26           0
 nber times 1st assigned=          27           0
 nber times 1st assigned=          28           0
 nber times 1st assigned=          29           0
 nber times 1st assigned=          30           0
 nber times 1st assigned=          31           0
 nber times 1st assigned=          32           0
 nber times 1st assigned=          33           0
 nber times 1st assigned=          34           0
 nber times 1st assigned=          35           0
 nber times 1st assigned=          36           0
 nber times 1st assigned=          37           0
 nber times 1st assigned=          38           0
 nber times 1st assigned=          39           0
 nber times 1st assigned=          40           0
 nber times 1st assigned=          41           0
 nber times 1st assigned=          42           0
 nber times 1st assigned=          43           0
 nber times 1st assigned=          44           0
 nber times 1st assigned=          45           0
 nber times 1st assigned=          46           0
 nber times 1st assigned=          47           0
 nber times 1st assigned=          48           0
 nber times 1st assigned=          49           0
 nber times 1st assigned=          50           0
 nber times 1st assigned=          51           0
 nber times 1st assigned=          52           0
 nber times 1st assigned=          53           0
 nber times 1st assigned=          54           0
 nber times 1st assigned=          55           0
 nber times 1st assigned=          56           0
 nber times 1st assigned=          57           0
 nber times 1st assigned=          58           0
 nber times 1st assigned=          59           0
 nber times 1st assigned=          60           0
 nber times 1st assigned=          61           0
 nber times 1st assigned=          62           0
 nber times 1st assigned=          63           0
 nber times 1st assigned=          64           0
 nber times 1st assigned=          65           0
 nber times 1st assigned=          66           0
 modes represented=   59.8164046274081     
 p1=
    0.    0.    0.   -0.    0.    0.   -0.   -0.   -0.   -0.    7.    0.    0.   -0.   -0.   -0.   -0.   -0.   -0.   -0.
    0.   -0.    0.    0.   -0.    0.    0.   -0.   -0.   -0.   -0.   -0.    0.   -5.   -0.   -0.    2.    0.   -0.   -0.
   -0.    0.    2.    5.   -0.   -0.   -0.    0.   -0.   -0.   -0.   -2.    0.   -0.   -5.    0.   -0.   -0.    0.   -0.
   -0.    0.   -0.    0.    0.   -0.
 p2=
    0.   -0.    0.   -0.   -0.   -0.   -0.    0.   -0.   -0.   -8.    0.   -0.   -0.    0.   -0.    0.    0.   -0.    0.
   -0.   -0.    0.    0.    0.   -0.   -0.   -0.    0.   -0.    0.    0.    0.    4.    0.   -0.   -3.    0.   -0.    0.
   -0.   -0.    2.   -0.    0.    4.    0.   -0.    0.    0.   -0.   -0.   -0.    2.   -0.   -6.    0.    0.    0.    0.
   -0.    0.    0.   -0.   -0.   -0.

 Displacement: in terms of nc of 1 THEN of nc of 2

   1 Au  freq=   -84. Q=  0.000 lam=    -0.0 Au  freq=   -31. Q=  0.000 lam=    -0.0
   2 B2u freq=    -0. Q=  0.000 lam=    -0.0 B2u freq=    -0. Q=  0.000 lam=    -0.0
   3 B1u freq=    -0. Q=  0.000 lam=    -0.0 B1u freq=    -0. Q=  0.000 lam=    -0.0
   4 B3u freq=    -0. Q= -0.000 lam=    -0.0 B3u freq=    -0. Q= -0.000 lam=    -0.0
   5 B1g freq=     0. Q=  0.000 lam=     0.0 B1g freq=     0. Q=  0.000 lam=     0.0
   6 B2g freq=     0. Q=  0.000 lam=     0.0 B2g freq=     0. Q=  0.000 lam=     0.0
   7 B3g freq=     0. Q= -0.000 lam=     0.0 B3g freq=     0. Q= -0.000 lam=     0.0
   8 B3u freq=    95. Q= -0.000 lam=     0.0 B3u freq=    88. Q= -0.000 lam=     0.0
   9 B2u freq=   190. Q= -0.000 lam=     0.0 B2g freq=   155. Q= -0.000 lam=     0.0
  10 B2g freq=   224. Q= -0.000 lam=     0.0 B2u freq=   181. Q= -0.000 lam=     0.0
  11 Ag  freq=   336. Q=  0.531 lam=    47.2 Ag  freq=   332. Q=  0.575 lam=    54.8
  12 Au  freq=   393. Q=  0.000 lam=     0.0 B3u freq=   363. Q=  0.000 lam=     0.0
  13 B3g freq=   413. Q=  0.000 lam=     0.0 B3g freq=   406. Q=  0.000 lam=     0.0
  14 B1g freq=   415. Q= -0.000 lam=     0.0 Au  freq=   426. Q= -0.000 lam=     0.0
  15 B3u freq=   448. Q= -0.000 lam=     0.0 B1g freq=   430. Q= -0.000 lam=     0.0
  16 B2g freq=   555. Q= -0.000 lam=     0.0 B2g freq=   479. Q= -0.000 lam=     0.0
  17 B1u freq=   624. Q= -0.000 lam=     0.0 B1u freq=   598. Q= -0.000 lam=     0.0
  18 B3g freq=   627. Q= -0.000 lam=     0.0 B3u freq=   620. Q= -0.000 lam=     0.0
  19 B2u freq=   645. Q= -0.000 lam=     0.0 B3g freq=   621. Q= -0.000 lam=     0.0
  20 B2g freq=   680. Q= -0.000 lam=     0.0 B2g freq=   638. Q= -0.000 lam=     0.0
  21 B3u freq=   714. Q=  0.000 lam=     0.0 B2u freq=   639. Q=  0.000 lam=     0.0
  22 B3u freq=   748. Q= -0.000 lam=     0.0 B2g freq=   655. Q= -0.000 lam=     0.0
  23 Ag  freq=   753. Q=  0.050 lam=     0.9 B3u freq=   673. Q=  0.000 lam=     0.0
  24 B2g freq=   802. Q=  0.000 lam=     0.0 Au  freq=   729. Q=  0.000 lam=     0.0
  25 Au  freq=   821. Q= -0.000 lam=     0.0 Ag  freq=   730. Q= -0.053 lam=     1.0
  26 B1g freq=   851. Q=  0.000 lam=     0.0 B3u freq=   745. Q=  0.000 lam=     0.0
  27 B3u freq=   919. Q=  0.000 lam=     0.0 B2g freq=   768. Q=  0.000 lam=     0.0
  28 B2g freq=   920. Q= -0.000 lam=     0.0 B1g freq=   772. Q= -0.000 lam=     0.0
  29 Au  freq=   962. Q= -0.000 lam=     0.0 Au  freq=   896. Q= -0.000 lam=     0.0
  30 B1g freq=   977. Q= -0.000 lam=     0.0 B2g freq=   899. Q= -0.000 lam=     0.0
  31 B2g freq=   995. Q= -0.000 lam=     0.0 B1g freq=   910. Q= -0.000 lam=     0.0
  32 B3u freq=   999. Q= -0.000 lam=     0.0 B3u freq=   913. Q= -0.000 lam=     0.0
  33 B1u freq=  1010. Q=  0.000 lam=     0.0 B1u freq=   953. Q=  0.000 lam=     0.0
  34 Ag  freq=  1019. Q= -0.616 lam=   193.5 Ag  freq=   992. Q= -0.545 lam=   147.5
  35 B1u freq=  1024. Q= -0.000 lam=     0.0 B1u freq=  1004. Q= -0.000 lam=     0.0
  36 B1u freq=  1064. Q= -0.000 lam=     0.0 B1u freq=  1020. Q= -0.000 lam=     0.0
  37 Ag  freq=  1064. Q=  0.312 lam=    51.9 Ag  freq=  1024. Q=  0.419 lam=    89.7
  38 B3g freq=  1106. Q=  0.000 lam=     0.0 B3g freq=  1083. Q=  0.000 lam=     0.0
  39 B2u freq=  1119. Q= -0.000 lam=     0.0 B2u freq=  1087. Q= -0.000 lam=     0.0
  40 B3g freq=  1182. Q= -0.000 lam=     0.0 B2u freq=  1122. Q= -0.000 lam=     0.0
  41 B2u freq=  1190. Q= -0.000 lam=     0.0 B3g freq=  1155. Q= -0.000 lam=     0.0
  42 B1u freq=  1205. Q=  0.000 lam=     0.0 B1u freq=  1185. Q=  0.000 lam=     0.0
  43 Ag  freq=  1239. Q=  0.352 lam=    76.6 Ag  freq=  1227. Q=  0.318 lam=    62.0
  44 Ag  freq=  1283. Q=  0.720 lam=   332.3 B2u freq=  1256. Q=  0.000 lam=     0.0
  45 B2u freq=  1300. Q= -0.000 lam=     0.0 B3g freq=  1322. Q= -0.000 lam=     0.0
  46 B3g freq=  1324. Q= -0.000 lam=     0.0 Ag  freq=  1345. Q= -0.612 lam=   251.7
  47 B3g freq=  1356. Q= -0.000 lam=     0.0 B3g freq=  1348. Q= -0.000 lam=     0.0
  48 B2u freq=  1379. Q=  0.000 lam=     0.0 B2u freq=  1360. Q=  0.000 lam=     0.0
  49 B2u freq=  1460. Q= -0.000 lam=     0.0 B2u freq=  1413. Q= -0.000 lam=     0.0
  50 B3g freq=  1494. Q= -0.000 lam=     0.0 B3g freq=  1477. Q= -0.000 lam=     0.0
  51 B1u freq=  1518. Q= -0.000 lam=     0.0 B1u freq=  1478. Q= -0.000 lam=     0.0
  52 Ag  freq=  1551. Q= -0.293 lam=    66.4 B3g freq=  1503. Q= -0.000 lam=     0.0
  53 B2u freq=  1614. Q=  0.000 lam=     0.0 B2u freq=  1514. Q=  0.000 lam=     0.0
  54 B3g freq=  1628. Q= -0.000 lam=     0.0 Ag  freq=  1521. Q= -0.335 lam=    85.2
  55 Ag  freq=  1641. Q= -0.869 lam=   619.9 B1u freq=  1617. Q= -0.000 lam=     0.0
  56 B1u freq=  1649. Q=  0.000 lam=     0.0 Ag  freq=  1645. Q=  0.903 lam=   670.6
  57 B1u freq=  3161. Q= -0.000 lam=     0.0 B1u freq=  3101. Q= -0.000 lam=     0.0
  58 Ag  freq=  3162. Q= -0.056 lam=     4.9 Ag  freq=  3102. Q= -0.059 lam=     5.5
  59 B3g freq=  3169. Q=  0.000 lam=     0.0 B3g freq=  3104. Q=  0.000 lam=     0.0
  60 B2u freq=  3171. Q= -0.000 lam=     0.0 B2u freq=  3105. Q= -0.000 lam=     0.0
  61 B1u freq=  3185. Q= -0.000 lam=     0.0 B1u freq=  3149. Q= -0.000 lam=     0.0
  62 Ag  freq=  3188. Q=  0.034 lam=     1.8 B3g freq=  3153. Q=  0.000 lam=     0.0
  63 B3g freq=  3193. Q= -0.000 lam=     0.0 Ag  freq=  3155. Q= -0.017 lam=     0.5
  64 B1u freq=  3196. Q=  0.000 lam=     0.0 B1u freq=  3161. Q=  0.000 lam=     0.0
  65 B2u freq=  3209. Q=  0.000 lam=     0.0 B2u freq=  3172. Q=  0.000 lam=     0.0
  66 Ag  freq=  3211. Q= -0.036 lam=     2.1 Ag  freq=  3177. Q= -0.038 lam=     2.3

 total reorg energy (cm**-1, kcal/mol)=     1398.     1371.      4.00      3.92
 Nber of molecules processed=           2
