 Enter ifcurve (0=recti, 1=orth curvi, 2=apprx curvi, -1 = skip
 And atom ordering flag, 0= never changes, 1= use the first order thenceforth,
  2= deduce it (does read on fail), 3= always read it
 Reading file: 
 ./Phenyls_1_C0S0.log                                                           
                                          
  Entering Gaussian System, Link 0=g16                                          
  
 Gaussian format, type: g94, g98, g03= F F F
  #P Geom=AllCheck Guess=TCheck SCRF=Check GenChk RB3LYP/6-311G(d,p) Fre    
 energy type= B3LYP   
 Original G94 input coords:
  6  5.763809  0.000000  0.000000
  6  5.056323 -1.199114  0.000000
  6  3.665848 -1.197655  0.000000
  6  2.929576  0.000000  0.000000
  6  3.665848  1.197655  0.000000
  6  5.056323  1.199114  0.000000
  6  1.439533  0.000000  0.000000
  6  0.693544  1.189455  0.000000
  6 -0.693544  1.189455  0.000000
  6 -1.439533  0.000000  0.000000
  6 -0.693544 -1.189455  0.000000
  6  0.693544 -1.189455  0.000000
  6 -2.929576  0.000000  0.000000
  6 -3.665848  1.197655  0.000000
  6 -5.056323  1.199114  0.000000
  6 -5.763809  0.000000  0.000000
  6 -5.056323 -1.199114  0.000000
  6 -3.665848 -1.197655  0.000000
  1  6.847690  0.000000  0.000000
  1  5.587840 -2.144300  0.000000
  1  3.156449 -2.152050  0.000000
  1  3.156449  2.152050  0.000000
  1  5.587840  2.144300  0.000000
  1  1.193990  2.148565  0.000000
  1 -1.193990  2.148565  0.000000
  1 -1.193990 -2.148565  0.000000
  1  1.193990 -2.148565  0.000000
  1 -3.156449  2.152050  0.000000
  1 -5.587840  2.144300  0.000000
  1 -6.847690  0.000000  0.000000
  1 -5.587840 -2.144300  0.000000
  1 -3.156449 -2.152050  0.000000
 nber atoms=          32
 Original standard coords:
  6  0.000000  0.000000  5.763809
  6  0.000000  1.199114  5.056323
  6  0.000000  1.197655  3.665848
  6  0.000000  0.000000  2.929576
  6  0.000000 -1.197655  3.665848
  6  0.000000 -1.199114  5.056323
  6  0.000000  0.000000  1.439533
  6  0.000000 -1.189455  0.693544
  6  0.000000 -1.189455 -0.693544
  6  0.000000  0.000000 -1.439533
  6  0.000000  1.189455 -0.693544
  6  0.000000  1.189455  0.693544
  6  0.000000  0.000000 -2.929576
  6  0.000000 -1.197655 -3.665848
  6  0.000000 -1.199114 -5.056323
  6  0.000000  0.000000 -5.763809
  6  0.000000  1.199114 -5.056323
  6  0.000000  1.197655 -3.665848
  1  0.000000  0.000000  6.847690
  1  0.000000  2.144300  5.587840
  1  0.000000  2.152050  3.156449
  1  0.000000 -2.152050  3.156449
  1  0.000000 -2.144300  5.587840
  1  0.000000 -2.148565  1.193990
  1  0.000000 -2.148565 -1.193990
  1  0.000000  2.148565 -1.193990
  1  0.000000  2.148565  1.193990
  1  0.000000 -2.152050 -3.156449
  1  0.000000 -2.144300 -5.587840
  1  0.000000  0.000000 -6.847690
  1  0.000000  2.144300 -5.587840
  1  0.000000  2.152050 -3.156449
  SCF Done:  E(RB3LYP) =  -694.521564068     A.U. after    1 cycles             
  
          23          40 "  -694.521564068"
After scan for Atom:   Atom  AN      X      Y      Z        X      Y      Z        X      Y      Z   
After scan for Atom:   Atom  AN      X      Y      Z        X      Y      Z        X      Y      Z   
After scan for Atom:   Atom  AN      X      Y      Z        X      Y      Z        X      Y      Z   
After scan for Atom:   Atom  AN      X      Y      Z        X      Y      Z        X      Y      Z   
After scan for Atom:   Atom  AN      X      Y      Z        X      Y      Z        X      Y      Z   
After scan for Atom:   Atom  AN      X      Y      Z        X      Y      Z        X      Y      Z   
After scan for Atom:   Atom  AN      X      Y      Z        X      Y      Z        X      Y      Z   
After scan for Atom:   Atom  AN      X      Y      Z        X      Y      Z        X      Y      Z   
After scan for Atom:   Atom  AN      X      Y      Z        X      Y      Z        X      Y      Z   
After scan for Atom:   Atom  AN      X      Y      Z        X      Y      Z        X      Y      Z   
After scan for Atom:   Atom  AN      X      Y      Z        X      Y      Z        X      Y      Z   
After scan for Atom:   Atom  AN      X      Y      Z        X      Y      Z        X      Y      Z   
After scan for Atom:   Atom  AN      X      Y      Z        X      Y      Z        X      Y      Z   
After scan for Atom:   Atom  AN      X      Y      Z        X      Y      Z        X      Y      Z   
After scan for Atom:   Atom  AN      X      Y      Z        X      Y      Z        X      Y      Z   
After scan for Atom:   Atom  AN      X      Y      Z        X      Y      Z        X      Y      Z   
After scan for Atom:   Atom  AN      X      Y      Z        X      Y      Z        X      Y      Z   
After scan for Atom:   Atom  AN      X      Y      Z        X      Y      Z        X      Y      Z   
After scan for Atom:   Atom  AN      X      Y      Z        X      Y      Z        X      Y      Z   
After scan for Atom:   Atom  AN      X      Y      Z        X      Y      Z        X      Y      Z   
After scan for Atom:   Atom  AN      X      Y      Z        X      Y      Z        X      Y      Z   
After scan for Atom:   Atom  AN      X      Y      Z        X      Y      Z        X      Y      Z   
After scan for Atom:   Atom  AN      X      Y      Z        X      Y      Z        X      Y      Z   
After scan for Atom:   Atom  AN      X      Y      Z        X      Y      Z        X      Y      Z   
After scan for Atom:   Atom  AN      X      Y      Z        X      Y      Z        X      Y      Z   
After scan for Atom:   Atom  AN      X      Y      Z        X      Y      Z        X      Y      Z   
After scan for Atom:   Atom  AN      X      Y      Z        X      Y      Z        X      Y      Z   
After scan for Atom:   Atom  AN      X      Y      Z        X      Y      Z        X      Y      Z   
After scan for Atom:   Atom  AN      X      Y      Z        X      Y      Z        X      Y      Z   
After scan for Atom:   Atom  AN      X      Y      Z        X      Y      Z        X      Y      Z   
 g94    frequencies=
     0.0    0.0    0.0    0.0    0.0    0.0  -98.6  -58.1   38.4   98.1
   114.0  187.5  215.6  229.2  308.5  382.0  385.0  404.0  415.9  432.8
   454.0  461.2  528.2  558.4  625.7  629.4  635.9  664.3  693.3  696.6
   710.7  728.9  764.3  790.6  792.5  805.2  833.7  847.8  852.8  919.0
   919.1  945.8  955.5  970.2  975.5  997.2  997.9 1011.0 1015.5 1018.6
  1024.2 1052.7 1064.9 1065.3 1110.6 1112.7 1163.5 1185.3 1190.0 1207.3
  1219.9 1252.8 1286.8 1291.7 1301.7 1307.6 1320.9 1350.8 1366.9 1374.0
  1437.5 1472.3 1489.2 1518.5 1535.4 1568.3 1593.8 1621.4 1625.2 1637.7
  1644.7 1656.4 3161.3 3161.5 3169.4 3169.7 3181.0 3183.8 3184.8 3188.1
  3193.2 3196.0 3203.9 3205.2 3210.3 3212.8
 g94    symmetries=
                                                B1     AU     B3     B2
      B2     B3     B3     AG     B2     B2     AU     B1     AU     B1
      B3     B3     B2     B3     AG     B3     B2     B3     B2     B3
      B1     B2     B3     AG     B2     B1     AU     B1     B3     B3
      B2     AU     B2     B1     AU     B3     B2     AG     B1     B1
      AG     B1     B1     AG     B2     B3     B2     B3     B2     AG
      B1     AG     AG     B2     B1     B3     B2     B3     B3     B2
      B2     B3     B2     B1     AG     B1     B3     B2     B3     AG
      B1     AG     B1     AG     B3     B2     B1     B3     AG     B1
      B2     AG     B3     B1     B2     AG
 atomic masses:
 12.0000 12.0000 12.0000 12.0000 12.0000 12.0000 12.0000 12.0000 12.0000 12.0000
 12.0000 12.0000 12.0000 12.0000 12.0000 12.0000 12.0000 12.0000  1.0078  1.0078
  1.0078  1.0078  1.0078  1.0078  1.0078  1.0078  1.0078  1.0078  1.0078  1.0078
  1.0078  1.0078
 looking for force constants in 
 ./Phenyls_1_C0S0.fchk                                                          
  
 Cartesian Force Constants                  R   N=        4656                  
  
 n3=          96        4656
 g94-fc frequencies=
   -98.6  -58.1   -2.6   -1.7   -0.0   -0.0    0.0    0.7   38.4   98.1
   114.0  187.5  215.6  229.2  308.5  382.0  385.0  404.0  415.9  432.8
   454.0  461.2  528.3  558.4  625.7  629.4  635.9  664.3  693.4  696.6
   710.7  728.9  764.3  790.7  792.5  805.3  833.8  847.8  852.8  919.0
   919.1  945.8  955.5  970.2  975.5  997.3  997.9 1011.0 1015.5 1018.6
  1024.2 1052.7 1064.9 1065.3 1110.6 1112.7 1163.5 1185.3 1190.1 1207.3
  1219.9 1252.8 1286.8 1291.7 1301.7 1307.7 1320.9 1350.8 1366.9 1374.0
  1437.6 1472.3 1489.2 1518.5 1535.5 1568.4 1593.9 1621.4 1625.2 1637.8
  1644.7 1656.4 3161.4 3161.6 3169.5 3169.8 3181.0 3183.9 3184.9 3188.2
  3193.2 3196.1 3204.0 3205.3 3210.3 3212.9
 at 99999: n3=          96
 symm operator            1 :  T  nop=           1
 symm operator            2 :  T  nop=           2
 symm operator            3 :  T  nop=           3
 symm operator            4 :  T  nop=           4
 symm operator            5 :  T  nop=           5
 symm operator            6 :  T  nop=           6
 symm operator            7 :  T  nop=           7
 The point group of the molecule is D2H
 enforcing symm op           1  jsymt=          -1          -1           1
 enforcing symm op           2  jsymt=          -1           1          -1
 enforcing symm op           3  jsymt=           1          -1          -1
 enforcing symm op           4  jsymt=          -1          -1          -1
 enforcing symm op           5  jsymt=           1           1          -1
 enforcing symm op           6  jsymt=           1          -1           1
 enforcing symm op           7  jsymt=          -1           1           1
 cartesian coord symmetries:
 Ag :   16 Au :    6 B1g:    6 B1u:   16 B2g:   10 B2u:   16 B3g:   16 B3u:   10
 Symmetry rotation matrix:
   1.00000   0.00000   0.00000
   0.00000   1.00000   0.00000
   0.00000   0.00000   1.00000

 Projecting out zero-frequency components
 generating redundant internal coords
         300        3600          32
 search for int coords
   1 str   2   1   1.392
   2 str   3   2   1.390
   3 str   4   3   1.406
   4 str   5   4   1.406
   5 str   6   1   1.392
   6 str   6   5   1.390
   7 str   7   4   1.490
   8 str   8   7   1.404
   9 str   9   8   1.387
  10 str  10   9   1.404
  11 str  11  10   1.404
  12 str  12   7   1.404
  13 str  12  11   1.387
  14 str  13  10   1.490
  15 str  14  13   1.406
  16 str  15  14   1.390
  17 str  16  15   1.392
  18 str  17  16   1.392
  19 str  18  13   1.406
  20 str  18  17   1.390
  21 str  19   1   1.084
  22 str  20   2   1.084
  23 str  21   3   1.082
  24 str  22   5   1.082
  25 str  23   6   1.084
  26 str  24   8   1.082
  27 str  25   9   1.082
  28 str  26  11   1.082
  29 str  27  12   1.082
  30 str  28  14   1.082
  31 str  29  15   1.084
  32 str  30  16   1.084
  33 str  31  17   1.084
  34 str  32  18   1.082
 nber stretches=          34
  35 ben   1   2   3
  36 prop tor   1   2   3   4
  37 prop tor   1   2   3  21
  38 ben   1   2  20
  39 ben   1   6   5
  40 ben   1   6  23
  41 ben   2   1   6
  42 prop tor   2   1   6   5
  43 prop tor   2   1   6  23
  44 ben   2   1  19
  45 ben   2   3   4
  46 prop tor   2   3   4   5
  47 prop tor   2   3   4   7
  48 ben   2   3  21
  49 ben   3   2  20
  50 ben   3   4   5
  51 prop tor   3   4   5   6
  52 prop tor   3   4   5  22
  53 ben   3   4   7
  54 prop tor   3   4   7   8
  55 prop tor   3   4   7  12
  56 ben   4   3  21
  57 ben   4   5   6
  58 prop tor   4   5   6   1
  59 prop tor   4   5   6  23
  60 ben   4   5  22
  61 ben   4   7   8
  62 prop tor   4   7   8   9
  63 prop tor   4   7   8  24
  64 ben   4   7  12
  65 prop tor   4   7  12  11
  66 prop tor   4   7  12  27
  67 ben   5   4   7
  68 prop tor   5   4   7   8
  69 prop tor   5   4   7  12
  70 ben   5   6  23
  71 prop tor   6   1   2   3
  72 prop tor   6   1   2  20
  73 ben   6   1  19
  74 ben   6   5  22
  75 prop tor   7   4   5   6
  76 prop tor   7   4   5  22
  77 ben   7   8   9
  78 prop tor   7   8   9  10
  79 prop tor   7   8   9  25
  80 ben   7   8  24
  81 ben   7  12  11
  82 ben   7  12  27
  83 ben   8   7  12
  84 prop tor   8   7  12  11
  85 prop tor   8   7  12  27
  86 ben   8   9  10
  87 prop tor   8   9  10  11
  88 prop tor   8   9  10  13
  89 ben   8   9  25
  90 ben   9   8  24
  91 ben   9  10  11
  92 prop tor   9  10  11  12
  93 prop tor   9  10  11  26
  94 ben   9  10  13
  95 prop tor   9  10  13  14
  96 prop tor   9  10  13  18
  97 ben  10   9  25
  98 ben  10  11  12
  99 prop tor  10  11  12   7
 100 prop tor  10  11  12  27
 101 ben  10  11  26
 102 ben  10  13  14
 103 prop tor  10  13  14  15
 104 prop tor  10  13  14  28
 105 ben  10  13  18
 106 prop tor  10  13  18  17
 107 prop tor  10  13  18  32
 108 ben  11  10  13
 109 prop tor  11  10  13  14
 110 prop tor  11  10  13  18
 111 ben  11  12  27
 112 prop tor  12   7   8   9
 113 prop tor  12   7   8  24
 114 ben  12  11  26
 115 prop tor  13  10  11  12
 116 prop tor  13  10  11  26
 117 ben  13  14  15
 118 prop tor  13  14  15  16
 119 prop tor  13  14  15  29
 120 ben  13  14  28
 121 ben  13  18  17
 122 ben  13  18  32
 123 ben  14  13  18
 124 prop tor  14  13  18  17
 125 prop tor  14  13  18  32
 126 ben  14  15  16
 127 prop tor  14  15  16  17
 128 prop tor  14  15  16  30
 129 ben  14  15  29
 130 ben  15  14  28
 131 ben  15  16  17
 132 prop tor  15  16  17  18
 133 prop tor  15  16  17  31
 134 ben  15  16  30
 135 ben  16  15  29
 136 ben  16  17  18
 137 prop tor  16  17  18  13
 138 prop tor  16  17  18  32
 139 ben  16  17  31
 140 ben  17  16  30
 141 ben  17  18  32
 142 prop tor  18  13  14  15
 143 prop tor  18  13  14  28
 144 ben  18  17  31
 145 prop tor  19   1   2   3
 146 prop tor  19   1   2  20
 147 prop tor  19   1   6   5
 148 prop tor  19   1   6  23
 149 prop tor  20   2   3   4
 150 prop tor  20   2   3  21
 151 prop tor  21   3   4   5
 152 prop tor  21   3   4   7
 153 prop tor  22   5   6   1
 154 prop tor  22   5   6  23
 155 prop tor  24   8   9  10
 156 prop tor  24   8   9  25
 157 prop tor  25   9  10  11
 158 prop tor  25   9  10  13
 159 prop tor  26  11  12   7
 160 prop tor  26  11  12  27
 161 prop tor  28  14  15  16
 162 prop tor  28  14  15  29
 163 prop tor  29  15  16  17
 164 prop tor  29  15  16  30
 165 prop tor  30  16  17  18
 166 prop tor  30  16  17  31
 167 prop tor  31  17  18  13
 168 prop tor  31  17  18  32
 nber bend=              54
 nber lin bend=           0
 nber prop tor=          80
 nber impr tor=           0
 nber tot redund int=         168
 Eigenvalues of G in red int coords
    Gval -0.00000000 -0.00000000 -0.00000000 -0.00000000 -0.00000000 -0.00000000 -0.00000000 -0.00000000
    Gval -0.00000000 -0.00000000 -0.00000000 -0.00000000 -0.00000000 -0.00000000 -0.00000000 -0.00000000
    Gval -0.00000000 -0.00000000 -0.00000000 -0.00000000 -0.00000000 -0.00000000 -0.00000000 -0.00000000
    Gval -0.00000000 -0.00000000 -0.00000000 -0.00000000 -0.00000000 -0.00000000 -0.00000000 -0.00000000
    Gval -0.00000000 -0.00000000 -0.00000000 -0.00000000 -0.00000000 -0.00000000 -0.00000000  0.00000000
    Gval  0.00000000  0.00000000  0.00000000  0.00000000  0.00000000  0.00000000  0.00000000  0.00000000
    Gval  0.00000000  0.00000000  0.00000000  0.00000000  0.00000000  0.00000000  0.00000000  0.00000000
    Gval  0.00000000  0.00000000  0.00000000  0.00000000  0.00000000  0.00000000  0.00000000  0.00000000
    Gval  0.00000000  0.00000000  0.00000000  0.00000000  0.00000000  0.00000000  0.00000000  0.00000000
    Gval  0.00000000  0.00000000  0.00000000  0.00000000  0.00000000  0.00000000  0.00000137  0.00000359
    Gval  0.00000637  0.00000718  0.00001278  0.00002167  0.00002192  0.00002924  0.00004270  0.00004727
    Gval  0.00005048  0.00005100  0.00005781  0.00005782  0.00006142  0.00006151  0.00007102  0.00007425
    Gval  0.00008219  0.00009860  0.00010959  0.00011526  0.00011928  0.00012143  0.00012494  0.00013139
    Gval  0.00013892  0.00017997  0.00024014  0.00025954  0.00026768  0.00028440  0.00029527  0.00033216
    Gval  0.00035726  0.00036922  0.00038924  0.00040123  0.00042782  0.00052793  0.00054995  0.00059308
    Gval  0.00059308  0.00059338  0.00059349  0.00059746  0.00059976  0.00060406  0.00060407  0.00060930
    Gval  0.00061926  0.00062189  0.00062527  0.00064105  0.00065012  0.00066096  0.00066117  0.00080483
    Gval  0.00101730  0.00104133  0.00104147  0.00108029  0.00110964  0.00111091  0.00111233  0.00113890
    Gval  0.00113898  0.00115108  0.00116833  0.00116998  0.00117028  0.00117305  0.00117305  0.00142713
    Gval  0.00143381  0.00157729  0.00176893  0.00200334  0.00234483  0.00235174  0.00236676  0.00254178
    Gval  0.00311688  0.00316551  0.00360365  0.00366894  0.00370762  0.00370993  0.00406679  0.00406718
  1.365411421178792E-006  1.365411421178792E-006
  3.590509860629200E-006  1.365411421178792E-006
  6.365422774871355E-006  1.365411421178792E-006
  7.181223112963655E-006  1.365411421178792E-006
  1.277631404291881E-005  1.365411421178792E-006
  2.166539914217634E-005  1.365411421178792E-006
  2.191800896769582E-005  1.365411421178792E-006
  2.923613952055740E-005  1.365411421178792E-006
  4.270456951997155E-005  1.365411421178792E-006
  4.726892074231967E-005  1.365411421178792E-006
  5.048491995581373E-005  1.365411421178792E-006
  5.100471071397927E-005  1.365411421178792E-006
  5.781270694309783E-005  1.365411421178792E-006
  5.782495899288863E-005  1.365411421178792E-006
  6.141552393095269E-005  1.365411421178792E-006
  6.150643148859390E-005  1.365411421178792E-006
  7.101926818942926E-005  1.365411421178792E-006
  7.425238622103652E-005  1.365411421178792E-006
  8.219129277925510E-005  1.365411421178792E-006
  9.859769900275679E-005  1.365411421178792E-006
  1.095876429588862E-004  1.365411421178792E-006
  1.152591639448436E-004  1.365411421178792E-006
  1.192813627479156E-004  1.365411421178792E-006
  1.214272766722538E-004  1.365411421178792E-006
  1.249369001983337E-004  1.365411421178792E-006
  1.313890234524163E-004  1.365411421178792E-006
  1.389213650829748E-004  1.365411421178792E-006
  1.799725836300547E-004  1.365411421178792E-006
  2.401417661975542E-004  1.365411421178792E-006
  2.595353900087738E-004  1.365411421178792E-006
  2.676759470026987E-004  1.365411421178792E-006
  2.844026407785927E-004  1.365411421178792E-006
  2.952745318775711E-004  1.365411421178792E-006
  3.321616642915844E-004  1.365411421178792E-006
  3.572618982191660E-004  1.365411421178792E-006
  3.692172707368338E-004  1.365411421178792E-006
  3.892369725568983E-004  1.365411421178792E-006
  4.012346645480010E-004  1.365411421178792E-006
  4.278158332555164E-004  1.365411421178792E-006
  5.279331450516457E-004  1.365411421178792E-006
  5.499478289058505E-004  1.365411421178792E-006
  5.930754316899272E-004  1.365411421178792E-006
  5.930754695075084E-004  1.365411421178792E-006
  5.933751775413747E-004  1.365411421178792E-006
  5.934899692603122E-004  1.365411421178792E-006
  5.974624473189869E-004  1.365411421178792E-006
  5.997552419975170E-004  1.365411421178792E-006
  6.040591186548992E-004  1.365411421178792E-006
  6.040746306264421E-004  1.365411421178792E-006
  6.092992575199187E-004  1.365411421178792E-006
  6.192554964035567E-004  1.365411421178792E-006
  6.218852457421329E-004  1.365411421178792E-006
  6.252655843749378E-004  1.365411421178792E-006
  6.410502567714297E-004  1.365411421178792E-006
  6.501221399975943E-004  1.365411421178792E-006
  6.609621760462305E-004  1.365411421178792E-006
  6.611727586507667E-004  1.365411421178792E-006
  8.048284328514648E-004  1.365411421178792E-006
  1.017296033322209E-003  1.365411421178792E-006
  1.041325253194418E-003  1.365411421178792E-006
  1.041471333098406E-003  1.365411421178792E-006
  1.080291563773316E-003  1.365411421178792E-006
  1.109637511354802E-003  1.365411421178792E-006
  1.110906973445230E-003  1.365411421178792E-006
  1.112329543281043E-003  1.365411421178792E-006
  1.138899167588493E-003  1.365411421178792E-006
  1.138982276573343E-003  1.365411421178792E-006
  1.151079473910437E-003  1.365411421178792E-006
  1.168327309578035E-003  1.365411421178792E-006
  1.169977924108680E-003  1.365411421178792E-006
  1.170275940782701E-003  1.365411421178792E-006
  1.173050221905088E-003  1.365411421178792E-006
  1.173050230134769E-003  1.365411421178792E-006
  1.427134756367573E-003  1.365411421178792E-006
  1.433807583488868E-003  1.365411421178792E-006
  1.577293116483358E-003  1.365411421178792E-006
  1.768934875257030E-003  1.365411421178792E-006
  2.003343384784418E-003  1.365411421178792E-006
  2.344830690199493E-003  1.365411421178792E-006
  2.351742072784805E-003  1.365411421178792E-006
  2.366762736168185E-003  1.365411421178792E-006
  2.541784925910933E-003  1.365411421178792E-006
  3.116882128748528E-003  1.365411421178792E-006
  3.165510081887260E-003  1.365411421178792E-006
  3.603647814018447E-003  1.365411421178792E-006
  3.668936710558630E-003  1.365411421178792E-006
  3.707616542834379E-003  1.365411421178792E-006
  3.709931194830967E-003  1.365411421178792E-006
  4.066785686190183E-003  1.365411421178792E-006
  4.067181946540462E-003  1.365411421178792E-006
 cut=1d-8, nber non-redundant internal coords=          90
 Check on Eigenvals of non-red overlap matrix:
  0.00000137  0.00000359  0.00000637  0.00000718  0.00001278  0.00002167  0.00002192  0.00002924
  0.00004270  0.00004727  0.00005048  0.00005100  0.00005781  0.00005782  0.00006142  0.00006151
  0.00007102  0.00007425  0.00008219  0.00009860  0.00010959  0.00011526  0.00011928  0.00012143
  0.00012494  0.00013139  0.00013892  0.00017997  0.00024014  0.00025954  0.00026768  0.00028440
  0.00029527  0.00033216  0.00035726  0.00036922  0.00038924  0.00040123  0.00042782  0.00052793
  0.00054995  0.00059308  0.00059308  0.00059338  0.00059349  0.00059746  0.00059976  0.00060406
  0.00060407  0.00060930  0.00061926  0.00062189  0.00062527  0.00064105  0.00065012  0.00066096
  0.00066117  0.00080483  0.00101730  0.00104133  0.00104147  0.00108029  0.00110964  0.00111091
  0.00111233  0.00113890  0.00113898  0.00115108  0.00116833  0.00116998  0.00117028  0.00117305
  0.00117305  0.00142713  0.00143381  0.00157729  0.00176893  0.00200334  0.00234483  0.00235174
  0.00236676  0.00254178  0.00311688  0.00316551  0.00360365  0.00366894  0.00370762  0.00370993
  0.00406679  0.00406718
 Checking for correct frequencies
 recalc frequencies=
   -98.6  -58.1   -0.0   -0.0   -0.0   -0.0    0.0    0.0   38.4   98.1
   114.0  187.5  215.6  229.2  308.5  382.0  385.0  404.0  415.9  432.8
   454.0  461.2  528.3  558.4  625.7  629.4  635.9  664.3  693.4  696.6
   710.7  728.9  764.3  790.7  792.5  805.3  833.8  847.8  852.8  919.0
   919.1  945.8  955.5  970.2  975.5  997.3  997.9 1011.0 1015.5 1018.6
  1024.2 1052.7 1064.9 1065.3 1110.6 1112.7 1163.5 1185.3 1190.1 1207.3
  1219.9 1252.8 1286.8 1291.7 1301.7 1307.7 1320.9 1350.8 1366.9 1374.0
  1437.6 1472.3 1489.2 1518.5 1535.5 1568.4 1593.9 1621.4 1625.2 1637.8
  1644.7 1656.4 3161.4 3161.6 3169.5 3169.8 3181.0 3183.9 3184.9 3188.2
  3193.2 3196.1 3204.0 3205.3 3210.3 3212.9
 recalc symmetries=
     B1g    Au     B1u    B3g    B1g    B3u    B2g    B2u    B3u    B2u
     B2g    B3u    B3g    Ag     B2g    B2u    Au     B1g    Au     B1u
     B3u    B3g    B2g    B3u    Ag     B3g    B2u    B3g    B2g    B3u
     B1u    B2g    B3u    Ag     B2g    B1g    Au     B1g    B3u    B3u
     B2g    Au     B2g    B1g    Au     B3u    B2g    Ag     B1u    B1u
     Ag     B1u    B1u    Ag     B2u    B3g    B2u    B3g    B2u    Ag 
     B1u    Ag     Ag     B2u    B1u    B3g    B2u    B3g    B3g    B2u
     B2u    B3g    B2u    B1u    Ag     B1u    B3g    B2u    B3g    Ag 
     B1u    Ag     B1u    Ag     B3g    B2u    B1u    B3g    Ag     B1u
     B2u    Ag     B3g    B1u    B2u    Ag 
 recalc freqs check OK
 Zero-point lengths:
 24.9671 32.5106 10.0000 10.0000 10.0000 10.0000 10.0000 10.0000 39.9969 25.0258
 23.2183 18.1057 16.8851 16.3736 14.1140 12.6838 12.6354 12.3339 12.1558 11.9162
 11.6354 11.5439 10.7863 10.4908  9.9108  9.8817  9.8309  9.6185  9.4150  9.3927
  9.2995  9.1826  8.9674  8.8166  8.8061  8.7363  8.5857  8.5144  8.4894  8.1779
  8.1774  8.0612  8.0201  7.9592  7.9375  7.8504  7.8478  7.7969  7.7795  7.7677
  7.7463  7.6410  7.5970  7.5956  7.4389  7.4320  7.2679  7.2007  7.1864  7.1348
  7.0979  7.0040  6.9110  6.8979  6.8712  6.8556  6.8212  6.7453  6.7053  6.6881
  6.5385  6.4609  6.4242  6.3619  6.3267  6.2599  6.2097  6.1566  6.1495  6.1259
  6.1130  6.0913  4.4092  4.4090  4.4036  4.4033  4.3955  4.3936  4.3929  4.3906
  4.3871  4.3852  4.3798  4.3789  4.3754  4.3737
 highest evec of mol 1
  0.0000  0.0000 -0.0120
  0.0000 -0.0196 -0.0130
  0.0000 -0.0709  0.0381
  0.0000  0.0000  0.0028
  0.0000  0.0709  0.0381
  0.0000  0.0196 -0.0130
  0.0000  0.0000 -0.0054
  0.0000  0.1028 -0.0562
  0.0000  0.1028  0.0562
  0.0000  0.0000  0.0054
  0.0000 -0.1028  0.0562
  0.0000 -0.1028 -0.0562
  0.0000  0.0000 -0.0028
  0.0000  0.0709 -0.0381
  0.0000  0.0196  0.0130
  0.0000  0.0000  0.0120
  0.0000 -0.0196  0.0130
  0.0000 -0.0709 -0.0381
  0.0000  0.0000  0.0360
  0.0000  0.0619  0.0356
  0.0000  0.2371 -0.1316
  0.0000 -0.2371 -0.1316
  0.0000 -0.0619  0.0356
  0.0000 -0.3406  0.1841
  0.0000 -0.3406 -0.1841
  0.0000  0.3406 -0.1841
  0.0000  0.3406  0.1841
  0.0000 -0.2371  0.1316
  0.0000 -0.0619 -0.0356
  0.0000  0.0000 -0.0360
  0.0000  0.0619 -0.0356
  0.0000  0.2371  0.1316
 generating redundant internal coords
         300        3600          32
 Adding extra bonds for z output only
           6           6           6           6           6           6
           6           6           6           6           6           6
           6           6           6           6           6           6
           1           1           1           1           1           1
           1           1           1           1           1           1
           1           1
 search for int coords
   1 str   2   1   1.392
   2 str   3   2   1.390
   3 str   4   3   1.406
   4 str   5   4   1.406
   5 str   6   1   1.392
   6 str   6   5   1.390
   7 str   7   4   1.490
   8 str   8   7   1.404
   9 str   9   8   1.387
  10 str  10   9   1.404
  11 str  11  10   1.404
  12 str  12   7   1.404
  13 str  12  11   1.387
  14 str  13  10   1.490
  15 str  14  13   1.406
  16 str  15  14   1.390
  17 str  16  15   1.392
  18 str  17  16   1.392
  19 str  18  13   1.406
  20 str  18  17   1.390
  21 str  19   1   1.084
  22 str  20   2   1.084
  23 str  21   3   1.082
  24 str  22   5   1.082
  25 str  23   6   1.084
  26 str  24   8   1.082
  27 str  25   9   1.082
  28 str  26  11   1.082
  29 str  27  12   1.082
  30 str  28  14   1.082
  31 str  29  15   1.084
  32 str  30  16   1.084
  33 str  31  17   1.084
  34 str  32  18   1.082
 nber stretches=          34
  35 ben   1   2   3
  36 prop tor   1   2   3   4
  37 prop tor   1   2   3  21
  38 ben   1   2  20
  39 ben   1   6   5
  40 ben   1   6  23
  41 ben   2   1   6
  42 prop tor   2   1   6   5
  43 prop tor   2   1   6  23
  44 ben   2   1  19
  45 ben   2   3   4
  46 prop tor   2   3   4   5
  47 prop tor   2   3   4   7
  48 ben   2   3  21
  49 ben   3   2  20
  50 ben   3   4   5
  51 prop tor   3   4   5   6
  52 prop tor   3   4   5  22
  53 ben   3   4   7
  54 prop tor   3   4   7   8
  55 prop tor   3   4   7  12
  56 ben   4   3  21
  57 ben   4   5   6
  58 prop tor   4   5   6   1
  59 prop tor   4   5   6  23
  60 ben   4   5  22
  61 ben   4   7   8
  62 prop tor   4   7   8   9
  63 prop tor   4   7   8  24
  64 ben   4   7  12
  65 prop tor   4   7  12  11
  66 prop tor   4   7  12  27
  67 ben   5   4   7
  68 prop tor   5   4   7   8
  69 prop tor   5   4   7  12
  70 ben   5   6  23
  71 prop tor   6   1   2   3
  72 prop tor   6   1   2  20
  73 ben   6   1  19
  74 ben   6   5  22
  75 prop tor   7   4   5   6
  76 prop tor   7   4   5  22
  77 ben   7   8   9
  78 prop tor   7   8   9  10
  79 prop tor   7   8   9  25
  80 ben   7   8  24
  81 ben   7  12  11
  82 ben   7  12  27
  83 ben   8   7  12
  84 prop tor   8   7  12  11
  85 prop tor   8   7  12  27
  86 ben   8   9  10
  87 prop tor   8   9  10  11
  88 prop tor   8   9  10  13
  89 ben   8   9  25
  90 ben   9   8  24
  91 ben   9  10  11
  92 prop tor   9  10  11  12
  93 prop tor   9  10  11  26
  94 ben   9  10  13
  95 prop tor   9  10  13  14
  96 prop tor   9  10  13  18
  97 ben  10   9  25
  98 ben  10  11  12
  99 prop tor  10  11  12   7
 100 prop tor  10  11  12  27
 101 ben  10  11  26
 102 ben  10  13  14
 103 prop tor  10  13  14  15
 104 prop tor  10  13  14  28
 105 ben  10  13  18
 106 prop tor  10  13  18  17
 107 prop tor  10  13  18  32
 108 ben  11  10  13
 109 prop tor  11  10  13  14
 110 prop tor  11  10  13  18
 111 ben  11  12  27
 112 prop tor  12   7   8   9
 113 prop tor  12   7   8  24
 114 ben  12  11  26
 115 prop tor  13  10  11  12
 116 prop tor  13  10  11  26
 117 ben  13  14  15
 118 prop tor  13  14  15  16
 119 prop tor  13  14  15  29
 120 ben  13  14  28
 121 ben  13  18  17
 122 ben  13  18  32
 123 ben  14  13  18
 124 prop tor  14  13  18  17
 125 prop tor  14  13  18  32
 126 ben  14  15  16
 127 prop tor  14  15  16  17
 128 prop tor  14  15  16  30
 129 ben  14  15  29
 130 ben  15  14  28
 131 ben  15  16  17
 132 prop tor  15  16  17  18
 133 prop tor  15  16  17  31
 134 ben  15  16  30
 135 ben  16  15  29
 136 ben  16  17  18
 137 prop tor  16  17  18  13
 138 prop tor  16  17  18  32
 139 ben  16  17  31
 140 ben  17  16  30
 141 ben  17  18  32
 142 prop tor  18  13  14  15
 143 prop tor  18  13  14  28
 144 ben  18  17  31
 145 prop tor  19   1   2   3
 146 prop tor  19   1   2  20
 147 prop tor  19   1   6   5
 148 prop tor  19   1   6  23
 149 prop tor  20   2   3   4
 150 prop tor  20   2   3  21
 151 prop tor  21   3   4   5
 152 prop tor  21   3   4   7
 153 prop tor  22   5   6   1
 154 prop tor  22   5   6  23
 155 prop tor  24   8   9  10
 156 prop tor  24   8   9  25
 157 prop tor  25   9  10  11
 158 prop tor  25   9  10  13
 159 prop tor  26  11  12   7
 160 prop tor  26  11  12  27
 161 prop tor  28  14  15  16
 162 prop tor  28  14  15  29
 163 prop tor  29  15  16  17
 164 prop tor  29  15  16  30
 165 prop tor  30  16  17  18
 166 prop tor  30  16  17  31
 167 prop tor  31  17  18  13
 168 prop tor  31  17  18  32
 nber bend=              54
 nber lin bend=           0
 nber prop tor=          80
 nber impr tor=           0
 nber tot redund int=         168
 Reading file: 
 ./Phenyls_1_C0S1.log                                                           
                                          
  Entering Gaussian System, Link 0=g16                                          
  
 Gaussian format, type: g94, g98, g03= F F F
  #P Geom=AllCheck Guess=TCheck SCRF=Check GenChk RB3LYP TD(FC,Read)/6-3    
 energy type= TD      
 Original G94 input coords:
  6  5.702934  0.000000  0.000000
  6  5.001730 -1.208005  0.000000
  6  3.619321 -1.215531  0.000000
  6  2.884881  0.000000  0.000000
  6  3.619321  1.215531  0.000000
  6  5.001730  1.208005  0.000000
  6  1.432898  0.000000  0.000000
  6  0.683973  1.211998  0.000000
  6 -0.683973  1.211998  0.000000
  6 -1.432898  0.000000  0.000000
  6 -0.683973 -1.211998  0.000000
  6  0.683973 -1.211998  0.000000
  6 -2.884881  0.000000  0.000000
  6 -3.619321  1.215531  0.000000
  6 -5.001730  1.208005  0.000000
  6 -5.702934  0.000000  0.000000
  6 -5.001730 -1.208005  0.000000
  6 -3.619321 -1.215531  0.000000
  1  6.790517  0.000000  0.000000
  1  5.538826 -2.152713  0.000000
  1  3.106093 -2.178754  0.000000
  1  3.106093  2.178754  0.000000
  1  5.538826  2.152713  0.000000
  1  1.171184  2.198541  0.000000
  1 -1.171184  2.198541  0.000000
  1 -1.171184 -2.198541  0.000000
  1  1.171184 -2.198541  0.000000
  1 -3.106093  2.178754  0.000000
  1 -5.538826  2.152713  0.000000
  1 -6.790517  0.000000  0.000000
  1 -5.538826 -2.152713  0.000000
  1 -3.106093 -2.178754  0.000000
 nber atoms=          32
 Original standard coords:
  6  0.000000  0.000000  5.702934
  6  0.000000  1.208005  5.001730
  6  0.000000  1.215531  3.619321
  6  0.000000  0.000000  2.884881
  6  0.000000 -1.215531  3.619321
  6  0.000000 -1.208005  5.001730
  6  0.000000  0.000000  1.432898
  6  0.000000 -1.211998  0.683973
  6  0.000000 -1.211998 -0.683973
  6  0.000000  0.000000 -1.432898
  6  0.000000  1.211998 -0.683973
  6  0.000000  1.211998  0.683973
  6  0.000000  0.000000 -2.884881
  6  0.000000 -1.215531 -3.619321
  6  0.000000 -1.208005 -5.001730
  6  0.000000  0.000000 -5.702934
  6  0.000000  1.208005 -5.001730
  6  0.000000  1.215531 -3.619321
  1  0.000000  0.000000  6.790517
  1  0.000000  2.152713  5.538826
  1  0.000000  2.178754  3.106093
  1  0.000000 -2.178754  3.106093
  1  0.000000 -2.152713  5.538826
  1  0.000000 -2.198541  1.171184
  1  0.000000 -2.198541 -1.171184
  1  0.000000  2.198541 -1.171184
  1  0.000000  2.198541  1.171184
  1  0.000000 -2.178754 -3.106093
  1  0.000000 -2.152713 -5.538826
  1  0.000000  0.000000 -6.790517
  1  0.000000  2.152713 -5.538826
  1  0.000000  2.178754 -3.106093
  Total Energy, E(TD-HF/TD-DFT) =  -694.301293461                               
  
          32          49 "  -694.301293461"
After scan for Atom:   Atom  AN      X      Y      Z        X      Y      Z        X      Y      Z   
After scan for Atom:   Atom  AN      X      Y      Z        X      Y      Z        X      Y      Z   
After scan for Atom:   Atom  AN      X      Y      Z        X      Y      Z        X      Y      Z   
After scan for Atom:   Atom  AN      X      Y      Z        X      Y      Z        X      Y      Z   
After scan for Atom:   Atom  AN      X      Y      Z        X      Y      Z        X      Y      Z   
After scan for Atom:   Atom  AN      X      Y      Z        X      Y      Z        X      Y      Z   
After scan for Atom:   Atom  AN      X      Y      Z        X      Y      Z        X      Y      Z   
After scan for Atom:   Atom  AN      X      Y      Z        X      Y      Z        X      Y      Z   
After scan for Atom:   Atom  AN      X      Y      Z        X      Y      Z        X      Y      Z   
After scan for Atom:   Atom  AN      X      Y      Z        X      Y      Z        X      Y      Z   
After scan for Atom:   Atom  AN      X      Y      Z        X      Y      Z        X      Y      Z   
After scan for Atom:   Atom  AN      X      Y      Z        X      Y      Z        X      Y      Z   
After scan for Atom:   Atom  AN      X      Y      Z        X      Y      Z        X      Y      Z   
After scan for Atom:   Atom  AN      X      Y      Z        X      Y      Z        X      Y      Z   
After scan for Atom:   Atom  AN      X      Y      Z        X      Y      Z        X      Y      Z   
After scan for Atom:   Atom  AN      X      Y      Z        X      Y      Z        X      Y      Z   
After scan for Atom:   Atom  AN      X      Y      Z        X      Y      Z        X      Y      Z   
After scan for Atom:   Atom  AN      X      Y      Z        X      Y      Z        X      Y      Z   
After scan for Atom:   Atom  AN      X      Y      Z        X      Y      Z        X      Y      Z   
After scan for Atom:   Atom  AN      X      Y      Z        X      Y      Z        X      Y      Z   
After scan for Atom:   Atom  AN      X      Y      Z        X      Y      Z        X      Y      Z   
After scan for Atom:   Atom  AN      X      Y      Z        X      Y      Z        X      Y      Z   
After scan for Atom:   Atom  AN      X      Y      Z        X      Y      Z        X      Y      Z   
After scan for Atom:   Atom  AN      X      Y      Z        X      Y      Z        X      Y      Z   
After scan for Atom:   Atom  AN      X      Y      Z        X      Y      Z        X      Y      Z   
After scan for Atom:   Atom  AN      X      Y      Z        X      Y      Z        X      Y      Z   
After scan for Atom:   Atom  AN      X      Y      Z        X      Y      Z        X      Y      Z   
After scan for Atom:   Atom  AN      X      Y      Z        X      Y      Z        X      Y      Z   
After scan for Atom:   Atom  AN      X      Y      Z        X      Y      Z        X      Y      Z   
After scan for Atom:   Atom  AN      X      Y      Z        X      Y      Z        X      Y      Z   
 g94    frequencies=
     0.0    0.0    0.0    0.0    0.0    0.0 -219.0   36.5   46.9   58.7
    96.4  103.1  215.8  229.6  287.5  357.4  391.1  393.2  401.3  401.4
   403.5  457.4  475.9  513.4  607.2  615.6  616.1  634.9  672.6  672.7
   707.7  733.7  758.3  776.9  810.4  812.1  843.2  847.3  848.0  912.2
   952.0  973.7  980.1  988.3 1004.1 1009.9 1013.0 1019.5 1020.1 1026.8
  1029.6 1043.0 1049.1 1090.3 1101.7 1113.0 1124.6 1138.1 1167.9 1176.2
  1177.3 1250.2 1278.1 1279.4 1327.7 1337.1 1342.2 1350.1 1368.6 1376.7
  1458.8 1462.3 1483.0 1494.8 1507.4 1525.8 1533.1 1580.1 1581.0 1602.7
  1621.8 1641.3 2545.6 2593.4 2785.4 2898.6 2911.1 3006.2 3007.9 3038.7
  3097.2 3114.8 3121.1 3123.8 3130.5 3130.5
 g94    symmetries=
                                                B3     AU     B3     B1
      B2     B2     B3     AG     B2     B3     B2     AU     AU     B1
      B1     B3     B3     B2     B3     AG     B2     B3     B2     B3
      B1     B2     B3     AG     B2     B1     B3     B1     AU     B1
      B3     B2     B1     AG     AG     B2     B3     AU     B1     B2
      B1     ?A     ?A     B2     AU     B3     B2     AG     B1     B3
      B2     AG     B2     B3     B1     B3     AG     B2     B3     B2
      B2     B3     B1     B2     B3     AG     B1     B2     B3     B1
      AG     AG     B2     B1     AG     B3     B1     B3     B2     AG
      B1     AG     ?A     ?A     B2     B3
 atomic masses:
 12.0000 12.0000 12.0000 12.0000 12.0000 12.0000 12.0000 12.0000 12.0000 12.0000
 12.0000 12.0000 12.0000 12.0000 12.0000 12.0000 12.0000 12.0000  1.0078  1.0078
  1.0078  1.0078  1.0078  1.0078  1.0078  1.0078  1.0078  1.0078  1.0078  1.0078
  1.0078  1.0078
 looking for force constants in 
 ./Phenyls_1_C0S1.fchk                                                          
  
 Cartesian Force Constants                  R   N=        4656                  
  
 n3=          96        4656
 g94-fc frequencies=
  -219.0   -4.5   -1.3   -0.7   -0.0    0.0    0.0   36.5   46.9   58.7
    96.4  103.1  215.8  229.6  287.5  357.4  391.1  393.2  401.3  401.4
   403.5  457.5  475.9  513.5  607.2  615.6  616.1  635.0  672.6  672.7
   707.7  733.7  758.3  776.9  810.5  812.1  843.2  847.3  848.1  912.2
   952.1  973.7  980.1  988.3 1004.1 1010.0 1013.0 1019.5 1020.1 1026.8
  1029.6 1043.0 1049.1 1090.3 1101.7 1113.0 1124.7 1138.1 1167.9 1176.3
  1177.3 1250.2 1278.1 1279.5 1327.7 1337.1 1342.2 1350.2 1368.7 1376.7
  1458.8 1462.4 1483.0 1494.9 1507.4 1525.9 1533.1 1580.2 1581.1 1602.7
  1621.8 1641.3 2545.6 2593.4 2785.5 2898.6 2911.2 3006.3 3008.0 3038.7
  3097.3 3114.8 3121.1 3123.8 3130.6 3130.6
 at 99999: n3=          96
 symm operator            1 :  T  nop=           1
 symm operator            2 :  T  nop=           2
 symm operator            3 :  T  nop=           3
 symm operator            4 :  T  nop=           4
 symm operator            5 :  T  nop=           5
 symm operator            6 :  T  nop=           6
 symm operator            7 :  T  nop=           7
 The point group of the molecule is D2H
 enforcing symm op           1  jsymt=          -1          -1           1
 enforcing symm op           2  jsymt=          -1           1          -1
 enforcing symm op           3  jsymt=           1          -1          -1
 enforcing symm op           4  jsymt=          -1          -1          -1
 enforcing symm op           5  jsymt=           1           1          -1
 enforcing symm op           6  jsymt=           1          -1           1
 enforcing symm op           7  jsymt=          -1           1           1
 cartesian coord symmetries:
 Ag :   16 Au :    6 B1g:    6 B1u:   16 B2g:   10 B2u:   16 B3g:   16 B3u:   10
 Symmetry rotation matrix:
   1.00000   0.00000   0.00000
   0.00000   1.00000   0.00000
   0.00000   0.00000   1.00000

 Projecting out zero-frequency components
 generating redundant internal coords
         300        3600          32
 search for int coords
   1 str   2   1   1.397
   2 str   3   2   1.382
   3 str   4   3   1.420
   4 str   5   4   1.420
   5 str   6   1   1.397
   6 str   6   5   1.382
   7 str   7   4   1.452
   8 str   8   7   1.425
   9 str   9   8   1.368
  10 str  10   9   1.425
  11 str  11  10   1.425
  12 str  12   7   1.425
  13 str  12  11   1.368
  14 str  13  10   1.452
  15 str  14  13   1.420
  16 str  15  14   1.382
  17 str  16  15   1.397
  18 str  17  16   1.397
  19 str  18  13   1.420
  20 str  18  17   1.382
  21 str  19   1   1.088
  22 str  20   2   1.087
  23 str  21   3   1.091
  24 str  22   5   1.091
  25 str  23   6   1.087
  26 str  24   8   1.100
  27 str  25   9   1.100
  28 str  26  11   1.100
  29 str  27  12   1.100
  30 str  28  14   1.091
  31 str  29  15   1.087
  32 str  30  16   1.088
  33 str  31  17   1.087
  34 str  32  18   1.091
 nber stretches=          34
  35 ben   1   2   3
  36 prop tor   1   2   3   4
  37 prop tor   1   2   3  21
  38 ben   1   2  20
  39 ben   1   6   5
  40 ben   1   6  23
  41 ben   2   1   6
  42 prop tor   2   1   6   5
  43 prop tor   2   1   6  23
  44 ben   2   1  19
  45 ben   2   3   4
  46 prop tor   2   3   4   5
  47 prop tor   2   3   4   7
  48 ben   2   3  21
  49 ben   3   2  20
  50 ben   3   4   5
  51 prop tor   3   4   5   6
  52 prop tor   3   4   5  22
  53 ben   3   4   7
  54 prop tor   3   4   7   8
  55 prop tor   3   4   7  12
  56 ben   4   3  21
  57 ben   4   5   6
  58 prop tor   4   5   6   1
  59 prop tor   4   5   6  23
  60 ben   4   5  22
  61 ben   4   7   8
  62 prop tor   4   7   8   9
  63 prop tor   4   7   8  24
  64 ben   4   7  12
  65 prop tor   4   7  12  11
  66 prop tor   4   7  12  27
  67 ben   5   4   7
  68 prop tor   5   4   7   8
  69 prop tor   5   4   7  12
  70 ben   5   6  23
  71 prop tor   6   1   2   3
  72 prop tor   6   1   2  20
  73 ben   6   1  19
  74 ben   6   5  22
  75 prop tor   7   4   5   6
  76 prop tor   7   4   5  22
  77 ben   7   8   9
  78 prop tor   7   8   9  10
  79 prop tor   7   8   9  25
  80 ben   7   8  24
  81 ben   7  12  11
  82 ben   7  12  27
  83 ben   8   7  12
  84 prop tor   8   7  12  11
  85 prop tor   8   7  12  27
  86 ben   8   9  10
  87 prop tor   8   9  10  11
  88 prop tor   8   9  10  13
  89 ben   8   9  25
  90 ben   9   8  24
  91 ben   9  10  11
  92 prop tor   9  10  11  12
  93 prop tor   9  10  11  26
  94 ben   9  10  13
  95 prop tor   9  10  13  14
  96 prop tor   9  10  13  18
  97 ben  10   9  25
  98 ben  10  11  12
  99 prop tor  10  11  12   7
 100 prop tor  10  11  12  27
 101 ben  10  11  26
 102 ben  10  13  14
 103 prop tor  10  13  14  15
 104 prop tor  10  13  14  28
 105 ben  10  13  18
 106 prop tor  10  13  18  17
 107 prop tor  10  13  18  32
 108 ben  11  10  13
 109 prop tor  11  10  13  14
 110 prop tor  11  10  13  18
 111 ben  11  12  27
 112 prop tor  12   7   8   9
 113 prop tor  12   7   8  24
 114 ben  12  11  26
 115 prop tor  13  10  11  12
 116 prop tor  13  10  11  26
 117 ben  13  14  15
 118 prop tor  13  14  15  16
 119 prop tor  13  14  15  29
 120 ben  13  14  28
 121 ben  13  18  17
 122 ben  13  18  32
 123 ben  14  13  18
 124 prop tor  14  13  18  17
 125 prop tor  14  13  18  32
 126 ben  14  15  16
 127 prop tor  14  15  16  17
 128 prop tor  14  15  16  30
 129 ben  14  15  29
 130 ben  15  14  28
 131 ben  15  16  17
 132 prop tor  15  16  17  18
 133 prop tor  15  16  17  31
 134 ben  15  16  30
 135 ben  16  15  29
 136 ben  16  17  18
 137 prop tor  16  17  18  13
 138 prop tor  16  17  18  32
 139 ben  16  17  31
 140 ben  17  16  30
 141 ben  17  18  32
 142 prop tor  18  13  14  15
 143 prop tor  18  13  14  28
 144 ben  18  17  31
 145 prop tor  19   1   2   3
 146 prop tor  19   1   2  20
 147 prop tor  19   1   6   5
 148 prop tor  19   1   6  23
 149 prop tor  20   2   3   4
 150 prop tor  20   2   3  21
 151 prop tor  21   3   4   5
 152 prop tor  21   3   4   7
 153 prop tor  22   5   6   1
 154 prop tor  22   5   6  23
 155 prop tor  24   8   9  10
 156 prop tor  24   8   9  25
 157 prop tor  25   9  10  11
 158 prop tor  25   9  10  13
 159 prop tor  26  11  12   7
 160 prop tor  26  11  12  27
 161 prop tor  28  14  15  16
 162 prop tor  28  14  15  29
 163 prop tor  29  15  16  17
 164 prop tor  29  15  16  30
 165 prop tor  30  16  17  18
 166 prop tor  30  16  17  31
 167 prop tor  31  17  18  13
 168 prop tor  31  17  18  32
 nber bend=              54
 nber lin bend=           0
 nber prop tor=          80
 nber impr tor=           0
 nber tot redund int=         168
 Eigenvalues of G in red int coords
    Gval -0.00000000 -0.00000000 -0.00000000 -0.00000000 -0.00000000 -0.00000000 -0.00000000 -0.00000000
    Gval -0.00000000 -0.00000000 -0.00000000 -0.00000000 -0.00000000 -0.00000000 -0.00000000 -0.00000000
    Gval -0.00000000 -0.00000000 -0.00000000 -0.00000000 -0.00000000 -0.00000000 -0.00000000 -0.00000000
    Gval -0.00000000 -0.00000000 -0.00000000 -0.00000000 -0.00000000 -0.00000000 -0.00000000 -0.00000000
    Gval -0.00000000 -0.00000000 -0.00000000 -0.00000000 -0.00000000  0.00000000  0.00000000  0.00000000
    Gval  0.00000000  0.00000000  0.00000000  0.00000000  0.00000000  0.00000000  0.00000000  0.00000000
    Gval  0.00000000  0.00000000  0.00000000  0.00000000  0.00000000  0.00000000  0.00000000  0.00000000
    Gval  0.00000000  0.00000000  0.00000000  0.00000000  0.00000000  0.00000000  0.00000000  0.00000000
    Gval  0.00000000  0.00000000  0.00000000  0.00000000  0.00000000  0.00000000  0.00000000  0.00000000
    Gval  0.00000000  0.00000000  0.00000000  0.00000000  0.00000000  0.00000000  0.00000138  0.00000358
    Gval  0.00000638  0.00000717  0.00001275  0.00002131  0.00002216  0.00002886  0.00004269  0.00004707
    Gval  0.00005007  0.00005093  0.00005744  0.00005807  0.00006128  0.00006175  0.00006880  0.00007412
    Gval  0.00008309  0.00009844  0.00010951  0.00011487  0.00011916  0.00012054  0.00012522  0.00013095
    Gval  0.00013962  0.00018237  0.00024037  0.00025668  0.00026620  0.00028357  0.00029118  0.00033581
    Gval  0.00035518  0.00036691  0.00038606  0.00040641  0.00043204  0.00052138  0.00054096  0.00059302
    Gval  0.00059302  0.00059332  0.00059345  0.00059714  0.00059888  0.00060371  0.00060372  0.00060629
    Gval  0.00061392  0.00062157  0.00062507  0.00064134  0.00064903  0.00066039  0.00066058  0.00081590
    Gval  0.00101448  0.00103183  0.00103224  0.00104733  0.00107772  0.00109892  0.00109905  0.00111731
    Gval  0.00112595  0.00112598  0.00113463  0.00116082  0.00116082  0.00116553  0.00116553  0.00141656
    Gval  0.00142355  0.00155496  0.00174818  0.00198405  0.00231800  0.00233446  0.00234043  0.00252004
    Gval  0.00307987  0.00313800  0.00351191  0.00355920  0.00368652  0.00368715  0.00403118  0.00403157
  1.383884133772937E-006  1.383884133772937E-006
  3.583748940759654E-006  1.383884133772937E-006
  6.381887387168864E-006  1.383884133772937E-006
  7.165386512813892E-006  1.383884133772937E-006
  1.274941918478041E-005  1.383884133772937E-006
  2.130789205146356E-005  1.383884133772937E-006
  2.216249324961838E-005  1.383884133772937E-006
  2.885552301611374E-005  1.383884133772937E-006
  4.268718681039056E-005  1.383884133772937E-006
  4.706911003673912E-005  1.383884133772937E-006
  5.007315460938787E-005  1.383884133772937E-006
  5.092527679665191E-005  1.383884133772937E-006
  5.744166481554653E-005  1.383884133772937E-006
  5.806959922365311E-005  1.383884133772937E-006
  6.127605222742817E-005  1.383884133772937E-006
  6.175404328395516E-005  1.383884133772937E-006
  6.879896201710960E-005  1.383884133772937E-006
  7.412262217035361E-005  1.383884133772937E-006
  8.308553882663254E-005  1.383884133772937E-006
  9.843515162972351E-005  1.383884133772937E-006
  1.095059407616021E-004  1.383884133772937E-006
  1.148734819905800E-004  1.383884133772937E-006
  1.191573593634590E-004  1.383884133772937E-006
  1.205440122128760E-004  1.383884133772937E-006
  1.252211394593967E-004  1.383884133772937E-006
  1.309482407776399E-004  1.383884133772937E-006
  1.396190657800584E-004  1.383884133772937E-006
  1.823707551394122E-004  1.383884133772937E-006
  2.403656736720638E-004  1.383884133772937E-006
  2.566822784215863E-004  1.383884133772937E-006
  2.662022423199425E-004  1.383884133772937E-006
  2.835677816407165E-004  1.383884133772937E-006
  2.911840901286533E-004  1.383884133772937E-006
  3.358119924539726E-004  1.383884133772937E-006
  3.551828859189448E-004  1.383884133772937E-006
  3.669060345100064E-004  1.383884133772937E-006
  3.860623438277901E-004  1.383884133772937E-006
  4.064055501116041E-004  1.383884133772937E-006
  4.320433357357761E-004  1.383884133772937E-006
  5.213822179438364E-004  1.383884133772937E-006
  5.409588016901015E-004  1.383884133772937E-006
  5.930239882109342E-004  1.383884133772937E-006
  5.930240353722644E-004  1.383884133772937E-006
  5.933204995949821E-004  1.383884133772937E-006
  5.934523006897992E-004  1.383884133772937E-006
  5.971409894743541E-004  1.383884133772937E-006
  5.988847977301487E-004  1.383884133772937E-006
  6.037113604672865E-004  1.383884133772937E-006
  6.037236506667969E-004  1.383884133772937E-006
  6.062891639094856E-004  1.383884133772937E-006
  6.139185589465432E-004  1.383884133772937E-006
  6.215745342497071E-004  1.383884133772937E-006
  6.250707835435198E-004  1.383884133772937E-006
  6.413431726429742E-004  1.383884133772937E-006
  6.490340223796027E-004  1.383884133772937E-006
  6.603927930850906E-004  1.383884133772937E-006
  6.605815046548639E-004  1.383884133772937E-006
  8.159010794298008E-004  1.383884133772937E-006
  1.014482958509372E-003  1.383884133772937E-006
  1.031829883394892E-003  1.383884133772937E-006
  1.032238636949506E-003  1.383884133772937E-006
  1.047329183934558E-003  1.383884133772937E-006
  1.077720109717157E-003  1.383884133772937E-006
  1.098919993589999E-003  1.383884133772937E-006
  1.099047004514658E-003  1.383884133772937E-006
  1.117307040762191E-003  1.383884133772937E-006
  1.125953191652476E-003  1.383884133772937E-006
  1.125981477244515E-003  1.383884133772937E-006
  1.134633647285603E-003  1.383884133772937E-006
  1.160817969842245E-003  1.383884133772937E-006
  1.160824752825316E-003  1.383884133772937E-006
  1.165526504488218E-003  1.383884133772937E-006
  1.165526505439539E-003  1.383884133772937E-006
  1.416561215502260E-003  1.383884133772937E-006
  1.423551227275618E-003  1.383884133772937E-006
  1.554962244119103E-003  1.383884133772937E-006
  1.748181498102214E-003  1.383884133772937E-006
  1.984049291758999E-003  1.383884133772937E-006
  2.317999198156831E-003  1.383884133772937E-006
  2.334456842301812E-003  1.383884133772937E-006
  2.340427915128477E-003  1.383884133772937E-006
  2.520044229776950E-003  1.383884133772937E-006
  3.079872597569650E-003  1.383884133772937E-006
  3.137995748166290E-003  1.383884133772937E-006
  3.511908997885349E-003  1.383884133772937E-006
  3.559196813242839E-003  1.383884133772937E-006
  3.686522120081644E-003  1.383884133772937E-006
  3.687146650171481E-003  1.383884133772937E-006
  4.031180258746400E-003  1.383884133772937E-006
  4.031570390037628E-003  1.383884133772937E-006
 cut=1d-8, nber non-redundant internal coords=          90
 Check on Eigenvals of non-red overlap matrix:
  0.00000138  0.00000358  0.00000638  0.00000717  0.00001275  0.00002131  0.00002216  0.00002886
  0.00004269  0.00004707  0.00005007  0.00005093  0.00005744  0.00005807  0.00006128  0.00006175
  0.00006880  0.00007412  0.00008309  0.00009844  0.00010951  0.00011487  0.00011916  0.00012054
  0.00012522  0.00013095  0.00013962  0.00018237  0.00024037  0.00025668  0.00026620  0.00028357
  0.00029118  0.00033581  0.00035518  0.00036691  0.00038606  0.00040641  0.00043204  0.00052138
  0.00054096  0.00059302  0.00059302  0.00059332  0.00059345  0.00059714  0.00059888  0.00060371
  0.00060372  0.00060629  0.00061392  0.00062157  0.00062507  0.00064134  0.00064903  0.00066039
  0.00066058  0.00081590  0.00101448  0.00103183  0.00103224  0.00104733  0.00107772  0.00109892
  0.00109905  0.00111731  0.00112595  0.00112598  0.00113463  0.00116082  0.00116082  0.00116553
  0.00116553  0.00141656  0.00142355  0.00155496  0.00174818  0.00198405  0.00231800  0.00233446
  0.00234043  0.00252004  0.00307987  0.00313800  0.00351191  0.00355920  0.00368652  0.00368715
  0.00403118  0.00403157
 Checking for correct frequencies
 recalc frequencies=
  -219.0   -0.0   -0.0   -0.0   -0.0    0.0    0.0   36.5   46.9   58.7
    96.4  103.1  215.8  229.6  287.5  357.4  391.1  393.2  401.3  401.4
   403.5  457.5  475.9  513.5  607.2  615.6  616.1  635.0  672.6  672.7
   707.7  733.7  758.3  776.9  810.5  812.1  843.2  847.3  848.1  912.2
   952.1  973.7  980.1  988.3 1004.1 1010.0 1013.0 1019.5 1020.1 1026.8
  1029.6 1043.0 1049.1 1090.3 1101.7 1113.0 1124.7 1138.1 1167.9 1176.3
  1177.3 1250.2 1278.1 1279.5 1327.7 1337.1 1342.2 1350.2 1368.7 1376.7
  1458.8 1462.4 1483.0 1494.9 1507.4 1525.9 1533.1 1580.2 1581.1 1602.7
  1621.8 1641.3 2545.6 2593.4 2785.5 2898.6 2911.2 3006.3 3008.0 3038.7
  3097.3 3114.8 3121.1 3123.8 3130.6 3130.6
 recalc symmetries=
     B3u    B2u    B1g    B3u    B2g    B3g    B1u    Au     B3u    B1g
     B2u    B2g    B3g    Ag     B2g    B3u    B2u    Au     Au     B1g
     B1u    B3u    B3g    B2g    B3g    Ag     B2u    B3g    B2g    B3u
     B1u    B2g    B3u    Ag     B2g    B1g    B3u    B1g    Au     B1u
     B3u    B2g    B1u    Ag     Ag     B2g    B3u    Au     B1g    B2g
     B1u    Ag     B1u    B2u    Au     B3g    B2u    Ag     B1u    B3g
     B2u    Ag     B2u    B3g    B1u    B3g    Ag     B2u    B3g    B2u
     B2u    B3g    B1u    B2u    B3g    Ag     B1u    B2u    B3g    B1u
     Ag     Ag     B2u    B1u    Ag     B3g    B1u    B3g    B2u    Ag 
     B1u    Ag     B1u    Ag     B2u    B3g
 recalc freqs check OK
 Zero-point lengths:
 16.7525 10.0000 10.0000 10.0000 10.0000 10.0000 10.0000 41.0161 36.1918 32.3520
 25.2498 24.4130 16.8771 16.3600 14.6219 13.1136 12.5352 12.5028 12.3750 12.3740
 12.3422 11.5910 11.3639 10.9407 10.0604  9.9915  9.9876  9.8383  9.5593  9.5585
  9.3190  9.1526  9.0026  8.8942  8.7082  8.6995  8.5376  8.5169  8.5130  8.2082
  8.0346  7.9449  7.9187  7.8859  7.8234  7.8009  7.7893  7.7641  7.7620  7.7365
  7.7260  7.6763  7.6538  7.5079  7.4691  7.4309  7.3924  7.3485  7.2543  7.2284
  7.2252  7.0113  6.9345  6.9308  6.8038  6.7798  6.7668  6.7468  6.7011  6.6815
  6.4907  6.4829  6.4376  6.4120  6.3852  6.3465  6.3316  6.2365  6.2348  6.1925
  6.1560  6.1192  4.9136  4.8681  4.6973  4.6047  4.5947  4.5215  4.5202  4.4973
  4.4546  4.4420  4.4375  4.4356  4.4308  4.4308
 highest evec of mol 2
  0.0000  0.0089  0.0000
  0.0000 -0.1235 -0.0707
  0.0000  0.0167 -0.0039
  0.0000 -0.0008  0.0000
  0.0000  0.0167  0.0039
  0.0000 -0.1235  0.0707
  0.0000  0.0002  0.0000
  0.0000  0.0017 -0.0005
  0.0000 -0.0017 -0.0005
  0.0000 -0.0002  0.0000
  0.0000 -0.0017  0.0005
  0.0000  0.0017  0.0005
  0.0000  0.0008  0.0000
  0.0000 -0.0167  0.0039
  0.0000  0.1235  0.0707
  0.0000 -0.0089  0.0000
  0.0000  0.1235 -0.0707
  0.0000 -0.0167 -0.0039
  0.0000 -0.0045  0.0000
  0.0000  0.4119  0.2363
  0.0000 -0.0555  0.0278
  0.0000 -0.0555 -0.0278
  0.0000  0.4119 -0.2363
  0.0000 -0.0053  0.0037
  0.0000  0.0053  0.0037
  0.0000  0.0053 -0.0037
  0.0000 -0.0053 -0.0037
  0.0000  0.0555 -0.0278
  0.0000 -0.4119 -0.2363
  0.0000  0.0045  0.0000
  0.0000 -0.4119  0.2363
  0.0000  0.0555  0.0278
 Enter nber and list of atoms to keep of mol #2
 keep list:          32           1           2           3           4
           5           6           7           8           9          10
          11          12          13          14          15          16
          17          18          19          20          21          22
          23          24          25          26          27          28
          29          30          31          32
 reordering atoms
           1   5.70293400000000     
           2   5.00173000000000     
           3   3.61932100000000     
           4   2.88488100000000     
           5   3.61932100000000     
           6   5.00173000000000     
           7   1.43289800000000     
           8  0.683973000000000     
           9 -0.683973000000000     
          10  -1.43289800000000     
          11 -0.683973000000000     
          12  0.683973000000000     
          13  -2.88488100000000     
          14  -3.61932100000000     
          15  -5.00173000000000     
          16  -5.70293400000000     
          17  -5.00173000000000     
          18  -3.61932100000000     
          19   6.79051700000000     
          20   5.53882600000000     
          21   3.10609300000000     
          22   3.10609300000000     
          23   5.53882600000000     
          24   1.17118400000000     
          25  -1.17118400000000     
          26  -1.17118400000000     
          27   1.17118400000000     
          28  -3.10609300000000     
          29  -5.53882600000000     
          30  -6.79051700000000     
          31  -5.53882600000000     
          32  -3.10609300000000     
           1           1
           2           2
           3           3
           4           4
           5           5
           6           6
           7           7
           8           8
           9           9
          10          10
          11          11
          12          12
          13          13
          14          14
          15          15
          16          16
          17          17
          18          18
          19          19
          20          20
          21          21
          22          22
          23          23
          24          24
          25          25
          26          26
          27          27
          28          28
          29          29
          30          30
          31          31
          32          32
 initial cartes coords mol 1
   6   0.00000   0.00000   5.76381
   6   0.00000  -1.19911   5.05632
   6   0.00000  -1.19765   3.66585
   6   0.00000   0.00000   2.92958
   6   0.00000   1.19765   3.66585
   6   0.00000   1.19911   5.05632
   6   0.00000   0.00000   1.43953
   6   0.00000   1.18945   0.69354
   6   0.00000   1.18945  -0.69354
   6   0.00000   0.00000  -1.43953
   6   0.00000  -1.18945  -0.69354
   6   0.00000  -1.18945   0.69354
   6   0.00000   0.00000  -2.92958
   6   0.00000   1.19765  -3.66585
   6   0.00000   1.19911  -5.05632
   6   0.00000   0.00000  -5.76381
   6   0.00000  -1.19911  -5.05632
   6   0.00000  -1.19765  -3.66585
   1   0.00000   0.00000   6.84769
   1   0.00000  -2.14430   5.58784
   1   0.00000  -2.15205   3.15645
   1   0.00000   2.15205   3.15645
   1   0.00000   2.14430   5.58784
   1   0.00000   2.14857   1.19399
   1   0.00000   2.14857  -1.19399
   1   0.00000  -2.14857  -1.19399
   1   0.00000  -2.14857   1.19399
   1   0.00000   2.15205  -3.15645
   1   0.00000   2.14430  -5.58784
   1   0.00000   0.00000  -6.84769
   1   0.00000  -2.14430  -5.58784
   1   0.00000  -2.15205  -3.15645
 initial cartes coords mol 2
   6   0.00000   0.00000   5.70293
   6   0.00000   1.20800   5.00173
   6   0.00000   1.21553   3.61932
   6   0.00000   0.00000   2.88488
   6   0.00000  -1.21553   3.61932
   6   0.00000  -1.20800   5.00173
   6   0.00000   0.00000   1.43290
   6   0.00000  -1.21200   0.68397
   6   0.00000  -1.21200  -0.68397
   6   0.00000   0.00000  -1.43290
   6   0.00000   1.21200  -0.68397
   6   0.00000   1.21200   0.68397
   6   0.00000   0.00000  -2.88488
   6   0.00000  -1.21553  -3.61932
   6   0.00000  -1.20800  -5.00173
   6   0.00000   0.00000  -5.70293
   6   0.00000   1.20800  -5.00173
   6   0.00000   1.21553  -3.61932
   1   0.00000   0.00000   6.79052
   1   0.00000   2.15271   5.53883
   1   0.00000   2.17875   3.10609
   1   0.00000  -2.17875   3.10609
   1   0.00000  -2.15271   5.53883
   1   0.00000  -2.19854   1.17118
   1   0.00000  -2.19854  -1.17118
   1   0.00000   2.19854  -1.17118
   1   0.00000   2.19854   1.17118
   1   0.00000  -2.17875  -3.10609
   1   0.00000  -2.15271  -5.53883
   1   0.00000   0.00000  -6.79052
   1   0.00000   2.15271  -5.53883
   1   0.00000   2.17875  -3.10609
 loop 1 0
 mod cartes coords mol 2
   6   0.00000   0.00000   5.70293
   6   0.00000   1.20800   5.00173
   6   0.00000   1.21553   3.61932
   6   0.00000   0.00000   2.88488
   6   0.00000  -1.21553   3.61932
   6   0.00000  -1.20800   5.00173
   6   0.00000   0.00000   1.43290
   6   0.00000  -1.21200   0.68397
   6   0.00000  -1.21200  -0.68397
   6   0.00000   0.00000  -1.43290
   6   0.00000   1.21200  -0.68397
   6   0.00000   1.21200   0.68397
   6   0.00000   0.00000  -2.88488
   6   0.00000  -1.21553  -3.61932
   6   0.00000  -1.20800  -5.00173
   6   0.00000   0.00000  -5.70293
   6   0.00000   1.20800  -5.00173
   6   0.00000   1.21553  -3.61932
   1   0.00000   0.00000   6.79052
   1   0.00000   2.15271   5.53883
   1   0.00000   2.17875   3.10609
   1   0.00000  -2.17875   3.10609
   1   0.00000  -2.15271   5.53883
   1   0.00000  -2.19854   1.17118
   1   0.00000  -2.19854  -1.17118
   1   0.00000   2.19854  -1.17118
   1   0.00000   2.19854   1.17118
   1   0.00000  -2.17875  -3.10609
   1   0.00000  -2.15271  -5.53883
   1   0.00000   0.00000  -6.79052
   1   0.00000   2.15271  -5.53883
   1   0.00000   2.17875  -3.10609
 read in order, maxerr=  4.35 for atom  24
 loop 1 1
 mod cartes coords mol 2
   6   0.00000   0.00000   5.70293
   6   0.00000   1.20800   5.00173
   6   0.00000   1.21553   3.61932
   6   0.00000   0.00000   2.88488
   6   0.00000  -1.21553   3.61932
   6   0.00000  -1.20800   5.00173
   6   0.00000   0.00000   1.43290
   6   0.00000  -1.21200   0.68397
   6   0.00000  -1.21200  -0.68397
   6   0.00000   0.00000  -1.43290
   6   0.00000   1.21200  -0.68397
   6   0.00000   1.21200   0.68397
   6   0.00000   0.00000  -2.88488
   6   0.00000  -1.21553  -3.61932
   6   0.00000  -1.20800  -5.00173
   6   0.00000   0.00000  -5.70293
   6   0.00000   1.20800  -5.00173
   6   0.00000   1.21553  -3.61932
   1   0.00000   0.00000   6.79052
   1   0.00000   2.15271   5.53883
   1   0.00000   2.17875   3.10609
   1   0.00000  -2.17875   3.10609
   1   0.00000  -2.15271   5.53883
   1   0.00000  -2.19854   1.17118
   1   0.00000  -2.19854  -1.17118
   1   0.00000   2.19854  -1.17118
   1   0.00000   2.19854   1.17118
   1   0.00000  -2.17875  -3.10609
   1   0.00000  -2.15271  -5.53883
   1   0.00000   0.00000  -6.79052
   1   0.00000   2.15271  -5.53883
   1   0.00000   2.17875  -3.10609
 read in order, maxerr=  4.35 for atom  24
 loop 1 2
 mod cartes coords mol 2
   6   0.00000  -0.00000   5.70293
   6   0.00000  -1.20800   5.00173
   6   0.00000  -1.21553   3.61932
   6   0.00000  -0.00000   2.88488
   6   0.00000   1.21553   3.61932
   6   0.00000   1.20800   5.00173
   6   0.00000  -0.00000   1.43290
   6   0.00000   1.21200   0.68397
   6   0.00000   1.21200  -0.68397
   6   0.00000  -0.00000  -1.43290
   6   0.00000  -1.21200  -0.68397
   6   0.00000  -1.21200   0.68397
   6   0.00000  -0.00000  -2.88488
   6   0.00000   1.21553  -3.61932
   6   0.00000   1.20800  -5.00173
   6   0.00000  -0.00000  -5.70293
   6   0.00000  -1.20800  -5.00173
   6   0.00000  -1.21553  -3.61932
   1   0.00000  -0.00000   6.79052
   1   0.00000  -2.15271   5.53883
   1   0.00000  -2.17875   3.10609
   1   0.00000   2.17875   3.10609
   1   0.00000   2.15271   5.53883
   1   0.00000   2.19854   1.17118
   1   0.00000   2.19854  -1.17118
   1   0.00000  -2.19854  -1.17118
   1   0.00000  -2.19854   1.17118
   1   0.00000   2.17875  -3.10609
   1   0.00000   2.15271  -5.53883
   1   0.00000  -0.00000  -6.79052
   1   0.00000  -2.15271  -5.53883
   1   0.00000  -2.17875  -3.10609
 read in order, maxerr=  0.06 for atom   1
 final axis swaps:           1          -1           1
 final xyz swap pattern=           1
 reorder list:
   1   2   3   4   5   6   7   8   9  10  11  12  13  14  15  16  17  18  19  20
  21  22  23  24  25  26  27  28  29  30  31  32
 axis signs=           1          -1           1
  6     0.000000 -0.000000  5.702934     0.000000  0.000000  5.763809
  6     0.000000 -1.208005  5.001730     0.000000 -1.199114  5.056323
  6     0.000000 -1.215531  3.619321     0.000000 -1.197655  3.665848
  6     0.000000 -0.000000  2.884881     0.000000  0.000000  2.929576
  6     0.000000  1.215531  3.619321     0.000000  1.197655  3.665848
  6     0.000000  1.208005  5.001730     0.000000  1.199114  5.056323
  6     0.000000 -0.000000  1.432898     0.000000  0.000000  1.439533
  6     0.000000  1.211998  0.683973     0.000000  1.189455  0.693544
  6     0.000000  1.211998 -0.683973     0.000000  1.189455 -0.693544
  6     0.000000 -0.000000 -1.432898     0.000000  0.000000 -1.439533
  6     0.000000 -1.211998 -0.683973     0.000000 -1.189455 -0.693544
  6     0.000000 -1.211998  0.683973     0.000000 -1.189455  0.693544
  6     0.000000 -0.000000 -2.884881     0.000000  0.000000 -2.929576
  6     0.000000  1.215531 -3.619321     0.000000  1.197655 -3.665848
  6     0.000000  1.208005 -5.001730     0.000000  1.199114 -5.056323
  6     0.000000 -0.000000 -5.702934     0.000000  0.000000 -5.763809
  6     0.000000 -1.208005 -5.001730     0.000000 -1.199114 -5.056323
  6     0.000000 -1.215531 -3.619321     0.000000 -1.197655 -3.665848
  1     0.000000 -0.000000  6.790517     0.000000  0.000000  6.847690
  1     0.000000 -2.152713  5.538826     0.000000 -2.144300  5.587840
  1     0.000000 -2.178754  3.106093     0.000000 -2.152050  3.156449
  1     0.000000  2.178754  3.106093     0.000000  2.152050  3.156449
  1     0.000000  2.152713  5.538826     0.000000  2.144300  5.587840
  1     0.000000  2.198541  1.171184     0.000000  2.148565  1.193990
  1     0.000000  2.198541 -1.171184     0.000000  2.148565 -1.193990
  1     0.000000 -2.198541 -1.171184     0.000000 -2.148565 -1.193990
  1     0.000000 -2.198541  1.171184     0.000000 -2.148565  1.193990
  1     0.000000  2.178754 -3.106093     0.000000  2.152050 -3.156449
  1     0.000000  2.152713 -5.538826     0.000000  2.144300 -5.587840
  1     0.000000 -0.000000 -6.790517     0.000000  0.000000 -6.847690
  1     0.000000 -2.152713 -5.538826     0.000000 -2.144300 -5.587840
  1     0.000000 -2.178754 -3.106093     0.000000 -2.152050 -3.156449
 generating redundant internal coords
         300        3600          32
 Adding extra bonds for z output only
           6           6           6           6           6           6
           6           6           6           6           6           6
           6           6           6           6           6           6
           1           1           1           1           1           1
           1           1           1           1           1           1
           1           1
 search for int coords
   1 str   2   1   1.397
   2 str   3   2   1.382
   3 str   4   3   1.420
   4 str   5   4   1.420
   5 str   6   1   1.397
   6 str   6   5   1.382
   7 str   7   4   1.452
   8 str   8   7   1.425
   9 str   9   8   1.368
  10 str  10   9   1.425
  11 str  11  10   1.425
  12 str  12   7   1.425
  13 str  12  11   1.368
  14 str  13  10   1.452
  15 str  14  13   1.420
  16 str  15  14   1.382
  17 str  16  15   1.397
  18 str  17  16   1.397
  19 str  18  13   1.420
  20 str  18  17   1.382
  21 str  19   1   1.088
  22 str  20   2   1.087
  23 str  21   3   1.091
  24 str  22   5   1.091
  25 str  23   6   1.087
  26 str  24   8   1.100
  27 str  25   9   1.100
  28 str  26  11   1.100
  29 str  27  12   1.100
  30 str  28  14   1.091
  31 str  29  15   1.087
  32 str  30  16   1.088
  33 str  31  17   1.087
  34 str  32  18   1.091
 nber stretches=          34
  35 ben   1   2   3
  36 prop tor   1   2   3   4
  37 prop tor   1   2   3  21
  38 ben   1   2  20
  39 ben   1   6   5
  40 ben   1   6  23
  41 ben   2   1   6
  42 prop tor   2   1   6   5
  43 prop tor   2   1   6  23
  44 ben   2   1  19
  45 ben   2   3   4
  46 prop tor   2   3   4   5
  47 prop tor   2   3   4   7
  48 ben   2   3  21
  49 ben   3   2  20
  50 ben   3   4   5
  51 prop tor   3   4   5   6
  52 prop tor   3   4   5  22
  53 ben   3   4   7
  54 prop tor   3   4   7   8
  55 prop tor   3   4   7  12
  56 ben   4   3  21
  57 ben   4   5   6
  58 prop tor   4   5   6   1
  59 prop tor   4   5   6  23
  60 ben   4   5  22
  61 ben   4   7   8
  62 prop tor   4   7   8   9
  63 prop tor   4   7   8  24
  64 ben   4   7  12
  65 prop tor   4   7  12  11
  66 prop tor   4   7  12  27
  67 ben   5   4   7
  68 prop tor   5   4   7   8
  69 prop tor   5   4   7  12
  70 ben   5   6  23
  71 prop tor   6   1   2   3
  72 prop tor   6   1   2  20
  73 ben   6   1  19
  74 ben   6   5  22
  75 prop tor   7   4   5   6
  76 prop tor   7   4   5  22
  77 ben   7   8   9
  78 prop tor   7   8   9  10
  79 prop tor   7   8   9  25
  80 ben   7   8  24
  81 ben   7  12  11
  82 ben   7  12  27
  83 ben   8   7  12
  84 prop tor   8   7  12  11
  85 prop tor   8   7  12  27
  86 ben   8   9  10
  87 prop tor   8   9  10  11
  88 prop tor   8   9  10  13
  89 ben   8   9  25
  90 ben   9   8  24
  91 ben   9  10  11
  92 prop tor   9  10  11  12
  93 prop tor   9  10  11  26
  94 ben   9  10  13
  95 prop tor   9  10  13  14
  96 prop tor   9  10  13  18
  97 ben  10   9  25
  98 ben  10  11  12
  99 prop tor  10  11  12   7
 100 prop tor  10  11  12  27
 101 ben  10  11  26
 102 ben  10  13  14
 103 prop tor  10  13  14  15
 104 prop tor  10  13  14  28
 105 ben  10  13  18
 106 prop tor  10  13  18  17
 107 prop tor  10  13  18  32
 108 ben  11  10  13
 109 prop tor  11  10  13  14
 110 prop tor  11  10  13  18
 111 ben  11  12  27
 112 prop tor  12   7   8   9
 113 prop tor  12   7   8  24
 114 ben  12  11  26
 115 prop tor  13  10  11  12
 116 prop tor  13  10  11  26
 117 ben  13  14  15
 118 prop tor  13  14  15  16
 119 prop tor  13  14  15  29
 120 ben  13  14  28
 121 ben  13  18  17
 122 ben  13  18  32
 123 ben  14  13  18
 124 prop tor  14  13  18  17
 125 prop tor  14  13  18  32
 126 ben  14  15  16
 127 prop tor  14  15  16  17
 128 prop tor  14  15  16  30
 129 ben  14  15  29
 130 ben  15  14  28
 131 ben  15  16  17
 132 prop tor  15  16  17  18
 133 prop tor  15  16  17  31
 134 ben  15  16  30
 135 ben  16  15  29
 136 ben  16  17  18
 137 prop tor  16  17  18  13
 138 prop tor  16  17  18  32
 139 ben  16  17  31
 140 ben  17  16  30
 141 ben  17  18  32
 142 prop tor  18  13  14  15
 143 prop tor  18  13  14  28
 144 ben  18  17  31
 145 prop tor  19   1   2   3
 146 prop tor  19   1   2  20
 147 prop tor  19   1   6   5
 148 prop tor  19   1   6  23
 149 prop tor  20   2   3   4
 150 prop tor  20   2   3  21
 151 prop tor  21   3   4   5
 152 prop tor  21   3   4   7
 153 prop tor  22   5   6   1
 154 prop tor  22   5   6  23
 155 prop tor  24   8   9  10
 156 prop tor  24   8   9  25
 157 prop tor  25   9  10  11
 158 prop tor  25   9  10  13
 159 prop tor  26  11  12   7
 160 prop tor  26  11  12  27
 161 prop tor  28  14  15  16
 162 prop tor  28  14  15  29
 163 prop tor  29  15  16  17
 164 prop tor  29  15  16  30
 165 prop tor  30  16  17  18
 166 prop tor  30  16  17  31
 167 prop tor  31  17  18  13
 168 prop tor  31  17  18  32
 nber bend=              54
 nber lin bend=           0
 nber prop tor=          80
 nber impr tor=           0
 nber tot redund int=         168
 generating redundant internal coords
         300        3600          32
 search for int coords
   1 str   2   1   1.392
   2 str   3   2   1.390
   3 str   4   3   1.406
   4 str   5   4   1.406
   5 str   6   1   1.392
   6 str   6   5   1.390
   7 str   7   4   1.490
   8 str   8   7   1.404
   9 str   9   8   1.387
  10 str  10   9   1.404
  11 str  11  10   1.404
  12 str  12   7   1.404
  13 str  12  11   1.387
  14 str  13  10   1.490
  15 str  14  13   1.406
  16 str  15  14   1.390
  17 str  16  15   1.392
  18 str  17  16   1.392
  19 str  18  13   1.406
  20 str  18  17   1.390
  21 str  19   1   1.084
  22 str  20   2   1.084
  23 str  21   3   1.082
  24 str  22   5   1.082
  25 str  23   6   1.084
  26 str  24   8   1.082
  27 str  25   9   1.082
  28 str  26  11   1.082
  29 str  27  12   1.082
  30 str  28  14   1.082
  31 str  29  15   1.084
  32 str  30  16   1.084
  33 str  31  17   1.084
  34 str  32  18   1.082
 nber stretches=          34
  35 ben   1   2   3
  36 prop tor   1   2   3   4
  37 prop tor   1   2   3  21
  38 ben   1   2  20
  39 ben   1   6   5
  40 ben   1   6  23
  41 ben   2   1   6
  42 prop tor   2   1   6   5
  43 prop tor   2   1   6  23
  44 ben   2   1  19
  45 ben   2   3   4
  46 prop tor   2   3   4   5
  47 prop tor   2   3   4   7
  48 ben   2   3  21
  49 ben   3   2  20
  50 ben   3   4   5
  51 prop tor   3   4   5   6
  52 prop tor   3   4   5  22
  53 ben   3   4   7
  54 prop tor   3   4   7   8
  55 prop tor   3   4   7  12
  56 ben   4   3  21
  57 ben   4   5   6
  58 prop tor   4   5   6   1
  59 prop tor   4   5   6  23
  60 ben   4   5  22
  61 ben   4   7   8
  62 prop tor   4   7   8   9
  63 prop tor   4   7   8  24
  64 ben   4   7  12
  65 prop tor   4   7  12  11
  66 prop tor   4   7  12  27
  67 ben   5   4   7
  68 prop tor   5   4   7   8
  69 prop tor   5   4   7  12
  70 ben   5   6  23
  71 prop tor   6   1   2   3
  72 prop tor   6   1   2  20
  73 ben   6   1  19
  74 ben   6   5  22
  75 prop tor   7   4   5   6
  76 prop tor   7   4   5  22
  77 ben   7   8   9
  78 prop tor   7   8   9  10
  79 prop tor   7   8   9  25
  80 ben   7   8  24
  81 ben   7  12  11
  82 ben   7  12  27
  83 ben   8   7  12
  84 prop tor   8   7  12  11
  85 prop tor   8   7  12  27
  86 ben   8   9  10
  87 prop tor   8   9  10  11
  88 prop tor   8   9  10  13
  89 ben   8   9  25
  90 ben   9   8  24
  91 ben   9  10  11
  92 prop tor   9  10  11  12
  93 prop tor   9  10  11  26
  94 ben   9  10  13
  95 prop tor   9  10  13  14
  96 prop tor   9  10  13  18
  97 ben  10   9  25
  98 ben  10  11  12
  99 prop tor  10  11  12   7
 100 prop tor  10  11  12  27
 101 ben  10  11  26
 102 ben  10  13  14
 103 prop tor  10  13  14  15
 104 prop tor  10  13  14  28
 105 ben  10  13  18
 106 prop tor  10  13  18  17
 107 prop tor  10  13  18  32
 108 ben  11  10  13
 109 prop tor  11  10  13  14
 110 prop tor  11  10  13  18
 111 ben  11  12  27
 112 prop tor  12   7   8   9
 113 prop tor  12   7   8  24
 114 ben  12  11  26
 115 prop tor  13  10  11  12
 116 prop tor  13  10  11  26
 117 ben  13  14  15
 118 prop tor  13  14  15  16
 119 prop tor  13  14  15  29
 120 ben  13  14  28
 121 ben  13  18  17
 122 ben  13  18  32
 123 ben  14  13  18
 124 prop tor  14  13  18  17
 125 prop tor  14  13  18  32
 126 ben  14  15  16
 127 prop tor  14  15  16  17
 128 prop tor  14  15  16  30
 129 ben  14  15  29
 130 ben  15  14  28
 131 ben  15  16  17
 132 prop tor  15  16  17  18
 133 prop tor  15  16  17  31
 134 ben  15  16  30
 135 ben  16  15  29
 136 ben  16  17  18
 137 prop tor  16  17  18  13
 138 prop tor  16  17  18  32
 139 ben  16  17  31
 140 ben  17  16  30
 141 ben  17  18  32
 142 prop tor  18  13  14  15
 143 prop tor  18  13  14  28
 144 ben  18  17  31
 145 prop tor  19   1   2   3
 146 prop tor  19   1   2  20
 147 prop tor  19   1   6   5
 148 prop tor  19   1   6  23
 149 prop tor  20   2   3   4
 150 prop tor  20   2   3  21
 151 prop tor  21   3   4   5
 152 prop tor  21   3   4   7
 153 prop tor  22   5   6   1
 154 prop tor  22   5   6  23
 155 prop tor  24   8   9  10
 156 prop tor  24   8   9  25
 157 prop tor  25   9  10  11
 158 prop tor  25   9  10  13
 159 prop tor  26  11  12   7
 160 prop tor  26  11  12  27
 161 prop tor  28  14  15  16
 162 prop tor  28  14  15  29
 163 prop tor  29  15  16  17
 164 prop tor  29  15  16  30
 165 prop tor  30  16  17  18
 166 prop tor  30  16  17  31
 167 prop tor  31  17  18  13
 168 prop tor  31  17  18  32
 nber bend=              54
 nber lin bend=           0
 nber prop tor=          80
 nber impr tor=           0
 nber tot redund int=         168
 Eigenvalues of G in red int coords
    Gval -0.00000000 -0.00000000 -0.00000000 -0.00000000 -0.00000000 -0.00000000 -0.00000000 -0.00000000
    Gval -0.00000000 -0.00000000 -0.00000000 -0.00000000 -0.00000000 -0.00000000 -0.00000000 -0.00000000
    Gval -0.00000000 -0.00000000 -0.00000000 -0.00000000 -0.00000000 -0.00000000 -0.00000000 -0.00000000
    Gval -0.00000000 -0.00000000 -0.00000000 -0.00000000 -0.00000000 -0.00000000 -0.00000000 -0.00000000
    Gval -0.00000000 -0.00000000 -0.00000000 -0.00000000 -0.00000000  0.00000000  0.00000000  0.00000000
    Gval  0.00000000  0.00000000  0.00000000  0.00000000  0.00000000  0.00000000  0.00000000  0.00000000
    Gval  0.00000000  0.00000000  0.00000000  0.00000000  0.00000000  0.00000000  0.00000000  0.00000000
    Gval  0.00000000  0.00000000  0.00000000  0.00000000  0.00000000  0.00000000  0.00000000  0.00000000
    Gval  0.00000000  0.00000000  0.00000000  0.00000000  0.00000000  0.00000000  0.00000000  0.00000000
    Gval  0.00000000  0.00000000  0.00000000  0.00000000  0.00000000  0.00000000  0.00000137  0.00000359
    Gval  0.00000637  0.00000718  0.00001278  0.00002167  0.00002192  0.00002924  0.00004270  0.00004727
    Gval  0.00005048  0.00005100  0.00005781  0.00005782  0.00006142  0.00006151  0.00007102  0.00007425
    Gval  0.00008219  0.00009860  0.00010959  0.00011526  0.00011928  0.00012143  0.00012494  0.00013139
    Gval  0.00013892  0.00017997  0.00024014  0.00025954  0.00026768  0.00028440  0.00029527  0.00033216
    Gval  0.00035726  0.00036922  0.00038924  0.00040123  0.00042782  0.00052793  0.00054995  0.00059308
    Gval  0.00059308  0.00059338  0.00059349  0.00059746  0.00059976  0.00060406  0.00060407  0.00060930
    Gval  0.00061926  0.00062189  0.00062527  0.00064105  0.00065012  0.00066096  0.00066117  0.00080483
    Gval  0.00101730  0.00104133  0.00104147  0.00108029  0.00110964  0.00111091  0.00111233  0.00113890
    Gval  0.00113898  0.00115108  0.00116833  0.00116998  0.00117028  0.00117305  0.00117305  0.00142713
    Gval  0.00143381  0.00157729  0.00176893  0.00200334  0.00234483  0.00235174  0.00236676  0.00254178
    Gval  0.00311688  0.00316551  0.00360365  0.00366894  0.00370762  0.00370993  0.00406679  0.00406718
  1.365411421178540E-006  1.365411421178540E-006
  3.590509860629184E-006  1.365411421178540E-006
  6.365422774871356E-006  1.365411421178540E-006
  7.181223112963586E-006  1.365411421178540E-006
  1.277631404291862E-005  1.365411421178540E-006
  2.166539914217618E-005  1.365411421178540E-006
  2.191800896769556E-005  1.365411421178540E-006
  2.923613952055717E-005  1.365411421178540E-006
  4.270456951997139E-005  1.365411421178540E-006
  4.726892074231945E-005  1.365411421178540E-006
  5.048491995581358E-005  1.365411421178540E-006
  5.100471071397947E-005  1.365411421178540E-006
  5.781270694309765E-005  1.365411421178540E-006
  5.782495899288858E-005  1.365411421178540E-006
  6.141552393095250E-005  1.365411421178540E-006
  6.150643148859383E-005  1.365411421178540E-006
  7.101926818942927E-005  1.365411421178540E-006
  7.425238622103625E-005  1.365411421178540E-006
  8.219129277925486E-005  1.365411421178540E-006
  9.859769900275676E-005  1.365411421178540E-006
  1.095876429588862E-004  1.365411421178540E-006
  1.152591639448433E-004  1.365411421178540E-006
  1.192813627479153E-004  1.365411421178540E-006
  1.214272766722536E-004  1.365411421178540E-006
  1.249369001983335E-004  1.365411421178540E-006
  1.313890234524161E-004  1.365411421178540E-006
[...]
  25 Ag    626. -0.9984    99.7    98.6  26 Ag    616.
  26 B3g   629.  0.9633    92.8    99.5  25 B3g   607.
  27 B2u   636. -0.9987    99.7    99.6  27 B2u   616.
  28 B3g   664.  0.9630    92.7    99.5  28 B3g   635.
  29 B2g   693. -0.9240    85.4    99.3  29 B2g   673.
                -0.3335    11.1          32 B2g   734.
  30 B3u   697.  0.9426    88.8    99.5  30 B3u   673.
  31 B1u   711.  0.9952    99.0    99.8  31 B1u   708.
  32 B2g   729.  0.3359    11.3    98.5  29 B2g   673.
                -0.9357    87.6          32 B2g   734.
  33 B3u   764. -0.9161    83.9    98.7  33 B3u   758.
  34 Ag    791.  0.9916    98.3    99.6  34 Ag    777.
  35 B2g   793.  0.9899    98.0    99.1  35 B2g   810.
  36 B1g   805.  0.6541    42.8    98.6  36 B1g   812.
                -0.7475    55.9          38 B1g   847.
  37 Au    834. -0.9897    98.0    99.1  39 Au    848.
  38 B1g   848.  0.7553    57.1    99.0  36 B1g   812.
                 0.6554    42.9          38 B1g   847.
  39 B3u   853.  0.9131    83.4    98.9  37 B3u   843.
  40 B3u   919.  0.9485    90.0    99.0  41 B3u   952.
  41 B2g   919. -0.9905    98.1    99.0  42 B2g   974.
  42 Au    946. -0.5150    26.5    97.8  48 Au   1020.
                 0.8464    71.6          55 Au   1102.
  43 B2g   955.  0.7150    51.1    97.1  46 B2g  1010.
                 0.6846    46.9          50 B2g  1027.
  44 B1g   970. -0.9942    98.8    99.5  49 B1g  1020.
  45 Au    975.  0.8490    72.1    99.0  48 Au   1020.
                 0.5258    27.6          55 Au   1102.
  46 B3u   997.  0.9397    88.3    99.2  47 B3u  1013.
  47 B2g   998. -0.6943    48.2    99.2  46 B2g  1010.
                 0.7229    52.3          50 B2g  1027.
  48 Ag   1011. -0.9727    94.6   100.2  44 Ag    988.
  49 B1u  1015. -0.4559    20.8   100.1  40 B1u   912.
                -0.8360    69.9          43 B1u   980.
  50 B1u  1019.  0.8057    64.9   100.1  40 B1u   912.
                -0.4560    20.8          43 B1u   980.
  51 Ag   1024.  0.9800    96.0    99.7  45 Ag   1004.
  52 B1u  1053. -0.8983    80.7    99.7  51 B1u  1030.
  53 B1u  1065.  0.9314    86.8    98.8  53 B1u  1049.
  54 Ag   1065. -0.9673    93.6    99.4  52 Ag   1043.
  55 B2u  1111.  0.7397    54.7    99.1  54 B2u  1090.
                 0.6655    44.3          57 B2u  1125.
  56 B3g  1113.  0.9938    98.8    99.2  56 B3g  1113.
  57 B2u  1164.  0.5884    34.6    97.8  54 B2u  1090.
                -0.7047    49.7          57 B2u  1125.
                -0.3331    11.1          61 B2u  1177.
  58 B3g  1185.  0.9938    98.8    99.5  60 B3g  1176.
  59 B2u  1190. -0.9370    87.8    99.2  61 B2u  1177.
  60 Ag   1207.  0.9206    84.8    98.6  58 Ag   1138.
                 0.3476    12.1          62 Ag   1250.
  61 B1u  1220.  0.9446    89.2    99.2  59 B1u  1168.
  62 Ag   1253. -0.9098    82.8    97.8  62 Ag   1250.
  63 Ag   1287. -0.9648    93.1    99.6  67 Ag   1342.
  64 B2u  1292. -0.9209    84.8    99.6  63 B2u  1278.
  65 B1u  1302. -0.9730    94.7    98.6  65 B1u  1328.
  66 B3g  1308. -0.7972    63.6    99.6  64 B3g  1279.
                 0.4417    19.5          66 B3g  1337.
                 0.3578    12.8          69 B3g  1369.
  67 B2u  1321. -0.9237    85.3   100.1  68 B2u  1350.
  68 B3g  1351. -0.8531    72.8    98.3  66 B3g  1337.
                 0.4066    16.5          69 B3g  1369.
  69 B3g  1367.  0.4364    19.0    98.8  64 B3g  1279.
                 0.8314    69.1          69 B3g  1369.
  70 B2u  1374.  0.9626    92.7    99.0  70 B2u  1377.
  71 B2u  1438.  0.7533    56.8    98.8  71 B2u  1459.
                -0.4807    23.1          74 B2u  1495.
  72 B3g  1472.  0.9493    90.1    99.4  72 B3g  1462.
  73 B2u  1489. -0.5266    27.7    99.4  71 B2u  1459.
                -0.8105    65.7          74 B2u  1495.
  74 B1u  1518. -0.9514    90.5    99.1  73 B1u  1483.
  75 Ag   1535.  0.9935    98.7    99.5  76 Ag   1526.
  76 B1u  1568.  0.9219    85.0    98.6  77 B1u  1533.
  77 B3g  1594. -0.8196    67.2    99.8  75 B3g  1507.
                -0.4409    19.4          79 B3g  1581.
  78 B2u  1621. -0.9644    93.0   100.2  78 B2u  1580.
  79 B3g  1625. -0.4706    22.1   100.4  75 B3g  1507.
                 0.8721    76.1          79 B3g  1581.
  80 Ag   1638. -0.9558    91.4    99.2  82 Ag   1641.
  81 B1u  1645. -0.9639    92.9    99.4  80 B1u  1603.
  82 Ag   1656. -0.9493    90.1    99.1  81 Ag   1622.
  83 B1u  3161. -0.9522    90.7   100.0  93 B1u  3121.
  84 Ag   3162. -0.9116    83.1   100.0  94 Ag   3124.
  85 B3g  3169. -0.9584    91.8   100.0  96 B3g  3131.
  86 B2u  3170.  0.9776    95.6   100.0  95 B2u  3131.
  87 B1u  3181.  0.7308    53.4   100.0  87 B1u  2911.
                 0.5657    32.0          91 B1u  3097.
  88 B3g  3184.  0.6931    48.0   100.0  86 B3g  2899.
                -0.6668    44.5          88 B3g  3006.
  89 Ag   3185. -0.4715    22.2   100.0  90 Ag   3039.
                -0.8592    73.8          92 Ag   3115.
  90 B1u  3188. -0.5963    35.6   100.0  87 B1u  2911.
                 0.7805    60.9          91 B1u  3097.
  91 B2u  3193.  0.9326    87.0   100.0  89 B2u  3008.
  92 Ag   3196.  0.7875    62.0   100.0  85 Ag   2785.
                -0.4318    18.6          90 Ag   3039.
                 0.3327    11.1          92 Ag   3115.
  93 B3g  3204. -0.7076    50.1   100.0  86 B3g  2899.
                -0.7008    49.1          88 B3g  3006.
  94 B1u  3205.  0.9443    89.2   100.0  84 B1u  2593.
  95 B2u  3210.  0.9457    89.4   100.0  83 B2u  2546.
  96 Ag   3213.  0.5893    34.7   100.0  85 Ag   2785.
                 0.7161    51.3          90 Ag   3039.
 nber times 1st assigned=           1           0
 nber times 1st assigned=           2           0
 nber times 1st assigned=           3           0
 nber times 1st assigned=           4           0
 nber times 1st assigned=           5           0
 nber times 1st assigned=           6           0
 nber times 1st assigned=           7           0
 nber times 1st assigned=           8           0
 nber times 1st assigned=           9           0
 nber times 1st assigned=          10           0
 nber times 1st assigned=          11           0
 nber times 1st assigned=          12           0
 nber times 1st assigned=          13           0
 nber times 1st assigned=          14           0
 nber times 1st assigned=          15           0
 nber times 1st assigned=          16           0
 nber times 1st assigned=          17           0
 nber times 1st assigned=          18           0
 nber times 1st assigned=          19           0
 nber times 1st assigned=          20           0
 nber times 1st assigned=          21           0
 nber times 1st assigned=          22           0
 nber times 1st assigned=          23           0
 nber times 1st assigned=          24           0
 nber times 1st assigned=          25           0
 nber times 1st assigned=          26           0
 nber times 1st assigned=          27           0
 nber times 1st assigned=          28           0
 nber times 1st assigned=          29           0
 nber times 1st assigned=          30           0
 nber times 1st assigned=          31           0
 nber times 1st assigned=          32           0
 nber times 1st assigned=          33           0
 nber times 1st assigned=          34           0
 nber times 1st assigned=          35           0
 nber times 1st assigned=          36           0
 nber times 1st assigned=          37           0
 nber times 1st assigned=          38           0
 nber times 1st assigned=          39           0
 nber times 1st assigned=          40           0
 nber times 1st assigned=          41           0
 nber times 1st assigned=          42           0
 nber times 1st assigned=          43           0
 nber times 1st assigned=          44           0
 nber times 1st assigned=          45           0
 nber times 1st assigned=          46           0
 nber times 1st assigned=          47           0
 nber times 1st assigned=          48           0
 nber times 1st assigned=          49           0
 nber times 1st assigned=          50           0
 nber times 1st assigned=          51           0
 nber times 1st assigned=          52           0
 nber times 1st assigned=          53           0
 nber times 1st assigned=          54           0
 nber times 1st assigned=          55           0
 nber times 1st assigned=          56           0
 nber times 1st assigned=          57           0
 nber times 1st assigned=          58           0
 nber times 1st assigned=          59           0
 nber times 1st assigned=          60           0
 nber times 1st assigned=          61           0
 nber times 1st assigned=          62           0
 nber times 1st assigned=          63           0
 nber times 1st assigned=          64           0
 nber times 1st assigned=          65           0
 nber times 1st assigned=          66           0
 nber times 1st assigned=          67           0
 nber times 1st assigned=          68           0
 nber times 1st assigned=          69           0
 nber times 1st assigned=          70           0
 nber times 1st assigned=          71           0
 nber times 1st assigned=          72           0
 nber times 1st assigned=          73           0
 nber times 1st assigned=          74           0
 nber times 1st assigned=          75           0
 nber times 1st assigned=          76           0
 nber times 1st assigned=          77           0
 nber times 1st assigned=          78           0
 nber times 1st assigned=          79           0
 nber times 1st assigned=          80           0
 nber times 1st assigned=          81           0
 nber times 1st assigned=          82           0
 nber times 1st assigned=          83           0
 nber times 1st assigned=          84           0
 nber times 1st assigned=          85           0
 nber times 1st assigned=          86           0
 nber times 1st assigned=          87           0
 nber times 1st assigned=          88           0
 nber times 1st assigned=          89           0
 nber times 1st assigned=          90           0
 nber times 1st assigned=          91           0
 nber times 1st assigned=          92           0
 nber times 1st assigned=          93           0
 nber times 1st assigned=          94           0
 nber times 1st assigned=          95           0
 nber times 1st assigned=          96           0
 modes represented=   89.5277623185600     
 p1=
   -0.    0.    0.    0.    0.   -0.    0.   -0.   -0.    0.   -0.    0.   -0.  -28.   -0.    0.   -0.    0.    0.    0.
   -0.   -0.    0.   -0.    1.   -0.   -0.    0.   -0.   -0.    0.   -0.    0.    5.   -0.   -0.   -0.   -0.   -0.    0.
    0.    0.    0.    0.    0.    0.   -0.   -2.   -0.   -0.    3.    0.    0.   -2.   -0.   -0.   -0.    0.    0.   -1.
   -0.   -6.    1.   -0.   -0.    0.    0.    0.   -0.   -0.    0.   -0.   -0.    0.   -1.    0.    0.    0.   -0.   -2.
   -0.   -1.   -0.   -0.    0.    0.   -0.    0.    0.   -0.   -0.    0.   -0.   -0.    0.    2.
 p2=
   -0.    0.    0.    0.    0.   -0.    0.    0.   -0.   -0.   -0.    0.   -0.  -28.   -0.    0.    0.    0.   -0.   -0.
   -0.   -0.   -0.    0.    0.    1.    0.   -0.    0.   -0.    0.   -0.    0.   -5.    0.    0.    0.   -0.   -0.   -0.
   -0.    0.    0.   -1.   -3.   -0.   -0.   -0.    0.   -0.   -0.   -2.    0.   -0.   -0.    0.   -0.    2.    0.   -0.
    0.   -4.    0.   -0.   -0.   -0.    2.    0.   -0.   -0.   -0.   -0.    0.    0.    0.    1.   -0.   -0.    0.    0.
   -0.   -3.   -0.   -0.   -1.    0.   -0.   -0.    0.   -1.   -0.    1.   -0.    0.    0.   -0.

 Displacement: in terms of nc of 1 THEN of nc of 2

   1 B1g freq=   -99. Q= -0.000 lam=    -0.0 B3u freq=  -219. Q= -0.000 lam=    -0.0
   2 Au  freq=   -58. Q=  0.000 lam=    -0.0 B2u freq=    -0. Q=  0.000 lam=    -0.0
   3 B1u freq=    -0. Q=  0.000 lam=    -0.0 B1g freq=    -0. Q=  0.000 lam=    -0.0
   4 B3g freq=    -0. Q=  0.000 lam=    -0.0 B3u freq=    -0. Q=  0.000 lam=    -0.0
   5 B1g freq=    -0. Q=  0.000 lam=    -0.0 B2g freq=    -0. Q=  0.000 lam=    -0.0
   6 B3u freq=    -0. Q= -0.000 lam=    -0.0 B3g freq=     0. Q= -0.000 lam=     0.0
   7 B2g freq=     0. Q=  0.000 lam=     0.0 B1u freq=     0. Q=  0.000 lam=     0.0
   8 B2u freq=     0. Q= -0.000 lam=     0.0 Au  freq=    37. Q= -0.000 lam=     0.0
   9 B3u freq=    38. Q= -0.000 lam=     0.0 B3u freq=    47. Q= -0.000 lam=     0.0
  10 B2u freq=    98. Q=  0.000 lam=     0.0 B1g freq=    59. Q=  0.000 lam=     0.0
  11 B2g freq=   114. Q= -0.000 lam=     0.0 B2u freq=    96. Q= -0.000 lam=     0.0
  12 B3u freq=   187. Q=  0.000 lam=     0.0 B2g freq=   103. Q=  0.000 lam=     0.0
  13 B3g freq=   216. Q= -0.000 lam=     0.0 B3g freq=   216. Q= -0.000 lam=     0.0
  14 Ag  freq=   229. Q= -1.694 lam=   329.1 Ag  freq=   230. Q= -1.717 lam=   338.7
  15 B2g freq=   309. Q= -0.000 lam=     0.0 B2g freq=   287. Q= -0.000 lam=     0.0
  16 B2u freq=   382. Q=  0.000 lam=     0.0 B3u freq=   357. Q=  0.000 lam=     0.0
  17 Au  freq=   385. Q= -0.000 lam=     0.0 B2u freq=   391. Q= -0.000 lam=     0.0
  18 B1g freq=   404. Q=  0.000 lam=     0.0 Au  freq=   393. Q=  0.000 lam=     0.0
  19 Au  freq=   416. Q=  0.000 lam=     0.0 Au  freq=   401. Q=  0.000 lam=     0.0
  20 B1u freq=   433. Q=  0.000 lam=     0.0 B1g freq=   401. Q=  0.000 lam=     0.0
  21 B3u freq=   454. Q= -0.000 lam=     0.0 B1u freq=   403. Q= -0.000 lam=     0.0
  22 B3g freq=   461. Q= -0.000 lam=     0.0 B3u freq=   457. Q= -0.000 lam=     0.0
  23 B2g freq=   528. Q=  0.000 lam=     0.0 B3g freq=   476. Q=  0.000 lam=     0.0
  24 B3u freq=   558. Q= -0.000 lam=     0.0 B2g freq=   513. Q= -0.000 lam=     0.0
  25 Ag  freq=   626. Q=  0.142 lam=     6.3 B3g freq=   607. Q=  0.000 lam=     0.0
  26 B3g freq=   629. Q= -0.000 lam=     0.0 Ag  freq=   616. Q= -0.123 lam=     4.6
  27 B2u freq=   636. Q= -0.000 lam=     0.0 B2u freq=   616. Q= -0.000 lam=     0.0
  28 B3g freq=   664. Q=  0.000 lam=     0.0 B3g freq=   635. Q=  0.000 lam=     0.0
  29 B2g freq=   693. Q= -0.000 lam=     0.0 B2g freq=   673. Q= -0.000 lam=     0.0
  30 B3u freq=   697. Q= -0.000 lam=     0.0 B3u freq=   673. Q= -0.000 lam=     0.0
  31 B1u freq=   711. Q=  0.000 lam=     0.0 B1u freq=   708. Q=  0.000 lam=     0.0
  32 B2g freq=   729. Q= -0.000 lam=     0.0 B2g freq=   734. Q= -0.000 lam=     0.0
  33 B3u freq=   764. Q=  0.000 lam=     0.0 B3u freq=   758. Q=  0.000 lam=     0.0
  34 Ag  freq=   791. Q=  0.541 lam=   115.5 Ag  freq=   777. Q=  0.575 lam=   128.5
  35 B2g freq=   793. Q= -0.000 lam=     0.0 B2g freq=   810. Q= -0.000 lam=     0.0
  36 B1g freq=   805. Q= -0.000 lam=     0.0 B1g freq=   812. Q= -0.000 lam=     0.0
  37 Au  freq=   834. Q= -0.000 lam=     0.0 B3u freq=   843. Q= -0.000 lam=     0.0
  38 B1g freq=   848. Q= -0.000 lam=     0.0 B1g freq=   847. Q= -0.000 lam=     0.0
  39 B3u freq=   853. Q= -0.000 lam=     0.0 Au  freq=   848. Q= -0.000 lam=     0.0
  40 B3u freq=   919. Q=  0.000 lam=     0.0 B1u freq=   912. Q=  0.000 lam=     0.0
  41 B2g freq=   919. Q=  0.000 lam=     0.0 B3u freq=   952. Q=  0.000 lam=     0.0
  42 Au  freq=   946. Q=  0.000 lam=     0.0 B2g freq=   974. Q=  0.000 lam=     0.0
  43 B2g freq=   955. Q=  0.000 lam=     0.0 B1u freq=   980. Q=  0.000 lam=     0.0
  44 B1g freq=   970. Q=  0.000 lam=     0.0 Ag  freq=   988. Q=  0.091 lam=     4.1
  45 Au  freq=   975. Q=  0.000 lam=     0.0 Ag  freq=  1004. Q=  0.412 lam=    85.3
  46 B3u freq=   997. Q=  0.000 lam=     0.0 B2g freq=  1010. Q=  0.000 lam=     0.0
  47 B2g freq=   998. Q= -0.000 lam=     0.0 B3u freq=  1013. Q= -0.000 lam=     0.0
  48 Ag  freq=  1011. Q= -0.201 lam=    20.4 Au  freq=  1020. Q= -0.000 lam=     0.0
  49 B1u freq=  1015. Q= -0.000 lam=     0.0 B1g freq=  1020. Q= -0.000 lam=     0.0
  50 B1u freq=  1019. Q= -0.000 lam=     0.0 B2g freq=  1027. Q= -0.000 lam=     0.0
  51 Ag  freq=  1024. Q=  0.392 lam=    78.8 B1u freq=  1030. Q=  0.000 lam=     0.0
  52 B1u freq=  1053. Q=  0.000 lam=     0.0 Ag  freq=  1043. Q=  0.260 lam=    35.2
  53 B1u freq=  1065. Q=  0.000 lam=     0.0 B1u freq=  1049. Q=  0.000 lam=     0.0
  54 Ag  freq=  1065. Q= -0.213 lam=    24.1 B2u freq=  1090. Q= -0.000 lam=     0.0
  55 B2u freq=  1111. Q= -0.000 lam=     0.0 Au  freq=  1102. Q= -0.000 lam=     0.0
  56 B3g freq=  1113. Q= -0.000 lam=     0.0 B3g freq=  1113. Q= -0.000 lam=     0.0
  57 B2u freq=  1164. Q= -0.000 lam=     0.0 B2u freq=  1125. Q= -0.000 lam=     0.0
  58 B3g freq=  1185. Q=  0.000 lam=     0.0 Ag  freq=  1138. Q=  0.227 lam=    29.3
  59 B2u freq=  1190. Q=  0.000 lam=     0.0 B1u freq=  1168. Q=  0.000 lam=     0.0
  60 Ag  freq=  1207. Q= -0.113 lam=     7.7 B3g freq=  1176. Q= -0.000 lam=     0.0
  61 B1u freq=  1220. Q= -0.000 lam=     0.0 B2u freq=  1177. Q= -0.000 lam=     0.0
  62 Ag  freq=  1253. Q= -0.862 lam=   466.0 Ag  freq=  1250. Q= -0.626 lam=   244.9
  63 Ag  freq=  1287. Q=  0.147 lam=    14.0 B2u freq=  1278. Q=  0.000 lam=     0.0
  64 B2u freq=  1292. Q= -0.000 lam=     0.0 B3g freq=  1279. Q= -0.000 lam=     0.0
  65 B1u freq=  1302. Q= -0.000 lam=     0.0 B1u freq=  1328. Q= -0.000 lam=     0.0
  66 B3g freq=  1308. Q=  0.000 lam=     0.0 B3g freq=  1337. Q=  0.000 lam=     0.0
  67 B2u freq=  1321. Q=  0.000 lam=     0.0 Ag  freq=  1342. Q=  0.342 lam=    78.7
  68 B3g freq=  1351. Q=  0.000 lam=     0.0 B2u freq=  1350. Q=  0.000 lam=     0.0
  69 B3g freq=  1367. Q= -0.000 lam=     0.0 B3g freq=  1369. Q= -0.000 lam=     0.0
  70 B2u freq=  1374. Q= -0.000 lam=     0.0 B2u freq=  1377. Q= -0.000 lam=     0.0
  71 B2u freq=  1438. Q=  0.000 lam=     0.0 B2u freq=  1459. Q=  0.000 lam=     0.0
  72 B3g freq=  1472. Q= -0.000 lam=     0.0 B3g freq=  1462. Q= -0.000 lam=     0.0
  73 B2u freq=  1489. Q= -0.000 lam=     0.0 B1u freq=  1483. Q= -0.000 lam=     0.0
  74 B1u freq=  1518. Q=  0.000 lam=     0.0 B2u freq=  1495. Q=  0.000 lam=     0.0
  75 Ag  freq=  1535. Q= -0.155 lam=    18.3 B3g freq=  1507. Q= -0.000 lam=     0.0
  76 B1u freq=  1568. Q=  0.000 lam=     0.0 Ag  freq=  1526. Q=  0.174 lam=    23.1
  77 B3g freq=  1594. Q=  0.000 lam=     0.0 B1u freq=  1533. Q=  0.000 lam=     0.0
  78 B2u freq=  1621. Q=  0.000 lam=     0.0 B2u freq=  1580. Q=  0.000 lam=     0.0
  79 B3g freq=  1625. Q= -0.000 lam=     0.0 B3g freq=  1581. Q= -0.000 lam=     0.0
  80 Ag  freq=  1638. Q= -0.394 lam=   127.3 B1u freq=  1603. Q= -0.000 lam=     0.0
  81 B1u freq=  1645. Q= -0.000 lam=     0.0 Ag  freq=  1622. Q= -0.074 lam=     4.4
  82 Ag  freq=  1656. Q= -0.153 lam=    19.5 Ag  freq=  1641. Q= -0.509 lam=   212.6
  83 B1u freq=  3161. Q= -0.000 lam=     0.0 B2u freq=  2546. Q= -0.000 lam=     0.0
  84 Ag  freq=  3162. Q= -0.020 lam=     0.6 B1u freq=  2593. Q= -0.000 lam=     0.0
  85 B3g freq=  3169. Q=  0.000 lam=     0.0 Ag  freq=  2785. Q=  0.198 lam=    54.6
  86 B2u freq=  3170. Q=  0.000 lam=     0.0 B3g freq=  2899. Q=  0.000 lam=     0.0
  87 B1u freq=  3181. Q= -0.000 lam=     0.0 B1u freq=  2911. Q= -0.000 lam=     0.0
  88 B3g freq=  3184. Q=  0.000 lam=     0.0 B3g freq=  3006. Q=  0.000 lam=     0.0
  89 Ag  freq=  3185. Q=  0.035 lam=     1.9 B2u freq=  3008. Q=  0.000 lam=     0.0
  90 B1u freq=  3188. Q= -0.000 lam=     0.0 Ag  freq=  3039. Q= -0.236 lam=    84.3
  91 B2u freq=  3193. Q= -0.000 lam=     0.0 B1u freq=  3097. Q= -0.000 lam=     0.0
  92 Ag  freq=  3196. Q=  0.038 lam=     2.4 Ag  freq=  3115. Q=  0.128 lam=    25.6
  93 B3g freq=  3204. Q= -0.000 lam=     0.0 B1u freq=  3121. Q= -0.000 lam=     0.0
  94 B1u freq=  3205. Q= -0.000 lam=     0.0 Ag  freq=  3124. Q= -0.087 lam=    11.8
  95 B2u freq=  3210. Q=  0.000 lam=     0.0 B2u freq=  3131. Q=  0.000 lam=     0.0
  96 Ag  freq=  3213. Q=  0.390 lam=   244.1 B3g freq=  3131. Q=  0.000 lam=     0.0

 total reorg energy (cm**-1, kcal/mol)=     1476.     1366.      4.22      3.90
 Nber of molecules processed=           2
