 Enter ifcurve (0=recti, 1=orth curvi, 2=apprx curvi, -1 = skip
 And atom ordering flag, 0= never changes, 1= use the first order thenceforth,
  2= deduce it (does read on fail), 3= always read it
 Reading file: 
 ./PDI_2_C1S0.log                                                               
                                          
  Entering Gaussian System, Link 0=g16                                          
  
 Gaussian format, type: g94, g98, g03= F F F
  #P Geom=AllCheck Guess=TCheck SCRF=Check GenChk UB3LYP/6-311G(d,p) Fre    
 energy type= B3LYP   
 Original G94 input coords:
  6  1.069012  0.401608 -0.039151
  6  2.571588  0.116031  0.021734
  6  3.153976  0.151428  1.436828
  7  2.914745 -1.175944 -0.681630
  6  2.416221 -2.378494 -0.183814
  8  1.710433 -2.436348  0.801390
  6  2.780332 -3.636855 -0.911332
  6  2.295160 -4.851660 -0.436182
  6  2.616568 -6.032549 -1.089266
  6  3.433714 -6.052357 -2.241061
  6  3.777189 -7.278447 -2.932161
  6  3.319514 -8.543597 -2.504405
  6  3.655285 -9.711246 -3.174332
  6  4.465793 -9.659725 -4.303779
  6  4.809097-10.937640 -5.002835
  8  4.389178-11.997855 -4.592962
  7  5.624714-10.838704 -6.131616
  6  5.991589-12.070628 -6.856074
  6  6.129937 -9.641905 -6.637564
  8  6.834860 -9.617362 -7.623156
  6  5.766842 -8.385719 -5.914325
  6  6.251483 -7.171265 -6.388577
  6  5.928607 -5.990908 -5.734819
  6  5.111015 -5.973619 -4.583892
  6  4.766991 -4.747614 -3.892657
  6  5.223399 -3.481046 -4.319197
  6  4.886991 -2.314226 -3.648463
  6  4.076520 -2.367735 -2.518216
  6  3.730695 -1.091556 -1.815480
  8  4.157898 -0.037989 -2.237957
  6  3.598451 -3.608973 -2.056980
  6  3.936310 -4.814600 -2.736838
  6  4.608465 -7.212353 -4.088457
  6  4.946646 -8.418405 -4.768209
  1  0.891381  1.410738  0.339490
  1  0.494839 -0.297424  0.567600
  1  0.704191  0.366508 -1.068659
  1  3.086020  0.862794 -0.578449
  1  2.660924 -0.558325  2.099889
  1  3.015453  1.155228  1.844807
  1  4.227088 -0.054714  1.424897
  1  1.667867 -4.851676  0.446008
  1  2.220460 -6.955463 -0.689673
  1  2.687892 -8.625132 -1.631096
  1  3.296978-10.674675 -2.834747
  1  5.524208-12.907646 -6.347990
  1  7.075436-12.181687 -6.859202
  1  5.642389-12.004354 -7.885945
  1  6.879583 -7.170184 -7.270367
  1  6.324022 -5.067197 -6.133129
  1  5.854767 -3.398015 -5.192586
  1  5.244365 -1.350343 -3.987393
 nber atoms=          52
  SCF Done:  E(UB3LYP) =  -1488.45423598     A.U. after    1 cycles             
  
          23          40 "  -1488.45423598"
After scan for Atom:   Atom  AN      X      Y      Z        X      Y      Z        X      Y      Z   
After scan for Atom:   Atom  AN      X      Y      Z        X      Y      Z        X      Y      Z   
After scan for Atom:   Atom  AN      X      Y      Z        X      Y      Z        X      Y      Z   
After scan for Atom:   Atom  AN      X      Y      Z        X      Y      Z        X      Y      Z   
After scan for Atom:   Atom  AN      X      Y      Z        X      Y      Z        X      Y      Z   
After scan for Atom:   Atom  AN      X      Y      Z        X      Y      Z        X      Y      Z   
After scan for Atom:   Atom  AN      X      Y      Z        X      Y      Z        X      Y      Z   
After scan for Atom:   Atom  AN      X      Y      Z        X      Y      Z        X      Y      Z   
After scan for Atom:   Atom  AN      X      Y      Z        X      Y      Z        X      Y      Z   
After scan for Atom:   Atom  AN      X      Y      Z        X      Y      Z        X      Y      Z   
After scan for Atom:   Atom  AN      X      Y      Z        X      Y      Z        X      Y      Z   
After scan for Atom:   Atom  AN      X      Y      Z        X      Y      Z        X      Y      Z   
After scan for Atom:   Atom  AN      X      Y      Z        X      Y      Z        X      Y      Z   
After scan for Atom:   Atom  AN      X      Y      Z        X      Y      Z        X      Y      Z   
After scan for Atom:   Atom  AN      X      Y      Z        X      Y      Z        X      Y      Z   
After scan for Atom:   Atom  AN      X      Y      Z        X      Y      Z        X      Y      Z   
After scan for Atom:   Atom  AN      X      Y      Z        X      Y      Z        X      Y      Z   
After scan for Atom:   Atom  AN      X      Y      Z        X      Y      Z        X      Y      Z   
After scan for Atom:   Atom  AN      X      Y      Z        X      Y      Z        X      Y      Z   
After scan for Atom:   Atom  AN      X      Y      Z        X      Y      Z        X      Y      Z   
After scan for Atom:   Atom  AN      X      Y      Z        X      Y      Z        X      Y      Z   
After scan for Atom:   Atom  AN      X      Y      Z        X      Y      Z        X      Y      Z   
After scan for Atom:   Atom  AN      X      Y      Z        X      Y      Z        X      Y      Z   
After scan for Atom:   Atom  AN      X      Y      Z        X      Y      Z        X      Y      Z   
After scan for Atom:   Atom  AN      X      Y      Z        X      Y      Z        X      Y      Z   
After scan for Atom:   Atom  AN      X      Y      Z        X      Y      Z        X      Y      Z   
After scan for Atom:   Atom  AN      X      Y      Z        X      Y      Z        X      Y      Z   
After scan for Atom:   Atom  AN      X      Y      Z        X      Y      Z        X      Y      Z   
After scan for Atom:   Atom  AN      X      Y      Z        X      Y      Z        X      Y      Z   
After scan for Atom:   Atom  AN      X      Y      Z        X      Y      Z        X      Y      Z   
After scan for Atom:   Atom  AN      X      Y      Z        X      Y      Z        X      Y      Z   
After scan for Atom:   Atom  AN      X      Y      Z        X      Y      Z        X      Y      Z   
After scan for Atom:   Atom  AN      X      Y      Z        X      Y      Z        X      Y      Z   
After scan for Atom:   Atom  AN      X      Y      Z        X      Y      Z        X      Y      Z   
After scan for Atom:   Atom  AN      X      Y      Z        X      Y      Z        X      Y      Z   
After scan for Atom:   Atom  AN      X      Y      Z        X      Y      Z        X      Y      Z   
After scan for Atom:   Atom  AN      X      Y      Z        X      Y      Z        X      Y      Z   
After scan for Atom:   Atom  AN      X      Y      Z        X      Y      Z        X      Y      Z   
After scan for Atom:   Atom  AN      X      Y      Z        X      Y      Z        X      Y      Z   
After scan for Atom:   Atom  AN      X      Y      Z        X      Y      Z        X      Y      Z   
After scan for Atom:   Atom  AN      X      Y      Z        X      Y      Z        X      Y      Z   
After scan for Atom:   Atom  AN      X      Y      Z        X      Y      Z        X      Y      Z   
After scan for Atom:   Atom  AN      X      Y      Z        X      Y      Z        X      Y      Z   
After scan for Atom:   Atom  AN      X      Y      Z        X      Y      Z        X      Y      Z   
After scan for Atom:   Atom  AN      X      Y      Z        X      Y      Z        X      Y      Z   
After scan for Atom:   Atom  AN      X      Y      Z        X      Y      Z        X      Y      Z   
After scan for Atom:   Atom  AN      X      Y      Z        X      Y      Z        X      Y      Z   
After scan for Atom:   Atom  AN      X      Y      Z        X      Y      Z        X      Y      Z   
After scan for Atom:   Atom  AN      X      Y      Z        X      Y      Z        X      Y      Z   
After scan for Atom:   Atom  AN      X      Y      Z        X      Y      Z        X      Y      Z   
 g94    frequencies=
     0.0    0.0    0.0    0.0    0.0    0.0   24.2   29.0   49.9   53.3
    57.8   73.0   85.6   91.4  106.2  115.9  163.7  168.9  177.6  184.1
   200.9  206.9  234.6  237.6  260.2  268.0  271.2  286.8  311.3  334.8
   339.2  367.5  387.6  395.1  409.4  428.7  433.8  435.7  437.6  445.1
   463.5  473.9  478.5  485.3  518.8  522.5  544.2  565.7  572.0  572.3
   597.5  611.8  615.9  631.1  663.4  704.3  707.7  708.7  711.1  722.2
   757.6  767.5  768.2  771.4  799.4  806.0  821.2  842.6  867.7  869.1
   875.0  877.6  886.2  909.4  937.1  946.9  948.1  957.9 1003.2 1011.4
  1012.9 1020.3 1021.4 1050.3 1079.3 1095.7 1104.8 1151.9 1155.9 1157.7
  1162.1 1175.1 1192.2 1206.7 1209.5 1222.0 1235.5 1238.7 1253.6 1280.1
  1311.8 1316.6 1319.8 1333.1 1359.6 1366.6 1374.1 1376.3 1383.6 1401.5
  1403.5 1406.8 1423.1 1424.8 1441.6 1450.9 1464.3 1480.5 1484.3 1486.1
  1494.7 1495.8 1500.3 1502.7 1505.0 1520.6 1525.4 1565.7 1570.9 1575.5
  1587.5 1591.5 1608.1 1625.3 1711.1 1722.1 1759.6 1768.3 3042.3 3045.5
  3072.1 3103.0 3106.2 3118.6 3135.2 3139.3 3146.6 3192.0 3204.7 3205.0
  3210.0 3210.2 3216.5 3216.6 3228.5 3228.7
 g94    symmetries=
                                                 A      A      A      A
       A      A      A      A      A      A      A      A      A      A
       A      A      A      A      A      A      A      A      A      A
       A      A      A      A      A      A      A      A      A      A
       A      A      A      A      A      A      A      A      A      A
       A      A      A      A      A      A      A      A      A      A
       A      A      A      A      A      A      A      A      A      A
       A      A      A      A      A      A      A      A      A      A
       A      A      A      A      A      A      A      A      A      A
       A      A      A      A      A      A      A      A      A      A
       A      A      A      A      A      A      A      A      A      A
       A      A      A      A      A      A      A      A      A      A
       A      A      A      A      A      A      A      A      A      A
       A      A      A      A      A      A      A      A      A      A
       A      A      A      A      A      A      A      A      A      A
       A      A      A      A      A      A
 atomic masses:
 12.0000 12.0000 12.0000 14.0031 12.0000 15.9949 12.0000 12.0000 12.0000 12.0000
 12.0000 12.0000 12.0000 12.0000 12.0000 15.9949 14.0031 12.0000 12.0000 15.9949
 12.0000 12.0000 12.0000 12.0000 12.0000 12.0000 12.0000 12.0000 12.0000 15.9949
 12.0000 12.0000 12.0000 12.0000  1.0078  1.0078  1.0078  1.0078  1.0078  1.0078
  1.0078  1.0078  1.0078  1.0078  1.0078  1.0078  1.0078  1.0078  1.0078  1.0078
  1.0078  1.0078
 looking for force constants in 
 ./PDI_2_C1S0.fchk                                                              
  
 Cartesian Force Constants                  R   N=       12246                  
  
 n3=         156       12246
 g94-fc frequencies=
    -1.7   -0.0    0.0    0.0    1.2    3.4   24.2   29.0   49.9   53.3
    57.8   73.0   85.6   91.4  106.2  115.9  163.7  168.9  177.6  184.1
   200.9  206.9  234.6  237.6  260.2  268.0  271.2  286.8  311.3  334.8
   339.2  367.5  387.7  395.1  409.5  428.7  433.8  435.7  437.6  445.1
   463.6  473.9  478.5  485.3  518.8  522.5  544.2  565.7  572.0  572.3
   597.5  611.8  615.9  631.1  663.4  704.3  707.7  708.7  711.1  722.2
   757.7  767.5  768.3  771.4  799.5  806.0  821.2  842.6  867.7  869.1
   875.1  877.6  886.2  909.4  937.2  946.9  948.1  958.0 1003.2 1011.5
  1012.9 1020.4 1021.4 1050.3 1079.4 1095.7 1104.9 1151.9 1155.9 1157.7
  1162.2 1175.2 1192.2 1206.7 1209.5 1222.0 1235.5 1238.7 1253.6 1280.1
  1311.8 1316.6 1319.8 1333.1 1359.6 1366.6 1374.2 1376.3 1383.6 1401.5
  1403.6 1406.9 1423.2 1424.8 1441.6 1451.0 1464.3 1480.5 1484.3 1486.1
  1494.8 1495.8 1500.3 1502.7 1505.0 1520.6 1525.4 1565.7 1570.9 1575.6
  1587.5 1591.6 1608.1 1625.3 1711.1 1722.1 1759.7 1768.4 3042.4 3045.6
  3072.2 3103.0 3106.3 3118.7 3135.3 3139.4 3146.6 3192.1 3204.8 3205.1
  3210.1 3210.2 3216.6 3216.6 3228.6 3228.7
 at 99999: n3=         156
 symm operator            1 :  F  nop=           0
 symm operator            2 :  F  nop=           0
 symm operator            3 :  F  nop=           0
 symm operator            4 :  F  nop=           0
 symm operator            5 :  F  nop=           0
 symm operator            6 :  F  nop=           0
 symm operator            7 :  F  nop=           0
 The point group of the molecule is  C1
 Symmetry rotation matrix:
   1.00000   0.00000   0.00000
   0.00000   1.00000   0.00000
   0.00000   0.00000   1.00000

 Projecting out zero-frequency components
 generating redundant internal coords
         300        3600          52
 search for int coords
   1 str   2   1   1.531
   2 str   3   2   1.531
   3 str   4   2   1.511
   4 str   5   4   1.394
   5 str   6   5   1.213
   6 str   7   5   1.498
   7 str   8   7   1.392
   8 str   9   8   1.387
   9 str  10   9   1.412
  10 str  11  10   1.449
  11 str  12  11   1.412
  12 str  13  12   1.387
  13 str  14  13   1.391
  14 str  15  14   1.497
  15 str  16  15   1.212
  16 str  17  15   1.396
  17 str  18  17   1.475
  18 str  19  17   1.394
  19 str  20  19   1.212
  20 str  21  19   1.494
  21 str  22  21   1.391
  22 str  23  22   1.387
  23 str  24  23   1.412
  24 str  25  24   1.449
  25 str  26  25   1.412
  26 str  27  26   1.387
  27 str  28  27   1.392
  28 str  29   4   1.399
  29 str  29  28   1.497
  30 str  30  29   1.213
  31 str  31   7   1.408
  32 str  31  28   1.408
  33 str  32  10   1.425
  34 str  32  25   1.425
  35 str  32  31   1.425
  36 str  33  11   1.426
  37 str  33  24   1.426
  38 str  34  14   1.410
  39 str  34  21   1.410
  40 str  34  33   1.425
  41 str  35   1   1.092
  42 str  36   1   1.089
  43 str  37   1   1.093
  44 str  38   2   1.087
  45 str  39   3   1.089
  46 str  40   3   1.092
  47 str  41   3   1.093
  48 str  42   8   1.082
  49 str  43   9   1.081
  50 str  44  12   1.081
  51 str  45  13   1.083
  52 str  46  18   1.085
  53 str  47  18   1.090
  54 str  48  18   1.089
  55 str  49  22   1.083
  56 str  50  23   1.081
  57 str  51  26   1.081
  58 str  52  27   1.082
 nber stretches=          58
  59 ben   1   2   3
  60 prop tor   1   2   3  39
  61 prop tor   1   2   3  40
  62 prop tor   1   2   3  41
  63 ben   1   2   4
  64 prop tor   1   2   4   5
  65 prop tor   1   2   4  29
  66 ben   1   2  38
  67 ben   2   1  35
  68 ben   2   1  36
  69 ben   2   1  37
  70 ben   2   3  39
  71 ben   2   3  40
  72 ben   2   3  41
  73 ben   2   4   5
  74 prop tor   2   4   5   6
  75 prop tor   2   4   5   7
  76 ben   2   4  29
  77 prop tor   2   4  29  28
  78 prop tor   2   4  29  30
  79 ben   3   2   4
  80 prop tor   3   2   4   5
  81 prop tor   3   2   4  29
  82 ben   3   2  38
  83 prop tor   4   2   3  39
  84 prop tor   4   2   3  40
  85 prop tor   4   2   3  41
  86 ben   4   2  38
  87 ben   4   5   6
  88 ben   4   5   7
  89 prop tor   4   5   7   8
  90 prop tor   4   5   7  31
  91 ben   4  29  28
  92 ben   4  29  30
  93 ben   5   4  29
  94 prop tor   5   4  29  28
  95 prop tor   5   4  29  30
  96 ben   5   7   8
  97 prop tor   5   7   8   9
  98 prop tor   5   7   8  42
  99 ben   5   7  31
 100 prop tor   5   7  31  28
 101 prop tor   5   7  31  32
 102 ben   6   5   7
 103 prop tor   6   5   7   8
 104 prop tor   6   5   7  31
 105 ben   7   8   9
 106 prop tor   7   8   9  10
 107 prop tor   7   8   9  43
 108 ben   7   8  42
 109 ben   7  31  28
 110 ben   7  31  32
 111 prop tor   7  31  32  10
 112 prop tor   7  31  32  25
 113 ben   8   7  31
 114 prop tor   8   7  31  28
 115 prop tor   8   7  31  32
 116 ben   8   9  10
 117 prop tor   8   9  10  11
 118 prop tor   8   9  10  32
 119 ben   8   9  43
 120 ben   9   8  42
 121 ben   9  10  11
 122 prop tor   9  10  11  12
 123 prop tor   9  10  11  33
 124 ben   9  10  32
 125 prop tor   9  10  32  25
 126 prop tor   9  10  32  31
 127 ben  10   9  43
 128 ben  10  11  12
 129 prop tor  10  11  12  13
 130 prop tor  10  11  12  44
 131 ben  10  11  33
 132 prop tor  10  11  33  24
 133 prop tor  10  11  33  34
 134 ben  10  32  25
 135 ben  10  32  31
 136 ben  11  10  32
 137 prop tor  11  10  32  25
 138 prop tor  11  10  32  31
 139 ben  11  12  13
 140 prop tor  11  12  13  14
 141 prop tor  11  12  13  45
 142 ben  11  12  44
 143 ben  11  33  24
 144 ben  11  33  34
 145 prop tor  11  33  34  14
 146 prop tor  11  33  34  21
 147 ben  12  11  33
 148 prop tor  12  11  33  24
 149 prop tor  12  11  33  34
 150 ben  12  13  14
 151 prop tor  12  13  14  15
 152 prop tor  12  13  14  34
 153 ben  12  13  45
 154 ben  13  12  44
 155 ben  13  14  15
 156 prop tor  13  14  15  16
 157 prop tor  13  14  15  17
 158 ben  13  14  34
 159 prop tor  13  14  34  21
 160 prop tor  13  14  34  33
 161 ben  14  13  45
 162 ben  14  15  16
 163 ben  14  15  17
 164 prop tor  14  15  17  18
 165 prop tor  14  15  17  19
 166 ben  14  34  21
 167 ben  14  34  33
 168 ben  15  14  34
 169 prop tor  15  14  34  21
 170 prop tor  15  14  34  33
 171 ben  15  17  18
 172 prop tor  15  17  18  46
 173 prop tor  15  17  18  47
 174 prop tor  15  17  18  48
 175 ben  15  17  19
 176 prop tor  15  17  19  20
 177 prop tor  15  17  19  21
 178 ben  16  15  17
 179 prop tor  16  15  17  18
 180 prop tor  16  15  17  19
 181 ben  17  18  46
 182 ben  17  18  47
 183 ben  17  18  48
 184 ben  17  19  20
 185 ben  17  19  21
 186 prop tor  17  19  21  22
 187 prop tor  17  19  21  34
 188 ben  18  17  19
 189 prop tor  18  17  19  20
 190 prop tor  18  17  19  21
 191 prop tor  19  17  18  46
 192 prop tor  19  17  18  47
 193 prop tor  19  17  18  48
 194 ben  19  21  22
 195 prop tor  19  21  22  23
 196 prop tor  19  21  22  49
 197 ben  19  21  34
 198 prop tor  19  21  34  14
 199 prop tor  19  21  34  33
 200 ben  20  19  21
 201 prop tor  20  19  21  22
 202 prop tor  20  19  21  34
 203 ben  21  22  23
 204 prop tor  21  22  23  24
 205 prop tor  21  22  23  50
 206 ben  21  22  49
 207 ben  21  34  33
 208 ben  22  21  34
 209 prop tor  22  21  34  14
 210 prop tor  22  21  34  33
 211 ben  22  23  24
 212 prop tor  22  23  24  25
 213 prop tor  22  23  24  33
 214 ben  22  23  50
 215 ben  23  22  49
 216 ben  23  24  25
 217 prop tor  23  24  25  26
 218 prop tor  23  24  25  32
 219 ben  23  24  33
 220 prop tor  23  24  33  11
 221 prop tor  23  24  33  34
 222 ben  24  23  50
 223 ben  24  25  26
 224 prop tor  24  25  26  27
 225 prop tor  24  25  26  51
 226 ben  24  25  32
 227 prop tor  24  25  32  10
 228 prop tor  24  25  32  31
 229 ben  24  33  34
 230 prop tor  24  33  34  14
 231 prop tor  24  33  34  21
 232 ben  25  24  33
 233 prop tor  25  24  33  11
 234 prop tor  25  24  33  34
 235 ben  25  26  27
 236 prop tor  25  26  27  28
 237 prop tor  25  26  27  52
 238 ben  25  26  51
 239 ben  25  32  31
 240 ben  26  25  32
 241 prop tor  26  25  32  10
 242 prop tor  26  25  32  31
 243 ben  26  27  28
 244 prop tor  26  27  28  29
 245 prop tor  26  27  28  31
 246 ben  26  27  52
 247 ben  27  26  51
 248 ben  27  28  29
 249 prop tor  27  28  29   4
 250 prop tor  27  28  29  30
 251 ben  27  28  31
 252 prop tor  27  28  31   7
 253 prop tor  27  28  31  32
 254 ben  28  27  52
 255 ben  28  29  30
 256 ben  28  31  32
 257 prop tor  28  31  32  10
 258 prop tor  28  31  32  25
 259 prop tor  29   4   5   6
 260 prop tor  29   4   5   7
 261 ben  29  28  31
 262 prop tor  29  28  31   7
 263 prop tor  29  28  31  32
 264 prop tor  31   7   8   9
 265 prop tor  31   7   8  42
 266 prop tor  31  28  29   4
 267 prop tor  31  28  29  30
 268 prop tor  32  10  11  12
 269 prop tor  32  10  11  33
 270 prop tor  32  25  26  27
 271 prop tor  32  25  26  51
 272 prop tor  33  11  12  13
 273 prop tor  33  11  12  44
 274 prop tor  33  24  25  26
 275 prop tor  33  24  25  32
 276 prop tor  34  14  15  16
 277 prop tor  34  14  15  17
 278 prop tor  34  21  22  23
 279 prop tor  34  21  22  49
 280 prop tor  35   1   2   3
 281 prop tor  35   1   2   4
 282 prop tor  35   1   2  38
 283 ben  35   1  36
 284 ben  35   1  37
 285 prop tor  36   1   2   3
 286 prop tor  36   1   2   4
 287 prop tor  36   1   2  38
 288 ben  36   1  37
 289 prop tor  37   1   2   3
 290 prop tor  37   1   2   4
 291 prop tor  37   1   2  38
 292 prop tor  38   2   3  39
 293 prop tor  38   2   3  40
 294 prop tor  38   2   3  41
 295 prop tor  38   2   4   5
 296 prop tor  38   2   4  29
 297 ben  39   3  40
 298 ben  39   3  41
 299 ben  40   3  41
 300 prop tor  42   8   9  10
 301 prop tor  42   8   9  43
 302 prop tor  43   9  10  11
 303 prop tor  43   9  10  32
 304 prop tor  44  12  13  14
 305 prop tor  44  12  13  45
 306 prop tor  45  13  14  15
 307 prop tor  45  13  14  34
 308 ben  46  18  47
 309 ben  46  18  48
 310 ben  47  18  48
 311 prop tor  49  22  23  24
 312 prop tor  49  22  23  50
 313 prop tor  50  23  24  25
 314 prop tor  50  23  24  33
 315 prop tor  51  26  27  28
 316 prop tor  51  26  27  52
 317 prop tor  52  27  28  29
 318 prop tor  52  27  28  31
 nber bend=             102
 nber lin bend=           0
 nber prop tor=         158
 nber impr tor=           0
 nber tot redund int=         318
 Eigenvalues of G in red int coords
    Gval -0.00000000 -0.00000000 -0.00000000 -0.00000000 -0.00000000 -0.00000000 -0.00000000 -0.00000000
    Gval -0.00000000 -0.00000000 -0.00000000 -0.00000000 -0.00000000 -0.00000000 -0.00000000 -0.00000000
    Gval -0.00000000 -0.00000000 -0.00000000 -0.00000000 -0.00000000 -0.00000000 -0.00000000 -0.00000000
    Gval -0.00000000 -0.00000000 -0.00000000 -0.00000000 -0.00000000 -0.00000000 -0.00000000 -0.00000000
    Gval -0.00000000 -0.00000000 -0.00000000 -0.00000000 -0.00000000 -0.00000000 -0.00000000 -0.00000000
    Gval -0.00000000 -0.00000000 -0.00000000 -0.00000000 -0.00000000 -0.00000000 -0.00000000 -0.00000000
    Gval -0.00000000 -0.00000000 -0.00000000 -0.00000000 -0.00000000 -0.00000000 -0.00000000 -0.00000000
    Gval -0.00000000 -0.00000000 -0.00000000 -0.00000000 -0.00000000 -0.00000000 -0.00000000 -0.00000000
    Gval -0.00000000 -0.00000000 -0.00000000 -0.00000000 -0.00000000 -0.00000000 -0.00000000 -0.00000000
    Gval -0.00000000 -0.00000000 -0.00000000 -0.00000000 -0.00000000 -0.00000000 -0.00000000 -0.00000000
    Gval -0.00000000 -0.00000000 -0.00000000 -0.00000000 -0.00000000 -0.00000000 -0.00000000 -0.00000000
    Gval -0.00000000 -0.00000000  0.00000000  0.00000000  0.00000000  0.00000000  0.00000000  0.00000000
    Gval  0.00000000  0.00000000  0.00000000  0.00000000  0.00000000  0.00000000  0.00000000  0.00000000
    Gval  0.00000000  0.00000000  0.00000000  0.00000000  0.00000000  0.00000000  0.00000000  0.00000000
    Gval  0.00000000  0.00000000  0.00000000  0.00000000  0.00000000  0.00000000  0.00000000  0.00000000
    Gval  0.00000000  0.00000000  0.00000000  0.00000000  0.00000000  0.00000000  0.00000000  0.00000000
    Gval  0.00000000  0.00000000  0.00000000  0.00000000  0.00000000  0.00000000  0.00000000  0.00000000
    Gval  0.00000000  0.00000000  0.00000000  0.00000000  0.00000000  0.00000000  0.00000000  0.00000000
    Gval  0.00000000  0.00000000  0.00000000  0.00000000  0.00000000  0.00000000  0.00000000  0.00000000
    Gval  0.00000000  0.00000000  0.00000000  0.00000000  0.00000000  0.00000000  0.00000000  0.00000000
    Gval  0.00000000  0.00000000  0.00000000  0.00000000  0.00000000  0.00000000  0.00000000  0.00000000
    Gval  0.00000123  0.00000280  0.00000297  0.00000497  0.00000845  0.00001012  0.00001109  0.00001291
    Gval  0.00001374  0.00001458  0.00001708  0.00001737  0.00001833  0.00002096  0.00002136  0.00002336
    Gval  0.00002528  0.00002582  0.00002701  0.00002800  0.00003171  0.00003572  0.00003992  0.00004716
    Gval  0.00004897  0.00005100  0.00005285  0.00005641  0.00005649  0.00006128  0.00006808  0.00007097
    Gval  0.00007312  0.00008131  0.00008233  0.00008341  0.00008700  0.00008850  0.00009301  0.00009348
    Gval  0.00009492  0.00009729  0.00010949  0.00011960  0.00012263  0.00013667  0.00013719  0.00013742
    Gval  0.00014100  0.00015728  0.00015967  0.00016751  0.00017306  0.00018072  0.00020088  0.00022251
    Gval  0.00022887  0.00022971  0.00024727  0.00027485  0.00028376  0.00029178  0.00029815  0.00034038
    Gval  0.00035155  0.00035955  0.00037898  0.00039087  0.00039237  0.00039489  0.00041482  0.00042149
    Gval  0.00042949  0.00043241  0.00043679  0.00044130  0.00044347  0.00046191  0.00046553  0.00046831
    Gval  0.00049434  0.00051709  0.00053483  0.00053689  0.00054537  0.00054646  0.00055409  0.00055491
    Gval  0.00055598  0.00055617  0.00056140  0.00059171  0.00059851  0.00059929  0.00059959  0.00059989
    Gval  0.00060215  0.00064103  0.00064466  0.00064533  0.00064727  0.00066762  0.00068624  0.00069241
    Gval  0.00069912  0.00070664  0.00074775  0.00081653  0.00092730  0.00094374  0.00109430  0.00109528
    Gval  0.00109598  0.00109650  0.00112029  0.00112592  0.00113630  0.00116410  0.00116422  0.00116459
    Gval  0.00116480  0.00117614  0.00117697  0.00126844  0.00129099  0.00130156  0.00140151  0.00150016
    Gval  0.00160291  0.00172075  0.00181122  0.00192632  0.00229145  0.00234766  0.00245338  0.00247416
    Gval  0.00253464  0.00254271  0.00257380  0.00280047  0.00291505  0.00302504  0.00304071  0.00307912
    Gval  0.00310485  0.00366753  0.00366947  0.00371537  0.00371702  0.00396879
  1.225089162062043E-006  1.225089162062043E-006
  2.795634005027074E-006  1.225089162062043E-006
  2.968982526392539E-006  1.225089162062043E-006
  4.966355903637512E-006  1.225089162062043E-006
  8.446444555986792E-006  1.225089162062043E-006
  1.012052261265298E-005  1.225089162062043E-006
  1.109066927163118E-005  1.225089162062043E-006
  1.291391674221675E-005  1.225089162062043E-006
  1.373866062821836E-005  1.225089162062043E-006
  1.458077616569314E-005  1.225089162062043E-006
  1.708002750636231E-005  1.225089162062043E-006
  1.736831636371440E-005  1.225089162062043E-006
  1.833041427777870E-005  1.225089162062043E-006
  2.095906144488252E-005  1.225089162062043E-006
  2.135756771455631E-005  1.225089162062043E-006
  2.336071151280044E-005  1.225089162062043E-006
  2.528477140160817E-005  1.225089162062043E-006
  2.581696568600457E-005  1.225089162062043E-006
  2.701478499538628E-005  1.225089162062043E-006
  2.800191391933117E-005  1.225089162062043E-006
  3.170559105384374E-005  1.225089162062043E-006
  3.571617811311116E-005  1.225089162062043E-006
  3.992298400949155E-005  1.225089162062043E-006
  4.716207417421348E-005  1.225089162062043E-006
  4.897036578715493E-005  1.225089162062043E-006
  5.099905903081641E-005  1.225089162062043E-006
  5.285067201263456E-005  1.225089162062043E-006
  5.640739214478868E-005  1.225089162062043E-006
  5.649409921066626E-005  1.225089162062043E-006
  6.127800039703881E-005  1.225089162062043E-006
  6.807656784964292E-005  1.225089162062043E-006
  7.096679570592762E-005  1.225089162062043E-006
  7.312471758289564E-005  1.225089162062043E-006
  8.131163101526319E-005  1.225089162062043E-006
  8.233154029295147E-005  1.225089162062043E-006
  8.340658507416012E-005  1.225089162062043E-006
  8.699526431455969E-005  1.225089162062043E-006
  8.849568919825855E-005  1.225089162062043E-006
  9.301185170087616E-005  1.225089162062043E-006
  9.347702002139391E-005  1.225089162062043E-006
  9.491717120358030E-005  1.225089162062043E-006
  9.729371802535978E-005  1.225089162062043E-006
  1.094944226123409E-004  1.225089162062043E-006
  1.196034788862669E-004  1.225089162062043E-006
  1.226275008690871E-004  1.225089162062043E-006
  1.366730219372556E-004  1.225089162062043E-006
  1.371908319171406E-004  1.225089162062043E-006
  1.374234392295712E-004  1.225089162062043E-006
  1.410008737023164E-004  1.225089162062043E-006
  1.572758417136657E-004  1.225089162062043E-006
  1.596716621083962E-004  1.225089162062043E-006
  1.675058105739311E-004  1.225089162062043E-006
  1.730583092090010E-004  1.225089162062043E-006
  1.807154167875402E-004  1.225089162062043E-006
  2.008810808758101E-004  1.225089162062043E-006
  2.225059202122633E-004  1.225089162062043E-006
  2.288695420315536E-004  1.225089162062043E-006
  2.297127920176994E-004  1.225089162062043E-006
  2.472742290128705E-004  1.225089162062043E-006
  2.748492044703698E-004  1.225089162062043E-006
  2.837578065400592E-004  1.225089162062043E-006
  2.917832448069826E-004  1.225089162062043E-006
  2.981531631229835E-004  1.225089162062043E-006
  3.403800607731812E-004  1.225089162062043E-006
  3.515523097551522E-004  1.225089162062043E-006
  3.595530861432000E-004  1.225089162062043E-006
  3.789837916815254E-004  1.225089162062043E-006
  3.908747847480750E-004  1.225089162062043E-006
  3.923732973851279E-004  1.225089162062043E-006
  3.948885685497984E-004  1.225089162062043E-006
  4.148186476354157E-004  1.225089162062043E-006
  4.214881444929661E-004  1.225089162062043E-006
  4.294882751048902E-004  1.225089162062043E-006
  4.324065487708373E-004  1.225089162062043E-006
  4.367851393336925E-004  1.225089162062043E-006
  4.412980689402588E-004  1.225089162062043E-006
  4.434681475046998E-004  1.225089162062043E-006
  4.619060084426766E-004  1.225089162062043E-006
  4.655265801829893E-004  1.225089162062043E-006
  4.683135106400371E-004  1.225089162062043E-006
  4.943415936427623E-004  1.225089162062043E-006
  5.170893191999390E-004  1.225089162062043E-006
  5.348266307826764E-004  1.225089162062043E-006
  5.368902226052329E-004  1.225089162062043E-006
  5.453725341887445E-004  1.225089162062043E-006
  5.464612228741438E-004  1.225089162062043E-006
  5.540893603655332E-004  1.225089162062043E-006
  5.549129665632185E-004  1.225089162062043E-006
  5.559810067835424E-004  1.225089162062043E-006
  5.561715297095374E-004  1.225089162062043E-006
  5.614015793680776E-004  1.225089162062043E-006
  5.917119164065835E-004  1.225089162062043E-006
  5.985111467896266E-004  1.225089162062043E-006
  5.992863389211949E-004  1.225089162062043E-006
  5.995894256751999E-004  1.225089162062043E-006
  5.998879368788288E-004  1.225089162062043E-006
  6.021450744189681E-004  1.225089162062043E-006
  6.410311029461089E-004  1.225089162062043E-006
  6.446556324827319E-004  1.225089162062043E-006
  6.453256428400947E-004  1.225089162062043E-006
  6.472653604243458E-004  1.225089162062043E-006
  6.676179778795923E-004  1.225089162062043E-006
  6.862368958048044E-004  1.225089162062043E-006
  6.924108496007133E-004  1.225089162062043E-006
  6.991191125673235E-004  1.225089162062043E-006
  7.066400159616980E-004  1.225089162062043E-006
  7.477463431875414E-004  1.225089162062043E-006
  8.165328712167175E-004  1.225089162062043E-006
  9.273010918244108E-004  1.225089162062043E-006
  9.437374855434150E-004  1.225089162062043E-006
  1.094302661958681E-003  1.225089162062043E-006
  1.095280608985087E-003  1.225089162062043E-006
  1.095976092410428E-003  1.225089162062043E-006
  1.096502190275546E-003  1.225089162062043E-006
  1.120287673697831E-003  1.225089162062043E-006
  1.125919705389917E-003  1.225089162062043E-006
  1.136299057227590E-003  1.225089162062043E-006
  1.164101532416647E-003  1.225089162062043E-006
  1.164215005185708E-003  1.225089162062043E-006
  1.164585573268522E-003  1.225089162062043E-006
  1.164799174955394E-003  1.225089162062043E-006
  1.176142268818795E-003  1.225089162062043E-006
  1.176974962627137E-003  1.225089162062043E-006
  1.268436022480389E-003  1.225089162062043E-006
  1.290989593767277E-003  1.225089162062043E-006
  1.301564515136726E-003  1.225089162062043E-006
  1.401509152437474E-003  1.225089162062043E-006
  1.500161681103610E-003  1.225089162062043E-006
  1.602912729051040E-003  1.225089162062043E-006
  1.720745844508622E-003  1.225089162062043E-006
  1.811222669909662E-003  1.225089162062043E-006
  1.926316460554769E-003  1.225089162062043E-006
  2.291445074555830E-003  1.225089162062043E-006
  2.347659892656388E-003  1.225089162062043E-006
  2.453379254257387E-003  1.225089162062043E-006
  2.474158812976221E-003  1.225089162062043E-006
  2.534639560028183E-003  1.225089162062043E-006
  2.542710674185310E-003  1.225089162062043E-006
  2.573802459770159E-003  1.225089162062043E-006
  2.800467826024689E-003  1.225089162062043E-006
  2.915049599302426E-003  1.225089162062043E-006
  3.025039491709862E-003  1.225089162062043E-006
  3.040710531391425E-003  1.225089162062043E-006
  3.079123371822813E-003  1.225089162062043E-006
  3.104846896320393E-003  1.225089162062043E-006
  3.667525241015347E-003  1.225089162062043E-006
  3.669465992794170E-003  1.225089162062043E-006
  3.715368596228500E-003  1.225089162062043E-006
  3.717020373934841E-003  1.225089162062043E-006
  3.968793783429160E-003  1.225089162062043E-006
 cut=1d-8, nber non-redundant internal coords=         150
 Check on Eigenvals of non-red overlap matrix:
  0.00000123  0.00000280  0.00000297  0.00000497  0.00000845  0.00001012  0.00001109  0.00001291
  0.00001374  0.00001458  0.00001708  0.00001737  0.00001833  0.00002096  0.00002136  0.00002336
  0.00002528  0.00002582  0.00002701  0.00002800  0.00003171  0.00003572  0.00003992  0.00004716
  0.00004897  0.00005100  0.00005285  0.00005641  0.00005649  0.00006128  0.00006808  0.00007097
  0.00007312  0.00008131  0.00008233  0.00008341  0.00008700  0.00008850  0.00009301  0.00009348
  0.00009492  0.00009729  0.00010949  0.00011960  0.00012263  0.00013667  0.00013719  0.00013742
  0.00014100  0.00015728  0.00015967  0.00016751  0.00017306  0.00018072  0.00020088  0.00022251
  0.00022887  0.00022971  0.00024727  0.00027485  0.00028376  0.00029178  0.00029815  0.00034038
  0.00035155  0.00035955  0.00037898  0.00039087  0.00039237  0.00039489  0.00041482  0.00042149
  0.00042949  0.00043241  0.00043679  0.00044130  0.00044347  0.00046191  0.00046553  0.00046831
  0.00049434  0.00051709  0.00053483  0.00053689  0.00054537  0.00054646  0.00055409  0.00055491
  0.00055598  0.00055617  0.00056140  0.00059171  0.00059851  0.00059929  0.00059959  0.00059989
  0.00060215  0.00064103  0.00064466  0.00064533  0.00064727  0.00066762  0.00068624  0.00069241
  0.00069912  0.00070664  0.00074775  0.00081653  0.00092730  0.00094374  0.00109430  0.00109528
  0.00109598  0.00109650  0.00112029  0.00112592  0.00113630  0.00116410  0.00116422  0.00116459
  0.00116480  0.00117614  0.00117697  0.00126844  0.00129099  0.00130156  0.00140151  0.00150016
  0.00160291  0.00172075  0.00181122  0.00192632  0.00229145  0.00234766  0.00245338  0.00247416
  0.00253464  0.00254271  0.00257380  0.00280047  0.00291505  0.00302504  0.00304071  0.00307912
  0.00310485  0.00366753  0.00366947  0.00371537  0.00371702  0.00396879
 Checking for correct frequencies
 recalc frequencies=
    -0.0   -0.0    0.0    0.0    0.0    0.0   24.2   29.0   49.9   53.3
    57.8   73.0   85.6   91.4  106.2  115.9  163.7  168.9  177.6  184.1
   200.9  206.9  234.6  237.6  260.2  268.0  271.2  286.8  311.3  334.8
   339.2  367.5  387.7  395.1  409.5  428.7  433.8  435.7  437.6  445.1
   463.6  473.9  478.5  485.3  518.8  522.5  544.2  565.7  572.0  572.3
   597.5  611.8  615.9  631.1  663.4  704.3  707.7  708.7  711.1  722.2
   757.7  767.5  768.3  771.4  799.5  806.0  821.2  842.6  867.7  869.1
   875.1  877.6  886.2  909.4  937.2  946.9  948.1  958.0 1003.2 1011.5
  1012.9 1020.4 1021.4 1050.3 1079.4 1095.7 1104.9 1151.9 1155.9 1157.7
  1162.2 1175.2 1192.2 1206.7 1209.5 1222.0 1235.5 1238.7 1253.6 1280.1
  1311.8 1316.6 1319.8 1333.1 1359.6 1366.6 1374.2 1376.3 1383.6 1401.5
  1403.6 1406.9 1423.2 1424.8 1441.6 1451.0 1464.3 1480.5 1484.3 1486.1
  1494.8 1495.8 1500.3 1502.7 1505.0 1520.6 1525.4 1565.7 1570.9 1575.6
  1587.5 1591.6 1608.1 1625.3 1711.1 1722.1 1759.7 1768.4 3042.4 3045.6
  3072.2 3103.0 3106.3 3118.7 3135.3 3139.4 3146.6 3192.1 3204.8 3205.1
  3210.1 3210.2 3216.6 3216.6 3228.6 3228.7
 recalc symmetries=
                                                                       
                                                                       
                                                                       
                                                                       
                                                                       
                                                                       
                                                                       
                                                                       
                                                                       
                                                                       
                                                                       
                                                                       
                                                                       
                                                                       
                                                                       
                                           
 recalc freqs check OK
 Zero-point lengths:
 10.0000 10.0000 10.0000 10.0000 10.0000 10.0000 50.3592 46.0587 35.1116 33.9717
 32.6109 29.0114 26.7955 25.9267 24.0530 23.0294 19.3764 19.0747 18.6042 18.2734
 17.4899 17.2346 16.1864 16.0829 15.3701 15.1435 15.0526 14.6381 14.0514 13.5488
 13.4597 12.9322 12.5914 12.4716 12.2516 11.9728 11.9032 11.8764 11.8508 11.7511
 11.5145 11.3877 11.3327 11.2538 10.8838 10.8458 10.6270 10.4234 10.3653 10.3631
 10.1422 10.0230  9.9892  9.8680  9.6249  9.3415  9.3192  9.3123  9.2967  9.2252
  9.0066  8.9485  8.9443  8.9258  8.7680  8.7322  8.6510  8.5406  8.4161  8.4092
  8.3806  8.3685  8.3278  8.2207  8.0982  8.0563  8.0513  8.0098  7.8272  7.7951
  7.7894  7.7610  7.7571  7.6496  7.5459  7.4893  7.4583  7.3044  7.2917  7.2862
  7.2721  7.2318  7.1799  7.1367  7.1284  7.0919  7.0529  7.0438  7.0018  6.9290
  6.8448  6.8324  6.8240  6.7899  6.7234  6.7061  6.6877  6.6825  6.6649  6.6222
  6.6173  6.6095  6.5716  6.5678  6.5294  6.5083  6.4786  6.4430  6.4347  6.4309
  6.4122  6.4100  6.4004  6.3953  6.3904  6.3575  6.3475  6.2653  6.2549  6.2456
  6.2221  6.2142  6.1821  6.1493  5.9931  5.9740  5.9099  5.8953  4.4946  4.4922
  4.4727  4.4504  4.4481  4.4392  4.4275  4.4246  4.4195  4.3879  4.3792  4.3790
  4.3756  4.3755  4.3712  4.3711  4.3630  4.3629
 highest evec of mol 1
 -0.0000  0.0000 -0.0000
  0.0000  0.0002 -0.0000
  0.0000  0.0000  0.0000
  0.0001 -0.0002 -0.0002
 -0.0003 -0.0000  0.0004
  0.0001  0.0001 -0.0001
  0.0006  0.0011 -0.0006
 -0.0160  0.0017  0.0227
 -0.0278 -0.0664  0.0277
  0.0011 -0.0005 -0.0016
  0.0004  0.0021 -0.0002
 -0.0467 -0.0049  0.0648
 -0.0084 -0.0256  0.0074
  0.0008  0.0002 -0.0011
 -0.0002 -0.0004  0.0002
  0.0001  0.0001 -0.0001
 -0.0000  0.0002  0.0001
  0.0000 -0.0001 -0.0001
  0.0005 -0.0000 -0.0007
 -0.0002 -0.0002  0.0002
 -0.0010 -0.0024  0.0010
  0.0328 -0.0043 -0.0468
  0.0629  0.1515 -0.0626
 -0.0023  0.0008  0.0033
 -0.0009 -0.0039  0.0006
  0.1023  0.0103 -0.1420
  0.0189  0.0586 -0.0167
 -0.0017 -0.0002  0.0024
  0.0003  0.0008 -0.0003
 -0.0002 -0.0002  0.0003
 -0.0002 -0.0000  0.0003
 -0.0004 -0.0003  0.0005
 -0.0003 -0.0005  0.0004
 -0.0001 -0.0003  0.0001
  0.0000 -0.0001 -0.0000
 -0.0000 -0.0000  0.0000
  0.0000  0.0000  0.0001
 -0.0002 -0.0003  0.0002
 -0.0000 -0.0000  0.0000
 -0.0000 -0.0001 -0.0001
 -0.0001  0.0000  0.0000
  0.0504  0.0005 -0.0707
  0.0929  0.2231 -0.0926
  0.1566  0.0160 -0.2173
  0.0290  0.0772 -0.0276
  0.0000  0.0001 -0.0000
 -0.0001  0.0000  0.0000
  0.0000  0.0000  0.0001
 -0.1030 -0.0009  0.1444
 -0.2110 -0.5080  0.2100
 -0.3429 -0.0356  0.4760
 -0.0662 -0.1766  0.0631
 generating redundant internal coords
         300        3600          52
 Adding extra bonds for z output only
           6           6           6           7           6           8
           6           6           6           6           6           6
           6           6           6           8           7           6
           6           8           6           6           6           6
           6           6           6           6           6           8
           6           6           6           6           1           1
           1           1           1           1           1           1
           1           1           1           1           1           1
           1           1           1           1
 search for int coords
   1 str   2   1   1.531
   2 str   3   2   1.531
   3 str   4   2   1.511
   4 str   5   4   1.394
   5 str   6   5   1.213
   6 str   7   5   1.498
   7 str   8   7   1.392
   8 str   9   8   1.387
   9 str  10   9   1.412
  10 str  11  10   1.449
  11 str  12  11   1.412
  12 str  13  12   1.387
  13 str  14  13   1.391
  14 str  15  14   1.497
  15 str  16  15   1.212
  16 str  17  15   1.396
  17 str  18  17   1.475
  18 str  19  17   1.394
  19 str  20  19   1.212
  20 str  21  19   1.494
  21 str  22  21   1.391
  22 str  23  22   1.387
  23 str  24  23   1.412
  24 str  25  24   1.449
  25 str  26  25   1.412
  26 str  27  26   1.387
  27 str  28  27   1.392
  28 str  29   4   1.399
  29 str  29  28   1.497
  30 str  30  29   1.213
  31 str  31   7   1.408
  32 str  31  28   1.408
  33 str  32  10   1.425
  34 str  32  25   1.425
  35 str  32  31   1.425
  36 str  33  11   1.426
  37 str  33  24   1.426
  38 str  34  14   1.410
  39 str  34  21   1.410
  40 str  34  33   1.425
  41 str  35   1   1.092
  42 str  36   1   1.089
  43 str  37   1   1.093
  44 str  38   2   1.087
  45 str  39   3   1.089
  46 str  40   3   1.092
  47 str  41   3   1.093
  48 str  42   8   1.082
  49 str  43   9   1.081
  50 str  44  12   1.081
  51 str  45  13   1.083
  52 str  46  18   1.085
  53 str  47  18   1.090
  54 str  48  18   1.089
  55 str  49  22   1.083
  56 str  50  23   1.081
  57 str  51  26   1.081
  58 str  52  27   1.082
 nber stretches=          58
  59 ben   1   2   3
  60 prop tor   1   2   3  39
  61 prop tor   1   2   3  40
  62 prop tor   1   2   3  41
  63 ben   1   2   4
  64 prop tor   1   2   4   5
  65 prop tor   1   2   4  29
  66 ben   1   2  38
  67 ben   2   1  35
  68 ben   2   1  36
  69 ben   2   1  37
  70 ben   2   3  39
  71 ben   2   3  40
  72 ben   2   3  41
  73 ben   2   4   5
  74 prop tor   2   4   5   6
  75 prop tor   2   4   5   7
  76 ben   2   4  29
  77 prop tor   2   4  29  28
  78 prop tor   2   4  29  30
  79 ben   3   2   4
  80 prop tor   3   2   4   5
  81 prop tor   3   2   4  29
  82 ben   3   2  38
  83 prop tor   4   2   3  39
  84 prop tor   4   2   3  40
  85 prop tor   4   2   3  41
  86 ben   4   2  38
  87 ben   4   5   6
  88 ben   4   5   7
  89 prop tor   4   5   7   8
  90 prop tor   4   5   7  31
  91 ben   4  29  28
  92 ben   4  29  30
  93 ben   5   4  29
  94 prop tor   5   4  29  28
  95 prop tor   5   4  29  30
  96 ben   5   7   8
  97 prop tor   5   7   8   9
  98 prop tor   5   7   8  42
  99 ben   5   7  31
 100 prop tor   5   7  31  28
 101 prop tor   5   7  31  32
 102 ben   6   5   7
 103 prop tor   6   5   7   8
 104 prop tor   6   5   7  31
 105 ben   7   8   9
 106 prop tor   7   8   9  10
 107 prop tor   7   8   9  43
 108 ben   7   8  42
 109 ben   7  31  28
 110 ben   7  31  32
 111 prop tor   7  31  32  10
 112 prop tor   7  31  32  25
 113 ben   8   7  31
 114 prop tor   8   7  31  28
 115 prop tor   8   7  31  32
 116 ben   8   9  10
 117 prop tor   8   9  10  11
 118 prop tor   8   9  10  32
 119 ben   8   9  43
 120 ben   9   8  42
 121 ben   9  10  11
 122 prop tor   9  10  11  12
 123 prop tor   9  10  11  33
 124 ben   9  10  32
 125 prop tor   9  10  32  25
 126 prop tor   9  10  32  31
 127 ben  10   9  43
 128 ben  10  11  12
 129 prop tor  10  11  12  13
 130 prop tor  10  11  12  44
 131 ben  10  11  33
 132 prop tor  10  11  33  24
 133 prop tor  10  11  33  34
 134 ben  10  32  25
 135 ben  10  32  31
 136 ben  11  10  32
 137 prop tor  11  10  32  25
 138 prop tor  11  10  32  31
 139 ben  11  12  13
 140 prop tor  11  12  13  14
 141 prop tor  11  12  13  45
 142 ben  11  12  44
 143 ben  11  33  24
 144 ben  11  33  34
 145 prop tor  11  33  34  14
 146 prop tor  11  33  34  21
 147 ben  12  11  33
 148 prop tor  12  11  33  24
 149 prop tor  12  11  33  34
 150 ben  12  13  14
 151 prop tor  12  13  14  15
 152 prop tor  12  13  14  34
 153 ben  12  13  45
 154 ben  13  12  44
 155 ben  13  14  15
 156 prop tor  13  14  15  16
 157 prop tor  13  14  15  17
 158 ben  13  14  34
 159 prop tor  13  14  34  21
 160 prop tor  13  14  34  33
 161 ben  14  13  45
 162 ben  14  15  16
 163 ben  14  15  17
 164 prop tor  14  15  17  18
 165 prop tor  14  15  17  19
 166 ben  14  34  21
 167 ben  14  34  33
 168 ben  15  14  34
 169 prop tor  15  14  34  21
 170 prop tor  15  14  34  33
 171 ben  15  17  18
 172 prop tor  15  17  18  46
 173 prop tor  15  17  18  47
 174 prop tor  15  17  18  48
 175 ben  15  17  19
 176 prop tor  15  17  19  20
 177 prop tor  15  17  19  21
 178 ben  16  15  17
 179 prop tor  16  15  17  18
 180 prop tor  16  15  17  19
 181 ben  17  18  46
 182 ben  17  18  47
 183 ben  17  18  48
 184 ben  17  19  20
 185 ben  17  19  21
 186 prop tor  17  19  21  22
 187 prop tor  17  19  21  34
 188 ben  18  17  19
 189 prop tor  18  17  19  20
 190 prop tor  18  17  19  21
 191 prop tor  19  17  18  46
 192 prop tor  19  17  18  47
 193 prop tor  19  17  18  48
 194 ben  19  21  22
 195 prop tor  19  21  22  23
 196 prop tor  19  21  22  49
 197 ben  19  21  34
 198 prop tor  19  21  34  14
 199 prop tor  19  21  34  33
 200 ben  20  19  21
 201 prop tor  20  19  21  22
 202 prop tor  20  19  21  34
 203 ben  21  22  23
 204 prop tor  21  22  23  24
 205 prop tor  21  22  23  50
 206 ben  21  22  49
 207 ben  21  34  33
 208 ben  22  21  34
 209 prop tor  22  21  34  14
 210 prop tor  22  21  34  33
 211 ben  22  23  24
 212 prop tor  22  23  24  25
 213 prop tor  22  23  24  33
 214 ben  22  23  50
 215 ben  23  22  49
 216 ben  23  24  25
 217 prop tor  23  24  25  26
 218 prop tor  23  24  25  32
 219 ben  23  24  33
 220 prop tor  23  24  33  11
 221 prop tor  23  24  33  34
 222 ben  24  23  50
 223 ben  24  25  26
 224 prop tor  24  25  26  27
 225 prop tor  24  25  26  51
 226 ben  24  25  32
 227 prop tor  24  25  32  10
 228 prop tor  24  25  32  31
 229 ben  24  33  34
 230 prop tor  24  33  34  14
 231 prop tor  24  33  34  21
 232 ben  25  24  33
 233 prop tor  25  24  33  11
 234 prop tor  25  24  33  34
 235 ben  25  26  27
 236 prop tor  25  26  27  28
 237 prop tor  25  26  27  52
 238 ben  25  26  51
 239 ben  25  32  31
 240 ben  26  25  32
 241 prop tor  26  25  32  10
 242 prop tor  26  25  32  31
 243 ben  26  27  28
 244 prop tor  26  27  28  29
 245 prop tor  26  27  28  31
 246 ben  26  27  52
 247 ben  27  26  51
 248 ben  27  28  29
 249 prop tor  27  28  29   4
 250 prop tor  27  28  29  30
 251 ben  27  28  31
 252 prop tor  27  28  31   7
 253 prop tor  27  28  31  32
 254 ben  28  27  52
 255 ben  28  29  30
 256 ben  28  31  32
 257 prop tor  28  31  32  10
 258 prop tor  28  31  32  25
 259 prop tor  29   4   5   6
 260 prop tor  29   4   5   7
 261 ben  29  28  31
 262 prop tor  29  28  31   7
 263 prop tor  29  28  31  32
 264 prop tor  31   7   8   9
 265 prop tor  31   7   8  42
 266 prop tor  31  28  29   4
 267 prop tor  31  28  29  30
 268 prop tor  32  10  11  12
 269 prop tor  32  10  11  33
 270 prop tor  32  25  26  27
 271 prop tor  32  25  26  51
 272 prop tor  33  11  12  13
 273 prop tor  33  11  12  44
 274 prop tor  33  24  25  26
 275 prop tor  33  24  25  32
 276 prop tor  34  14  15  16
 277 prop tor  34  14  15  17
 278 prop tor  34  21  22  23
 279 prop tor  34  21  22  49
 280 prop tor  35   1   2   3
 281 prop tor  35   1   2   4
 282 prop tor  35   1   2  38
 283 ben  35   1  36
 284 ben  35   1  37
 285 prop tor  36   1   2   3
 286 prop tor  36   1   2   4
 287 prop tor  36   1   2  38
 288 ben  36   1  37
 289 prop tor  37   1   2   3
 290 prop tor  37   1   2   4
 291 prop tor  37   1   2  38
 292 prop tor  38   2   3  39
 293 prop tor  38   2   3  40
 294 prop tor  38   2   3  41
 295 prop tor  38   2   4   5
 296 prop tor  38   2   4  29
 297 ben  39   3  40
 298 ben  39   3  41
 299 ben  40   3  41
 300 prop tor  42   8   9  10
 301 prop tor  42   8   9  43
 302 prop tor  43   9  10  11
 303 prop tor  43   9  10  32
 304 prop tor  44  12  13  14
 305 prop tor  44  12  13  45
 306 prop tor  45  13  14  15
 307 prop tor  45  13  14  34
 308 ben  46  18  47
 309 ben  46  18  48
 310 ben  47  18  48
 311 prop tor  49  22  23  24
 312 prop tor  49  22  23  50
 313 prop tor  50  23  24  25
 314 prop tor  50  23  24  33
 315 prop tor  51  26  27  28
 316 prop tor  51  26  27  52
 317 prop tor  52  27  28  29
 318 prop tor  52  27  28  31
 nber bend=             102
 nber lin bend=           0
 nber prop tor=         158
 nber impr tor=           0
 nber tot redund int=         318
 Reading file: 
 ./PDI_2_C0S1.log                                                               
                                          
  Entering Gaussian System, Link 0=g16                                          
  
 Gaussian format, type: g94, g98, g03= F F F
  #P Geom=AllCheck Guess=TCheck SCRF=Check GenChk RB3LYP TD(FC,Read)/6-3    
 energy type= TD      
 Original G94 input coords:
  6  1.077333  0.385222 -0.049287
  6  2.579664  0.089896  0.007061
  6  3.158669  0.133743  1.424859
  7  2.918629 -1.192281 -0.689760
  6  2.415216 -2.397894 -0.186216
  8  1.705469 -2.427695  0.808656
  6  2.775996 -3.637963 -0.906060
  6  2.291170 -4.863566 -0.433269
  6  2.610098 -6.039004 -1.081984
  6  3.433651 -6.052509 -2.241728
  6  3.775386 -7.271994 -2.929151
  6  3.311385 -8.543707 -2.493613
  6  3.646314 -9.704293 -3.160815
  6  4.461620 -9.659660 -4.297885
  6  4.799319-10.922828 -4.986107
  8  4.389418-12.003623 -4.593609
  7  5.618804-10.817413 -6.118936
  6  5.984084-12.043503 -6.839728
  6  6.128632 -9.619102 -6.631345
  8  6.836707 -9.622986 -7.625913
  6  5.768783 -8.379598 -5.915939
  6  6.252981 -7.154211 -6.387912
  6  5.932545 -5.979298 -5.738857
  6  5.108405 -5.967917 -4.579859
  6  4.766122 -4.748547 -3.892446
  6  5.228754 -3.475544 -4.326880
  6  4.893364 -2.315666 -3.658744
  6  4.078417 -2.362208 -2.520763
  6  3.739179 -1.101185 -1.829623
  8  4.155964 -0.026365 -2.233551
  6  3.596019 -3.602450 -2.053193
  6  3.934655 -4.810826 -2.734660
  6  4.607484 -7.210482 -4.087203
  6  4.946604 -8.419303 -4.768412
  1  0.898654  1.392554  0.336700
  1  0.504654 -0.322991  0.548091
  1  0.715740  0.354912 -1.080381
  1  3.094244  0.837893 -0.591968
  1  2.671412 -0.585800  2.081562
  1  3.014136  1.136260  1.836787
  1  4.232789 -0.068412  1.410244
  1  1.664230 -4.860411  0.448972
  1  2.218124 -6.966339 -0.688950
  1  2.680026 -8.616416 -1.619467
  1  3.289663-10.669051 -2.823746
  1  5.515432-12.879143 -6.329782
  1  7.068537-12.157675 -6.847681
  1  5.639229-11.980786 -7.872271
  1  6.880785 -7.156535 -7.269748
  1  6.323816 -5.051203 -6.130732
  1  5.859592 -3.401314 -5.201292
  1  5.249176 -1.350603 -3.995446
 nber atoms=          52
  Total Energy, E(TD-HF/TD-DFT) =  -1488.64115086                               
  
          32          49 "  -1488.64115086"
After scan for Atom:   Atom  AN      X      Y      Z        X      Y      Z        X      Y      Z   
After scan for Atom:   Atom  AN      X      Y      Z        X      Y      Z        X      Y      Z   
After scan for Atom:   Atom  AN      X      Y      Z        X      Y      Z        X      Y      Z   
After scan for Atom:   Atom  AN      X      Y      Z        X      Y      Z        X      Y      Z   
After scan for Atom:   Atom  AN      X      Y      Z        X      Y      Z        X      Y      Z   
After scan for Atom:   Atom  AN      X      Y      Z        X      Y      Z        X      Y      Z   
After scan for Atom:   Atom  AN      X      Y      Z        X      Y      Z        X      Y      Z   
After scan for Atom:   Atom  AN      X      Y      Z        X      Y      Z        X      Y      Z   
After scan for Atom:   Atom  AN      X      Y      Z        X      Y      Z        X      Y      Z   
After scan for Atom:   Atom  AN      X      Y      Z        X      Y      Z        X      Y      Z   
After scan for Atom:   Atom  AN      X      Y      Z        X      Y      Z        X      Y      Z   
After scan for Atom:   Atom  AN      X      Y      Z        X      Y      Z        X      Y      Z   
After scan for Atom:   Atom  AN      X      Y      Z        X      Y      Z        X      Y      Z   
After scan for Atom:   Atom  AN      X      Y      Z        X      Y      Z        X      Y      Z   
After scan for Atom:   Atom  AN      X      Y      Z        X      Y      Z        X      Y      Z   
After scan for Atom:   Atom  AN      X      Y      Z        X      Y      Z        X      Y      Z   
After scan for Atom:   Atom  AN      X      Y      Z        X      Y      Z        X      Y      Z   
After scan for Atom:   Atom  AN      X      Y      Z        X      Y      Z        X      Y      Z   
After scan for Atom:   Atom  AN      X      Y      Z        X      Y      Z        X      Y      Z   
After scan for Atom:   Atom  AN      X      Y      Z        X      Y      Z        X      Y      Z   
After scan for Atom:   Atom  AN      X      Y      Z        X      Y      Z        X      Y      Z   
After scan for Atom:   Atom  AN      X      Y      Z        X      Y      Z        X      Y      Z   
After scan for Atom:   Atom  AN      X      Y      Z        X      Y      Z        X      Y      Z   
After scan for Atom:   Atom  AN      X      Y      Z        X      Y      Z        X      Y      Z   
After scan for Atom:   Atom  AN      X      Y      Z        X      Y      Z        X      Y      Z   
After scan for Atom:   Atom  AN      X      Y      Z        X      Y      Z        X      Y      Z   
After scan for Atom:   Atom  AN      X      Y      Z        X      Y      Z        X      Y      Z   
After scan for Atom:   Atom  AN      X      Y      Z        X      Y      Z        X      Y      Z   
After scan for Atom:   Atom  AN      X      Y      Z        X      Y      Z        X      Y      Z   
After scan for Atom:   Atom  AN      X      Y      Z        X      Y      Z        X      Y      Z   
After scan for Atom:   Atom  AN      X      Y      Z        X      Y      Z        X      Y      Z   
After scan for Atom:   Atom  AN      X      Y      Z        X      Y      Z        X      Y      Z   
After scan for Atom:   Atom  AN      X      Y      Z        X      Y      Z        X      Y      Z   
After scan for Atom:   Atom  AN      X      Y      Z        X      Y      Z        X      Y      Z   
After scan for Atom:   Atom  AN      X      Y      Z        X      Y      Z        X      Y      Z   
After scan for Atom:   Atom  AN      X      Y      Z        X      Y      Z        X      Y      Z   
After scan for Atom:   Atom  AN      X      Y      Z        X      Y      Z        X      Y      Z   
After scan for Atom:   Atom  AN      X      Y      Z        X      Y      Z        X      Y      Z   
After scan for Atom:   Atom  AN      X      Y      Z        X      Y      Z        X      Y      Z   
After scan for Atom:   Atom  AN      X      Y      Z        X      Y      Z        X      Y      Z   
After scan for Atom:   Atom  AN      X      Y      Z        X      Y      Z        X      Y      Z   
After scan for Atom:   Atom  AN      X      Y      Z        X      Y      Z        X      Y      Z   
After scan for Atom:   Atom  AN      X      Y      Z        X      Y      Z        X      Y      Z   
After scan for Atom:   Atom  AN      X      Y      Z        X      Y      Z        X      Y      Z   
After scan for Atom:   Atom  AN      X      Y      Z        X      Y      Z        X      Y      Z   
After scan for Atom:   Atom  AN      X      Y      Z        X      Y      Z        X      Y      Z   
After scan for Atom:   Atom  AN      X      Y      Z        X      Y      Z        X      Y      Z   
After scan for Atom:   Atom  AN      X      Y      Z        X      Y      Z        X      Y      Z   
After scan for Atom:   Atom  AN      X      Y      Z        X      Y      Z        X      Y      Z   
After scan for Atom:   Atom  AN      X      Y      Z        X      Y      Z        X      Y      Z   
 g94    frequencies=
     0.0    0.0    0.0    0.0    0.0    0.0   23.8   29.2   50.8   56.0
    63.8   78.3   86.7   92.8  105.5  119.7  167.9  170.2  185.6  186.0
   202.6  208.8  234.6  235.4  257.3  271.0  271.0  288.4  303.2  335.8
   338.3  369.7  391.0  395.9  413.3  418.0  432.5  438.9  441.8  447.2
   473.7  483.1  483.6  496.6  506.6  513.9  542.5  567.3  567.4  574.1
   593.0  605.3  614.7  631.8  652.3  672.0  700.0  707.1  710.3  726.9
   752.8  757.7  758.9  764.4  798.9  803.9  808.9  813.9  821.9  826.5
   832.0  843.9  888.5  912.5  925.9  945.3  951.7  956.6  973.9  975.5
   987.2  987.5 1014.2 1040.7 1066.9 1092.7 1101.8 1136.6 1153.1 1155.5
  1159.9 1169.2 1185.6 1194.4 1195.9 1223.8 1232.6 1240.4 1242.7 1251.1
  1295.7 1299.1 1316.0 1319.0 1350.5 1360.5 1365.9 1382.2 1383.1 1391.9
  1400.2 1403.5 1416.1 1429.4 1435.2 1443.7 1449.1 1466.3 1467.4 1484.9
  1492.5 1496.0 1497.5 1505.3 1505.8 1511.3 1522.5 1546.6 1555.3 1569.9
  1580.3 1598.4 1599.4 1622.1 1685.2 1695.6 1724.2 1734.4 3034.1 3038.2
  3061.1 3092.0 3095.2 3112.4 3120.2 3132.4 3142.8 3182.4 3197.6 3198.0
  3204.4 3204.7 3212.5 3212.6 3223.6 3223.9
 g94    symmetries=
                                                 A      A      A      A
       A      A      A      A      A      A      A      A      A      A
       A      A      A      A      A      A      A      A      A      A
       A      A      A      A      A      A      A      A      A      A
       A      A      A      A      A      A      A      A      A      A
       A      A      A      A      A      A      A      A      A      A
       A      A      A      A      A      A      A      A      A      A
       A      A      A      A      A      A      A      A      A      A
       A      A      A      A      A      A      A      A      A      A
       A      A      A      A      A      A      A      A      A      A
       A      A      A      A      A      A      A      A      A      A
       A      A      A      A      A      A      A      A      A      A
       A      A      A      A      A      A      A      A      A      A
       A      A      A      A      A      A      A      A      A      A
       A      A      A      A      A      A      A      A      A      A
       A      A      A      A      A      A
 atomic masses:
 12.0000 12.0000 12.0000 14.0031 12.0000 15.9949 12.0000 12.0000 12.0000 12.0000
 12.0000 12.0000 12.0000 12.0000 12.0000 15.9949 14.0031 12.0000 12.0000 15.9949
 12.0000 12.0000 12.0000 12.0000 12.0000 12.0000 12.0000 12.0000 12.0000 15.9949
 12.0000 12.0000 12.0000 12.0000  1.0078  1.0078  1.0078  1.0078  1.0078  1.0078
  1.0078  1.0078  1.0078  1.0078  1.0078  1.0078  1.0078  1.0078  1.0078  1.0078
  1.0078  1.0078
 looking for force constants in 
 ./PDI_2_C0S1.fchk                                                              
  
 Cartesian Force Constants                  R   N=       12246                  
  
 n3=         156       12246
 g94-fc frequencies=
    -1.7   -0.0   -0.0   -0.0    1.0    3.3   23.8   29.2   50.8   56.0
    63.8   78.3   86.7   92.8  105.5  119.7  167.9  170.2  185.6  186.0
   202.6  208.8  234.6  235.5  257.3  271.0  271.0  288.5  303.2  335.8
   338.3  369.7  391.0  395.9  413.3  418.0  432.5  439.0  441.8  447.2
   473.7  483.1  483.6  496.6  506.7  513.9  542.5  567.3  567.4  574.2
   593.0  605.3  614.7  631.9  652.3  672.0  700.1  707.1  710.3  726.9
   752.8  757.7  758.9  764.4  798.9  803.9  808.9  813.9  821.9  826.5
   832.0  843.9  888.5  912.5  925.9  945.3  951.8  956.6  973.9  975.5
   987.2  987.5 1014.2 1040.8 1066.9 1092.8 1101.8 1136.6 1153.2 1155.5
  1160.0 1169.3 1185.6 1194.4 1196.0 1223.8 1232.6 1240.4 1242.8 1251.1
  1295.7 1299.2 1316.0 1319.0 1350.6 1360.5 1365.9 1382.3 1383.1 1392.0
  1400.2 1403.6 1416.2 1429.4 1435.3 1443.7 1449.1 1466.3 1467.4 1484.9
  1492.6 1496.0 1497.6 1505.3 1505.9 1511.3 1522.5 1546.7 1555.3 1569.9
  1580.4 1598.5 1599.4 1622.2 1685.2 1695.6 1724.2 1734.4 3034.1 3038.3
  3061.2 3092.0 3095.3 3112.5 3120.2 3132.5 3142.9 3182.4 3197.7 3198.1
  3204.5 3204.8 3212.6 3212.7 3223.7 3223.9
 at 99999: n3=         156
 symm operator            1 :  F  nop=           0
 symm operator            2 :  F  nop=           0
 symm operator            3 :  F  nop=           0
 symm operator            4 :  F  nop=           0
 symm operator            5 :  F  nop=           0
 symm operator            6 :  F  nop=           0
 symm operator            7 :  F  nop=           0
 The point group of the molecule is  C1
 Symmetry rotation matrix:
   1.00000   0.00000   0.00000
   0.00000   1.00000   0.00000
   0.00000   0.00000   1.00000

 Projecting out zero-frequency components
 generating redundant internal coords
         300        3600          52
 search for int coords
   1 str   2   1   1.532
   2 str   3   2   1.532
   3 str   4   2   1.498
   4 str   5   4   1.400
   5 str   6   5   1.222
   6 str   7   5   1.479
   7 str   8   7   1.400
   8 str   9   8   1.380
   9 str  10   9   1.422
  10 str  11  10   1.441
  11 str  12  11   1.422
  12 str  13  12   1.380
  13 str  14  13   1.400
  14 str  15  14   1.478
  15 str  16  15   1.221
  16 str  17  15   1.402
  17 str  18  17   1.468
  18 str  19  17   1.399
  19 str  20  19   1.221
  20 str  21  19   1.476
  21 str  22  21   1.400
  22 str  23  22   1.380
  23 str  24  23   1.422
  24 str  25  24   1.441
  25 str  26  25   1.422
  26 str  27  26   1.380
  27 str  28  27   1.400
  28 str  29   4   1.407
  29 str  29  28   1.477
  30 str  30  29   1.222
  31 str  31   7   1.411
  32 str  31  28   1.411
  33 str  32  10   1.427
  34 str  32  25   1.427
  35 str  32  31   1.428
  36 str  33  11   1.427
  37 str  33  24   1.427
  38 str  34  14   1.412
  39 str  34  21   1.412
  40 str  34  33   1.428
  41 str  35   1   1.093
  42 str  36   1   1.089
  43 str  37   1   1.093
  44 str  38   2   1.088
  45 str  39   3   1.089
  46 str  40   3   1.093
  47 str  41   3   1.093
  48 str  42   8   1.082
  49 str  43   9   1.081
  50 str  44  12   1.081
  51 str  45  13   1.082
  52 str  46  18   1.085
  53 str  47  18   1.090
  54 str  48  18   1.090
  55 str  49  22   1.082
  56 str  50  23   1.081
  57 str  51  26   1.081
  58 str  52  27   1.082
 nber stretches=          58
  59 ben   1   2   3
  60 prop tor   1   2   3  39
  61 prop tor   1   2   3  40
  62 prop tor   1   2   3  41
  63 ben   1   2   4
  64 prop tor   1   2   4   5
  65 prop tor   1   2   4  29
  66 ben   1   2  38
  67 ben   2   1  35
  68 ben   2   1  36
  69 ben   2   1  37
  70 ben   2   3  39
  71 ben   2   3  40
  72 ben   2   3  41
  73 ben   2   4   5
  74 prop tor   2   4   5   6
  75 prop tor   2   4   5   7
  76 ben   2   4  29
  77 prop tor   2   4  29  28
  78 prop tor   2   4  29  30
  79 ben   3   2   4
  80 prop tor   3   2   4   5
  81 prop tor   3   2   4  29
  82 ben   3   2  38
  83 prop tor   4   2   3  39
  84 prop tor   4   2   3  40
  85 prop tor   4   2   3  41
  86 ben   4   2  38
  87 ben   4   5   6
  88 ben   4   5   7
  89 prop tor   4   5   7   8
  90 prop tor   4   5   7  31
  91 ben   4  29  28
  92 ben   4  29  30
  93 ben   5   4  29
  94 prop tor   5   4  29  28
  95 prop tor   5   4  29  30
  96 ben   5   7   8
  97 prop tor   5   7   8   9
  98 prop tor   5   7   8  42
  99 ben   5   7  31
 100 prop tor   5   7  31  28
 101 prop tor   5   7  31  32
 102 ben   6   5   7
 103 prop tor   6   5   7   8
 104 prop tor   6   5   7  31
 105 ben   7   8   9
 106 prop tor   7   8   9  10
 107 prop tor   7   8   9  43
 108 ben   7   8  42
 109 ben   7  31  28
 110 ben   7  31  32
 111 prop tor   7  31  32  10
 112 prop tor   7  31  32  25
 113 ben   8   7  31
 114 prop tor   8   7  31  28
 115 prop tor   8   7  31  32
 116 ben   8   9  10
 117 prop tor   8   9  10  11
 118 prop tor   8   9  10  32
 119 ben   8   9  43
 120 ben   9   8  42
 121 ben   9  10  11
 122 prop tor   9  10  11  12
 123 prop tor   9  10  11  33
 124 ben   9  10  32
 125 prop tor   9  10  32  25
 126 prop tor   9  10  32  31
 127 ben  10   9  43
 128 ben  10  11  12
 129 prop tor  10  11  12  13
 130 prop tor  10  11  12  44
 131 ben  10  11  33
 132 prop tor  10  11  33  24
 133 prop tor  10  11  33  34
 134 ben  10  32  25
 135 ben  10  32  31
 136 ben  11  10  32
 137 prop tor  11  10  32  25
 138 prop tor  11  10  32  31
 139 ben  11  12  13
 140 prop tor  11  12  13  14
 141 prop tor  11  12  13  45
 142 ben  11  12  44
 143 ben  11  33  24
 144 ben  11  33  34
 145 prop tor  11  33  34  14
 146 prop tor  11  33  34  21
 147 ben  12  11  33
 148 prop tor  12  11  33  24
 149 prop tor  12  11  33  34
 150 ben  12  13  14
 151 prop tor  12  13  14  15
 152 prop tor  12  13  14  34
 153 ben  12  13  45
 154 ben  13  12  44
 155 ben  13  14  15
 156 prop tor  13  14  15  16
 157 prop tor  13  14  15  17
 158 ben  13  14  34
 159 prop tor  13  14  34  21
 160 prop tor  13  14  34  33
 161 ben  14  13  45
 162 ben  14  15  16
 163 ben  14  15  17
 164 prop tor  14  15  17  18
 165 prop tor  14  15  17  19
 166 ben  14  34  21
 167 ben  14  34  33
 168 ben  15  14  34
 169 prop tor  15  14  34  21
 170 prop tor  15  14  34  33
 171 ben  15  17  18
 172 prop tor  15  17  18  46
 173 prop tor  15  17  18  47
 174 prop tor  15  17  18  48
 175 ben  15  17  19
 176 prop tor  15  17  19  20
 177 prop tor  15  17  19  21
 178 ben  16  15  17
 179 prop tor  16  15  17  18
 180 prop tor  16  15  17  19
 181 ben  17  18  46
 182 ben  17  18  47
 183 ben  17  18  48
 184 ben  17  19  20
 185 ben  17  19  21
 186 prop tor  17  19  21  22
 187 prop tor  17  19  21  34
 188 ben  18  17  19
 189 prop tor  18  17  19  20
 190 prop tor  18  17  19  21
 191 prop tor  19  17  18  46
 192 prop tor  19  17  18  47
 193 prop tor  19  17  18  48
 194 ben  19  21  22
 195 prop tor  19  21  22  23
 196 prop tor  19  21  22  49
 197 ben  19  21  34
 198 prop tor  19  21  34  14
 199 prop tor  19  21  34  33
 200 ben  20  19  21
 201 prop tor  20  19  21  22
 202 prop tor  20  19  21  34
 203 ben  21  22  23
 204 prop tor  21  22  23  24
 205 prop tor  21  22  23  50
 206 ben  21  22  49
 207 ben  21  34  33
 208 ben  22  21  34
 209 prop tor  22  21  34  14
 210 prop tor  22  21  34  33
 211 ben  22  23  24
 212 prop tor  22  23  24  25
 213 prop tor  22  23  24  33
 214 ben  22  23  50
 215 ben  23  22  49
 216 ben  23  24  25
 217 prop tor  23  24  25  26
 218 prop tor  23  24  25  32
 219 ben  23  24  33
 220 prop tor  23  24  33  11
 221 prop tor  23  24  33  34
 222 ben  24  23  50
 223 ben  24  25  26
 224 prop tor  24  25  26  27
 225 prop tor  24  25  26  51
 226 ben  24  25  32
 227 prop tor  24  25  32  10
 228 prop tor  24  25  32  31
 229 ben  24  33  34
 230 prop tor  24  33  34  14
 231 prop tor  24  33  34  21
 232 ben  25  24  33
 233 prop tor  25  24  33  11
 234 prop tor  25  24  33  34
 235 ben  25  26  27
 236 prop tor  25  26  27  28
 237 prop tor  25  26  27  52
 238 ben  25  26  51
 239 ben  25  32  31
 240 ben  26  25  32
 241 prop tor  26  25  32  10
 242 prop tor  26  25  32  31
 243 ben  26  27  28
 244 prop tor  26  27  28  29
 245 prop tor  26  27  28  31
 246 ben  26  27  52
 247 ben  27  26  51
 248 ben  27  28  29
 249 prop tor  27  28  29   4
 250 prop tor  27  28  29  30
 251 ben  27  28  31
 252 prop tor  27  28  31   7
 253 prop tor  27  28  31  32
 254 ben  28  27  52
 255 ben  28  29  30
 256 ben  28  31  32
 257 prop tor  28  31  32  10
 258 prop tor  28  31  32  25
 259 prop tor  29   4   5   6
 260 prop tor  29   4   5   7
 261 ben  29  28  31
 262 prop tor  29  28  31   7
 263 prop tor  29  28  31  32
 264 prop tor  31   7   8   9
 265 prop tor  31   7   8  42
 266 prop tor  31  28  29   4
 267 prop tor  31  28  29  30
 268 prop tor  32  10  11  12
 269 prop tor  32  10  11  33
 270 prop tor  32  25  26  27
 271 prop tor  32  25  26  51
 272 prop tor  33  11  12  13
 273 prop tor  33  11  12  44
 274 prop tor  33  24  25  26
 275 prop tor  33  24  25  32
 276 prop tor  34  14  15  16
 277 prop tor  34  14  15  17
 278 prop tor  34  21  22  23
 279 prop tor  34  21  22  49
 280 prop tor  35   1   2   3
 281 prop tor  35   1   2   4
 282 prop tor  35   1   2  38
 283 ben  35   1  36
 284 ben  35   1  37
 285 prop tor  36   1   2   3
 286 prop tor  36   1   2   4
 287 prop tor  36   1   2  38
 288 ben  36   1  37
 289 prop tor  37   1   2   3
 290 prop tor  37   1   2   4
 291 prop tor  37   1   2  38
 292 prop tor  38   2   3  39
 293 prop tor  38   2   3  40
 294 prop tor  38   2   3  41
 295 prop tor  38   2   4   5
 296 prop tor  38   2   4  29
 297 ben  39   3  40
 298 ben  39   3  41
 299 ben  40   3  41
 300 prop tor  42   8   9  10
 301 prop tor  42   8   9  43
 302 prop tor  43   9  10  11
 303 prop tor  43   9  10  32
 304 prop tor  44  12  13  14
 305 prop tor  44  12  13  45
 306 prop tor  45  13  14  15
 307 prop tor  45  13  14  34
 308 ben  46  18  47
 309 ben  46  18  48
 310 ben  47  18  48
 311 prop tor  49  22  23  24
 312 prop tor  49  22  23  50
 313 prop tor  50  23  24  25
 314 prop tor  50  23  24  33
 315 prop tor  51  26  27  28
 316 prop tor  51  26  27  52
 317 prop tor  52  27  28  29
 318 prop tor  52  27  28  31
 nber bend=             102
 nber lin bend=           0
 nber prop tor=         158
 nber impr tor=           0
 nber tot redund int=         318
 Eigenvalues of G in red int coords
    Gval -0.00000000 -0.00000000 -0.00000000 -0.00000000 -0.00000000 -0.00000000 -0.00000000 -0.00000000
    Gval -0.00000000 -0.00000000 -0.00000000 -0.00000000 -0.00000000 -0.00000000 -0.00000000 -0.00000000
    Gval -0.00000000 -0.00000000 -0.00000000 -0.00000000 -0.00000000 -0.00000000 -0.00000000 -0.00000000
    Gval -0.00000000 -0.00000000 -0.00000000 -0.00000000 -0.00000000 -0.00000000 -0.00000000 -0.00000000
    Gval -0.00000000 -0.00000000 -0.00000000 -0.00000000 -0.00000000 -0.00000000 -0.00000000 -0.00000000
    Gval -0.00000000 -0.00000000 -0.00000000 -0.00000000 -0.00000000 -0.00000000 -0.00000000 -0.00000000
    Gval -0.00000000 -0.00000000 -0.00000000 -0.00000000 -0.00000000 -0.00000000 -0.00000000 -0.00000000
    Gval -0.00000000 -0.00000000 -0.00000000 -0.00000000 -0.00000000 -0.00000000 -0.00000000 -0.00000000
    Gval -0.00000000 -0.00000000 -0.00000000 -0.00000000 -0.00000000 -0.00000000 -0.00000000 -0.00000000
    Gval -0.00000000 -0.00000000 -0.00000000 -0.00000000 -0.00000000 -0.00000000 -0.00000000 -0.00000000
    Gval -0.00000000 -0.00000000  0.00000000  0.00000000  0.00000000  0.00000000  0.00000000  0.00000000
    Gval  0.00000000  0.00000000  0.00000000  0.00000000  0.00000000  0.00000000  0.00000000  0.00000000
    Gval  0.00000000  0.00000000  0.00000000  0.00000000  0.00000000  0.00000000  0.00000000  0.00000000
    Gval  0.00000000  0.00000000  0.00000000  0.00000000  0.00000000  0.00000000  0.00000000  0.00000000
    Gval  0.00000000  0.00000000  0.00000000  0.00000000  0.00000000  0.00000000  0.00000000  0.00000000
    Gval  0.00000000  0.00000000  0.00000000  0.00000000  0.00000000  0.00000000  0.00000000  0.00000000
    Gval  0.00000000  0.00000000  0.00000000  0.00000000  0.00000000  0.00000000  0.00000000  0.00000000
    Gval  0.00000000  0.00000000  0.00000000  0.00000000  0.00000000  0.00000000  0.00000000  0.00000000
    Gval  0.00000000  0.00000000  0.00000000  0.00000000  0.00000000  0.00000000  0.00000000  0.00000000
    Gval  0.00000000  0.00000000  0.00000000  0.00000000  0.00000000  0.00000000  0.00000000  0.00000000
    Gval  0.00000000  0.00000000  0.00000000  0.00000000  0.00000000  0.00000000  0.00000000  0.00000000
    Gval  0.00000123  0.00000279  0.00000299  0.00000500  0.00000844  0.00001011  0.00001108  0.00001295
    Gval  0.00001369  0.00001457  0.00001704  0.00001728  0.00001829  0.00002091  0.00002138  0.00002326
    Gval  0.00002528  0.00002576  0.00002699  0.00002814  0.00003168  0.00003570  0.00003994  0.00004717
    Gval  0.00004883  0.00005097  0.00005271  0.00005616  0.00005622  0.00006128  0.00006806  0.00007089
    Gval  0.00007317  0.00008129  0.00008231  0.00008351  0.00008636  0.00008866  0.00009302  0.00009341
    Gval  0.00009484  0.00009722  0.00010995  0.00011941  0.00012247  0.00013561  0.00013653  0.00013742
    Gval  0.00014088  0.00015633  0.00015897  0.00016717  0.00017161  0.00018128  0.00020119  0.00022191
    Gval  0.00022722  0.00023007  0.00024525  0.00027279  0.00028406  0.00029039  0.00029844  0.00034136
    Gval  0.00035408  0.00036035  0.00038119  0.00039038  0.00039106  0.00039598  0.00041351  0.00042451
    Gval  0.00042880  0.00043252  0.00043667  0.00044123  0.00044196  0.00046178  0.00046590  0.00046865
    Gval  0.00049486  0.00051983  0.00053401  0.00053717  0.00054566  0.00054679  0.00055409  0.00055427
    Gval  0.00055590  0.00055601  0.00056413  0.00058590  0.00059850  0.00059924  0.00059957  0.00059985
    Gval  0.00060219  0.00064071  0.00064423  0.00064497  0.00064682  0.00066683  0.00068711  0.00069237
    Gval  0.00069773  0.00070878  0.00074496  0.00081455  0.00092550  0.00094172  0.00109320  0.00109413
    Gval  0.00109483  0.00109533  0.00112418  0.00112581  0.00114305  0.00116535  0.00116548  0.00116581
    Gval  0.00116604  0.00117120  0.00117190  0.00126220  0.00129038  0.00129536  0.00139809  0.00150082
    Gval  0.00159691  0.00172106  0.00180620  0.00192447  0.00228025  0.00234082  0.00245152  0.00246842
    Gval  0.00252247  0.00253980  0.00257113  0.00278966  0.00292160  0.00302342  0.00304211  0.00308119
    Gval  0.00309609  0.00367567  0.00367738  0.00372231  0.00372396  0.00394527
  1.231854966904227E-006  1.231854966904227E-006
  2.791868847312213E-006  1.231854966904227E-006
  2.986545781043685E-006  1.231854966904227E-006
  4.995278246956254E-006  1.231854966904227E-006
  8.435244421482984E-006  1.231854966904227E-006
  1.011223806944962E-005  1.231854966904227E-006
  1.108153224696059E-005  1.231854966904227E-006
  1.294669263023492E-005  1.231854966904227E-006
  1.369474280825152E-005  1.231854966904227E-006
  1.457063467062154E-005  1.231854966904227E-006
  1.703688182462562E-005  1.231854966904227E-006
  1.728158672643276E-005  1.231854966904227E-006
  1.829211394198747E-005  1.231854966904227E-006
  2.090838018294721E-005  1.231854966904227E-006
  2.137912149240016E-005  1.231854966904227E-006
  2.326247411506486E-005  1.231854966904227E-006
  2.528168668233134E-005  1.231854966904227E-006
  2.576074643620241E-005  1.231854966904227E-006
  2.699468254326240E-005  1.231854966904227E-006
  2.814468917830737E-005  1.231854966904227E-006
  3.168092339439419E-005  1.231854966904227E-006
  3.569583115561253E-005  1.231854966904227E-006
  3.993949430866567E-005  1.231854966904227E-006
  4.716543988826098E-005  1.231854966904227E-006
  4.883388299690437E-005  1.231854966904227E-006
  5.096936507468018E-005  1.231854966904227E-006
  5.270735670389523E-005  1.231854966904227E-006
  5.615616136445300E-005  1.231854966904227E-006
  5.621627543940014E-005  1.231854966904227E-006
  6.127927136058284E-005  1.231854966904227E-006
  6.805923990181996E-005  1.231854966904227E-006
  7.088904098456368E-005  1.231854966904227E-006
  7.317004781009408E-005  1.231854966904227E-006
  8.128782358360241E-005  1.231854966904227E-006
  8.230587718868342E-005  1.231854966904227E-006
  8.350862493866823E-005  1.231854966904227E-006
  8.635911410908952E-005  1.231854966904227E-006
  8.866232360042678E-005  1.231854966904227E-006
  9.302026860858321E-005  1.231854966904227E-006
  9.340859066604525E-005  1.231854966904227E-006
  9.484292393644475E-005  1.231854966904227E-006
  9.722062681432922E-005  1.231854966904227E-006
  1.099483065975387E-004  1.231854966904227E-006
  1.194116381191526E-004  1.231854966904227E-006
  1.224650229719393E-004  1.231854966904227E-006
  1.356064606481243E-004  1.231854966904227E-006
  1.365291253968282E-004  1.231854966904227E-006
  1.374171336427790E-004  1.231854966904227E-006
  1.408836501211505E-004  1.231854966904227E-006
  1.563341891074849E-004  1.231854966904227E-006
  1.589688101941449E-004  1.231854966904227E-006
  1.671660427079700E-004  1.231854966904227E-006
  1.716119157960276E-004  1.231854966904227E-006
  1.812822599650985E-004  1.231854966904227E-006
  2.011885092806596E-004  1.231854966904227E-006
  2.219086494170799E-004  1.231854966904227E-006
  2.272171298072106E-004  1.231854966904227E-006
  2.300672564796174E-004  1.231854966904227E-006
  2.452462560049856E-004  1.231854966904227E-006
  2.727899706690836E-004  1.231854966904227E-006
  2.840626151282497E-004  1.231854966904227E-006
  2.903861031307623E-004  1.231854966904227E-006
  2.984386781513097E-004  1.231854966904227E-006
  3.413604947739455E-004  1.231854966904227E-006
  3.540759649864758E-004  1.231854966904227E-006
  3.603516481760502E-004  1.231854966904227E-006
  3.811931881139831E-004  1.231854966904227E-006
  3.903834172175653E-004  1.231854966904227E-006
  3.910590058677549E-004  1.231854966904227E-006
  3.959813955183148E-004  1.231854966904227E-006
  4.135108162628714E-004  1.231854966904227E-006
  4.245131822623659E-004  1.231854966904227E-006
  4.288033191253425E-004  1.231854966904227E-006
  4.325185885676058E-004  1.231854966904227E-006
  4.366675779039662E-004  1.231854966904227E-006
  4.412325803067960E-004  1.231854966904227E-006
  4.419617907438932E-004  1.231854966904227E-006
  4.617844570390894E-004  1.231854966904227E-006
  4.659001298846099E-004  1.231854966904227E-006
  4.686473548384053E-004  1.231854966904227E-006
  4.948622888575708E-004  1.231854966904227E-006
  5.198284770619259E-004  1.231854966904227E-006
  5.340145158347606E-004  1.231854966904227E-006
  5.371703784613164E-004  1.231854966904227E-006
  5.456556041225252E-004  1.231854966904227E-006
  5.467899656158399E-004  1.231854966904227E-006
  5.540858496663666E-004  1.231854966904227E-006
  5.542685971782424E-004  1.231854966904227E-006
  5.559009412346571E-004  1.231854966904227E-006
  5.560129449183705E-004  1.231854966904227E-006
  5.641267155783773E-004  1.231854966904227E-006
  5.859020627783082E-004  1.231854966904227E-006
  5.984965731638695E-004  1.231854966904227E-006
  5.992424680718136E-004  1.231854966904227E-006
  5.995715207088939E-004  1.231854966904227E-006
  5.998541812595367E-004  1.231854966904227E-006
  6.021867202033075E-004  1.231854966904227E-006
  6.407113184083160E-004  1.231854966904227E-006
  6.442308933797358E-004  1.231854966904227E-006
  6.449704963723812E-004  1.231854966904227E-006
  6.468226411808436E-004  1.231854966904227E-006
  6.668277645367933E-004  1.231854966904227E-006
  6.871067632852968E-004  1.231854966904227E-006
  6.923709476421755E-004  1.231854966904227E-006
  6.977270083930398E-004  1.231854966904227E-006
  7.087843362634042E-004  1.231854966904227E-006
  7.449558166959723E-004  1.231854966904227E-006
  8.145529320497029E-004  1.231854966904227E-006
  9.255017634986457E-004  1.231854966904227E-006
  9.417168546719245E-004  1.231854966904227E-006
  1.093201688029782E-003  1.231854966904227E-006
  1.094134811475012E-003  1.231854966904227E-006
  1.094826812014774E-003  1.231854966904227E-006
  1.095326135380085E-003  1.231854966904227E-006
  1.124178525633872E-003  1.231854966904227E-006
  1.125805489585497E-003  1.231854966904227E-006
  1.143046573526324E-003  1.231854966904227E-006
  1.165349241824871E-003  1.231854966904227E-006
  1.165482683951989E-003  1.231854966904227E-006
  1.165813910612637E-003  1.231854966904227E-006
  1.166040998238447E-003  1.231854966904227E-006
  1.171197909914560E-003  1.231854966904227E-006
  1.171897096818832E-003  1.231854966904227E-006
  1.262202045582832E-003  1.231854966904227E-006
  1.290376200050193E-003  1.231854966904227E-006
  1.295361165113765E-003  1.231854966904227E-006
  1.398091173594210E-003  1.231854966904227E-006
  1.500822693733767E-003  1.231854966904227E-006
  1.596907884632561E-003  1.231854966904227E-006
  1.721055116596936E-003  1.231854966904227E-006
  1.806201381222361E-003  1.231854966904227E-006
[...]
 nber times 1st assigned=          65           0
 nber times 1st assigned=          66           0
 nber times 1st assigned=          67           0
 nber times 1st assigned=          68           0
 nber times 1st assigned=          69           0
 nber times 1st assigned=          70           0
 nber times 1st assigned=          71           0
 nber times 1st assigned=          72           0
 nber times 1st assigned=          73           0
 nber times 1st assigned=          74           0
 nber times 1st assigned=          75           0
 nber times 1st assigned=          76           0
 nber times 1st assigned=          77           0
 nber times 1st assigned=          78           0
 nber times 1st assigned=          79           0
 nber times 1st assigned=          80           0
 nber times 1st assigned=          81           0
 nber times 1st assigned=          82           0
 nber times 1st assigned=          83           0
 nber times 1st assigned=          84           0
 nber times 1st assigned=          85           0
 nber times 1st assigned=          86           0
 nber times 1st assigned=          87           0
 nber times 1st assigned=          88           0
 nber times 1st assigned=          89           0
 nber times 1st assigned=          90           0
 nber times 1st assigned=          91           0
 nber times 1st assigned=          92           0
 nber times 1st assigned=          93           0
 nber times 1st assigned=          94           0
 nber times 1st assigned=          95           0
 nber times 1st assigned=          96           0
 nber times 1st assigned=          97           0
 nber times 1st assigned=          98           0
 nber times 1st assigned=          99           0
 nber times 1st assigned=         100           0
 nber times 1st assigned=         101           0
 nber times 1st assigned=         102           0
 nber times 1st assigned=         103           0
 nber times 1st assigned=         104           0
 nber times 1st assigned=         105           0
 nber times 1st assigned=         106           0
 nber times 1st assigned=         107           0
 nber times 1st assigned=         108           0
 nber times 1st assigned=         109           0
 nber times 1st assigned=         110           0
 nber times 1st assigned=         111           0
 nber times 1st assigned=         112           0
 nber times 1st assigned=         113           0
 nber times 1st assigned=         114           0
 nber times 1st assigned=         115           0
 nber times 1st assigned=         116           0
 nber times 1st assigned=         117           0
 nber times 1st assigned=         118           0
 nber times 1st assigned=         119           0
 nber times 1st assigned=         120           0
 nber times 1st assigned=         121           0
 nber times 1st assigned=         122           0
 nber times 1st assigned=         123           0
 nber times 1st assigned=         124           0
 nber times 1st assigned=         125           0
 nber times 1st assigned=         126           0
 nber times 1st assigned=         127           0
 nber times 1st assigned=         128           0
 nber times 1st assigned=         129           0
 nber times 1st assigned=         130           0
 nber times 1st assigned=         131           0
 nber times 1st assigned=         132           0
 nber times 1st assigned=         133           0
 nber times 1st assigned=         134           0
 nber times 1st assigned=         135           0
 nber times 1st assigned=         136           0
 nber times 1st assigned=         137           0
 nber times 1st assigned=         138           0
 nber times 1st assigned=         139           0
 nber times 1st assigned=         140           0
 nber times 1st assigned=         141           0
 nber times 1st assigned=         142           0
 nber times 1st assigned=         143           0
 nber times 1st assigned=         144           0
 nber times 1st assigned=         145           0
 nber times 1st assigned=         146           0
 nber times 1st assigned=         147           0
 nber times 1st assigned=         148           0
 nber times 1st assigned=         149           0
 nber times 1st assigned=         150           0
 nber times 1st assigned=         151           0
 nber times 1st assigned=         152           0
 nber times 1st assigned=         153           0
 nber times 1st assigned=         154           0
 nber times 1st assigned=         155           0
 nber times 1st assigned=         156           0
 modes represented=   149.908946694487     
 p1=
   -0.    0.    0.   -0.    0.    0.   -0.    0.    0.    0.    0.    0.   -0.   -0.   -1.   -0.   -0.    0.    0.    7.
   -6.   -0.   -0.    0.   -0.   -0.    0.    2.   -0.    1.    0.   -1.    0.   -1.   -6.    4.   -3.    1.    0.    0.
    0.    0.   -0.    0.   -0.    0.    4.   -1.   -0.   -0.   -0.   -0.   -0.    0.   -0.    0.    0.   -0.    0.    0.
    0.   -0.    0.   -0.   -0.    0.   -0.    1.   -0.   -0.    0.    0.    0.    0.   -1.    0.   -0.   -0.    0.   -0.
    0.   -0.    0.   -0.   -0.   -1.    0.   -0.    0.    0.   -0.    0.   -0.    0.    0.   -0.   -0.   -0.   -0.   -0.
   -1.    1.    1.    0.    1.    0.    0.    0.   -3.   -0.   -0.   -0.   -1.    0.   -0.    1.   -1.   -0.   -0.    0.
    0.   -0.   -0.   -0.    0.   -0.   -0.   -0.    0.    1.    0.    0.   -0.    2.    0.   -0.   -1.    1.   -0.    0.
   -0.   -0.   -0.    0.    0.   -0.   -0.   -0.    0.   -0.    0.    0.   -0.   -0.    0.    0.
 p2=
   -0.    0.   -0.   -0.    0.   -0.   -0.   -0.   -0.    0.    0.    0.   -0.    0.    1.    0.    0.    0.    0.    7.
   -6.   -0.   -0.   -0.    0.   -0.   -0.    2.   -0.   -0.   -1.   -2.   -0.    1.   -6.    0.   -5.   -2.   -1.    0.
    0.    0.   -1.    0.   -0.    0.    4.   -0.    0.   -0.    0.    0.    0.   -0.   -0.    0.    0.   -0.   -0.    0.
   -0.   -0.   -0.   -0.   -0.   -0.    0.    0.   -0.    0.    0.    1.   -0.    0.   -0.    0.    1.   -0.   -0.   -0.
    0.    0.   -0.   -0.   -0.    1.   -0.   -0.    0.   -0.    0.   -0.    0.   -0.   -0.    0.    0.   -0.   -0.    0.
   -0.   -1.    1.   -0.    0.   -1.    0.   -0.   -3.   -0.   -0.    0.   -0.    0.   -0.   -0.    1.    0.   -0.   -0.
    0.   -0.    0.   -0.    0.   -0.    0.   -0.   -1.    0.   -0.    0.   -0.   -2.   -0.   -0.    1.   -2.    0.   -0.
   -0.   -0.   -0.    0.    0.    0.    0.    0.    0.    0.   -0.   -0.    0.   -0.   -0.    0.

 Displacement: in terms of nc of 1 THEN of nc of 2

   1     freq=    -0. Q= -0.000 lam=    -0.0     freq=    -0. Q= -0.000 lam=    -0.0
   2     freq=    -0. Q=  0.000 lam=    -0.0     freq=    -0. Q=  0.000 lam=    -0.0
   3     freq=     0. Q=  0.000 lam=     0.0     freq=    -0. Q=  0.000 lam=    -0.0
   4     freq=     0. Q= -0.000 lam=     0.0     freq=    -0. Q= -0.000 lam=    -0.0
   5     freq=     0. Q=  0.000 lam=     0.0     freq=     0. Q=  0.000 lam=     0.0
   6     freq=     0. Q=  0.000 lam=     0.0     freq=     0. Q=  0.000 lam=     0.0
   7     freq=    24. Q= -0.007 lam=     0.0     freq=    24. Q= -0.007 lam=     0.0
   8     freq=    29. Q=  0.003 lam=     0.0     freq=    29. Q=  0.003 lam=     0.0
   9     freq=    50. Q=  0.005 lam=     0.0     freq=    51. Q=  0.004 lam=     0.0
  10     freq=    53. Q=  0.002 lam=     0.0     freq=    56. Q=  0.004 lam=     0.0
  11     freq=    58. Q=  0.001 lam=     0.0     freq=    64. Q=  0.001 lam=     0.0
  12     freq=    73. Q=  0.001 lam=     0.0     freq=    78. Q=  0.001 lam=     0.0
  13     freq=    86. Q= -0.000 lam=     0.0     freq=    87. Q= -0.000 lam=     0.0
  14     freq=    91. Q= -0.001 lam=     0.0     freq=    93. Q= -0.001 lam=     0.0
  15     freq=   106. Q= -0.029 lam=     0.0     freq=   105. Q= -0.026 lam=     0.0
  16     freq=   116. Q= -0.000 lam=     0.0     freq=   120. Q= -0.000 lam=     0.0
  17     freq=   164. Q= -0.000 lam=     0.0     freq=   168. Q= -0.000 lam=     0.0
  18     freq=   169. Q=  0.000 lam=     0.0     freq=   170. Q=  0.000 lam=     0.0
  19     freq=   178. Q=  0.001 lam=     0.0     freq=   186. Q=  0.021 lam=     0.0
  20     freq=   184. Q=  0.369 lam=    12.5     freq=   186. Q=  0.382 lam=    13.6
  21     freq=   201. Q= -0.358 lam=    12.9     freq=   203. Q= -0.344 lam=    12.0
  22     freq=   207. Q= -0.001 lam=     0.0     freq=   209. Q= -0.001 lam=     0.0
  23     freq=   235. Q= -0.001 lam=     0.0     freq=   235. Q= -0.001 lam=     0.0
  24     freq=   238. Q=  0.019 lam=     0.0     freq=   235. Q=  0.015 lam=     0.0
  25     freq=   260. Q= -0.001 lam=     0.0     freq=   257. Q= -0.001 lam=     0.0
  26     freq=   268. Q= -0.006 lam=     0.0     freq=   271. Q= -0.003 lam=     0.0
  27     freq=   271. Q=  0.000 lam=     0.0     freq=   271. Q=  0.004 lam=     0.0
  28     freq=   287. Q=  0.109 lam=     1.7     freq=   288. Q=  0.109 lam=     1.7
  29     freq=   311. Q= -0.000 lam=     0.0     freq=   303. Q= -0.000 lam=     0.0
  30     freq=   335. Q=  0.064 lam=     0.7     freq=   336. Q=  0.000 lam=     0.0
  31     freq=   339. Q=  0.001 lam=     0.0     freq=   338. Q=  0.061 lam=     0.6
  32     freq=   367. Q= -0.111 lam=     2.3     freq=   370. Q= -0.127 lam=     3.0
  33     freq=   388. Q=  0.007 lam=     0.0     freq=   391. Q=  0.032 lam=     0.2
  34     freq=   395. Q= -0.043 lam=     0.4     freq=   396. Q= -0.042 lam=     0.3
  35     freq=   409. Q= -0.516 lam=    54.5     freq=   413. Q= -0.512 lam=    54.1
  36     freq=   429. Q=  0.336 lam=    24.2     freq=   418. Q=  0.000 lam=     0.0
  37     freq=   434. Q= -0.281 lam=    17.1     freq=   433. Q= -0.399 lam=    34.4
  38     freq=   436. Q=  0.049 lam=     0.5     freq=   439. Q=  0.180 lam=     7.1
  39     freq=   438. Q=  0.008 lam=     0.0     freq=   442. Q=  0.060 lam=     0.8
  40     freq=   445. Q=  0.000 lam=     0.0     freq=   447. Q=  0.003 lam=     0.0
  41     freq=   464. Q=  0.000 lam=     0.0     freq=   474. Q=  0.043 lam=     0.4
  42     freq=   474. Q=  0.039 lam=     0.4     freq=   483. Q=  0.000 lam=     0.0
  43     freq=   479. Q= -0.000 lam=     0.0     freq=   484. Q= -0.052 lam=     0.7
  44     freq=   485. Q=  0.005 lam=     0.0     freq=   497. Q=  0.000 lam=     0.0
  45     freq=   519. Q= -0.026 lam=     0.2     freq=   507. Q= -0.000 lam=     0.0
  46     freq=   522. Q=  0.001 lam=     0.0     freq=   514. Q=  0.033 lam=     0.3
  47     freq=   544. Q=  0.369 lam=    37.0     freq=   543. Q=  0.394 lam=    42.2
  48     freq=   566. Q= -0.120 lam=     4.1     freq=   567. Q= -0.045 lam=     0.6
  49     freq=   572. Q= -0.001 lam=     0.0     freq=   567. Q= -0.005 lam=     0.0
  50     freq=   572. Q= -0.000 lam=     0.0     freq=   574. Q= -0.000 lam=     0.0
  51     freq=   597. Q= -0.016 lam=     0.1     freq=   593. Q= -0.017 lam=     0.1
  52     freq=   612. Q= -0.006 lam=     0.0     freq=   605. Q= -0.001 lam=     0.0
  53     freq=   616. Q= -0.001 lam=     0.0     freq=   615. Q= -0.007 lam=     0.0
  54     freq=   631. Q=  0.000 lam=     0.0     freq=   632. Q=  0.000 lam=     0.0
  55     freq=   663. Q= -0.001 lam=     0.0     freq=   652. Q= -0.001 lam=     0.0
  56     freq=   704. Q=  0.000 lam=     0.0     freq=   672. Q=  0.000 lam=     0.0
  57     freq=   708. Q=  0.000 lam=     0.0     freq=   700. Q=  0.000 lam=     0.0
  58     freq=   709. Q= -0.009 lam=     0.0     freq=   707. Q= -0.009 lam=     0.0
  59     freq=   711. Q=  0.008 lam=     0.0     freq=   710. Q=  0.006 lam=     0.0
  60     freq=   722. Q=  0.004 lam=     0.0     freq=   727. Q=  0.008 lam=     0.0
  61     freq=   758. Q=  0.001 lam=     0.0     freq=   753. Q=  0.001 lam=     0.0
  62     freq=   768. Q= -0.000 lam=     0.0     freq=   758. Q= -0.000 lam=     0.0
  63     freq=   768. Q=  0.001 lam=     0.0     freq=   759. Q=  0.001 lam=     0.0
  64     freq=   771. Q= -0.000 lam=     0.0     freq=   764. Q= -0.001 lam=     0.0
  65     freq=   799. Q= -0.040 lam=     0.6     freq=   799. Q= -0.031 lam=     0.4
  66     freq=   806. Q=  0.010 lam=     0.0     freq=   804. Q=  0.005 lam=     0.0
  67     freq=   821. Q= -0.006 lam=     0.0     freq=   809. Q= -0.000 lam=     0.0
  68     freq=   843. Q=  0.167 lam=    11.8     freq=   814. Q=  0.000 lam=     0.0
  69     freq=   868. Q= -0.000 lam=     0.0     freq=   822. Q= -0.021 lam=     0.2
  70     freq=   869. Q= -0.000 lam=     0.0     freq=   826. Q= -0.000 lam=     0.0
  71     freq=   875. Q=  0.000 lam=     0.0     freq=   832. Q=  0.001 lam=     0.0
  72     freq=   878. Q=  0.000 lam=     0.0     freq=   844. Q=  0.167 lam=    11.7
  73     freq=   886. Q=  0.047 lam=     1.0     freq=   888. Q=  0.046 lam=     0.9
  74     freq=   909. Q=  0.010 lam=     0.1     freq=   913. Q=  0.005 lam=     0.0
  75     freq=   937. Q= -0.099 lam=     4.6     freq=   926. Q= -0.035 lam=     0.6
  76     freq=   947. Q=  0.050 lam=     1.2     freq=   945. Q=  0.001 lam=     0.0
  77     freq=   948. Q= -0.001 lam=     0.0     freq=   952. Q= -0.111 lam=     5.8
  78     freq=   958. Q= -0.000 lam=     0.0     freq=   957. Q= -0.001 lam=     0.0
  79     freq=  1003. Q=  0.037 lam=     0.7     freq=   974. Q=  0.000 lam=     0.0
  80     freq=  1011. Q= -0.000 lam=     0.0     freq=   976. Q= -0.000 lam=     0.0
  81     freq=  1013. Q=  0.000 lam=     0.0     freq=   987. Q=  0.000 lam=     0.0
  82     freq=  1020. Q= -0.000 lam=     0.0     freq=   988. Q= -0.000 lam=     0.0
  83     freq=  1021. Q=  0.000 lam=     0.0     freq=  1014. Q=  0.027 lam=     0.4
  84     freq=  1050. Q= -0.034 lam=     0.6     freq=  1041. Q= -0.028 lam=     0.4
  85     freq=  1079. Q= -0.013 lam=     0.1     freq=  1067. Q= -0.024 lam=     0.3
  86     freq=  1096. Q= -0.128 lam=     8.9     freq=  1093. Q= -0.118 lam=     7.7
  87     freq=  1105. Q=  0.054 lam=     1.6     freq=  1102. Q=  0.039 lam=     0.8
  88     freq=  1152. Q= -0.000 lam=     0.0     freq=  1137. Q= -0.010 lam=     0.1
  89     freq=  1156. Q=  0.000 lam=     0.0     freq=  1153. Q=  0.000 lam=     0.0
  90     freq=  1158. Q=  0.042 lam=     1.0     freq=  1155. Q=  0.000 lam=     0.0
  91     freq=  1162. Q= -0.003 lam=     0.0     freq=  1160. Q= -0.001 lam=     0.0
  92     freq=  1175. Q=  0.039 lam=     0.9     freq=  1169. Q=  0.027 lam=     0.4
  93     freq=  1192. Q= -0.046 lam=     1.3     freq=  1186. Q= -0.064 lam=     2.4
  94     freq=  1207. Q=  0.001 lam=     0.0     freq=  1194. Q=  0.005 lam=     0.0
  95     freq=  1209. Q=  0.001 lam=     0.0     freq=  1196. Q=  0.022 lam=     0.3
  96     freq=  1222. Q= -0.003 lam=     0.0     freq=  1224. Q= -0.016 lam=     0.2
  97     freq=  1236. Q= -0.029 lam=     0.5     freq=  1233. Q= -0.032 lam=     0.6
  98     freq=  1239. Q= -0.055 lam=     1.8     freq=  1240. Q= -0.059 lam=     2.1
  99     freq=  1254. Q= -0.016 lam=     0.2     freq=  1243. Q= -0.000 lam=     0.0
 100     freq=  1280. Q= -0.022 lam=     0.3     freq=  1251. Q= -0.007 lam=     0.0
 101     freq=  1312. Q= -0.121 lam=     9.6     freq=  1296. Q= -0.044 lam=     1.2
 102     freq=  1317. Q=  0.145 lam=    13.8     freq=  1299. Q=  0.144 lam=    13.5
 103     freq=  1320. Q=  0.089 lam=     5.2     freq=  1316. Q=  0.129 lam=    11.0
 104     freq=  1333. Q=  0.011 lam=     0.1     freq=  1319. Q=  0.010 lam=     0.1
 105     freq=  1360. Q=  0.138 lam=    13.0     freq=  1351. Q=  0.002 lam=     0.0
 106     freq=  1367. Q=  0.007 lam=     0.0     freq=  1360. Q=  0.119 lam=     9.7
 107     freq=  1374. Q=  0.062 lam=     2.6     freq=  1366. Q=  0.008 lam=     0.0
 108     freq=  1376. Q=  0.000 lam=     0.0     freq=  1382. Q=  0.004 lam=     0.0
 109     freq=  1384. Q= -0.382 lam=   100.9     freq=  1383. Q= -0.381 lam=   100.2
 110     freq=  1401. Q= -0.015 lam=     0.2     freq=  1392. Q= -0.028 lam=     0.5
 111     freq=  1404. Q= -0.018 lam=     0.2     freq=  1400. Q= -0.001 lam=     0.0
 112     freq=  1407. Q= -0.000 lam=     0.0     freq=  1404. Q= -0.010 lam=     0.1
 113     freq=  1423. Q= -0.106 lam=     8.0     freq=  1416. Q= -0.059 lam=     2.5
 114     freq=  1425. Q=  0.063 lam=     2.8     freq=  1429. Q=  0.069 lam=     3.4
 115     freq=  1442. Q= -0.034 lam=     0.8     freq=  1435. Q= -0.000 lam=     0.0
 116     freq=  1451. Q=  0.089 lam=     5.7     freq=  1444. Q=  0.003 lam=     0.0
 117     freq=  1464. Q= -0.082 lam=     5.0     freq=  1449. Q= -0.121 lam=    10.7
 118     freq=  1480. Q= -0.000 lam=     0.0     freq=  1466. Q= -0.015 lam=     0.2
 119     freq=  1484. Q= -0.000 lam=     0.0     freq=  1467. Q= -0.056 lam=     2.3
 120     freq=  1486. Q=  0.000 lam=     0.0     freq=  1485. Q=  0.000 lam=     0.0
 121     freq=  1495. Q=  0.000 lam=     0.0     freq=  1493. Q=  0.011 lam=     0.1
 122     freq=  1496. Q= -0.003 lam=     0.0     freq=  1496. Q= -0.000 lam=     0.0
 123     freq=  1500. Q= -0.025 lam=     0.5     freq=  1498. Q= -0.026 lam=     0.5
 124     freq=  1503. Q= -0.001 lam=     0.0     freq=  1505. Q= -0.000 lam=     0.0
 125     freq=  1505. Q=  0.017 lam=     0.2     freq=  1506. Q=  0.020 lam=     0.3
 126     freq=  1521. Q= -0.026 lam=     0.5     freq=  1511. Q= -0.005 lam=     0.0
 127     freq=  1525. Q= -0.001 lam=     0.0     freq=  1523. Q= -0.027 lam=     0.6
 128     freq=  1566. Q= -0.003 lam=     0.0     freq=  1547. Q= -0.018 lam=     0.2
 129     freq=  1571. Q=  0.035 lam=     1.0     freq=  1555. Q=  0.092 lam=     6.6
 130     freq=  1576. Q=  0.096 lam=     7.2     freq=  1570. Q=  0.005 lam=     0.0
 131     freq=  1587. Q=  0.002 lam=     0.0     freq=  1580. Q=  0.001 lam=     0.0
 132     freq=  1592. Q=  0.002 lam=     0.0     freq=  1598. Q=  0.000 lam=     0.0
 133     freq=  1608. Q= -0.020 lam=     0.3     freq=  1599. Q= -0.008 lam=     0.0
 134     freq=  1625. Q=  0.317 lam=    81.7     freq=  1622. Q=  0.336 lam=    91.4
 135     freq=  1711. Q=  0.000 lam=     0.0     freq=  1685. Q=  0.004 lam=     0.0
 136     freq=  1722. Q= -0.002 lam=     0.0     freq=  1696. Q= -0.002 lam=     0.0
 137     freq=  1760. Q= -0.169 lam=    25.1     freq=  1724. Q= -0.151 lam=    19.6
 138     freq=  1768. Q=  0.210 lam=    39.1     freq=  1734. Q=  0.267 lam=    61.9
 139     freq=  3042. Q= -0.000 lam=     0.0     freq=  3034. Q= -0.000 lam=     0.0
 140     freq=  3045. Q=  0.012 lam=     0.2     freq=  3038. Q=  0.013 lam=     0.2
 141     freq=  3072. Q= -0.012 lam=     0.2     freq=  3061. Q= -0.011 lam=     0.2
 142     freq=  3103. Q= -0.000 lam=     0.0     freq=  3092. Q= -0.000 lam=     0.0
 143     freq=  3106. Q= -0.013 lam=     0.3     freq=  3095. Q= -0.012 lam=     0.2
 144     freq=  3119. Q=  0.004 lam=     0.0     freq=  3112. Q=  0.006 lam=     0.1
 145     freq=  3135. Q=  0.000 lam=     0.0     freq=  3120. Q=  0.000 lam=     0.0
 146     freq=  3139. Q= -0.000 lam=     0.0     freq=  3132. Q= -0.000 lam=     0.0
 147     freq=  3147. Q= -0.008 lam=     0.1     freq=  3143. Q= -0.007 lam=     0.1
 148     freq=  3192. Q= -0.002 lam=     0.0     freq=  3182. Q= -0.003 lam=     0.0
 149     freq=  3205. Q=  0.000 lam=     0.0     freq=  3198. Q=  0.000 lam=     0.0
 150     freq=  3205. Q= -0.000 lam=     0.0     freq=  3198. Q= -0.000 lam=     0.0
 151     freq=  3210. Q=  0.004 lam=     0.0     freq=  3204. Q=  0.003 lam=     0.0
 152     freq=  3210. Q=  0.003 lam=     0.0     freq=  3205. Q=  0.005 lam=     0.0
 153     freq=  3217. Q= -0.000 lam=     0.0     freq=  3213. Q= -0.001 lam=     0.0
 154     freq=  3217. Q= -0.001 lam=     0.0     freq=  3213. Q= -0.000 lam=     0.0
 155     freq=  3229. Q=  0.000 lam=     0.0     freq=  3224. Q=  0.000 lam=     0.0
 156     freq=  3229. Q=  0.001 lam=     0.0     freq=  3224. Q=  0.000 lam=     0.0

 total reorg energy (cm**-1, kcal/mol)=      530.      545.      1.52      1.56
 Nber of molecules processed=           2
