 Enter ifcurve (0=recti, 1=orth curvi, 2=apprx curvi, -1 = skip
 And atom ordering flag, 0= never changes, 1= use the first order thenceforth,
  2= deduce it (does read on fail), 3= always read it
 Reading file: 
 ./Non-cov-phenyl-N_4_C0S0.log                                                  
                                          
  Entering Gaussian System, Link 0=g16                                          
  
 Gaussian format, type: g94, g98, g03= F F F
  #P Geom=AllCheck Guess=TCheck SCRF=Check GenChk RB3LYP/6-311G(d,p) Fre    
 energy type= B3LYP   
 Original G94 input coords:
  6  7.509288  0.000000  0.000000
  6  6.809850 -1.206604  0.000000
  6  5.419727 -1.209251  0.000000
  6  4.709536  0.000000  0.000000
  6  3.228565  0.000000  0.000000
  7  2.604518  1.191579  0.000000
  6  1.277144  1.183136  0.000000
  6  0.528509  0.000000  0.000000
  6 -0.944671  0.000000  0.000000
  7 -1.562840  1.192908  0.000000
  6 -2.891288  1.183842  0.000000
  6 -3.637798  0.000000  0.000000
  6 -5.114668  0.000000  0.000000
  7 -5.729531  1.192885  0.000000
  6 -7.061328  1.181152  0.000000
  6 -7.796308  0.000000  0.000000
  6 -7.061328 -1.181152  0.000000
  7 -5.729531 -1.192885  0.000000
  6 -2.891288 -1.183842  0.000000
  7 -1.562840 -1.192908  0.000000
  6  1.277144 -1.183136  0.000000
  7  2.604518 -1.191579  0.000000
  6  5.419727  1.209251  0.000000
  6  6.809850  1.206604  0.000000
  1  8.593312  0.000000  0.000000
  1  7.349563 -2.146519  0.000000
  1  4.864050 -2.137327  0.000000
  1  0.771269  2.142824  0.000000
  1 -3.397191  2.143157  0.000000
  1 -7.552272  2.150671  0.000000
  1 -8.879110  0.000000  0.000000
  1 -7.552272 -2.150671  0.000000
  1 -3.397191 -2.143157  0.000000
  1  0.771269 -2.142824  0.000000
  1  4.864050  2.137327  0.000000
  1  7.349563  2.146519  0.000000
 nber atoms=          36
 Original standard coords:
  6  0.000000  0.000000  7.683985
  6  0.000000  1.206604  6.984547
  6  0.000000  1.209251  5.594424
  6  0.000000  0.000000  4.884233
  6  0.000000  0.000000  3.403262
  7  0.000000 -1.191579  2.779215
  6  0.000000 -1.183136  1.451841
  6  0.000000  0.000000  0.703206
  6  0.000000  0.000000 -0.769974
  7  0.000000 -1.192908 -1.388143
  6  0.000000 -1.183842 -2.716591
  6  0.000000  0.000000 -3.463101
  6  0.000000  0.000000 -4.939971
  7  0.000000 -1.192885 -5.554834
  6  0.000000 -1.181152 -6.886631
  6  0.000000  0.000000 -7.621611
  6  0.000000  1.181152 -6.886631
  7  0.000000  1.192885 -5.554834
  6  0.000000  1.183842 -2.716591
  7  0.000000  1.192908 -1.388143
  6  0.000000  1.183136  1.451841
  7  0.000000  1.191579  2.779215
  6  0.000000 -1.209251  5.594424
  6  0.000000 -1.206604  6.984547
  1  0.000000  0.000000  8.768009
  1  0.000000  2.146519  7.524260
  1  0.000000  2.137327  5.038747
  1  0.000000 -2.142824  0.945966
  1  0.000000 -2.143157 -3.222494
  1  0.000000 -2.150671 -7.377575
  1  0.000000  0.000000 -8.704413
  1  0.000000  2.150671 -7.377575
  1  0.000000  2.143157 -3.222494
  1  0.000000  2.142824  0.945966
  1  0.000000 -2.137327  5.038747
  1  0.000000 -2.146519  7.524260
  SCF Done:  E(RB3LYP) =  -1021.90319853     A.U. after    1 cycles             
  
          23          40 "  -1021.90319853"
After scan for Atom:   Atom  AN      X      Y      Z        X      Y      Z        X      Y      Z   
After scan for Atom:   Atom  AN      X      Y      Z        X      Y      Z        X      Y      Z   
After scan for Atom:   Atom  AN      X      Y      Z        X      Y      Z        X      Y      Z   
After scan for Atom:   Atom  AN      X      Y      Z        X      Y      Z        X      Y      Z   
After scan for Atom:   Atom  AN      X      Y      Z        X      Y      Z        X      Y      Z   
After scan for Atom:   Atom  AN      X      Y      Z        X      Y      Z        X      Y      Z   
After scan for Atom:   Atom  AN      X      Y      Z        X      Y      Z        X      Y      Z   
After scan for Atom:   Atom  AN      X      Y      Z        X      Y      Z        X      Y      Z   
After scan for Atom:   Atom  AN      X      Y      Z        X      Y      Z        X      Y      Z   
After scan for Atom:   Atom  AN      X      Y      Z        X      Y      Z        X      Y      Z   
After scan for Atom:   Atom  AN      X      Y      Z        X      Y      Z        X      Y      Z   
After scan for Atom:   Atom  AN      X      Y      Z        X      Y      Z        X      Y      Z   
After scan for Atom:   Atom  AN      X      Y      Z        X      Y      Z        X      Y      Z   
After scan for Atom:   Atom  AN      X      Y      Z        X      Y      Z        X      Y      Z   
After scan for Atom:   Atom  AN      X      Y      Z        X      Y      Z        X      Y      Z   
After scan for Atom:   Atom  AN      X      Y      Z        X      Y      Z        X      Y      Z   
After scan for Atom:   Atom  AN      X      Y      Z        X      Y      Z        X      Y      Z   
After scan for Atom:   Atom  AN      X      Y      Z        X      Y      Z        X      Y      Z   
After scan for Atom:   Atom  AN      X      Y      Z        X      Y      Z        X      Y      Z   
After scan for Atom:   Atom  AN      X      Y      Z        X      Y      Z        X      Y      Z   
After scan for Atom:   Atom  AN      X      Y      Z        X      Y      Z        X      Y      Z   
After scan for Atom:   Atom  AN      X      Y      Z        X      Y      Z        X      Y      Z   
After scan for Atom:   Atom  AN      X      Y      Z        X      Y      Z        X      Y      Z   
After scan for Atom:   Atom  AN      X      Y      Z        X      Y      Z        X      Y      Z   
After scan for Atom:   Atom  AN      X      Y      Z        X      Y      Z        X      Y      Z   
After scan for Atom:   Atom  AN      X      Y      Z        X      Y      Z        X      Y      Z   
After scan for Atom:   Atom  AN      X      Y      Z        X      Y      Z        X      Y      Z   
After scan for Atom:   Atom  AN      X      Y      Z        X      Y      Z        X      Y      Z   
After scan for Atom:   Atom  AN      X      Y      Z        X      Y      Z        X      Y      Z   
After scan for Atom:   Atom  AN      X      Y      Z        X      Y      Z        X      Y      Z   
After scan for Atom:   Atom  AN      X      Y      Z        X      Y      Z        X      Y      Z   
After scan for Atom:   Atom  AN      X      Y      Z        X      Y      Z        X      Y      Z   
After scan for Atom:   Atom  AN      X      Y      Z        X      Y      Z        X      Y      Z   
After scan for Atom:   Atom  AN      X      Y      Z        X      Y      Z        X      Y      Z   
 g94    frequencies=
     0.0    0.0    0.0    0.0    0.0    0.0   20.2   28.6   50.2   54.3
    55.7   73.3  120.8  125.0  168.0  175.5  198.8  257.1  337.9  348.6
   387.4  405.3  409.5  414.3  417.3  433.4  458.1  476.5  514.8  517.4
   569.7  605.6  631.1  645.4  660.3  673.8  679.2  709.4  726.3  769.1
   797.1  822.2  827.3  838.2  844.5  857.8  867.1  961.4  995.3 1002.7
  1005.5 1006.6 1009.7 1014.4 1016.0 1017.2 1017.2 1020.1 1038.9 1044.9
  1047.8 1072.0 1082.7 1098.6 1109.6 1115.7 1134.9 1180.2 1194.9 1222.9
  1226.5 1243.6 1271.8 1285.0 1291.7 1336.4 1343.5 1346.3 1349.1 1353.1
  1398.6 1425.4 1429.4 1465.4 1468.5 1481.6 1497.9 1524.6 1555.2 1584.7
  1602.3 1605.9 1620.5 1623.9 1638.4 1647.7 3149.0 3151.4 3164.6 3176.1
  3178.1 3178.7 3182.4 3182.9 3188.0 3199.5 3210.4 3211.5
 g94    symmetries=
                                                B1     A2     B2     A2
      B1     A2     B1     B2     B1     A1     B2     B1     A1     B1
      B2     A2     A2     A2     A2     B1     B2     A1     B2     B1
      B1     B1     B2     B2     B2     B2     A1     B1     A1     B1
      A1     B1     B1     A1     B1     B1     A2     B1     B1     A2
      A2     B1     A1     B1     B1     A2     A1     A2     A1     A1
      A1     A1     A1     B2     A1     B2     A1     B2     A1     B2
      B2     B2     B2     B2     B2     B2     A1     A1     B2     A1
      B2     B2     A1     A1     B2     B2     A1     A1     B2     B2
      A1     B2     A1     B2     A1     A1     A1     B2     A1     B2
      B2     A1     B2     A1     A1     A1     B2     A1
 atomic masses:
 12.0000 12.0000 12.0000 12.0000 12.0000 14.0031 12.0000 12.0000 12.0000 14.0031
 12.0000 12.0000 12.0000 14.0031 12.0000 12.0000 12.0000 14.0031 12.0000 14.0031
 12.0000 14.0031 12.0000 12.0000  1.0078  1.0078  1.0078  1.0078  1.0078  1.0078
  1.0078  1.0078  1.0078  1.0078  1.0078  1.0078
 looking for force constants in 
 ./Non-cov-phenyl-N_4_C0S0.fchk                                                 
  
 Cartesian Force Constants                  R   N=        5886                  
  
 n3=         108        5886
 g94-fc frequencies=
    -2.3   -1.2   -0.7   -0.0   -0.0    0.0   20.2   28.6   50.2   54.3
    55.7   73.3  120.8  125.0  168.0  175.5  198.8  257.1  337.9  348.6
   387.4  405.3  409.5  414.3  417.3  433.4  458.2  476.5  514.8  517.4
   569.7  605.7  631.1  645.4  660.3  673.9  679.2  709.4  726.3  769.2
   797.1  822.2  827.3  838.2  844.5  857.8  867.1  961.4  995.3 1002.7
  1005.6 1006.7 1009.7 1014.5 1016.0 1017.2 1017.2 1020.1 1039.0 1044.9
  1047.8 1072.1 1082.8 1098.6 1109.6 1115.8 1134.9 1180.2 1195.0 1222.9
  1226.5 1243.6 1271.8 1285.0 1291.8 1336.4 1343.5 1346.3 1349.1 1353.1
  1398.6 1425.4 1429.4 1465.4 1468.5 1481.7 1498.0 1524.6 1555.2 1584.8
  1602.3 1605.9 1620.6 1623.9 1638.4 1647.8 3149.1 3151.5 3164.6 3176.2
  3178.2 3178.8 3182.5 3183.0 3188.1 3199.6 3210.4 3211.5
 at 99999: n3=         108
 symm operator            1 :  T  nop=           1
 symm operator            2 :  F  nop=           1
 symm operator            3 :  F  nop=           1
 symm operator            4 :  F  nop=           1
 symm operator            5 :  F  nop=           1
 symm operator            6 :  T  nop=           2
 symm operator            7 :  T  nop=           3
 The point group of the molecule is C2V
 enforcing symm op           1  jsymt=          -1          -1           1
 enforcing symm op           6  jsymt=           1          -1           1
 enforcing symm op           7  jsymt=          -1           1           1
 cartesian coord symmetries:
 A1 :   36 A2 :   13 B1 :   23 B2 :   36
 Symmetry rotation matrix:
   1.00000   0.00000   0.00000
   0.00000   1.00000   0.00000
   0.00000   0.00000   1.00000

 Projecting out zero-frequency components
 generating redundant internal coords
         300        3600          36
 search for int coords
   1 str   2   1   1.395
   2 str   3   2   1.390
   3 str   4   3   1.402
   4 str   5   4   1.481
   5 str   6   5   1.345
   6 str   7   6   1.327
   7 str   8   7   1.400
   8 str   9   8   1.473
   9 str  10   9   1.344
  10 str  11  10   1.328
  11 str  12  11   1.400
  12 str  13  12   1.477
  13 str  14  13   1.342
  14 str  15  14   1.332
  15 str  16  15   1.391
  16 str  17  16   1.391
  17 str  18  13   1.342
  18 str  18  17   1.332
  19 str  19  12   1.400
  20 str  20   9   1.344
  21 str  20  19   1.328
  22 str  21   8   1.400
  23 str  22   5   1.345
  24 str  22  21   1.327
  25 str  23   4   1.402
  26 str  24   1   1.395
  27 str  24  23   1.390
  28 str  25   1   1.084
  29 str  26   2   1.084
  30 str  27   3   1.082
  31 str  28   7   1.085
  32 str  29  11   1.085
  33 str  30  15   1.087
  34 str  31  16   1.083
  35 str  32  17   1.087
  36 str  33  19   1.085
  37 str  34  21   1.085
  38 str  35  23   1.082
  39 str  36  24   1.084
 nber stretches=          39
  40 ben   1   2   3
  41 prop tor   1   2   3   4
  42 prop tor   1   2   3  27
  43 ben   1   2  26
  44 ben   1  24  23
  45 ben   1  24  36
  46 ben   2   1  24
  47 prop tor   2   1  24  23
  48 prop tor   2   1  24  36
  49 ben   2   1  25
  50 ben   2   3   4
  51 prop tor   2   3   4   5
  52 prop tor   2   3   4  23
  53 ben   2   3  27
  54 ben   3   2  26
  55 ben   3   4   5
  56 prop tor   3   4   5   6
  57 prop tor   3   4   5  22
  58 ben   3   4  23
  59 prop tor   3   4  23  24
  60 prop tor   3   4  23  35
  61 ben   4   3  27
  62 ben   4   5   6
  63 prop tor   4   5   6   7
  64 ben   4   5  22
  65 prop tor   4   5  22  21
  66 ben   4  23  24
  67 prop tor   4  23  24   1
  68 prop tor   4  23  24  36
  69 ben   4  23  35
  70 ben   5   4  23
  71 prop tor   5   4  23  24
  72 prop tor   5   4  23  35
  73 ben   5   6   7
  74 prop tor   5   6   7   8
  75 prop tor   5   6   7  28
  76 ben   5  22  21
  77 ben   6   5  22
  78 prop tor   6   5  22  21
  79 ben   6   7   8
  80 prop tor   6   7   8   9
  81 prop tor   6   7   8  21
  82 ben   6   7  28
  83 ben   7   8   9
  84 prop tor   7   8   9  10
  85 prop tor   7   8   9  20
  86 ben   7   8  21
  87 prop tor   7   8  21  22
  88 prop tor   7   8  21  34
  89 ben   8   7  28
  90 ben   8   9  10
  91 prop tor   8   9  10  11
  92 ben   8   9  20
  93 prop tor   8   9  20  19
  94 ben   8  21  22
  95 prop tor   8  21  22   5
  96 ben   8  21  34
  97 ben   9   8  21
  98 prop tor   9   8  21  22
  99 prop tor   9   8  21  34
 100 ben   9  10  11
 101 prop tor   9  10  11  12
 102 prop tor   9  10  11  29
 103 ben   9  20  19
 104 ben  10   9  20
 105 prop tor  10   9  20  19
 106 ben  10  11  12
 107 prop tor  10  11  12  13
 108 prop tor  10  11  12  19
 109 ben  10  11  29
 110 ben  11  12  13
 111 prop tor  11  12  13  14
 112 prop tor  11  12  13  18
 113 ben  11  12  19
 114 prop tor  11  12  19  20
 115 prop tor  11  12  19  33
 116 ben  12  11  29
 117 ben  12  13  14
 118 prop tor  12  13  14  15
 119 ben  12  13  18
 120 prop tor  12  13  18  17
 121 ben  12  19  20
 122 prop tor  12  19  20   9
 123 ben  12  19  33
 124 ben  13  12  19
 125 prop tor  13  12  19  20
 126 prop tor  13  12  19  33
 127 ben  13  14  15
 128 prop tor  13  14  15  16
 129 prop tor  13  14  15  30
 130 ben  13  18  17
 131 ben  14  13  18
 132 prop tor  14  13  18  17
 133 ben  14  15  16
 134 prop tor  14  15  16  17
 135 prop tor  14  15  16  31
 136 ben  14  15  30
 137 ben  15  16  17
 138 prop tor  15  16  17  18
 139 prop tor  15  16  17  32
 140 ben  15  16  31
 141 ben  16  15  30
 142 ben  16  17  18
 143 prop tor  16  17  18  13
 144 ben  16  17  32
 145 ben  17  16  31
 146 prop tor  18  13  14  15
 147 ben  18  17  32
 148 prop tor  19  12  13  14
 149 prop tor  19  12  13  18
 150 prop tor  20   9  10  11
 151 ben  20  19  33
 152 prop tor  21   8   9  10
 153 prop tor  21   8   9  20
 154 prop tor  22   5   6   7
 155 ben  22  21  34
 156 prop tor  23   4   5   6
 157 prop tor  23   4   5  22
 158 ben  23  24  36
 159 prop tor  24   1   2   3
 160 prop tor  24   1   2  26
 161 ben  24   1  25
 162 ben  24  23  35
 163 prop tor  25   1   2   3
 164 prop tor  25   1   2  26
 165 prop tor  25   1  24  23
 166 prop tor  25   1  24  36
 167 prop tor  26   2   3   4
 168 prop tor  26   2   3  27
 169 prop tor  27   3   4   5
 170 prop tor  27   3   4  23
 171 prop tor  28   7   8   9
 172 prop tor  28   7   8  21
 173 prop tor  29  11  12  13
 174 prop tor  29  11  12  19
 175 prop tor  30  15  16  17
 176 prop tor  30  15  16  31
 177 prop tor  31  16  17  18
 178 prop tor  31  16  17  32
 179 prop tor  32  17  18  13
 180 prop tor  33  19  20   9
 181 prop tor  34  21  22   5
 182 prop tor  35  23  24   1
 183 prop tor  35  23  24  36
 nber bend=              60
 nber lin bend=           0
 nber prop tor=          84
 nber impr tor=           0
 nber tot redund int=         183
 Eigenvalues of G in red int coords
    Gval -0.00000000 -0.00000000 -0.00000000 -0.00000000 -0.00000000 -0.00000000 -0.00000000 -0.00000000
    Gval -0.00000000 -0.00000000 -0.00000000 -0.00000000 -0.00000000 -0.00000000 -0.00000000 -0.00000000
    Gval -0.00000000 -0.00000000 -0.00000000 -0.00000000 -0.00000000 -0.00000000 -0.00000000 -0.00000000
    Gval -0.00000000 -0.00000000 -0.00000000 -0.00000000 -0.00000000 -0.00000000 -0.00000000 -0.00000000
    Gval -0.00000000 -0.00000000 -0.00000000 -0.00000000 -0.00000000 -0.00000000  0.00000000  0.00000000
    Gval  0.00000000  0.00000000  0.00000000  0.00000000  0.00000000  0.00000000  0.00000000  0.00000000
    Gval  0.00000000  0.00000000  0.00000000  0.00000000  0.00000000  0.00000000  0.00000000  0.00000000
    Gval  0.00000000  0.00000000  0.00000000  0.00000000  0.00000000  0.00000000  0.00000000  0.00000000
    Gval  0.00000000  0.00000000  0.00000000  0.00000000  0.00000000  0.00000000  0.00000000  0.00000000
    Gval  0.00000000  0.00000000  0.00000000  0.00000000  0.00000000  0.00000000  0.00000000  0.00000000
    Gval  0.00000000  0.00000050  0.00000161  0.00000204  0.00000297  0.00000772  0.00000874  0.00001194
    Gval  0.00001265  0.00001529  0.00001966  0.00002822  0.00002993  0.00004187  0.00004487  0.00004615
    Gval  0.00004645  0.00004720  0.00004811  0.00005505  0.00005513  0.00005862  0.00005891  0.00006574
    Gval  0.00006634  0.00007704  0.00008636  0.00008751  0.00010136  0.00010539  0.00010612  0.00011500
    Gval  0.00011671  0.00011744  0.00011896  0.00012172  0.00012665  0.00013105  0.00016982  0.00021132
    Gval  0.00021441  0.00024778  0.00026437  0.00026802  0.00028195  0.00029717  0.00031776  0.00034879
    Gval  0.00036086  0.00036451  0.00037903  0.00038912  0.00039455  0.00041230  0.00042897  0.00049812
    Gval  0.00051628  0.00055660  0.00058733  0.00059186  0.00059306  0.00059364  0.00059373  0.00060414
    Gval  0.00060460  0.00061858  0.00062135  0.00062466  0.00062630  0.00062705  0.00064167  0.00066062
    Gval  0.00071751  0.00088659  0.00104051  0.00104076  0.00106063  0.00110601  0.00110711  0.00111095
    Gval  0.00112965  0.00113028  0.00113107  0.00114107  0.00117294  0.00117412  0.00117414  0.00140169
    Gval  0.00143163  0.00144856  0.00151088  0.00159481  0.00185957  0.00225492  0.00225849  0.00226757
    Gval  0.00234112  0.00235011  0.00238834  0.00312539  0.00373097  0.00376974  0.00407740
  4.958028500365906E-007  4.958028500365906E-007
  1.605542461473829E-006  4.958028500365906E-007
  2.044880371360733E-006  4.958028500365906E-007
  2.970509106765269E-006  4.958028500365906E-007
  7.720070574616854E-006  4.958028500365906E-007
  8.738539320202835E-006  4.958028500365906E-007
  1.193878036842887E-005  4.958028500365906E-007
  1.265052877402458E-005  4.958028500365906E-007
  1.529155930552410E-005  4.958028500365906E-007
  1.966351263808605E-005  4.958028500365906E-007
  2.821826398834870E-005  4.958028500365906E-007
  2.992572909934434E-005  4.958028500365906E-007
  4.187167074041593E-005  4.958028500365906E-007
  4.487112019842927E-005  4.958028500365906E-007
  4.614875515375126E-005  4.958028500365906E-007
  4.645481875690772E-005  4.958028500365906E-007
  4.720165527026529E-005  4.958028500365906E-007
  4.811396234900833E-005  4.958028500365906E-007
  5.505407058418051E-005  4.958028500365906E-007
  5.513157845305219E-005  4.958028500365906E-007
  5.861875312749280E-005  4.958028500365906E-007
  5.891103585373939E-005  4.958028500365906E-007
  6.574403165949257E-005  4.958028500365906E-007
  6.633856638296185E-005  4.958028500365906E-007
  7.704329861231241E-005  4.958028500365906E-007
  8.635618693408296E-005  4.958028500365906E-007
  8.750573412796370E-005  4.958028500365906E-007
  1.013560356165634E-004  4.958028500365906E-007
  1.053903752950280E-004  4.958028500365906E-007
  1.061181501561979E-004  4.958028500365906E-007
  1.150028926117386E-004  4.958028500365906E-007
  1.167116770656372E-004  4.958028500365906E-007
  1.174430257244888E-004  4.958028500365906E-007
  1.189641530552674E-004  4.958028500365906E-007
  1.217189821643608E-004  4.958028500365906E-007
  1.266452298098586E-004  4.958028500365906E-007
  1.310548925724946E-004  4.958028500365906E-007
  1.698224113266861E-004  4.958028500365906E-007
  2.113199144773580E-004  4.958028500365906E-007
  2.144088322290642E-004  4.958028500365906E-007
  2.477843196340946E-004  4.958028500365906E-007
  2.643652452316550E-004  4.958028500365906E-007
  2.680161683609850E-004  4.958028500365906E-007
  2.819482238494672E-004  4.958028500365906E-007
  2.971709469374816E-004  4.958028500365906E-007
  3.177613924611427E-004  4.958028500365906E-007
  3.487939032815417E-004  4.958028500365906E-007
  3.608556681583943E-004  4.958028500365906E-007
  3.645097272194701E-004  4.958028500365906E-007
  3.790324737906919E-004  4.958028500365906E-007
  3.891227459339248E-004  4.958028500365906E-007
  3.945504338926054E-004  4.958028500365906E-007
  4.123031477426541E-004  4.958028500365906E-007
  4.289722700257062E-004  4.958028500365906E-007
  4.981196072744146E-004  4.958028500365906E-007
  5.162810355766216E-004  4.958028500365906E-007
  5.566029165343198E-004  4.958028500365906E-007
  5.873277918241310E-004  4.958028500365906E-007
  5.918555366731465E-004  4.958028500365906E-007
  5.930609382825542E-004  4.958028500365906E-007
  5.936438115638353E-004  4.958028500365906E-007
  5.937315648729931E-004  4.958028500365906E-007
  6.041354999714911E-004  4.958028500365906E-007
  6.045972098337659E-004  4.958028500365906E-007
  6.185815979742555E-004  4.958028500365906E-007
  6.213480897443076E-004  4.958028500365906E-007
  6.246630925437945E-004  4.958028500365906E-007
  6.263027115833577E-004  4.958028500365906E-007
  6.270490596669650E-004  4.958028500365906E-007
  6.416684100033263E-004  4.958028500365906E-007
  6.606175866865225E-004  4.958028500365906E-007
  7.175098138256119E-004  4.958028500365906E-007
  8.865869032063398E-004  4.958028500365906E-007
  1.040513368381417E-003  4.958028500365906E-007
  1.040764901227628E-003  4.958028500365906E-007
  1.060626911030209E-003  4.958028500365906E-007
  1.106011453019249E-003  4.958028500365906E-007
  1.107107094819719E-003  4.958028500365906E-007
  1.110950341621906E-003  4.958028500365906E-007
  1.129651947590059E-003  4.958028500365906E-007
  1.130284316592388E-003  4.958028500365906E-007
  1.131072963419557E-003  4.958028500365906E-007
  1.141073185355478E-003  4.958028500365906E-007
  1.172937710157148E-003  4.958028500365906E-007
  1.174121749437469E-003  4.958028500365906E-007
  1.174142630426641E-003  4.958028500365906E-007
  1.401685445794460E-003  4.958028500365906E-007
  1.431628779164963E-003  4.958028500365906E-007
  1.448556905969155E-003  4.958028500365906E-007
  1.510883764170646E-003  4.958028500365906E-007
  1.594814788834960E-003  4.958028500365906E-007
  1.859569281249397E-003  4.958028500365906E-007
  2.254922932062801E-003  4.958028500365906E-007
  2.258493218555370E-003  4.958028500365906E-007
  2.267567378991672E-003  4.958028500365906E-007
  2.341116492864658E-003  4.958028500365906E-007
  2.350109342538550E-003  4.958028500365906E-007
  2.388344904302200E-003  4.958028500365906E-007
  3.125391462170332E-003  4.958028500365906E-007
  3.730966367472582E-003  4.958028500365906E-007
  3.769737400485227E-003  4.958028500365906E-007
  4.077395287938632E-003  4.958028500365906E-007
 cut=1d-8, nber non-redundant internal coords=         102
 Check on Eigenvals of non-red overlap matrix:
  0.00000050  0.00000161  0.00000204  0.00000297  0.00000772  0.00000874  0.00001194  0.00001265
  0.00001529  0.00001966  0.00002822  0.00002993  0.00004187  0.00004487  0.00004615  0.00004645
  0.00004720  0.00004811  0.00005505  0.00005513  0.00005862  0.00005891  0.00006574  0.00006634
  0.00007704  0.00008636  0.00008751  0.00010136  0.00010539  0.00010612  0.00011500  0.00011671
  0.00011744  0.00011896  0.00012172  0.00012665  0.00013105  0.00016982  0.00021132  0.00021441
  0.00024778  0.00026437  0.00026802  0.00028195  0.00029717  0.00031776  0.00034879  0.00036086
  0.00036451  0.00037903  0.00038912  0.00039455  0.00041230  0.00042897  0.00049812  0.00051628
  0.00055660  0.00058733  0.00059186  0.00059306  0.00059364  0.00059373  0.00060414  0.00060460
  0.00061858  0.00062135  0.00062466  0.00062630  0.00062705  0.00064167  0.00066062  0.00071751
  0.00088659  0.00104051  0.00104076  0.00106063  0.00110601  0.00110711  0.00111095  0.00112965
  0.00113028  0.00113107  0.00114107  0.00117294  0.00117412  0.00117414  0.00140169  0.00143163
  0.00144856  0.00151088  0.00159481  0.00185957  0.00225492  0.00225849  0.00226757  0.00234112
  0.00235011  0.00238834  0.00312539  0.00373097  0.00376974  0.00407740
 Checking for correct frequencies
 recalc frequencies=
    -0.0   -0.0   -0.0    0.0    0.0    0.0   20.2   28.6   50.2   54.3
    55.7   73.3  120.8  125.0  168.0  175.5  198.8  257.1  337.9  348.6
   387.4  405.3  409.5  414.3  417.3  433.4  458.2  476.5  514.8  517.4
   569.7  605.7  631.1  645.4  660.3  673.9  679.2  709.4  726.3  769.2
   797.1  822.2  827.3  838.2  844.5  857.8  867.1  961.4  995.3 1002.7
  1005.6 1006.7 1009.7 1014.5 1016.0 1017.2 1017.2 1020.1 1039.0 1044.9
  1047.8 1072.1 1082.8 1098.6 1109.6 1115.8 1134.9 1180.2 1195.0 1222.9
  1226.5 1243.6 1271.8 1285.0 1291.8 1336.4 1343.5 1346.3 1349.1 1353.1
  1398.6 1425.4 1429.4 1465.4 1468.5 1481.7 1498.0 1524.6 1555.2 1584.8
  1602.3 1605.9 1620.6 1623.9 1638.4 1647.8 3149.1 3151.5 3164.6 3176.2
  3178.2 3178.8 3182.5 3183.0 3188.1 3199.6 3210.4 3211.5
 recalc symmetries=
     A1     B2     B1     A2     B1     B2     B1     A2     B2     A2 
     B1     A2     B1     B2     B1     A1     B2     B1     A1     B1 
     B2     A2     A2     A2     A2     B1     B2     A1     B2     B1 
     B1     B1     B2     B2     B2     B2     A1     B1     A1     B1 
     A1     B1     B1     A1     B1     B1     A2     B1     B1     A2 
     A2     B1     A1     B1     B1     A2     A1     A2     A1     A1 
     A1     A1     A1     B2     A1     B2     A1     B2     A1     B2 
     B2     B2     B2     B2     B2     B2     A1     A1     B2     A1 
     B2     B2     A1     A1     B2     B2     A1     A1     B2     B2 
     A1     B2     A1     B2     A1     A1     A1     B2     A1     B2 
     B2     A1     B2     A1     A1     A1     B2     A1 
 recalc freqs check OK
 Zero-point lengths:
 10.0000 10.0000 10.0000 10.0000 10.0000 10.0000 55.2064 46.3667 34.9925 33.6282
 33.2101 28.9502 22.5522 22.1717 19.1285 18.7149 17.5822 15.4598 13.4874 13.2782
 12.5950 12.3142 12.2510 12.1794 12.1362 11.9080 11.5821 11.3572 10.9265 10.8984
 10.3869 10.0735  9.8683  9.7581  9.6477  9.5502  9.5126  9.3079  9.1987  8.9389
  8.7809  8.6456  8.6190  8.5629  8.5310  8.4646  8.4191  7.9953  7.8582  7.8292
  7.8179  7.8136  7.8019  7.7836  7.7775  7.7730  7.7730  7.7620  7.6912  7.6694
  7.6587  7.5716  7.5340  7.4796  7.4423  7.4218  7.3588  7.2163  7.1717  7.0892
  7.0789  7.0300  6.9516  6.9158  6.8977  6.7816  6.7635  6.7564  6.7495  6.7395
  6.6289  6.5664  6.5571  6.4761  6.4692  6.4405  6.4054  6.3491  6.2863  6.2275
  6.1933  6.1863  6.1583  6.1519  6.1247  6.1072  4.4178  4.4161  4.4069  4.3989
  4.3975  4.3971  4.3945  4.3942  4.3907  4.3828  4.3754  4.3746
 highest evec of mol 1
  0.0000  0.0000  0.0278
  0.0000  0.0465  0.0337
  0.0000  0.1701 -0.1004
  0.0000  0.0000 -0.0079
  0.0000  0.0000 -0.0020
  0.0000  0.0011 -0.0004
  0.0000  0.0017  0.0006
  0.0000  0.0000  0.0002
  0.0000  0.0000 -0.0002
  0.0000  0.0001  0.0001
  0.0000 -0.0002 -0.0002
  0.0000  0.0000  0.0001
  0.0000  0.0000 -0.0001
  0.0000  0.0000  0.0000
  0.0000 -0.0001 -0.0001
  0.0000  0.0000 -0.0002
  0.0000  0.0001 -0.0001
  0.0000 -0.0000  0.0000
  0.0000  0.0002 -0.0002
  0.0000 -0.0001  0.0001
  0.0000 -0.0017  0.0006
  0.0000 -0.0011 -0.0004
  0.0000 -0.1701 -0.1004
  0.0000 -0.0465  0.0337
  0.0000  0.0000 -0.0802
  0.0000 -0.1508 -0.0887
  0.0000 -0.5610  0.3296
  0.0000 -0.0046 -0.0023
  0.0000  0.0008  0.0004
  0.0000  0.0004  0.0002
  0.0000  0.0000  0.0007
  0.0000 -0.0004  0.0002
  0.0000 -0.0008  0.0004
  0.0000  0.0046 -0.0023
  0.0000  0.5610  0.3296
  0.0000  0.1508 -0.0887
 generating redundant internal coords
         300        3600          36
 Adding extra bonds for z output only
           6           6           6           6           6           7
           6           6           6           7           6           6
           6           7           6           6           6           7
           6           7           6           7           6           6
           1           1           1           1           1           1
           1           1           1           1           1           1
 search for int coords
   1 str   2   1   1.395
   2 str   3   2   1.390
   3 str   4   3   1.402
   4 str   5   4   1.481
   5 str   6   5   1.345
   6 str   7   6   1.327
   7 str   8   7   1.400
   8 str   9   8   1.473
   9 str  10   9   1.344
  10 str  11  10   1.328
  11 str  12  11   1.400
  12 str  13  12   1.477
  13 str  14  13   1.342
  14 str  15  14   1.332
  15 str  16  15   1.391
  16 str  17  16   1.391
  17 str  18  13   1.342
  18 str  18  17   1.332
  19 str  19  12   1.400
  20 str  20   9   1.344
  21 str  20  19   1.328
  22 str  21   8   1.400
  23 str  22   5   1.345
  24 str  22  21   1.327
  25 str  23   4   1.402
  26 str  24   1   1.395
  27 str  24  23   1.390
  28 str  25   1   1.084
  29 str  26   2   1.084
  30 str  27   3   1.082
  31 str  28   7   1.085
  32 str  29  11   1.085
  33 str  30  15   1.087
  34 str  31  16   1.083
  35 str  32  17   1.087
  36 str  33  19   1.085
  37 str  34  21   1.085
  38 str  35  23   1.082
  39 str  36  24   1.084
 nber stretches=          39
  40 ben   1   2   3
  41 prop tor   1   2   3   4
  42 prop tor   1   2   3  27
  43 ben   1   2  26
  44 ben   1  24  23
  45 ben   1  24  36
  46 ben   2   1  24
  47 prop tor   2   1  24  23
  48 prop tor   2   1  24  36
  49 ben   2   1  25
  50 ben   2   3   4
  51 prop tor   2   3   4   5
  52 prop tor   2   3   4  23
  53 ben   2   3  27
  54 ben   3   2  26
  55 ben   3   4   5
  56 prop tor   3   4   5   6
  57 prop tor   3   4   5  22
  58 ben   3   4  23
  59 prop tor   3   4  23  24
  60 prop tor   3   4  23  35
  61 ben   4   3  27
  62 ben   4   5   6
  63 prop tor   4   5   6   7
  64 ben   4   5  22
  65 prop tor   4   5  22  21
  66 ben   4  23  24
  67 prop tor   4  23  24   1
  68 prop tor   4  23  24  36
  69 ben   4  23  35
  70 ben   5   4  23
  71 prop tor   5   4  23  24
  72 prop tor   5   4  23  35
  73 ben   5   6   7
  74 prop tor   5   6   7   8
  75 prop tor   5   6   7  28
  76 ben   5  22  21
  77 ben   6   5  22
  78 prop tor   6   5  22  21
  79 ben   6   7   8
  80 prop tor   6   7   8   9
  81 prop tor   6   7   8  21
  82 ben   6   7  28
  83 ben   7   8   9
  84 prop tor   7   8   9  10
  85 prop tor   7   8   9  20
  86 ben   7   8  21
  87 prop tor   7   8  21  22
  88 prop tor   7   8  21  34
  89 ben   8   7  28
  90 ben   8   9  10
  91 prop tor   8   9  10  11
  92 ben   8   9  20
  93 prop tor   8   9  20  19
  94 ben   8  21  22
  95 prop tor   8  21  22   5
  96 ben   8  21  34
  97 ben   9   8  21
  98 prop tor   9   8  21  22
  99 prop tor   9   8  21  34
 100 ben   9  10  11
 101 prop tor   9  10  11  12
 102 prop tor   9  10  11  29
 103 ben   9  20  19
 104 ben  10   9  20
 105 prop tor  10   9  20  19
 106 ben  10  11  12
 107 prop tor  10  11  12  13
 108 prop tor  10  11  12  19
 109 ben  10  11  29
 110 ben  11  12  13
 111 prop tor  11  12  13  14
 112 prop tor  11  12  13  18
 113 ben  11  12  19
 114 prop tor  11  12  19  20
 115 prop tor  11  12  19  33
 116 ben  12  11  29
 117 ben  12  13  14
 118 prop tor  12  13  14  15
 119 ben  12  13  18
 120 prop tor  12  13  18  17
 121 ben  12  19  20
 122 prop tor  12  19  20   9
 123 ben  12  19  33
 124 ben  13  12  19
 125 prop tor  13  12  19  20
 126 prop tor  13  12  19  33
 127 ben  13  14  15
 128 prop tor  13  14  15  16
 129 prop tor  13  14  15  30
 130 ben  13  18  17
 131 ben  14  13  18
 132 prop tor  14  13  18  17
 133 ben  14  15  16
 134 prop tor  14  15  16  17
 135 prop tor  14  15  16  31
 136 ben  14  15  30
 137 ben  15  16  17
 138 prop tor  15  16  17  18
 139 prop tor  15  16  17  32
 140 ben  15  16  31
 141 ben  16  15  30
 142 ben  16  17  18
 143 prop tor  16  17  18  13
 144 ben  16  17  32
 145 ben  17  16  31
 146 prop tor  18  13  14  15
 147 ben  18  17  32
 148 prop tor  19  12  13  14
 149 prop tor  19  12  13  18
 150 prop tor  20   9  10  11
 151 ben  20  19  33
 152 prop tor  21   8   9  10
 153 prop tor  21   8   9  20
 154 prop tor  22   5   6   7
 155 ben  22  21  34
 156 prop tor  23   4   5   6
 157 prop tor  23   4   5  22
 158 ben  23  24  36
 159 prop tor  24   1   2   3
 160 prop tor  24   1   2  26
 161 ben  24   1  25
 162 ben  24  23  35
 163 prop tor  25   1   2   3
 164 prop tor  25   1   2  26
 165 prop tor  25   1  24  23
 166 prop tor  25   1  24  36
 167 prop tor  26   2   3   4
 168 prop tor  26   2   3  27
 169 prop tor  27   3   4   5
 170 prop tor  27   3   4  23
 171 prop tor  28   7   8   9
 172 prop tor  28   7   8  21
 173 prop tor  29  11  12  13
 174 prop tor  29  11  12  19
 175 prop tor  30  15  16  17
 176 prop tor  30  15  16  31
 177 prop tor  31  16  17  18
 178 prop tor  31  16  17  32
 179 prop tor  32  17  18  13
 180 prop tor  33  19  20   9
 181 prop tor  34  21  22   5
 182 prop tor  35  23  24   1
 183 prop tor  35  23  24  36
 nber bend=              60
 nber lin bend=           0
 nber prop tor=          84
 nber impr tor=           0
 nber tot redund int=         183
 Reading file: 
 ./Non-cov-phenyl-N_4_C1S0.log                                                  
                                          
  Entering Gaussian System, Link 0=g16                                          
  
 Gaussian format, type: g94, g98, g03= F F F
  #P Geom=AllCheck Guess=TCheck SCRF=Check GenChk UB3LYP/6-311G(d,p) Fre    
 energy type= B3LYP   
 Original G94 input coords:
  6  7.451592  0.000000  0.000000
  6  6.757901 -1.222345  0.000000
  6  5.379881 -1.229604  0.000000
  6  4.664699  0.000000  0.000000
  6  3.217284  0.000000  0.000000
  7  2.590219  1.204447  0.000000
  6  1.275618  1.202545  0.000000
  6  0.522932  0.000000  0.000000
  6 -0.928271  0.000000  0.000000
  7 -1.542307  1.201416  0.000000
  6 -2.864348  1.197305  0.000000
  6 -3.609868  0.000000  0.000000
  6 -5.079607  0.000000  0.000000
  7 -5.685181  1.196854  0.000000
  6 -7.016551  1.188177  0.000000
  6 -7.746639  0.000000  0.000000
  6 -7.016551 -1.188177  0.000000
  7 -5.685181 -1.196854  0.000000
  6 -2.864348 -1.197305  0.000000
  7 -1.542307 -1.201416  0.000000
  6  1.275618 -1.202545  0.000000
  7  2.590219 -1.204447  0.000000
  6  5.379881  1.229604  0.000000
  6  6.757901  1.222345  0.000000
  1  8.535248  0.000000  0.000000
  1  7.308525 -2.154407  0.000000
  1  4.819802 -2.154177  0.000000
  1  0.763202  2.158292  0.000000
  1 -3.376073  2.152797  0.000000
  1 -7.509714  2.155123  0.000000
  1 -8.829322  0.000000  0.000000
  1 -7.509714 -2.155123  0.000000
  1 -3.376073 -2.152797  0.000000
  1  0.763202 -2.158292  0.000000
  1  4.819802  2.154177  0.000000
  1  7.308525  2.154407  0.000000
 nber atoms=          36
 Original standard coords:
  6  0.000000  0.000000  7.623577
  6  0.000000  1.222345  6.929886
  6  0.000000  1.229604  5.551866
  6  0.000000  0.000000  4.836684
  6  0.000000  0.000000  3.389269
  7  0.000000 -1.204447  2.762204
  6  0.000000 -1.202545  1.447603
  6  0.000000  0.000000  0.694917
  6  0.000000  0.000000 -0.756286
  7  0.000000 -1.201416 -1.370322
  6  0.000000 -1.197305 -2.692363
  6  0.000000  0.000000 -3.437882
  6  0.000000  0.000000 -4.907622
  7  0.000000 -1.196854 -5.513196
  6  0.000000 -1.188177 -6.844565
  6  0.000000  0.000000 -7.574654
  6  0.000000  1.188177 -6.844565
  7  0.000000  1.196854 -5.513196
  6  0.000000  1.197305 -2.692363
  7  0.000000  1.201416 -1.370322
  6  0.000000  1.202545  1.447603
  7  0.000000  1.204447  2.762204
  6  0.000000 -1.229604  5.551866
  6  0.000000 -1.222345  6.929886
  1  0.000000  0.000000  8.707233
  1  0.000000  2.154407  7.480510
  1  0.000000  2.154177  4.991787
  1  0.000000 -2.158292  0.935187
  1  0.000000 -2.152797 -3.204087
  1  0.000000 -2.155123 -7.337729
  1  0.000000  0.000000 -8.657337
  1  0.000000  2.155123 -7.337729
  1  0.000000  2.152797 -3.204087
  1  0.000000  2.158292  0.935187
  1  0.000000 -2.154177  4.991787
  1  0.000000 -2.154407  7.480510
  SCF Done:  E(UB3LYP) =  -1021.62114094     A.U. after    1 cycles             
  
          23          40 "  -1021.62114094"
After scan for Atom:   Atom  AN      X      Y      Z        X      Y      Z        X      Y      Z   
After scan for Atom:   Atom  AN      X      Y      Z        X      Y      Z        X      Y      Z   
After scan for Atom:   Atom  AN      X      Y      Z        X      Y      Z        X      Y      Z   
After scan for Atom:   Atom  AN      X      Y      Z        X      Y      Z        X      Y      Z   
After scan for Atom:   Atom  AN      X      Y      Z        X      Y      Z        X      Y      Z   
After scan for Atom:   Atom  AN      X      Y      Z        X      Y      Z        X      Y      Z   
After scan for Atom:   Atom  AN      X      Y      Z        X      Y      Z        X      Y      Z   
After scan for Atom:   Atom  AN      X      Y      Z        X      Y      Z        X      Y      Z   
After scan for Atom:   Atom  AN      X      Y      Z        X      Y      Z        X      Y      Z   
After scan for Atom:   Atom  AN      X      Y      Z        X      Y      Z        X      Y      Z   
After scan for Atom:   Atom  AN      X      Y      Z        X      Y      Z        X      Y      Z   
After scan for Atom:   Atom  AN      X      Y      Z        X      Y      Z        X      Y      Z   
After scan for Atom:   Atom  AN      X      Y      Z        X      Y      Z        X      Y      Z   
After scan for Atom:   Atom  AN      X      Y      Z        X      Y      Z        X      Y      Z   
After scan for Atom:   Atom  AN      X      Y      Z        X      Y      Z        X      Y      Z   
After scan for Atom:   Atom  AN      X      Y      Z        X      Y      Z        X      Y      Z   
After scan for Atom:   Atom  AN      X      Y      Z        X      Y      Z        X      Y      Z   
After scan for Atom:   Atom  AN      X      Y      Z        X      Y      Z        X      Y      Z   
After scan for Atom:   Atom  AN      X      Y      Z        X      Y      Z        X      Y      Z   
After scan for Atom:   Atom  AN      X      Y      Z        X      Y      Z        X      Y      Z   
After scan for Atom:   Atom  AN      X      Y      Z        X      Y      Z        X      Y      Z   
After scan for Atom:   Atom  AN      X      Y      Z        X      Y      Z        X      Y      Z   
After scan for Atom:   Atom  AN      X      Y      Z        X      Y      Z        X      Y      Z   
After scan for Atom:   Atom  AN      X      Y      Z        X      Y      Z        X      Y      Z   
After scan for Atom:   Atom  AN      X      Y      Z        X      Y      Z        X      Y      Z   
After scan for Atom:   Atom  AN      X      Y      Z        X      Y      Z        X      Y      Z   
After scan for Atom:   Atom  AN      X      Y      Z        X      Y      Z        X      Y      Z   
After scan for Atom:   Atom  AN      X      Y      Z        X      Y      Z        X      Y      Z   
After scan for Atom:   Atom  AN      X      Y      Z        X      Y      Z        X      Y      Z   
After scan for Atom:   Atom  AN      X      Y      Z        X      Y      Z        X      Y      Z   
After scan for Atom:   Atom  AN      X      Y      Z        X      Y      Z        X      Y      Z   
After scan for Atom:   Atom  AN      X      Y      Z        X      Y      Z        X      Y      Z   
After scan for Atom:   Atom  AN      X      Y      Z        X      Y      Z        X      Y      Z   
After scan for Atom:   Atom  AN      X      Y      Z        X      Y      Z        X      Y      Z   
 g94    frequencies=
     0.0    0.0    0.0    0.0    0.0    0.0   18.6   32.1   51.3   51.5
    64.3   96.2  115.7  126.9  153.7  176.8  199.8  240.2  331.8  339.2
   386.0  389.6  404.9  408.3  413.3  415.3  459.4  476.5  480.5  515.1
   547.2  597.1  602.6  638.3  649.4  664.9  666.1  671.8  723.5  783.2
   784.5  818.1  823.6  825.7  844.6  847.7  862.5  972.5  988.1 1001.9
  1002.6 1003.6 1009.0 1009.4 1015.3 1021.6 1023.2 1026.4 1030.4 1033.9
  1037.2 1048.1 1068.5 1088.3 1109.7 1120.4 1123.9 1181.1 1204.3 1220.1
  1250.5 1259.5 1282.6 1304.7 1320.1 1333.6 1333.9 1347.4 1377.8 1378.5
  1414.9 1415.3 1438.6 1450.9 1453.7 1474.6 1480.0 1500.1 1504.8 1537.3
  1541.7 1565.8 1589.4 1589.7 1613.1 1641.0 3170.4 3173.2 3189.1 3192.2
  3192.7 3197.5 3197.9 3201.2 3207.1 3208.4 3226.5 3227.4
 g94    symmetries=
                                                B1     A2     B1     B2
      A2     A2     B1     B2     B1     A1     B2     B1     B1     A1
      A2     B2     A2     A2     A2     B1     B2     B1     A1     B2
      B1     B2     B1     B2     B2     B2     B1     A1     A1     B1
      A1     B1     B1     A1     A2     B1     B1     A2     B1     A1
      B1     A2     A1     A2     B1     A1     A2     A1     B1     B1
      A1     A1     A1     A1     B2     A1     B2     B2     A1     B2
      B2     B2     B2     B2     B2     A1     B2     A1     A1     B2
      A1     B2     B2     A1     B2     B2     A1     A1     B2     B2
      B2     A1     B2     A1     A1     A1     A1     B2     A1     B2
      A1     B2     A1     B2     A1     A1     B2     A1
 atomic masses:
 12.0000 12.0000 12.0000 12.0000 12.0000 14.0031 12.0000 12.0000 12.0000 14.0031
 12.0000 12.0000 12.0000 14.0031 12.0000 12.0000 12.0000 14.0031 12.0000 14.0031
 12.0000 14.0031 12.0000 12.0000  1.0078  1.0078  1.0078  1.0078  1.0078  1.0078
  1.0078  1.0078  1.0078  1.0078  1.0078  1.0078
 looking for force constants in 
 ./Non-cov-phenyl-N_4_C1S0.fchk                                                 
  
 Cartesian Force Constants                  R   N=        5886                  
  
 n3=         108        5886
 g94-fc frequencies=
    -4.7   -1.6   -1.0   -0.0    0.0    0.0   18.6   32.1   51.3   51.5
    64.3   96.2  115.7  126.9  153.7  176.8  199.8  240.2  331.8  339.3
   386.0  389.6  404.9  408.3  413.3  415.3  459.4  476.5  480.5  515.1
   547.2  597.1  602.6  638.3  649.5  664.9  666.1  671.8  723.5  783.2
   784.6  818.1  823.6  825.7  844.7  847.7  862.5  972.6  988.1 1001.9
  1002.6 1003.7 1009.0 1009.5 1015.4 1021.7 1023.2 1026.5 1030.4 1033.9
  1037.2 1048.1 1068.5 1088.3 1109.7 1120.4 1123.9 1181.2 1204.3 1220.1
  1250.5 1259.5 1282.6 1304.8 1320.1 1333.6 1333.9 1347.4 1377.8 1378.5
  1414.9 1415.3 1438.7 1450.9 1453.8 1474.7 1480.0 1500.1 1504.8 1537.3
  1541.7 1565.8 1589.5 1589.7 1613.1 1641.0 3170.5 3173.3 3189.1 3192.2
  3192.8 3197.6 3198.0 3201.3 3207.2 3208.4 3226.5 3227.5
 at 99999: n3=         108
 symm operator            1 :  T  nop=           1
 symm operator            2 :  F  nop=           1
 symm operator            3 :  F  nop=           1
 symm operator            4 :  F  nop=           1
 symm operator            5 :  F  nop=           1
 symm operator            6 :  T  nop=           2
 symm operator            7 :  T  nop=           3
 The point group of the molecule is C2V
 enforcing symm op           1  jsymt=          -1          -1           1
 enforcing symm op           6  jsymt=           1          -1           1
 enforcing symm op           7  jsymt=          -1           1           1
 cartesian coord symmetries:
 A1 :   36 A2 :   13 B1 :   23 B2 :   36
 Symmetry rotation matrix:
   1.00000   0.00000   0.00000
   0.00000   1.00000   0.00000
   0.00000   0.00000   1.00000

 Projecting out zero-frequency components
 generating redundant internal coords
         300        3600          36
 search for int coords
   1 str   2   1   1.405
   2 str   3   2   1.378
   3 str   4   3   1.422
   4 str   5   4   1.447
   5 str   6   5   1.358
   6 str   7   6   1.315
   7 str   8   7   1.419
   8 str   9   8   1.451
   9 str  10   9   1.349
  10 str  11  10   1.322
  11 str  12  11   1.410
  12 str  13  12   1.470
  13 str  14  13   1.341
  14 str  15  14   1.331
  15 str  16  15   1.395
  16 str  17  16   1.395
  17 str  18  13   1.341
  18 str  18  17   1.331
  19 str  19  12   1.410
  20 str  20   9   1.349
  21 str  20  19   1.322
  22 str  21   8   1.419
  23 str  22   5   1.358
  24 str  22  21   1.315
  25 str  23   4   1.422
  26 str  24   1   1.405
  27 str  24  23   1.378
  28 str  25   1   1.084
  29 str  26   2   1.083
  30 str  27   3   1.081
  31 str  28   7   1.084
  32 str  29  11   1.084
  33 str  30  15   1.085
  34 str  31  16   1.083
  35 str  32  17   1.085
  36 str  33  19   1.084
  37 str  34  21   1.084
  38 str  35  23   1.081
  39 str  36  24   1.083
 nber stretches=          39
  40 ben   1   2   3
  41 prop tor   1   2   3   4
  42 prop tor   1   2   3  27
  43 ben   1   2  26
  44 ben   1  24  23
  45 ben   1  24  36
  46 ben   2   1  24
  47 prop tor   2   1  24  23
  48 prop tor   2   1  24  36
  49 ben   2   1  25
  50 ben   2   3   4
  51 prop tor   2   3   4   5
  52 prop tor   2   3   4  23
  53 ben   2   3  27
  54 ben   3   2  26
  55 ben   3   4   5
  56 prop tor   3   4   5   6
  57 prop tor   3   4   5  22
  58 ben   3   4  23
  59 prop tor   3   4  23  24
  60 prop tor   3   4  23  35
  61 ben   4   3  27
  62 ben   4   5   6
  63 prop tor   4   5   6   7
  64 ben   4   5  22
  65 prop tor   4   5  22  21
  66 ben   4  23  24
  67 prop tor   4  23  24   1
  68 prop tor   4  23  24  36
  69 ben   4  23  35
  70 ben   5   4  23
  71 prop tor   5   4  23  24
  72 prop tor   5   4  23  35
  73 ben   5   6   7
  74 prop tor   5   6   7   8
  75 prop tor   5   6   7  28
  76 ben   5  22  21
  77 ben   6   5  22
  78 prop tor   6   5  22  21
  79 ben   6   7   8
  80 prop tor   6   7   8   9
  81 prop tor   6   7   8  21
  82 ben   6   7  28
  83 ben   7   8   9
  84 prop tor   7   8   9  10
  85 prop tor   7   8   9  20
  86 ben   7   8  21
  87 prop tor   7   8  21  22
  88 prop tor   7   8  21  34
  89 ben   8   7  28
  90 ben   8   9  10
  91 prop tor   8   9  10  11
  92 ben   8   9  20
  93 prop tor   8   9  20  19
  94 ben   8  21  22
  95 prop tor   8  21  22   5
  96 ben   8  21  34
  97 ben   9   8  21
  98 prop tor   9   8  21  22
  99 prop tor   9   8  21  34
 100 ben   9  10  11
 101 prop tor   9  10  11  12
 102 prop tor   9  10  11  29
 103 ben   9  20  19
 104 ben  10   9  20
 105 prop tor  10   9  20  19
 106 ben  10  11  12
 107 prop tor  10  11  12  13
 108 prop tor  10  11  12  19
 109 ben  10  11  29
 110 ben  11  12  13
 111 prop tor  11  12  13  14
 112 prop tor  11  12  13  18
 113 ben  11  12  19
 114 prop tor  11  12  19  20
 115 prop tor  11  12  19  33
 116 ben  12  11  29
 117 ben  12  13  14
 118 prop tor  12  13  14  15
 119 ben  12  13  18
 120 prop tor  12  13  18  17
 121 ben  12  19  20
 122 prop tor  12  19  20   9
 123 ben  12  19  33
 124 ben  13  12  19
 125 prop tor  13  12  19  20
 126 prop tor  13  12  19  33
 127 ben  13  14  15
 128 prop tor  13  14  15  16
 129 prop tor  13  14  15  30
 130 ben  13  18  17
 131 ben  14  13  18
 132 prop tor  14  13  18  17
 133 ben  14  15  16
 134 prop tor  14  15  16  17
 135 prop tor  14  15  16  31
 136 ben  14  15  30
 137 ben  15  16  17
 138 prop tor  15  16  17  18
 139 prop tor  15  16  17  32
 140 ben  15  16  31
 141 ben  16  15  30
 142 ben  16  17  18
 143 prop tor  16  17  18  13
 144 ben  16  17  32
 145 ben  17  16  31
 146 prop tor  18  13  14  15
 147 ben  18  17  32
 148 prop tor  19  12  13  14
 149 prop tor  19  12  13  18
 150 prop tor  20   9  10  11
 151 ben  20  19  33
 152 prop tor  21   8   9  10
 153 prop tor  21   8   9  20
 154 prop tor  22   5   6   7
 155 ben  22  21  34
 156 prop tor  23   4   5   6
 157 prop tor  23   4   5  22
 158 ben  23  24  36
 159 prop tor  24   1   2   3
 160 prop tor  24   1   2  26
 161 ben  24   1  25
 162 ben  24  23  35
 163 prop tor  25   1   2   3
 164 prop tor  25   1   2  26
 165 prop tor  25   1  24  23
 166 prop tor  25   1  24  36
 167 prop tor  26   2   3   4
 168 prop tor  26   2   3  27
 169 prop tor  27   3   4   5
 170 prop tor  27   3   4  23
 171 prop tor  28   7   8   9
 172 prop tor  28   7   8  21
 173 prop tor  29  11  12  13
 174 prop tor  29  11  12  19
 175 prop tor  30  15  16  17
 176 prop tor  30  15  16  31
 177 prop tor  31  16  17  18
 178 prop tor  31  16  17  32
 179 prop tor  32  17  18  13
 180 prop tor  33  19  20   9
 181 prop tor  34  21  22   5
 182 prop tor  35  23  24   1
 183 prop tor  35  23  24  36
 nber bend=              60
 nber lin bend=           0
 nber prop tor=          84
 nber impr tor=           0
 nber tot redund int=         183
 Eigenvalues of G in red int coords
    Gval -0.00000000 -0.00000000 -0.00000000 -0.00000000 -0.00000000 -0.00000000 -0.00000000 -0.00000000
    Gval -0.00000000 -0.00000000 -0.00000000 -0.00000000 -0.00000000 -0.00000000 -0.00000000 -0.00000000
    Gval -0.00000000 -0.00000000 -0.00000000 -0.00000000 -0.00000000 -0.00000000 -0.00000000 -0.00000000
    Gval -0.00000000 -0.00000000 -0.00000000 -0.00000000 -0.00000000 -0.00000000 -0.00000000 -0.00000000
    Gval -0.00000000 -0.00000000 -0.00000000 -0.00000000 -0.00000000 -0.00000000 -0.00000000 -0.00000000
    Gval -0.00000000 -0.00000000 -0.00000000 -0.00000000  0.00000000  0.00000000  0.00000000  0.00000000
    Gval  0.00000000  0.00000000  0.00000000  0.00000000  0.00000000  0.00000000  0.00000000  0.00000000
    Gval  0.00000000  0.00000000  0.00000000  0.00000000  0.00000000  0.00000000  0.00000000  0.00000000
    Gval  0.00000000  0.00000000  0.00000000  0.00000000  0.00000000  0.00000000  0.00000000  0.00000000
    Gval  0.00000000  0.00000000  0.00000000  0.00000000  0.00000000  0.00000000  0.00000000  0.00000000
    Gval  0.00000000  0.00000050  0.00000162  0.00000204  0.00000299  0.00000771  0.00000873  0.00001201
    Gval  0.00001246  0.00001527  0.00001982  0.00002810  0.00002962  0.00004185  0.00004476  0.00004563
    Gval  0.00004603  0.00004699  0.00004785  0.00005486  0.00005530  0.00005837  0.00005916  0.00006623
    Gval  0.00006626  0.00007700  0.00008466  0.00008820  0.00010135  0.00010610  0.00010626  0.00011476
    Gval  0.00011643  0.00011760  0.00011851  0.00012152  0.00012695  0.00013071  0.00017066  0.00021178
    Gval  0.00021605  0.00024780  0.00026141  0.00026755  0.00028140  0.00029492  0.00031523  0.00034770
    Gval  0.00036207  0.00036407  0.00037659  0.00038672  0.00039773  0.00041456  0.00043113  0.00049303
    Gval  0.00050966  0.00055057  0.00058665  0.00058727  0.00059303  0.00059364  0.00059380  0.00060409
    Gval  0.00060434  0.00061832  0.00062108  0.00062449  0.00062570  0.00062644  0.00064140  0.00065951
    Gval  0.00072094  0.00088936  0.00104163  0.00104275  0.00106240  0.00110760  0.00110885  0.00111076
    Gval  0.00113105  0.00113245  0.00113271  0.00114254  0.00117341  0.00117401  0.00117806  0.00139987
    Gval  0.00142338  0.00144923  0.00150546  0.00159223  0.00185212  0.00225496  0.00226243  0.00227923
    Gval  0.00234091  0.00234180  0.00238280  0.00312555  0.00371801  0.00380189  0.00407593
  5.018089567583141E-007  5.018089567583141E-007
  1.615333968232327E-006  5.018089567583141E-007
  2.042088328043594E-006  5.018089567583141E-007
  2.990767124966723E-006  5.018089567583141E-007
  7.709919654258907E-006  5.018089567583141E-007
  8.725220865097928E-006  5.018089567583141E-007
  1.201459913532748E-005  5.018089567583141E-007
  1.245825750330010E-005  5.018089567583141E-007
  1.526740575553350E-005  5.018089567583141E-007
  1.981929521277615E-005  5.018089567583141E-007
  2.809564761646402E-005  5.018089567583141E-007
  2.962002899406464E-005  5.018089567583141E-007
  4.185206424399314E-005  5.018089567583141E-007
  4.476399718063561E-005  5.018089567583141E-007
  4.563315809381184E-005  5.018089567583141E-007
  4.602961545737739E-005  5.018089567583141E-007
  4.698912172531378E-005  5.018089567583141E-007
  4.784636729845104E-005  5.018089567583141E-007
  5.486188540975313E-005  5.018089567583141E-007
  5.530065459085562E-005  5.018089567583141E-007
  5.836529880720459E-005  5.018089567583141E-007
  5.915916159033415E-005  5.018089567583141E-007
  6.622577961693389E-005  5.018089567583141E-007
  6.626255857713266E-005  5.018089567583141E-007
  7.700163710808870E-005  5.018089567583141E-007
  8.465689260251954E-005  5.018089567583141E-007
  8.819820937574965E-005  5.018089567583141E-007
  1.013455150306692E-004  5.018089567583141E-007
  1.061035268888723E-004  5.018089567583141E-007
  1.062612464682298E-004  5.018089567583141E-007
  1.147568339865532E-004  5.018089567583141E-007
  1.164282033650186E-004  5.018089567583141E-007
  1.175958095038185E-004  5.018089567583141E-007
  1.185093582261675E-004  5.018089567583141E-007
  1.215243553022540E-004  5.018089567583141E-007
  1.269525808021528E-004  5.018089567583141E-007
  1.307055338061900E-004  5.018089567583141E-007
  1.706592329751921E-004  5.018089567583141E-007
  2.117775879302190E-004  5.018089567583141E-007
  2.160538550421756E-004  5.018089567583141E-007
  2.477974797747137E-004  5.018089567583141E-007
  2.614102281725791E-004  5.018089567583141E-007
  2.675478296625664E-004  5.018089567583141E-007
  2.813984722577111E-004  5.018089567583141E-007
  2.949177665003506E-004  5.018089567583141E-007
  3.152278539702198E-004  5.018089567583141E-007
  3.477001979282313E-004  5.018089567583141E-007
  3.620693613853827E-004  5.018089567583141E-007
  3.640727708446781E-004  5.018089567583141E-007
  3.765861192379130E-004  5.018089567583141E-007
  3.867183876385290E-004  5.018089567583141E-007
  3.977297257032687E-004  5.018089567583141E-007
  4.145599646387323E-004  5.018089567583141E-007
  4.311302851074073E-004  5.018089567583141E-007
  4.930279453391603E-004  5.018089567583141E-007
  5.096565996971697E-004  5.018089567583141E-007
  5.505655251467204E-004  5.018089567583141E-007
  5.866452202382316E-004  5.018089567583141E-007
  5.872683889723004E-004  5.018089567583141E-007
  5.930290064217183E-004  5.018089567583141E-007
  5.936354516083093E-004  5.018089567583141E-007
  5.937992458019982E-004  5.018089567583141E-007
  6.040857789200106E-004  5.018089567583141E-007
  6.043363164446229E-004  5.018089567583141E-007
  6.183210850022352E-004  5.018089567583141E-007
  6.210821586276383E-004  5.018089567583141E-007
  6.244861807762174E-004  5.018089567583141E-007
  6.256953089552820E-004  5.018089567583141E-007
  6.264434778481033E-004  5.018089567583141E-007
  6.414037293081756E-004  5.018089567583141E-007
  6.595115690450530E-004  5.018089567583141E-007
  7.209405624349175E-004  5.018089567583141E-007
  8.893599004542974E-004  5.018089567583141E-007
  1.041632838623520E-003  5.018089567583141E-007
  1.042745925140695E-003  5.018089567583141E-007
  1.062402982965459E-003  5.018089567583141E-007
  1.107603303188491E-003  5.018089567583141E-007
  1.108852616390551E-003  5.018089567583141E-007
  1.110757990794498E-003  5.018089567583141E-007
  1.131045443967578E-003  5.018089567583141E-007
  1.132447870075076E-003  5.018089567583141E-007
  1.132709624388191E-003  5.018089567583141E-007
  1.142536110342309E-003  5.018089567583141E-007
  1.173410215538086E-003  5.018089567583141E-007
  1.174010102146028E-003  5.018089567583141E-007
  1.178058461173014E-003  5.018089567583141E-007
  1.399868737583024E-003  5.018089567583141E-007
  1.423379744072494E-003  5.018089567583141E-007
  1.449233919756971E-003  5.018089567583141E-007
  1.505460285369520E-003  5.018089567583141E-007
  1.592228662758007E-003  5.018089567583141E-007
  1.852115150803661E-003  5.018089567583141E-007
  2.254956741464891E-003  5.018089567583141E-007
  2.262429103494479E-003  5.018089567583141E-007
  2.279229318477399E-003  5.018089567583141E-007
  2.340914325873582E-003  5.018089567583141E-007
  2.341802365329731E-003  5.018089567583141E-007
  2.382802389012749E-003  5.018089567583141E-007
  3.125549834596584E-003  5.018089567583141E-007
  3.718009091019378E-003  5.018089567583141E-007
  3.801890270741267E-003  5.018089567583141E-007
  4.075927888301026E-003  5.018089567583141E-007
 cut=1d-8, nber non-redundant internal coords=         102
 Check on Eigenvals of non-red overlap matrix:
  0.00000050  0.00000162  0.00000204  0.00000299  0.00000771  0.00000873  0.00001201  0.00001246
  0.00001527  0.00001982  0.00002810  0.00002962  0.00004185  0.00004476  0.00004563  0.00004603
  0.00004699  0.00004785  0.00005486  0.00005530  0.00005837  0.00005916  0.00006623  0.00006626
  0.00007700  0.00008466  0.00008820  0.00010135  0.00010610  0.00010626  0.00011476  0.00011643
  0.00011760  0.00011851  0.00012152  0.00012695  0.00013071  0.00017066  0.00021178  0.00021605
  0.00024780  0.00026141  0.00026755  0.00028140  0.00029492  0.00031523  0.00034770  0.00036207
  0.00036407  0.00037659  0.00038672  0.00039773  0.00041456  0.00043113  0.00049303  0.00050966
  0.00055057  0.00058665  0.00058727  0.00059303  0.00059364  0.00059380  0.00060409  0.00060434
  0.00061832  0.00062108  0.00062449  0.00062570  0.00062644  0.00064140  0.00065951  0.00072094
  0.00088936  0.00104163  0.00104275  0.00106240  0.00110760  0.00110885  0.00111076  0.00113105
  0.00113245  0.00113271  0.00114254  0.00117341  0.00117401  0.00117806  0.00139987  0.00142338
  0.00144923  0.00150546  0.00159223  0.00185212  0.00225496  0.00226243  0.00227923  0.00234091
  0.00234180  0.00238280  0.00312555  0.00371801  0.00380189  0.00407593
 Checking for correct frequencies
 recalc frequencies=
    -0.0   -0.0    0.0    0.0    0.0    0.0   18.6   32.1   51.3   51.5
    64.3   96.2  115.7  126.9  153.7  176.8  199.8  240.2  331.8  339.3
   386.0  389.6  404.9  408.3  413.3  415.3  459.4  476.5  480.5  515.1
   547.2  597.1  602.6  638.3  649.5  664.9  666.1  671.8  723.5  783.2
   784.6  818.1  823.6  825.7  844.7  847.7  862.5  972.6  988.1 1001.9
  1002.6 1003.7 1009.0 1009.5 1015.4 1021.7 1023.2 1026.5 1030.4 1033.9
  1037.2 1048.1 1068.5 1088.3 1109.7 1120.4 1123.9 1181.2 1204.3 1220.1
  1250.5 1259.5 1282.6 1304.8 1320.1 1333.6 1333.9 1347.4 1377.8 1378.5
  1414.9 1415.3 1438.7 1450.9 1453.8 1474.7 1480.0 1500.1 1504.8 1537.3
  1541.7 1565.8 1589.5 1589.7 1613.1 1641.0 3170.5 3173.3 3189.1 3192.2
  3192.8 3197.6 3198.0 3201.3 3207.2 3208.4 3226.5 3227.5
 recalc symmetries=
     A1     B1     A2     B1     B2     B2     B1     A2     B1     B2 
     A2     A2     B1     B2     B1     A1     B2     B1     B1     A1 
     A2     B2     A2     A2     A2     B1     B2     B1     A1     B2 
     B1     B2     B1     B2     B2     B2     B1     A1     A1     B1 
     A1     B1     B1     A1     A2     B1     B1     A2     B1     A1 
     B1     A2     A1     A2     B1     A1     A2     A1     B1     B1 
     A1     A1     A1     A1     B2     A1     B2     B2     A1     B2 
     B2     B2     B2     B2     B2     A1     B2     A1     A1     B2 
     A1     B2     B2     A1     B2     B2     A1     A1     B2     B2 
     B2     A1     B2     A1     A1     A1     A1     B2     A1     B2 
     A1     B2     A1     B2     A1     A1     B2     A1 
 recalc freqs check OK
 Zero-point lengths:
 10.0000 10.0000 10.0000 10.0000 10.0000 10.0000 57.4910 43.7479 34.6211 34.5499
 30.9060 25.2736 23.0512 22.0104 19.9986 18.6469 17.5378 15.9955 13.6097 13.4596
 12.6186 12.5601 12.3200 12.2691 12.1939 12.1652 11.5668 11.3574 11.3092 10.9230
 10.5979 10.1451 10.0993  9.8125  9.7280  9.6144  9.6058  9.5645  9.2165  8.8586
  8.8509  8.6674  8.6384  8.6273  8.5301  8.5147  8.4412  7.9495  7.8866  7.8321
  7.8293  7.8253  7.8047  7.8028  7.7801  7.7561  7.7501  7.7379  7.7232  7.7100
  7.6977  7.6577  7.5841  7.5149  7.4421  7.4063  7.3949  7.2134  7.1438  7.0974
  7.0105  6.9855  6.9222  6.8632  6.8232  6.7885  6.7878  6.7538  6.6787  6.6771
  6.5906  6.5897  6.5360  6.5084  6.5020  6.4558  6.4441  6.4008  6.3908  6.3229
  6.3139  6.2650  6.2183  6.2178  6.1726  6.1199  4.4028  4.4009  4.3900  4.3878
  4.3875  4.3841  4.3839  4.3816  4.3776  4.3767  4.3644  4.3638
 highest evec of mol 2
  0.0000  0.0000 -0.0228
  0.0000 -0.0488 -0.0374
  0.0000 -0.1693  0.1036
  0.0000  0.0000  0.0059
  0.0000  0.0000  0.0007
  0.0000 -0.0008  0.0011
  0.0000 -0.0020 -0.0011
  0.0000  0.0000  0.0002
  0.0000  0.0000 -0.0002
  0.0000  0.0001  0.0001
  0.0000  0.0002 -0.0001
  0.0000  0.0000  0.0001
  0.0000  0.0000 -0.0001
  0.0000  0.0000  0.0000
  0.0000  0.0002  0.0000
  0.0000  0.0000  0.0002
  0.0000 -0.0002  0.0000
  0.0000 -0.0000  0.0000
  0.0000 -0.0002 -0.0001
  0.0000 -0.0001  0.0001
  0.0000  0.0020 -0.0011
  0.0000  0.0008  0.0011
  0.0000  0.1693  0.1036
  0.0000  0.0488 -0.0374
  0.0000  0.0000  0.0635
  0.0000  0.1596  0.0964
  0.0000  0.5562 -0.3322
  0.0000  0.0056  0.0030
  0.0000 -0.0003 -0.0001
  0.0000 -0.0004 -0.0002
  0.0000  0.0000 -0.0005
  0.0000  0.0004 -0.0002
  0.0000  0.0003 -0.0001
  0.0000 -0.0056  0.0030
  0.0000 -0.5562 -0.3322
  0.0000 -0.1596  0.0964
 Enter nber and list of atoms to keep of mol #2
 keep list:          36           1           2           3           4
           5           6           7           8           9          10
          11          12          13          14          15          16
          17          18          19          20          21          22
          23          24          25          26          27          28
          29          30          31          32          33          34
          35          36
 reordering atoms
           1   7.66220067139978     
           2   6.96850967139978     
           3   5.59048967139978     
           4   4.87530767139978     
           5   3.42789267139978     
           6   2.80082767139978     
           7   1.48622667139978     
           8  0.733540671399776     
           9 -0.717662328600224     
          10  -1.33169832860022     
          11  -2.65373932860022     
          12  -3.39925832860022     
          13  -4.86899832860022     
          14  -5.47457232860022     
          15  -6.80594132860022     
          16  -7.53603032860022     
          17  -6.80594132860022     
          18  -5.47457232860022     
          19  -2.65373932860022     
          20  -1.33169832860022     
          21   1.48622667139978     
          22   2.80082767139978     
          23   5.59048967139978     
          24   6.96850967139978     
          25   8.74585667139978     
          26   7.51913367139978     
          27   5.03041067139978     
          28  0.973810671399776     
          29  -3.16546332860022     
          30  -7.29910532860022     
          31  -8.61871332860022     
          32  -7.29910532860022     
          33  -3.16546332860022     
          34  0.973810671399776     
          35   5.03041067139978     
          36   7.51913367139978     
           1           1
           2           2
           3           3
           4           4
           5           5
           6           6
           7           7
           8           8
           9           9
          10          10
          11          11
          12          12
          13          13
          14          14
          15          15
          16          16
          17          17
          18          18
          19          19
          20          20
          21          21
          22          22
          23          23
          24          24
          25          25
          26          26
          27          27
          28          28
          29          29
          30          30
          31          31
          32          32
          33          33
          34          34
          35          35
          36          36
 initial cartes coords mol 1
   6   0.00000   0.00000   7.72328
   6   0.00000  -1.20660   7.02384
   6   0.00000  -1.20925   5.63372
   6   0.00000   0.00000   4.92353
   6   0.00000   0.00000   3.44255
   7   0.00000   1.19158   2.81851
   6   0.00000   1.18314   1.49113
   6   0.00000   0.00000   0.74250
   6   0.00000   0.00000  -0.73068
   7   0.00000   1.19291  -1.34885
   6   0.00000   1.18384  -2.67730
   6   0.00000   0.00000  -3.42381
   6   0.00000   0.00000  -4.90068
   7   0.00000   1.19288  -5.51554
   6   0.00000   1.18115  -6.84734
   6   0.00000   0.00000  -7.58232
   6   0.00000  -1.18115  -6.84734
   7   0.00000  -1.19288  -5.51554
   6   0.00000  -1.18384  -2.67730
   7   0.00000  -1.19291  -1.34885
   6   0.00000  -1.18314   1.49113
   7   0.00000  -1.19158   2.81851
   6   0.00000   1.20925   5.63372
   6   0.00000   1.20660   7.02384
   1   0.00000   0.00000   8.80730
   1   0.00000  -2.14652   7.56355
   1   0.00000  -2.13733   5.07804
   1   0.00000   2.14282   0.98526
   1   0.00000   2.14316  -3.18320
   1   0.00000   2.15067  -7.33828
   1   0.00000   0.00000  -8.66512
   1   0.00000  -2.15067  -7.33828
   1   0.00000  -2.14316  -3.18320
   1   0.00000  -2.14282   0.98526
   1   0.00000   2.13733   5.07804
   1   0.00000   2.14652   7.56355
 initial cartes coords mol 2
   6   0.00000  -0.00000   7.66220
   6   0.00000   1.22235   6.96851
   6   0.00000   1.22960   5.59049
   6   0.00000  -0.00000   4.87531
   6   0.00000  -0.00000   3.42789
   7   0.00000  -1.20445   2.80083
   6   0.00000  -1.20254   1.48623
   6   0.00000  -0.00000   0.73354
   6   0.00000  -0.00000  -0.71766
   7   0.00000  -1.20142  -1.33170
   6   0.00000  -1.19731  -2.65374
   6   0.00000  -0.00000  -3.39926
   6   0.00000  -0.00000  -4.86900
   7   0.00000  -1.19685  -5.47457
   6   0.00000  -1.18818  -6.80594
   6   0.00000  -0.00000  -7.53603
   6   0.00000   1.18818  -6.80594
   7   0.00000   1.19685  -5.47457
   6   0.00000   1.19731  -2.65374
   7   0.00000   1.20142  -1.33170
   6   0.00000   1.20254   1.48623
   7   0.00000   1.20445   2.80083
   6   0.00000  -1.22960   5.59049
   6   0.00000  -1.22235   6.96851
   1   0.00000  -0.00000   8.74586
   1   0.00000   2.15441   7.51913
   1   0.00000   2.15418   5.03041
   1   0.00000  -2.15829   0.97381
   1   0.00000  -2.15280  -3.16546
   1   0.00000  -2.15512  -7.29911
   1   0.00000  -0.00000  -8.61871
   1   0.00000   2.15512  -7.29911
   1   0.00000   2.15280  -3.16546
   1   0.00000   2.15829   0.97381
   1   0.00000  -2.15418   5.03041
   1   0.00000  -2.15441   7.51913
 loop 1 0
 mod cartes coords mol 2
   6   0.00000  -0.00000   7.66220
   6   0.00000   1.22235   6.96851
   6   0.00000   1.22960   5.59049
   6   0.00000  -0.00000   4.87531
   6   0.00000  -0.00000   3.42789
   7   0.00000  -1.20445   2.80083
   6   0.00000  -1.20254   1.48623
   6   0.00000  -0.00000   0.73354
   6   0.00000  -0.00000  -0.71766
   7   0.00000  -1.20142  -1.33170
   6   0.00000  -1.19731  -2.65374
   6   0.00000  -0.00000  -3.39926
   6   0.00000  -0.00000  -4.86900
   7   0.00000  -1.19685  -5.47457
   6   0.00000  -1.18818  -6.80594
   6   0.00000  -0.00000  -7.53603
   6   0.00000   1.18818  -6.80594
   7   0.00000   1.19685  -5.47457
   6   0.00000   1.19731  -2.65374
   7   0.00000   1.20142  -1.33170
   6   0.00000   1.20254   1.48623
   7   0.00000   1.20445   2.80083
   6   0.00000  -1.22960   5.59049
   6   0.00000  -1.22235   6.96851
   1   0.00000  -0.00000   8.74586
   1   0.00000   2.15441   7.51913
   1   0.00000   2.15418   5.03041
   1   0.00000  -2.15829   0.97381
   1   0.00000  -2.15280  -3.16546
   1   0.00000  -2.15512  -7.29911
   1   0.00000  -0.00000  -8.61871
   1   0.00000   2.15512  -7.29911
   1   0.00000   2.15280  -3.16546
   1   0.00000   2.15829   0.97381
   1   0.00000  -2.15418   5.03041
   1   0.00000  -2.15441   7.51913
 read in order, maxerr=  4.31 for atom  30
 loop 1 1
 mod cartes coords mol 2
   6   0.00000  -0.00000   7.66220
   6   0.00000   1.22235   6.96851
   6   0.00000   1.22960   5.59049
   6   0.00000  -0.00000   4.87531
   6   0.00000  -0.00000   3.42789
   7   0.00000  -1.20445   2.80083
   6   0.00000  -1.20254   1.48623
   6   0.00000  -0.00000   0.73354
   6   0.00000  -0.00000  -0.71766
   7   0.00000  -1.20142  -1.33170
   6   0.00000  -1.19731  -2.65374
   6   0.00000  -0.00000  -3.39926
   6   0.00000  -0.00000  -4.86900
   7   0.00000  -1.19685  -5.47457
   6   0.00000  -1.18818  -6.80594
   6   0.00000  -0.00000  -7.53603
   6   0.00000   1.18818  -6.80594
   7   0.00000   1.19685  -5.47457
   6   0.00000   1.19731  -2.65374
   7   0.00000   1.20142  -1.33170
   6   0.00000   1.20254   1.48623
   7   0.00000   1.20445   2.80083
   6   0.00000  -1.22960   5.59049
   6   0.00000  -1.22235   6.96851
   1   0.00000  -0.00000   8.74586
   1   0.00000   2.15441   7.51913
   1   0.00000   2.15418   5.03041
   1   0.00000  -2.15829   0.97381
   1   0.00000  -2.15280  -3.16546
   1   0.00000  -2.15512  -7.29911
   1   0.00000  -0.00000  -8.61871
   1   0.00000   2.15512  -7.29911
   1   0.00000   2.15280  -3.16546
   1   0.00000   2.15829   0.97381
   1   0.00000  -2.15418   5.03041
   1   0.00000  -2.15441   7.51913
 read in order, maxerr=  4.31 for atom  30
 loop 1 2
 mod cartes coords mol 2
   6   0.00000   0.00000   7.66220
   6   0.00000  -1.22235   6.96851
   6   0.00000  -1.22960   5.59049
   6   0.00000   0.00000   4.87531
   6   0.00000   0.00000   3.42789
   7   0.00000   1.20445   2.80083
   6   0.00000   1.20254   1.48623
   6   0.00000   0.00000   0.73354
   6   0.00000   0.00000  -0.71766
   7   0.00000   1.20142  -1.33170
   6   0.00000   1.19731  -2.65374
   6   0.00000   0.00000  -3.39926
   6   0.00000   0.00000  -4.86900
   7   0.00000   1.19685  -5.47457
   6   0.00000   1.18818  -6.80594
   6   0.00000   0.00000  -7.53603
   6   0.00000  -1.18818  -6.80594
   7   0.00000  -1.19685  -5.47457
   6   0.00000  -1.19731  -2.65374
   7   0.00000  -1.20142  -1.33170
   6   0.00000  -1.20254   1.48623
   7   0.00000  -1.20445   2.80083
   6   0.00000   1.22960   5.59049
   6   0.00000   1.22235   6.96851
   1   0.00000   0.00000   8.74586
   1   0.00000  -2.15441   7.51913
   1   0.00000  -2.15418   5.03041
   1   0.00000   2.15829   0.97381
   1   0.00000   2.15280  -3.16546
   1   0.00000   2.15512  -7.29911
   1   0.00000   0.00000  -8.61871
   1   0.00000  -2.15512  -7.29911
   1   0.00000  -2.15280  -3.16546
   1   0.00000  -2.15829   0.97381
   1   0.00000   2.15418   5.03041
   1   0.00000   2.15441   7.51913
 read in order, maxerr=  0.06 for atom  25
 final axis swaps:           1          -1           1
 final xyz swap pattern=           1
 reorder list:
   1   2   3   4   5   6   7   8   9  10  11  12  13  14  15  16  17  18  19  20
  21  22  23  24  25  26  27  28  29  30  31  32  33  34  35  36
 axis signs=           1          -1           1
  6     0.000000  0.000000  7.662201     0.000000  0.000000  7.723277
  6     0.000000 -1.222345  6.968510     0.000000 -1.206604  7.023839
  6     0.000000 -1.229604  5.590490     0.000000 -1.209251  5.633716
  6     0.000000  0.000000  4.875308     0.000000  0.000000  4.923525
  6     0.000000  0.000000  3.427893     0.000000  0.000000  3.442554
  7     0.000000  1.204447  2.800828     0.000000  1.191579  2.818507
  6     0.000000  1.202545  1.486227     0.000000  1.183136  1.491133
  6     0.000000  0.000000  0.733541     0.000000  0.000000  0.742498
  6     0.000000  0.000000 -0.717662     0.000000  0.000000 -0.730682
  7     0.000000  1.201416 -1.331698     0.000000  1.192908 -1.348851
  6     0.000000  1.197305 -2.653739     0.000000  1.183842 -2.677299
  6     0.000000  0.000000 -3.399258     0.000000  0.000000 -3.423809
  6     0.000000  0.000000 -4.868998     0.000000  0.000000 -4.900679
  7     0.000000  1.196854 -5.474572     0.000000  1.192885 -5.515542
  6     0.000000  1.188177 -6.805941     0.000000  1.181152 -6.847339
  6     0.000000  0.000000 -7.536030     0.000000  0.000000 -7.582319
  6     0.000000 -1.188177 -6.805941     0.000000 -1.181152 -6.847339
  7     0.000000 -1.196854 -5.474572     0.000000 -1.192885 -5.515542
  6     0.000000 -1.197305 -2.653739     0.000000 -1.183842 -2.677299
  7     0.000000 -1.201416 -1.331698     0.000000 -1.192908 -1.348851
  6     0.000000 -1.202545  1.486227     0.000000 -1.183136  1.491133
  7     0.000000 -1.204447  2.800828     0.000000 -1.191579  2.818507
  6     0.000000  1.229604  5.590490     0.000000  1.209251  5.633716
  6     0.000000  1.222345  6.968510     0.000000  1.206604  7.023839
  1     0.000000  0.000000  8.745857     0.000000  0.000000  8.807301
  1     0.000000 -2.154407  7.519134     0.000000 -2.146519  7.563552
  1     0.000000 -2.154177  5.030411     0.000000 -2.137327  5.078039
  1     0.000000  2.158292  0.973811     0.000000  2.142824  0.985258
  1     0.000000  2.152797 -3.165463     0.000000  2.143157 -3.183202
  1     0.000000  2.155123 -7.299105     0.000000  2.150671 -7.338283
  1     0.000000  0.000000 -8.618713     0.000000  0.000000 -8.665121
  1     0.000000 -2.155123 -7.299105     0.000000 -2.150671 -7.338283
  1     0.000000 -2.152797 -3.165463     0.000000 -2.143157 -3.183202
  1     0.000000 -2.158292  0.973811     0.000000 -2.142824  0.985258
  1     0.000000  2.154177  5.030411     0.000000  2.137327  5.078039
  1     0.000000  2.154407  7.519134     0.000000  2.146519  7.563552
 generating redundant internal coords
         300        3600          36
 Adding extra bonds for z output only
           6           6           6           6           6           7
           6           6           6           7           6           6
           6           7           6           6           6           7
           6           7           6           7           6           6
           1           1           1           1           1           1
           1           1           1           1           1           1
 search for int coords
   1 str   2   1   1.405
   2 str   3   2   1.378
   3 str   4   3   1.422
   4 str   5   4   1.447
   5 str   6   5   1.358
   6 str   7   6   1.315
   7 str   8   7   1.419
   8 str   9   8   1.451
   9 str  10   9   1.349
  10 str  11  10   1.322
  11 str  12  11   1.410
  12 str  13  12   1.470
  13 str  14  13   1.341
  14 str  15  14   1.331
  15 str  16  15   1.395
  16 str  17  16   1.395
  17 str  18  13   1.341
  18 str  18  17   1.331
  19 str  19  12   1.410
  20 str  20   9   1.349
  21 str  20  19   1.322
  22 str  21   8   1.419
  23 str  22   5   1.358
  24 str  22  21   1.315
  25 str  23   4   1.422
  26 str  24   1   1.405
  27 str  24  23   1.378
  28 str  25   1   1.084
  29 str  26   2   1.083
  30 str  27   3   1.081
  31 str  28   7   1.084
  32 str  29  11   1.084
  33 str  30  15   1.085
  34 str  31  16   1.083
  35 str  32  17   1.085
  36 str  33  19   1.084
  37 str  34  21   1.084
  38 str  35  23   1.081
  39 str  36  24   1.083
 nber stretches=          39
  40 ben   1   2   3
  41 prop tor   1   2   3   4
  42 prop tor   1   2   3  27
  43 ben   1   2  26
  44 ben   1  24  23
  45 ben   1  24  36
  46 ben   2   1  24
  47 prop tor   2   1  24  23
  48 prop tor   2   1  24  36
  49 ben   2   1  25
  50 ben   2   3   4
  51 prop tor   2   3   4   5
  52 prop tor   2   3   4  23
  53 ben   2   3  27
  54 ben   3   2  26
  55 ben   3   4   5
  56 prop tor   3   4   5   6
  57 prop tor   3   4   5  22
  58 ben   3   4  23
  59 prop tor   3   4  23  24
  60 prop tor   3   4  23  35
  61 ben   4   3  27
  62 ben   4   5   6
  63 prop tor   4   5   6   7
  64 ben   4   5  22
  65 prop tor   4   5  22  21
  66 ben   4  23  24
  67 prop tor   4  23  24   1
  68 prop tor   4  23  24  36
  69 ben   4  23  35
  70 ben   5   4  23
  71 prop tor   5   4  23  24
  72 prop tor   5   4  23  35
  73 ben   5   6   7
  74 prop tor   5   6   7   8
  75 prop tor   5   6   7  28
  76 ben   5  22  21
  77 ben   6   5  22
  78 prop tor   6   5  22  21
  79 ben   6   7   8
  80 prop tor   6   7   8   9
  81 prop tor   6   7   8  21
  82 ben   6   7  28
  83 ben   7   8   9
  84 prop tor   7   8   9  10
  85 prop tor   7   8   9  20
  86 ben   7   8  21
  87 prop tor   7   8  21  22
  88 prop tor   7   8  21  34
  89 ben   8   7  28
  90 ben   8   9  10
  91 prop tor   8   9  10  11
  92 ben   8   9  20
  93 prop tor   8   9  20  19
  94 ben   8  21  22
  95 prop tor   8  21  22   5
  96 ben   8  21  34
  97 ben   9   8  21
  98 prop tor   9   8  21  22
  99 prop tor   9   8  21  34
 100 ben   9  10  11
 101 prop tor   9  10  11  12
 102 prop tor   9  10  11  29
 103 ben   9  20  19
 104 ben  10   9  20
 105 prop tor  10   9  20  19
 106 ben  10  11  12
 107 prop tor  10  11  12  13
 108 prop tor  10  11  12  19
 109 ben  10  11  29
 110 ben  11  12  13
 111 prop tor  11  12  13  14
 112 prop tor  11  12  13  18
 113 ben  11  12  19
 114 prop tor  11  12  19  20
 115 prop tor  11  12  19  33
 116 ben  12  11  29
 117 ben  12  13  14
 118 prop tor  12  13  14  15
 119 ben  12  13  18
 120 prop tor  12  13  18  17
 121 ben  12  19  20
 122 prop tor  12  19  20   9
 123 ben  12  19  33
 124 ben  13  12  19
 125 prop tor  13  12  19  20
 126 prop tor  13  12  19  33
 127 ben  13  14  15
 128 prop tor  13  14  15  16
 129 prop tor  13  14  15  30
 130 ben  13  18  17
 131 ben  14  13  18
 132 prop tor  14  13  18  17
 133 ben  14  15  16
 134 prop tor  14  15  16  17
 135 prop tor  14  15  16  31
 136 ben  14  15  30
 137 ben  15  16  17
 138 prop tor  15  16  17  18
 139 prop tor  15  16  17  32
 140 ben  15  16  31
 141 ben  16  15  30
 142 ben  16  17  18
 143 prop tor  16  17  18  13
 144 ben  16  17  32
 145 ben  17  16  31
 146 prop tor  18  13  14  15
 147 ben  18  17  32
 148 prop tor  19  12  13  14
 149 prop tor  19  12  13  18
 150 prop tor  20   9  10  11
 151 ben  20  19  33
 152 prop tor  21   8   9  10
 153 prop tor  21   8   9  20
 154 prop tor  22   5   6   7
 155 ben  22  21  34
 156 prop tor  23   4   5   6
 157 prop tor  23   4   5  22
 158 ben  23  24  36
 159 prop tor  24   1   2   3
 160 prop tor  24   1   2  26
 161 ben  24   1  25
 162 ben  24  23  35
 163 prop tor  25   1   2   3
 164 prop tor  25   1   2  26
 165 prop tor  25   1  24  23
 166 prop tor  25   1  24  36
 167 prop tor  26   2   3   4
 168 prop tor  26   2   3  27
 169 prop tor  27   3   4   5
 170 prop tor  27   3   4  23
 171 prop tor  28   7   8   9
 172 prop tor  28   7   8  21
 173 prop tor  29  11  12  13
 174 prop tor  29  11  12  19
 175 prop tor  30  15  16  17
 176 prop tor  30  15  16  31
 177 prop tor  31  16  17  18
 178 prop tor  31  16  17  32
 179 prop tor  32  17  18  13
 180 prop tor  33  19  20   9
 181 prop tor  34  21  22   5
 182 prop tor  35  23  24   1
 183 prop tor  35  23  24  36
 nber bend=              60
 nber lin bend=           0
 nber prop tor=          84
 nber impr tor=           0
 nber tot redund int=         183
 generating redundant internal coords
         300        3600          36
 search for int coords
   1 str   2   1   1.395
   2 str   3   2   1.390
   3 str   4   3   1.402
   4 str   5   4   1.481
   5 str   6   5   1.345
   6 str   7   6   1.327
   7 str   8   7   1.400
   8 str   9   8   1.473
   9 str  10   9   1.344
  10 str  11  10   1.328
  11 str  12  11   1.400
  12 str  13  12   1.477
  13 str  14  13   1.342
  14 str  15  14   1.332
  15 str  16  15   1.391
  16 str  17  16   1.391
  17 str  18  13   1.342
  18 str  18  17   1.332
  19 str  19  12   1.400
  20 str  20   9   1.344
  21 str  20  19   1.328
  22 str  21   8   1.400
  23 str  22   5   1.345
  24 str  22  21   1.327
  25 str  23   4   1.402
  26 str  24   1   1.395
  27 str  24  23   1.390
  28 str  25   1   1.084
  29 str  26   2   1.084
  30 str  27   3   1.082
  31 str  28   7   1.085
  32 str  29  11   1.085
  33 str  30  15   1.087
  34 str  31  16   1.083
  35 str  32  17   1.087
  36 str  33  19   1.085
  37 str  34  21   1.085
  38 str  35  23   1.082
  39 str  36  24   1.084
 nber stretches=          39
  40 ben   1   2   3
  41 prop tor   1   2   3   4
  42 prop tor   1   2   3  27
  43 ben   1   2  26
  44 ben   1  24  23
  45 ben   1  24  36
  46 ben   2   1  24
  47 prop tor   2   1  24  23
  48 prop tor   2   1  24  36
  49 ben   2   1  25
  50 ben   2   3   4
  51 prop tor   2   3   4   5
  52 prop tor   2   3   4  23
[...]
  69 A1   1195.  0.9960    99.2   100.1  69 A1   1204.
  70 B2   1223.  0.9309    86.7   100.1  70 B2   1220.
  71 B2   1226. -0.6698    44.9   100.1  71 B2   1251.
                 0.5488    30.1          72 B2   1259.
                 0.4474    20.0          74 B2   1305.
  72 B2   1244.  0.7462    55.7   100.2  72 B2   1259.
                -0.4973    24.7          73 B2   1283.
  73 B2   1272. -0.5727    32.8    99.9  71 B2   1251.
                -0.4362    19.0          74 B2   1305.
                -0.4538    20.6          75 B2   1320.
  74 B2   1285. -0.6523    42.5   100.1  73 B2   1283.
                 0.6531    42.7          75 B2   1320.
  75 B2   1292.  0.4765    22.7   100.2  73 B2   1283.
                -0.7147    51.1          74 B2   1305.
                 0.4201    17.6          75 B2   1320.
  76 B2   1336.  0.8905    79.3   100.3  77 B2   1334.
                -0.3940    15.5          80 B2   1379.
  77 A1   1344.  0.7683    59.0   100.2  78 A1   1347.
                 0.6322    40.0          79 A1   1378.
  78 A1   1346.  0.7189    51.7   100.1  76 A1   1334.
                -0.4423    19.6          78 A1   1347.
                 0.4975    24.7          79 A1   1378.
  79 B2   1349.  0.4047    16.4   100.0  77 B2   1334.
                 0.8880    78.8          80 B2   1379.
  80 A1   1353. -0.6163    38.0    99.9  76 A1   1334.
                -0.4135    17.1          78 A1   1347.
                 0.5541    30.7          79 A1   1378.
  81 B2   1399.  0.8886    79.0    99.7  82 B2   1415.
                 0.3247    10.5          83 B2   1439.
  82 B2   1425.  0.3721    13.8    99.7  82 B2   1415.
                -0.8511    72.4          83 B2   1439.
  83 A1   1429.  0.9408    88.5   100.1  81 A1   1415.
  84 A1   1465.  0.9532    90.9    99.9  84 A1   1451.
  85 B2   1469. -0.6280    39.4    99.9  85 B2   1454.
                -0.7351    54.0          86 B2   1475.
  86 B2   1482.  0.5298    28.1    99.6  85 B2   1454.
                -0.6088    37.1          86 B2   1475.
                 0.4942    24.4          91 B2   1542.
  87 A1   1498.  0.9628    92.7    99.7  87 A1   1480.
  88 A1   1525.  0.9876    97.5   100.1  88 A1   1500.
  89 B2   1555.  0.3432    11.8   100.4  85 B2   1454.
                -0.8172    66.8          89 B2   1505.
                 0.3944    15.6          90 B2   1537.
  90 B2   1585.  0.3170    10.0   100.4  89 B2   1505.
                 0.8256    68.2          90 B2   1537.
                 0.3495    12.2          93 B2   1589.
  91 A1   1602.  0.8906    79.3    99.7  92 A1   1566.
  92 B2   1606. -0.3485    12.1   100.3  90 B2   1537.
                 0.9291    86.3          93 B2   1589.
  93 A1   1621. -0.9177    84.2    99.7  94 A1   1590.
                -0.3328    11.1          96 A1   1641.
  94 B2   1624.  0.3701    13.7   100.5  89 B2   1505.
                -0.7927    62.8          91 B2   1542.
  95 A1   1638.  0.3421    11.7    99.6  92 A1   1566.
                 0.8065    65.0          95 A1   1613.
                 0.4481    20.1          96 A1   1641.
  96 A1   1648.  0.5125    26.3    99.5  95 A1   1613.
                -0.7701    59.3          96 A1   1641.
  97 A1   3149. -0.9994    99.9   100.0  97 A1   3170.
  98 B2   3151.  1.0000   100.0   100.0  98 B2   3173.
  99 A1   3165.  0.9856    97.1   100.0  99 A1   3189.
 100 B2   3176. -0.9961    99.2   100.0 104 B2   3201.
 101 B2   3178. -0.9953    99.1   100.0 100 B2   3192.
 102 A1   3179.  0.9994    99.9   100.0 101 A1   3193.
 103 B2   3182.  0.9989    99.8   100.0 102 B2   3198.
 104 A1   3183.  0.9996    99.9   100.0 103 A1   3198.
 105 A1   3188.  0.9857    97.2   100.0 105 A1   3207.
 106 A1   3200.  0.9994    99.9   100.0 106 A1   3208.
 107 B2   3210. -0.9996    99.9   100.0 107 B2   3226.
 108 A1   3211. -0.9997    99.9   100.0 108 A1   3227.
 nber times 1st assigned=           1           0
 nber times 1st assigned=           2           0
 nber times 1st assigned=           3           0
 nber times 1st assigned=           4           0
 nber times 1st assigned=           5           0
 nber times 1st assigned=           6           0
 nber times 1st assigned=           7           0
 nber times 1st assigned=           8           0
 nber times 1st assigned=           9           0
 nber times 1st assigned=          10           0
 nber times 1st assigned=          11           0
 nber times 1st assigned=          12           0
 nber times 1st assigned=          13           0
 nber times 1st assigned=          14           0
 nber times 1st assigned=          15           0
 nber times 1st assigned=          16           0
 nber times 1st assigned=          17           0
 nber times 1st assigned=          18           0
 nber times 1st assigned=          19           0
 nber times 1st assigned=          20           0
 nber times 1st assigned=          21           0
 nber times 1st assigned=          22           0
 nber times 1st assigned=          23           0
 nber times 1st assigned=          24           0
 nber times 1st assigned=          25           0
 nber times 1st assigned=          26           0
 nber times 1st assigned=          27           0
 nber times 1st assigned=          28           0
 nber times 1st assigned=          29           0
 nber times 1st assigned=          30           0
 nber times 1st assigned=          31           0
 nber times 1st assigned=          32           0
 nber times 1st assigned=          33           0
 nber times 1st assigned=          34           0
 nber times 1st assigned=          35           0
 nber times 1st assigned=          36           0
 nber times 1st assigned=          37           0
 nber times 1st assigned=          38           0
 nber times 1st assigned=          39           0
 nber times 1st assigned=          40           0
 nber times 1st assigned=          41           0
 nber times 1st assigned=          42           0
 nber times 1st assigned=          43           0
 nber times 1st assigned=          44           0
 nber times 1st assigned=          45           0
 nber times 1st assigned=          46           0
 nber times 1st assigned=          47           0
 nber times 1st assigned=          48           0
 nber times 1st assigned=          49           0
 nber times 1st assigned=          50           0
 nber times 1st assigned=          51           0
 nber times 1st assigned=          52           0
 nber times 1st assigned=          53           0
 nber times 1st assigned=          54           0
 nber times 1st assigned=          55           0
 nber times 1st assigned=          56           0
 nber times 1st assigned=          57           0
 nber times 1st assigned=          58           0
 nber times 1st assigned=          59           0
 nber times 1st assigned=          60           0
 nber times 1st assigned=          61           0
 nber times 1st assigned=          62           0
 nber times 1st assigned=          63           0
 nber times 1st assigned=          64           0
 nber times 1st assigned=          65           0
 nber times 1st assigned=          66           0
 nber times 1st assigned=          67           0
 nber times 1st assigned=          68           0
 nber times 1st assigned=          69           0
 nber times 1st assigned=          70           0
 nber times 1st assigned=          71           0
 nber times 1st assigned=          72           0
 nber times 1st assigned=          73           0
 nber times 1st assigned=          74           0
 nber times 1st assigned=          75           0
 nber times 1st assigned=          76           0
 nber times 1st assigned=          77           0
 nber times 1st assigned=          78           0
 nber times 1st assigned=          79           0
 nber times 1st assigned=          80           0
 nber times 1st assigned=          81           0
 nber times 1st assigned=          82           0
 nber times 1st assigned=          83           0
 nber times 1st assigned=          84           0
 nber times 1st assigned=          85           0
 nber times 1st assigned=          86           0
 nber times 1st assigned=          87           0
 nber times 1st assigned=          88           0
 nber times 1st assigned=          89           0
 nber times 1st assigned=          90           0
 nber times 1st assigned=          91           0
 nber times 1st assigned=          92           0
 nber times 1st assigned=          93           0
 nber times 1st assigned=          94           0
 nber times 1st assigned=          95           0
 nber times 1st assigned=          96           0
 nber times 1st assigned=          97           0
 nber times 1st assigned=          98           0
 nber times 1st assigned=          99           0
 nber times 1st assigned=         100           0
 nber times 1st assigned=         101           0
 nber times 1st assigned=         102           0
 nber times 1st assigned=         103           0
 nber times 1st assigned=         104           0
 nber times 1st assigned=         105           0
 nber times 1st assigned=         106           0
 nber times 1st assigned=         107           0
 nber times 1st assigned=         108           0
 modes represented=   101.943670171842     
 p1=
    0.    0.    0.    0.   -0.   -0.    0.    0.   -0.    0.    0.    0.    0.    0.   -0.   26.    0.    0.   -4.   -0.
    0.    0.   -0.   -0.   -0.    0.    0.   -2.   -0.   -0.    0.    0.   -0.   -0.    0.    0.    1.   -0.   -2.    0.
    1.    0.    0.   -4.   -0.   -0.    0.   -0.   -0.   -0.   -0.   -0.   -0.    0.    0.    0.   -2.   -0.   -1.    0.
    1.    0.    0.    0.   -1.   -0.    2.   -0.    2.    0.    0.   -0.   -0.   -0.   -0.   -0.    0.    1.    0.    2.
    0.   -0.   -0.    1.   -0.   -0.   -0.   -1.    0.    0.    2.   -0.    2.    0.   -1.    1.    0.   -0.    0.   -0.
    0.   -0.    0.   -0.    0.   -0.   -0.    0.
 p2=
    0.    0.   -0.   -0.   -0.   -0.   -0.   -0.   -0.    0.    0.   -0.    0.   -0.    0.  -26.    0.   -0.    0.   -4.
    0.   -0.   -0.    0.    0.   -0.    0.   -0.   -2.    0.   -0.   -0.   -0.    0.   -0.   -0.    0.   -1.    2.   -0.
    2.   -0.    0.    5.    0.    0.    0.    0.    0.   -2.   -0.    0.    0.    0.   -0.   -1.    0.   -1.   -0.   -0.
    1.    0.    0.   -1.    0.    2.   -0.   -0.   -2.    0.   -0.    0.    0.    0.   -0.    1.    0.    1.   -2.   -0.
    0.   -0.   -0.   -1.    0.   -0.    0.    1.   -0.    0.   -0.   -1.   -0.    1.    1.    3.    0.   -0.   -0.   -0.
    0.   -0.    0.    0.   -0.    0.   -0.    0.

 Displacement: in terms of nc of 1 THEN of nc of 2

   1 A1  freq=    -0. Q=  0.000 lam=    -0.0 A1  freq=    -0. Q=  0.000 lam=    -0.0
   2 B2  freq=    -0. Q=  0.000 lam=    -0.0 B1  freq=    -0. Q=  0.000 lam=    -0.0
   3 B1  freq=    -0. Q=  0.000 lam=    -0.0 A2  freq=     0. Q=  0.000 lam=     0.0
   4 A2  freq=     0. Q=  0.000 lam=     0.0 B1  freq=     0. Q=  0.000 lam=     0.0
   5 B1  freq=     0. Q= -0.000 lam=     0.0 B2  freq=     0. Q= -0.000 lam=     0.0
   6 B2  freq=     0. Q= -0.000 lam=     0.0 B2  freq=     0. Q= -0.000 lam=     0.0
   7 B1  freq=    20. Q=  0.000 lam=     0.0 B1  freq=    19. Q=  0.000 lam=     0.0
   8 A2  freq=    29. Q=  0.000 lam=     0.0 A2  freq=    32. Q=  0.000 lam=     0.0
   9 B2  freq=    50. Q= -0.000 lam=     0.0 B1  freq=    51. Q= -0.000 lam=     0.0
  10 A2  freq=    54. Q=  0.000 lam=     0.0 B2  freq=    51. Q=  0.000 lam=     0.0
  11 B1  freq=    56. Q=  0.000 lam=     0.0 A2  freq=    64. Q=  0.000 lam=     0.0
  12 A2  freq=    73. Q=  0.000 lam=     0.0 A2  freq=    96. Q=  0.000 lam=     0.0
  13 B1  freq=   121. Q=  0.000 lam=     0.0 B1  freq=   116. Q=  0.000 lam=     0.0
  14 B2  freq=   125. Q=  0.000 lam=     0.0 B2  freq=   127. Q=  0.000 lam=     0.0
  15 B1  freq=   168. Q= -0.000 lam=     0.0 B1  freq=   154. Q= -0.000 lam=     0.0
  16 A1  freq=   175. Q=  1.396 lam=   170.9 A1  freq=   177. Q=  1.410 lam=   175.6
  17 B2  freq=   199. Q=  0.000 lam=     0.0 B2  freq=   200. Q=  0.000 lam=     0.0
  18 B1  freq=   257. Q=  0.000 lam=     0.0 B1  freq=   240. Q=  0.000 lam=     0.0
  19 A1  freq=   338. Q= -0.269 lam=    12.3 B1  freq=   332. Q= -0.000 lam=     0.0
  20 B1  freq=   349. Q= -0.000 lam=     0.0 A1  freq=   339. Q= -0.287 lam=    13.9
  21 B2  freq=   387. Q=  0.000 lam=     0.0 A2  freq=   386. Q=  0.000 lam=     0.0
  22 A2  freq=   405. Q=  0.000 lam=     0.0 B2  freq=   390. Q=  0.000 lam=     0.0
  23 A2  freq=   409. Q= -0.000 lam=     0.0 A2  freq=   405. Q= -0.000 lam=     0.0
  24 A2  freq=   414. Q= -0.000 lam=     0.0 A2  freq=   408. Q= -0.000 lam=     0.0
  25 A2  freq=   417. Q= -0.000 lam=     0.0 A2  freq=   413. Q= -0.000 lam=     0.0
  26 B1  freq=   433. Q=  0.000 lam=     0.0 B1  freq=   415. Q=  0.000 lam=     0.0
  27 B2  freq=   458. Q=  0.000 lam=     0.0 B2  freq=   459. Q=  0.000 lam=     0.0
  28 A1  freq=   476. Q= -0.192 lam=     8.8 B1  freq=   476. Q= -0.000 lam=     0.0
  29 B2  freq=   515. Q= -0.000 lam=     0.0 A1  freq=   481. Q= -0.200 lam=     9.6
  30 B1  freq=   517. Q= -0.000 lam=     0.0 B2  freq=   515. Q= -0.000 lam=     0.0
  31 B1  freq=   570. Q=  0.000 lam=     0.0 B1  freq=   547. Q=  0.000 lam=     0.0
  32 B1  freq=   606. Q=  0.000 lam=     0.0 B2  freq=   597. Q=  0.000 lam=     0.0
  33 B2  freq=   631. Q= -0.000 lam=     0.0 B1  freq=   603. Q= -0.000 lam=     0.0
  34 B2  freq=   645. Q= -0.000 lam=     0.0 B2  freq=   638. Q= -0.000 lam=     0.0
  35 B2  freq=   660. Q=  0.000 lam=     0.0 B2  freq=   649. Q=  0.000 lam=     0.0
  36 B2  freq=   674. Q=  0.000 lam=     0.0 B2  freq=   665. Q=  0.000 lam=     0.0
  37 A1  freq=   679. Q=  0.129 lam=     5.6 B1  freq=   666. Q=  0.000 lam=     0.0
  38 B1  freq=   709. Q= -0.000 lam=     0.0 A1  freq=   672. Q= -0.119 lam=     4.7
  39 A1  freq=   726. Q= -0.203 lam=    14.9 A1  freq=   724. Q= -0.189 lam=    13.0
  40 B1  freq=   769. Q=  0.000 lam=     0.0 B1  freq=   783. Q=  0.000 lam=     0.0
  41 A1  freq=   797. Q=  0.139 lam=     7.7 A1  freq=   785. Q=  0.180 lam=    12.7
  42 B1  freq=   822. Q=  0.000 lam=     0.0 B1  freq=   818. Q=  0.000 lam=     0.0
  43 B1  freq=   827. Q=  0.000 lam=     0.0 B1  freq=   824. Q=  0.000 lam=     0.0
  44 A1  freq=   838. Q= -0.523 lam=   114.5 A1  freq=   826. Q= -0.531 lam=   116.5
  45 B1  freq=   844. Q= -0.000 lam=     0.0 A2  freq=   845. Q= -0.000 lam=     0.0
  46 B1  freq=   858. Q= -0.000 lam=     0.0 B1  freq=   848. Q= -0.000 lam=     0.0
  47 A2  freq=   867. Q=  0.000 lam=     0.0 B1  freq=   863. Q=  0.000 lam=     0.0
  48 B1  freq=   961. Q= -0.000 lam=     0.0 A2  freq=   973. Q= -0.000 lam=     0.0
  49 B1  freq=   995. Q= -0.000 lam=     0.0 B1  freq=   988. Q= -0.000 lam=     0.0
  50 A2  freq=  1003. Q= -0.000 lam=     0.0 A1  freq=  1002. Q= -0.197 lam=    19.5
  51 A2  freq=  1006. Q= -0.000 lam=     0.0 B1  freq=  1003. Q= -0.000 lam=     0.0
  52 B1  freq=  1007. Q= -0.000 lam=     0.0 A2  freq=  1004. Q= -0.000 lam=     0.0
  53 A1  freq=  1010. Q= -0.001 lam=     0.0 A1  freq=  1009. Q= -0.030 lam=     0.5
  54 B1  freq=  1014. Q=  0.000 lam=     0.0 A2  freq=  1009. Q=  0.000 lam=     0.0
  55 B1  freq=  1016. Q=  0.000 lam=     0.0 B1  freq=  1015. Q=  0.000 lam=     0.0
  56 A2  freq=  1017. Q=  0.000 lam=     0.0 A1  freq=  1022. Q=  0.079 lam=     3.2
  57 A1  freq=  1017. Q= -0.211 lam=    22.7 A2  freq=  1023. Q= -0.000 lam=     0.0
  58 A2  freq=  1020. Q= -0.000 lam=     0.0 A1  freq=  1026. Q= -0.139 lam=     9.8
  59 A1  freq=  1039. Q= -0.067 lam=     2.3 B1  freq=  1030. Q= -0.000 lam=     0.0
  60 A1  freq=  1045. Q=  0.033 lam=     0.6 B1  freq=  1034. Q=  0.000 lam=     0.0
  61 A1  freq=  1048. Q=  0.099 lam=     5.1 A1  freq=  1037. Q=  0.105 lam=     5.7
  62 A1  freq=  1072. Q=  0.012 lam=     0.1 A1  freq=  1048. Q=  0.061 lam=     2.0
  63 A1  freq=  1083. Q=  0.034 lam=     0.6 A1  freq=  1069. Q=  0.045 lam=     1.1
  64 B2  freq=  1099. Q=  0.000 lam=     0.0 A1  freq=  1088. Q=  0.119 lam=     7.7
  65 A1  freq=  1110. Q= -0.116 lam=     7.5 B2  freq=  1110. Q= -0.000 lam=     0.0
  66 B2  freq=  1116. Q= -0.000 lam=     0.0 A1  freq=  1120. Q= -0.280 lam=    44.0
  67 A1  freq=  1135. Q=  0.327 lam=    60.5 B2  freq=  1124. Q=  0.000 lam=     0.0
  68 B2  freq=  1180. Q= -0.000 lam=     0.0 B2  freq=  1181. Q= -0.000 lam=     0.0
  69 A1  freq=  1195. Q=  0.260 lam=    40.4 A1  freq=  1204. Q=  0.239 lam=    34.4
  70 B2  freq=  1223. Q=  0.000 lam=     0.0 B2  freq=  1220. Q=  0.000 lam=     0.0
  71 B2  freq=  1226. Q=  0.000 lam=     0.0 B2  freq=  1251. Q=  0.000 lam=     0.0
  72 B2  freq=  1244. Q= -0.000 lam=     0.0 B2  freq=  1259. Q= -0.000 lam=     0.0
  73 B2  freq=  1272. Q= -0.000 lam=     0.0 B2  freq=  1283. Q= -0.000 lam=     0.0
  74 B2  freq=  1285. Q= -0.000 lam=     0.0 B2  freq=  1305. Q= -0.000 lam=     0.0
  75 B2  freq=  1292. Q= -0.000 lam=     0.0 B2  freq=  1320. Q= -0.000 lam=     0.0
  76 B2  freq=  1336. Q= -0.000 lam=     0.0 A1  freq=  1334. Q= -0.145 lam=    14.0
  77 A1  freq=  1344. Q=  0.033 lam=     0.7 B2  freq=  1334. Q=  0.000 lam=     0.0
  78 A1  freq=  1346. Q=  0.079 lam=     4.2 A1  freq=  1347. Q=  0.157 lam=    16.7
  79 B2  freq=  1349. Q=  0.000 lam=     0.0 A1  freq=  1378. Q=  0.252 lam=    43.8
  80 A1  freq=  1353. Q=  0.255 lam=    43.8 B2  freq=  1379. Q=  0.000 lam=     0.0
  81 B2  freq=  1399. Q=  0.000 lam=     0.0 A1  freq=  1415. Q=  0.002 lam=     0.0
  82 B2  freq=  1425. Q= -0.000 lam=     0.0 B2  freq=  1415. Q= -0.000 lam=     0.0
  83 A1  freq=  1429. Q= -0.070 lam=     3.6 B2  freq=  1439. Q= -0.000 lam=     0.0
  84 A1  freq=  1465. Q=  0.134 lam=    13.1 A1  freq=  1451. Q=  0.082 lam=     4.9
  85 B2  freq=  1469. Q= -0.000 lam=     0.0 B2  freq=  1454. Q= -0.000 lam=     0.0
  86 B2  freq=  1482. Q= -0.000 lam=     0.0 B2  freq=  1475. Q= -0.000 lam=     0.0
  87 A1  freq=  1498. Q= -0.020 lam=     0.3 A1  freq=  1480. Q= -0.052 lam=     2.0
  88 A1  freq=  1525. Q= -0.169 lam=    21.8 A1  freq=  1500. Q= -0.175 lam=    23.0
  89 B2  freq=  1555. Q=  0.000 lam=     0.0 B2  freq=  1505. Q=  0.000 lam=     0.0
  90 B2  freq=  1585. Q=  0.000 lam=     0.0 B2  freq=  1537. Q=  0.000 lam=     0.0
  91 A1  freq=  1602. Q=  0.304 lam=    74.2 B2  freq=  1542. Q=  0.000 lam=     0.0
  92 B2  freq=  1606. Q= -0.000 lam=     0.0 A1  freq=  1566. Q= -0.149 lam=    17.3
  93 A1  freq=  1621. Q=  0.363 lam=   106.8 B2  freq=  1589. Q=  0.000 lam=     0.0
  94 B2  freq=  1624. Q=  0.000 lam=     0.0 A1  freq=  1590. Q=  0.162 lam=    20.9
  95 A1  freq=  1638. Q= -0.212 lam=    36.7 A1  freq=  1613. Q= -0.102 lam=     8.3
  96 A1  freq=  1648. Q=  0.137 lam=    15.5 A1  freq=  1641. Q=  0.420 lam=   144.8
  97 A1  freq=  3149. Q=  0.019 lam=     0.6 A1  freq=  3170. Q=  0.019 lam=     0.6
  98 B2  freq=  3151. Q= -0.000 lam=     0.0 B2  freq=  3173. Q= -0.000 lam=     0.0
  99 A1  freq=  3165. Q=  0.006 lam=     0.0 A1  freq=  3189. Q=  0.002 lam=     0.0
 100 B2  freq=  3176. Q= -0.000 lam=     0.0 B2  freq=  3192. Q= -0.000 lam=     0.0
 101 B2  freq=  3178. Q=  0.000 lam=     0.0 A1  freq=  3193. Q=  0.015 lam=     0.4
 102 A1  freq=  3179. Q= -0.018 lam=     0.5 B2  freq=  3198. Q= -0.000 lam=     0.0
 103 B2  freq=  3182. Q=  0.000 lam=     0.0 A1  freq=  3198. Q=  0.013 lam=     0.3
 104 A1  freq=  3183. Q= -0.014 lam=     0.3 B2  freq=  3201. Q= -0.000 lam=     0.0
 105 A1  freq=  3188. Q=  0.017 lam=     0.5 A1  freq=  3207. Q=  0.018 lam=     0.5
 106 A1  freq=  3200. Q= -0.007 lam=     0.1 A1  freq=  3208. Q= -0.008 lam=     0.1
 107 B2  freq=  3210. Q= -0.000 lam=     0.0 B2  freq=  3226. Q= -0.000 lam=     0.0
 108 A1  freq=  3211. Q=  0.015 lam=     0.4 A1  freq=  3227. Q=  0.015 lam=     0.4

 total reorg energy (cm**-1, kcal/mol)=      798.      772.      2.28      2.21
 Nber of molecules processed=           2
