 Enter ifcurve (0=recti, 1=orth curvi, 2=apprx curvi, -1 = skip
 And atom ordering flag, 0= never changes, 1= use the first order thenceforth,
  2= deduce it (does read on fail), 3= always read it
 Reading file: 
 ./CDT-PDI_2_C0S2.log                                                           
                                          
  Entering Gaussian System, Link 0=g16                                          
  
 Gaussian format, type: g94, g98, g03= F F F
  #P Geom=AllCheck Guess=TCheck SCRF=Check GenChk RB3LYP TD(FC,Read)/6-3    
 energy type= TD      
 Original G94 input coords:
  6 19.833883 26.268180-19.646768
  6 18.347962 26.427617-19.984416
  6 17.973300 25.883440-21.366754
  7 17.471755 25.859425-18.910018
  6 17.514906 24.484797-18.648393
  8 18.250907 23.737626-19.275813
  6 16.632261 23.968423-17.579671
  6 16.647080 22.599285-17.288704
  6 15.835192 22.085869-16.297693
  6 14.962162 22.916364-15.542133
  6 14.108433 22.394326-14.505020
  6 14.084944 21.012809-14.170568
  6 13.263838 20.523348-13.177087
  6 12.420956 21.384492-12.462278
  6 11.564027 20.812372-11.413059
  8 11.542101 19.633754-11.126561
  7 10.727214 21.739457-10.720504
  6  9.921695 21.248773 -9.747208
  6  9.205945 20.807432 -8.882867
  6  8.370247 20.305477 -7.877337
  6  8.237883 18.997269 -7.442138
  6  7.294219 18.867608 -6.406085
  6  6.731475 17.747651 -5.554403
  6  5.749119 18.491939 -4.673487
  6  4.840065 18.177665 -3.633147
  6  4.178707 19.287668 -3.176970
 16  4.656832 20.745268 -4.014353
  6  5.760841 19.839499 -4.988587
  6  6.706399 20.071900 -6.049466
 16  7.299877 21.397861 -6.980805
  6 10.672065 23.144651-10.973386
  8  9.927390 23.853880-10.330361
  6 11.558825 23.638419-12.037167
  6 11.548366 25.008266-12.331110
  6 12.361746 25.517992-13.320797
  6 13.232776 24.683773-14.073257
  6 14.086455 25.205839-15.110400
  6 14.113797 26.586764-15.449208
  6 14.936153 27.072985-16.445333
  6 15.775876 26.208389-17.157654
  6 16.643298 26.762610-18.218235
  8 16.637955 27.955398-18.480018
  6 15.782573 24.830711-16.856052
  6 14.937104 24.313649-15.828055
  6 13.255760 23.285405-13.785610
  6 12.408504 22.767421-12.757574
  1 20.425785 26.824209-20.378903
  1 20.143002 25.224007-19.670383
  1 20.052650 26.681757-18.658894
  1 18.107579 27.488192-19.961557
  1 18.206097 24.823404-21.459270
  1 18.534404 26.431922-22.128237
  1 16.908897 26.032646-21.565698
  1 17.308947 21.961173-17.859837
  1 15.873462 21.023885-16.101048
  1 14.721305 20.318553-14.700421
  1 13.250895 19.470173-12.927806
  1  8.814611 18.192011 -7.876623
  1  7.510529 17.246035 -4.969636
  1  6.239768 16.978921 -6.160866
  1  4.671853 17.187009 -3.231209
  1  3.434968 19.352057 -2.398099
  1 10.887386 25.649367-11.762242
  1 12.326481 26.579604-13.519380
  1 13.479254 27.284185-14.921089
  1 14.950921 28.125470-16.697149
 nber atoms=          66
  Total Energy, E(TD-HF/TD-DFT) =  -2667.31644917                               
  
          32          49 "  -2667.31644917"
After scan for Atom:   Atom  AN      X      Y      Z        X      Y      Z        X      Y      Z   
After scan for Atom:   Atom  AN      X      Y      Z        X      Y      Z        X      Y      Z   
After scan for Atom:   Atom  AN      X      Y      Z        X      Y      Z        X      Y      Z   
After scan for Atom:   Atom  AN      X      Y      Z        X      Y      Z        X      Y      Z   
After scan for Atom:   Atom  AN      X      Y      Z        X      Y      Z        X      Y      Z   
After scan for Atom:   Atom  AN      X      Y      Z        X      Y      Z        X      Y      Z   
After scan for Atom:   Atom  AN      X      Y      Z        X      Y      Z        X      Y      Z   
After scan for Atom:   Atom  AN      X      Y      Z        X      Y      Z        X      Y      Z   
After scan for Atom:   Atom  AN      X      Y      Z        X      Y      Z        X      Y      Z   
After scan for Atom:   Atom  AN      X      Y      Z        X      Y      Z        X      Y      Z   
After scan for Atom:   Atom  AN      X      Y      Z        X      Y      Z        X      Y      Z   
After scan for Atom:   Atom  AN      X      Y      Z        X      Y      Z        X      Y      Z   
After scan for Atom:   Atom  AN      X      Y      Z        X      Y      Z        X      Y      Z   
After scan for Atom:   Atom  AN      X      Y      Z        X      Y      Z        X      Y      Z   
After scan for Atom:   Atom  AN      X      Y      Z        X      Y      Z        X      Y      Z   
After scan for Atom:   Atom  AN      X      Y      Z        X      Y      Z        X      Y      Z   
After scan for Atom:   Atom  AN      X      Y      Z        X      Y      Z        X      Y      Z   
After scan for Atom:   Atom  AN      X      Y      Z        X      Y      Z        X      Y      Z   
After scan for Atom:   Atom  AN      X      Y      Z        X      Y      Z        X      Y      Z   
After scan for Atom:   Atom  AN      X      Y      Z        X      Y      Z        X      Y      Z   
After scan for Atom:   Atom  AN      X      Y      Z        X      Y      Z        X      Y      Z   
After scan for Atom:   Atom  AN      X      Y      Z        X      Y      Z        X      Y      Z   
After scan for Atom:   Atom  AN      X      Y      Z        X      Y      Z        X      Y      Z   
After scan for Atom:   Atom  AN      X      Y      Z        X      Y      Z        X      Y      Z   
After scan for Atom:   Atom  AN      X      Y      Z        X      Y      Z        X      Y      Z   
After scan for Atom:   Atom  AN      X      Y      Z        X      Y      Z        X      Y      Z   
After scan for Atom:   Atom  AN      X      Y      Z        X      Y      Z        X      Y      Z   
After scan for Atom:   Atom  AN      X      Y      Z        X      Y      Z        X      Y      Z   
After scan for Atom:   Atom  AN      X      Y      Z        X      Y      Z        X      Y      Z   
After scan for Atom:   Atom  AN      X      Y      Z        X      Y      Z        X      Y      Z   
After scan for Atom:   Atom  AN      X      Y      Z        X      Y      Z        X      Y      Z   
After scan for Atom:   Atom  AN      X      Y      Z        X      Y      Z        X      Y      Z   
After scan for Atom:   Atom  AN      X      Y      Z        X      Y      Z        X      Y      Z   
After scan for Atom:   Atom  AN      X      Y      Z        X      Y      Z        X      Y      Z   
After scan for Atom:   Atom  AN      X      Y      Z        X      Y      Z        X      Y      Z   
After scan for Atom:   Atom  AN      X      Y      Z        X      Y      Z        X      Y      Z   
After scan for Atom:   Atom  AN      X      Y      Z        X      Y      Z        X      Y      Z   
After scan for Atom:   Atom  AN      X      Y      Z        X      Y      Z        X      Y      Z   
After scan for Atom:   Atom  AN      X      Y      Z        X      Y      Z        X      Y      Z   
After scan for Atom:   Atom  AN      X      Y      Z        X      Y      Z        X      Y      Z   
After scan for Atom:   Atom  AN      X      Y      Z        X      Y      Z        X      Y      Z   
After scan for Atom:   Atom  AN      X      Y      Z        X      Y      Z        X      Y      Z   
After scan for Atom:   Atom  AN      X      Y      Z        X      Y      Z        X      Y      Z   
After scan for Atom:   Atom  AN      X      Y      Z        X      Y      Z        X      Y      Z   
After scan for Atom:   Atom  AN      X      Y      Z        X      Y      Z        X      Y      Z   
After scan for Atom:   Atom  AN      X      Y      Z        X      Y      Z        X      Y      Z   
After scan for Atom:   Atom  AN      X      Y      Z        X      Y      Z        X      Y      Z   
After scan for Atom:   Atom  AN      X      Y      Z        X      Y      Z        X      Y      Z   
After scan for Atom:   Atom  AN      X      Y      Z        X      Y      Z        X      Y      Z   
After scan for Atom:   Atom  AN      X      Y      Z        X      Y      Z        X      Y      Z   
After scan for Atom:   Atom  AN      X      Y      Z        X      Y      Z        X      Y      Z   
After scan for Atom:   Atom  AN      X      Y      Z        X      Y      Z        X      Y      Z   
After scan for Atom:   Atom  AN      X      Y      Z        X      Y      Z        X      Y      Z   
After scan for Atom:   Atom  AN      X      Y      Z        X      Y      Z        X      Y      Z   
After scan for Atom:   Atom  AN      X      Y      Z        X      Y      Z        X      Y      Z   
After scan for Atom:   Atom  AN      X      Y      Z        X      Y      Z        X      Y      Z   
After scan for Atom:   Atom  AN      X      Y      Z        X      Y      Z        X      Y      Z   
After scan for Atom:   Atom  AN      X      Y      Z        X      Y      Z        X      Y      Z   
After scan for Atom:   Atom  AN      X      Y      Z        X      Y      Z        X      Y      Z   
After scan for Atom:   Atom  AN      X      Y      Z        X      Y      Z        X      Y      Z   
After scan for Atom:   Atom  AN      X      Y      Z        X      Y      Z        X      Y      Z   
After scan for Atom:   Atom  AN      X      Y      Z        X      Y      Z        X      Y      Z   
After scan for Atom:   Atom  AN      X      Y      Z        X      Y      Z        X      Y      Z   
After scan for Atom:   Atom  AN      X      Y      Z        X      Y      Z        X      Y      Z   
 g94    frequencies=
     0.0    0.0    0.0    0.0    0.0    0.0    5.8    9.2   11.5   25.4
    28.7   42.1   55.0   62.1   70.5   76.6   89.3   98.6  114.7  115.3
   121.0  141.7  161.3  167.7  184.6  196.7  199.6  202.8  211.5  228.5
   234.2  236.4  250.7  256.3  258.4  280.0  296.0  301.9  318.7  350.3
   350.4  386.4  388.6  392.7  416.1  417.3  419.2  429.8  433.1  438.2
   446.5  447.2  467.0  468.1  476.1  484.0  497.8  498.8  505.1  505.8
   522.4  530.1  544.6  570.6  571.1  574.2  575.2  575.7  597.4  604.4
   616.0  630.9  632.2  633.7  651.7  679.8  689.4  697.4  703.1  705.5
   711.6  715.2  725.3  743.9  754.1  757.6  763.7  800.5  808.9  810.7
   815.0  817.4  822.9  826.5  832.1  843.7  851.1  877.6  900.1  907.8
   929.1  935.9  937.5  945.4  951.8  956.8  975.0  976.8  984.8  988.1
   989.0 1001.6 1027.2 1062.0 1087.1 1095.8 1109.7 1119.0 1137.6 1149.8
  1155.5 1157.5 1164.1 1170.0 1177.0 1186.0 1196.2 1199.6 1209.5 1224.6
  1232.8 1242.7 1251.4 1259.5 1276.2 1299.1 1317.5 1317.9 1342.6 1351.5
  1365.7 1367.4 1374.4 1382.1 1391.5 1400.3 1403.6 1404.7 1416.4 1428.1
  1433.7 1438.2 1444.5 1447.5 1458.2 1460.7 1466.1 1467.9 1485.0 1491.1
  1497.6 1505.0 1511.1 1522.4 1528.8 1546.7 1547.6 1554.8 1569.9 1579.5
  1598.6 1599.8 1621.0 1686.2 1715.5 1725.9 1750.8 2333.9 3028.9 3034.4
  3038.5 3056.6 3092.4 3095.6 3112.5 3132.5 3142.9 3198.6 3198.9 3199.6
  3205.1 3205.4 3211.2 3213.2 3213.4 3224.9 3225.1 3246.0
 g94    symmetries=
                                                 A      A      A      A
       A      A      A      A      A      A      A      A      A      A
       A      A      A      A      A      A      A      A      A      A
       A      A      A      A      A      A      A      A      A      A
       A      A      A      A      A      A      A      A      A      A
       A      A      A      A      A      A      A      A      A      A
       A      A      A      A      A      A      A      A      A      A
       A      A      A      A      A      A      A      A      A      A
       A      A      A      A      A      A      A      A      A      A
       A      A      A      A      A      A      A      A      A      A
       A      A      A      A      A      A      A      A      A      A
       A      A      A      A      A      A      A      A      A      A
       A      A      A      A      A      A      A      A      A      A
       A      A      A      A      A      A      A      A      A      A
       A      A      A      A      A      A      A      A      A      A
       A      A      A      A      A      A      A      A      A      A
       A      A      A      A      A      A      A      A      A      A
       A      A      A      A      A      A      A      A      A      A
       A      A      A      A      A      A      A      A      A      A
       A      A      A      A      A      A      A      A
 atomic masses:
 12.0000 12.0000 12.0000 14.0031 12.0000 15.9949 12.0000 12.0000 12.0000 12.0000
 12.0000 12.0000 12.0000 12.0000 12.0000 15.9949 14.0031 12.0000 12.0000 12.0000
 12.0000 12.0000 12.0000 12.0000 12.0000 12.0000 31.9721 12.0000 12.0000 31.9721
 12.0000 15.9949 12.0000 12.0000 12.0000 12.0000 12.0000 12.0000 12.0000 12.0000
 12.0000 15.9949 12.0000 12.0000 12.0000 12.0000  1.0078  1.0078  1.0078  1.0078
  1.0078  1.0078  1.0078  1.0078  1.0078  1.0078  1.0078  1.0078  1.0078  1.0078
  1.0078  1.0078  1.0078  1.0078  1.0078  1.0078
 looking for force constants in 
 ./CDT-PDI_2_C0S2.fchk                                                          
  
 Cartesian Force Constants                  R   N=       19701                  
  
 n3=         198       19701
 g94-fc frequencies=
    -4.6   -0.2   -0.0   -0.0    0.0    1.2    6.1    9.2   11.5   25.4
    28.7   42.1   55.0   62.1   70.5   76.6   89.3   98.6  114.7  115.3
   121.0  141.7  161.3  167.7  184.6  196.7  199.6  202.8  211.5  228.5
   234.2  236.4  250.7  256.3  258.4  280.0  296.0  301.9  318.8  350.3
   350.4  386.4  388.6  392.8  416.1  417.3  419.2  429.9  433.1  438.2
   446.5  447.2  467.0  468.1  476.2  484.1  497.8  498.8  505.1  505.8
   522.4  530.1  544.7  570.6  571.2  574.2  575.3  575.7  597.4  604.4
   616.0  630.9  632.2  633.8  651.7  679.8  689.4  697.4  703.1  705.5
   711.7  715.2  725.3  743.9  754.1  757.7  763.7  800.5  808.9  810.8
   815.0  817.4  822.9  826.5  832.1  843.7  851.2  877.6  900.1  907.8
   929.2  935.9  937.5  945.4  951.9  956.8  975.0  976.8  984.8  988.1
   989.0 1001.6 1027.2 1062.0 1087.1 1095.8 1109.7 1119.0 1137.6 1149.9
  1155.5 1157.5 1164.1 1170.0 1177.0 1186.0 1196.2 1199.6 1209.5 1224.6
  1232.8 1242.7 1251.5 1259.6 1276.3 1299.2 1317.6 1318.0 1342.7 1351.5
  1365.8 1367.5 1374.4 1382.2 1391.6 1400.4 1403.6 1404.8 1416.4 1428.1
  1433.7 1438.2 1444.6 1447.5 1458.2 1460.7 1466.1 1467.9 1485.1 1491.2
  1497.6 1505.0 1511.2 1522.5 1528.8 1546.8 1547.6 1554.8 1569.9 1579.6
  1598.6 1599.8 1621.0 1686.2 1715.6 1725.9 1750.8 2334.0 3028.9 3034.5
  3038.5 3056.6 3092.5 3095.7 3112.6 3132.6 3143.0 3198.6 3199.0 3199.6
  3205.2 3205.4 3211.2 3213.2 3213.4 3225.0 3225.2 3246.1
 at 99999: n3=         198
 symm operator            1 :  F  nop=           0
 symm operator            2 :  F  nop=           0
 symm operator            3 :  F  nop=           0
 symm operator            4 :  F  nop=           0
 symm operator            5 :  F  nop=           0
 symm operator            6 :  F  nop=           0
 symm operator            7 :  F  nop=           0
 The point group of the molecule is  C1
 Symmetry rotation matrix:
   1.00000   0.00000   0.00000
   0.00000   1.00000   0.00000
   0.00000   0.00000   1.00000

 Projecting out zero-frequency components
 generating redundant internal coords
         300        3600          66
 search for int coords
   1 str   2   1   1.532
   2 str   3   2   1.532
   3 str   4   2   1.498
   4 str   5   4   1.400
   5 str   6   5   1.222
   6 str   7   5   1.479
   7 str   8   7   1.400
   8 str   9   8   1.380
   9 str  10   9   1.422
  10 str  11  10   1.441
  11 str  12  11   1.422
  12 str  13  12   1.379
  13 str  14  13   1.401
  14 str  15  14   1.471
  15 str  16  15   1.213
  16 str  17  15   1.428
  17 str  18  17   1.355
  18 str  19  18   1.206
  19 str  20  19   1.401
  20 str  21  20   1.385
  21 str  22  21   1.407
  22 str  23  22   1.515
  23 str  24  23   1.515
  24 str  25  24   1.417
  25 str  26  25   1.370
  26 str  27  26   1.748
  27 str  28  24   1.384
  28 str  28  27   1.729
  29 str  29  22   1.387
  30 str  29  28   1.440
  31 str  30  20   1.773
  32 str  30  29   1.726
  33 str  31  17   1.429
  34 str  32  31   1.213
  35 str  33  31   1.470
  36 str  34  33   1.401
  37 str  35  34   1.379
  38 str  36  35   1.422
  39 str  37  36   1.441
  40 str  38  37   1.422
  41 str  39  38   1.380
  42 str  40  39   1.400
  43 str  41   4   1.407
  44 str  41  40   1.478
  45 str  42  41   1.221
  46 str  43   7   1.410
  47 str  43  40   1.410
  48 str  44  10   1.426
  49 str  44  37   1.426
  50 str  44  43   1.428
  51 str  45  11   1.428
  52 str  45  36   1.428
  53 str  46  14   1.414
  54 str  46  33   1.414
  55 str  46  45   1.429
  56 str  47   1   1.093
  57 str  48   1   1.089
  58 str  49   1   1.093
  59 str  50   2   1.088
  60 str  51   3   1.089
  61 str  52   3   1.093
  62 str  53   3   1.093
  63 str  54   8   1.082
  64 str  55   9   1.081
  65 str  56  12   1.081
  66 str  57  13   1.082
  67 str  58  21   1.082
  68 str  59  23   1.096
  69 str  60  23   1.096
  70 str  61  25   1.082
  71 str  62  26   1.079
  72 str  63  34   1.082
  73 str  64  35   1.081
  74 str  65  38   1.081
  75 str  66  39   1.082
 nber stretches=          75
  76 ben   1   2   3
  77 prop tor   1   2   3  51
  78 prop tor   1   2   3  52
  79 prop tor   1   2   3  53
  80 ben   1   2   4
  81 prop tor   1   2   4   5
  82 prop tor   1   2   4  41
  83 ben   1   2  50
  84 ben   2   1  47
  85 ben   2   1  48
  86 ben   2   1  49
  87 ben   2   3  51
  88 ben   2   3  52
  89 ben   2   3  53
  90 ben   2   4   5
  91 prop tor   2   4   5   6
  92 prop tor   2   4   5   7
  93 ben   2   4  41
  94 prop tor   2   4  41  40
  95 prop tor   2   4  41  42
  96 ben   3   2   4
  97 prop tor   3   2   4   5
  98 prop tor   3   2   4  41
  99 ben   3   2  50
 100 prop tor   4   2   3  51
 101 prop tor   4   2   3  52
 102 prop tor   4   2   3  53
 103 ben   4   2  50
 104 ben   4   5   6
 105 ben   4   5   7
 106 prop tor   4   5   7   8
 107 prop tor   4   5   7  43
 108 ben   4  41  40
 109 ben   4  41  42
 110 ben   5   4  41
 111 prop tor   5   4  41  40
 112 prop tor   5   4  41  42
 113 ben   5   7   8
 114 prop tor   5   7   8   9
 115 prop tor   5   7   8  54
 116 ben   5   7  43
 117 prop tor   5   7  43  40
 118 prop tor   5   7  43  44
 119 ben   6   5   7
 120 prop tor   6   5   7   8
 121 prop tor   6   5   7  43
 122 ben   7   8   9
 123 prop tor   7   8   9  10
 124 prop tor   7   8   9  55
 125 ben   7   8  54
 126 ben   7  43  40
 127 ben   7  43  44
 128 prop tor   7  43  44  10
 129 prop tor   7  43  44  37
 130 ben   8   7  43
 131 prop tor   8   7  43  40
 132 prop tor   8   7  43  44
 133 ben   8   9  10
 134 prop tor   8   9  10  11
 135 prop tor   8   9  10  44
 136 ben   8   9  55
 137 ben   9   8  54
 138 ben   9  10  11
 139 prop tor   9  10  11  12
 140 prop tor   9  10  11  45
 141 ben   9  10  44
 142 prop tor   9  10  44  37
 143 prop tor   9  10  44  43
 144 ben  10   9  55
 145 ben  10  11  12
 146 prop tor  10  11  12  13
 147 prop tor  10  11  12  56
 148 ben  10  11  45
 149 prop tor  10  11  45  36
 150 prop tor  10  11  45  46
 151 ben  10  44  37
 152 ben  10  44  43
 153 ben  11  10  44
 154 prop tor  11  10  44  37
 155 prop tor  11  10  44  43
 156 ben  11  12  13
 157 prop tor  11  12  13  14
 158 prop tor  11  12  13  57
 159 ben  11  12  56
 160 ben  11  45  36
 161 ben  11  45  46
 162 prop tor  11  45  46  14
 163 prop tor  11  45  46  33
 164 ben  12  11  45
 165 prop tor  12  11  45  36
 166 prop tor  12  11  45  46
 167 ben  12  13  14
 168 prop tor  12  13  14  15
 169 prop tor  12  13  14  46
 170 ben  12  13  57
 171 ben  13  12  56
 172 ben  13  14  15
 173 prop tor  13  14  15  16
 174 prop tor  13  14  15  17
 175 ben  13  14  46
 176 prop tor  13  14  46  33
 177 prop tor  13  14  46  45
 178 ben  14  13  57
 179 ben  14  15  16
 180 ben  14  15  17
 181 prop tor  14  15  17  18
 182 prop tor  14  15  17  31
 183 ben  14  46  33
 184 ben  14  46  45
 185 ben  15  14  46
 186 prop tor  15  14  46  33
 187 prop tor  15  14  46  45
 188 ben  15  17  18
 189 prop tor  15  17  18  19
 190 ben  15  17  31
 191 prop tor  15  17  31  32
 192 prop tor  15  17  31  33
 193 ben  16  15  17
 194 prop tor  16  15  17  18
 195 prop tor  16  15  17  31
 196 lin ben  17  18  19
 198 ben  17  31  32
 199 ben  17  31  33
 200 prop tor  17  31  33  34
 201 prop tor  17  31  33  46
 202 ben  18  17  31
 203 prop tor  18  17  31  32
 204 prop tor  18  17  31  33
 Extend lin bond           1          17          18          20
 205 lin ben  18  19  20
 207 ben  19  20  21
 208 prop tor  19  20  21  22
 209 prop tor  19  20  21  58
 210 ben  19  20  30
 211 prop tor  19  20  30  29
 212 ben  20  21  22
 213 prop tor  20  21  22  23
 214 prop tor  20  21  22  29
 215 ben  20  21  58
 216 ben  20  30  29
 217 ben  21  20  30
 218 prop tor  21  20  30  29
 219 ben  21  22  23
 220 prop tor  21  22  23  24
 221 prop tor  21  22  23  59
 222 prop tor  21  22  23  60
 223 ben  21  22  29
 224 prop tor  21  22  29  28
 225 prop tor  21  22  29  30
 226 ben  22  21  58
 227 ben  22  23  24
 228 prop tor  22  23  24  25
 229 prop tor  22  23  24  28
 230 ben  22  23  59
 231 ben  22  23  60
 232 ben  22  29  28
 233 ben  22  29  30
 234 prop tor  22  29  30  20
 235 ben  23  22  29
 236 prop tor  23  22  29  28
 237 prop tor  23  22  29  30
 238 ben  23  24  25
 239 prop tor  23  24  25  26
 240 prop tor  23  24  25  61
 241 ben  23  24  28
 242 prop tor  23  24  28  27
 243 prop tor  23  24  28  29
 244 ben  24  23  59
 245 ben  24  23  60
 246 ben  24  25  26
 247 prop tor  24  25  26  27
 248 prop tor  24  25  26  62
 249 ben  24  25  61
 250 ben  24  28  27
 251 ben  24  28  29
 252 prop tor  24  28  29  22
 253 prop tor  24  28  29  30
 254 ben  25  24  28
 255 prop tor  25  24  28  27
 256 prop tor  25  24  28  29
 257 ben  25  26  27
 258 prop tor  25  26  27  28
 259 ben  25  26  62
 260 ben  26  25  61
 261 ben  26  27  28
 262 prop tor  26  27  28  24
 263 prop tor  26  27  28  29
 264 ben  27  26  62
 265 ben  27  28  29
 266 prop tor  27  28  29  22
 267 prop tor  27  28  29  30
 268 prop tor  28  24  25  26
 269 prop tor  28  24  25  61
 270 ben  28  29  30
 271 prop tor  28  29  30  20
 272 prop tor  29  22  23  24
 273 prop tor  29  22  23  59
 274 prop tor  29  22  23  60
 275 prop tor  30  20  21  22
 276 prop tor  30  20  21  58
 277 prop tor  31  17  18  19
 278 ben  31  33  34
 279 prop tor  31  33  34  35
 280 prop tor  31  33  34  63
 281 ben  31  33  46
 282 prop tor  31  33  46  14
 283 prop tor  31  33  46  45
 284 ben  32  31  33
 285 prop tor  32  31  33  34
 286 prop tor  32  31  33  46
 287 ben  33  34  35
 288 prop tor  33  34  35  36
 289 prop tor  33  34  35  64
 290 ben  33  34  63
 291 ben  33  46  45
 292 ben  34  33  46
 293 prop tor  34  33  46  14
 294 prop tor  34  33  46  45
 295 ben  34  35  36
 296 prop tor  34  35  36  37
 297 prop tor  34  35  36  45
 298 ben  34  35  64
 299 ben  35  34  63
 300 ben  35  36  37
 301 prop tor  35  36  37  38
 302 prop tor  35  36  37  44
 303 ben  35  36  45
 304 prop tor  35  36  45  11
 305 prop tor  35  36  45  46
 306 ben  36  35  64
 307 ben  36  37  38
 308 prop tor  36  37  38  39
 309 prop tor  36  37  38  65
 310 ben  36  37  44
 311 prop tor  36  37  44  10
 312 prop tor  36  37  44  43
 313 ben  36  45  46
 314 prop tor  36  45  46  14
 315 prop tor  36  45  46  33
 316 ben  37  36  45
 317 prop tor  37  36  45  11
 318 prop tor  37  36  45  46
 319 ben  37  38  39
 320 prop tor  37  38  39  40
 321 prop tor  37  38  39  66
 322 ben  37  38  65
 323 ben  37  44  43
 324 ben  38  37  44
 325 prop tor  38  37  44  10
 326 prop tor  38  37  44  43
 327 ben  38  39  40
 328 prop tor  38  39  40  41
 329 prop tor  38  39  40  43
 330 ben  38  39  66
 331 ben  39  38  65
 332 ben  39  40  41
 333 prop tor  39  40  41   4
 334 prop tor  39  40  41  42
 335 ben  39  40  43
 336 prop tor  39  40  43   7
 337 prop tor  39  40  43  44
 338 ben  40  39  66
 339 ben  40  41  42
 340 ben  40  43  44
 341 prop tor  40  43  44  10
 342 prop tor  40  43  44  37
 343 prop tor  41   4   5   6
 344 prop tor  41   4   5   7
 345 ben  41  40  43
 346 prop tor  41  40  43   7
 347 prop tor  41  40  43  44
 348 prop tor  43   7   8   9
 349 prop tor  43   7   8  54
 350 prop tor  43  40  41   4
 351 prop tor  43  40  41  42
 352 prop tor  44  10  11  12
 353 prop tor  44  10  11  45
 354 prop tor  44  37  38  39
 355 prop tor  44  37  38  65
 356 prop tor  45  11  12  13
 357 prop tor  45  11  12  56
 358 prop tor  45  36  37  38
 359 prop tor  45  36  37  44
 360 prop tor  46  14  15  16
 361 prop tor  46  14  15  17
 362 prop tor  46  33  34  35
 363 prop tor  46  33  34  63
 364 prop tor  47   1   2   3
 365 prop tor  47   1   2   4
 366 prop tor  47   1   2  50
 367 ben  47   1  48
 368 ben  47   1  49
 369 prop tor  48   1   2   3
 370 prop tor  48   1   2   4
 371 prop tor  48   1   2  50
 372 ben  48   1  49
 373 prop tor  49   1   2   3
 374 prop tor  49   1   2   4
 375 prop tor  49   1   2  50
 376 prop tor  50   2   3  51
 377 prop tor  50   2   3  52
 378 prop tor  50   2   3  53
 379 prop tor  50   2   4   5
 380 prop tor  50   2   4  41
 381 ben  51   3  52
 382 ben  51   3  53
 383 ben  52   3  53
 384 prop tor  54   8   9  10
 385 prop tor  54   8   9  55
 386 prop tor  55   9  10  11
 387 prop tor  55   9  10  44
 388 prop tor  56  12  13  14
 389 prop tor  56  12  13  57
 390 prop tor  57  13  14  15
 391 prop tor  57  13  14  46
 392 prop tor  58  21  22  23
 393 prop tor  58  21  22  29
 394 prop tor  59  23  24  25
 395 prop tor  59  23  24  28
 396 ben  59  23  60
 397 prop tor  60  23  24  25
 398 prop tor  60  23  24  28
 399 prop tor  61  25  26  27
 400 prop tor  61  25  26  62
 401 prop tor  62  26  27  28
 402 prop tor  63  34  35  36
 403 prop tor  63  34  35  64
 404 prop tor  64  35  36  37
 405 prop tor  64  35  36  45
 406 prop tor  65  38  39  40
 407 prop tor  65  38  39  66
 408 prop tor  66  39  40  41
 409 prop tor  66  39  40  43
 410 lin bend prop tor  15  17  20  19
 411 lin bend prop tor  15  17  20  21
 412 lin bend prop tor  15  17  20  30
 413 lin bend prop tor  18  17  20  19
 414 lin bend prop tor  18  17  20  21
 415 lin bend prop tor  18  17  20  30
 416 lin bend prop tor  31  17  20  19
 417 lin bend prop tor  31  17  20  21
 418 lin bend prop tor  31  17  20  30
 nber bend=             132
 nber lin bend=           1
 nber prop tor=         211
 nber impr tor=           0
 nber tot redund int=         418
 Eigenvalues of G in red int coords
    Gval -0.00000000 -0.00000000 -0.00000000 -0.00000000 -0.00000000 -0.00000000 -0.00000000 -0.00000000
    Gval -0.00000000 -0.00000000 -0.00000000 -0.00000000 -0.00000000 -0.00000000 -0.00000000 -0.00000000
    Gval -0.00000000 -0.00000000 -0.00000000 -0.00000000 -0.00000000 -0.00000000 -0.00000000 -0.00000000
    Gval -0.00000000 -0.00000000 -0.00000000 -0.00000000 -0.00000000 -0.00000000 -0.00000000 -0.00000000
    Gval -0.00000000 -0.00000000 -0.00000000 -0.00000000 -0.00000000 -0.00000000 -0.00000000 -0.00000000
    Gval -0.00000000 -0.00000000 -0.00000000 -0.00000000 -0.00000000 -0.00000000 -0.00000000 -0.00000000
    Gval -0.00000000 -0.00000000 -0.00000000 -0.00000000 -0.00000000 -0.00000000 -0.00000000 -0.00000000
    Gval -0.00000000 -0.00000000 -0.00000000 -0.00000000 -0.00000000 -0.00000000 -0.00000000 -0.00000000
    Gval -0.00000000 -0.00000000 -0.00000000 -0.00000000 -0.00000000 -0.00000000 -0.00000000 -0.00000000
    Gval -0.00000000 -0.00000000 -0.00000000 -0.00000000 -0.00000000 -0.00000000 -0.00000000 -0.00000000
    Gval -0.00000000 -0.00000000 -0.00000000 -0.00000000 -0.00000000 -0.00000000 -0.00000000 -0.00000000
    Gval -0.00000000 -0.00000000 -0.00000000 -0.00000000 -0.00000000 -0.00000000 -0.00000000 -0.00000000
    Gval -0.00000000 -0.00000000 -0.00000000 -0.00000000 -0.00000000 -0.00000000 -0.00000000 -0.00000000
    Gval  0.00000000  0.00000000  0.00000000  0.00000000  0.00000000  0.00000000  0.00000000  0.00000000
    Gval  0.00000000  0.00000000  0.00000000  0.00000000  0.00000000  0.00000000  0.00000000  0.00000000
    Gval  0.00000000  0.00000000  0.00000000  0.00000000  0.00000000  0.00000000  0.00000000  0.00000000
    Gval  0.00000000  0.00000000  0.00000000  0.00000000  0.00000000  0.00000000  0.00000000  0.00000000
    Gval  0.00000000  0.00000000  0.00000000  0.00000000  0.00000000  0.00000000  0.00000000  0.00000000
    Gval  0.00000000  0.00000000  0.00000000  0.00000000  0.00000000  0.00000000  0.00000000  0.00000000
    Gval  0.00000000  0.00000000  0.00000000  0.00000000  0.00000000  0.00000000  0.00000000  0.00000000
    Gval  0.00000000  0.00000000  0.00000000  0.00000000  0.00000000  0.00000000  0.00000000  0.00000000
    Gval  0.00000000  0.00000000  0.00000000  0.00000000  0.00000000  0.00000000  0.00000000  0.00000000
    Gval  0.00000000  0.00000000  0.00000000  0.00000000  0.00000000  0.00000000  0.00000000  0.00000000
    Gval  0.00000000  0.00000000  0.00000000  0.00000000  0.00000000  0.00000000  0.00000000  0.00000000
    Gval  0.00000000  0.00000000  0.00000000  0.00000000  0.00000000  0.00000000  0.00000000  0.00000000
    Gval  0.00000000  0.00000000  0.00000000  0.00000000  0.00000000  0.00000000  0.00000000  0.00000000
    Gval  0.00000000  0.00000000  0.00000000  0.00000000  0.00000000  0.00000000  0.00000000  0.00000000
    Gval  0.00000000  0.00000000  0.00000000  0.00000000  0.00000000  0.00000000  0.00000000  0.00000000
    Gval  0.00000000  0.00000000  0.00000017  0.00000050  0.00000078  0.00000122  0.00000282  0.00000361
    Gval  0.00000383  0.00000555  0.00000616  0.00000886  0.00000964  0.00000971  0.00001123  0.00001463
    Gval  0.00001552  0.00001638  0.00001697  0.00001765  0.00001831  0.00001923  0.00001978  0.00002151
    Gval  0.00002374  0.00002409  0.00002508  0.00002552  0.00002921  0.00003383  0.00003396  0.00003681
    Gval  0.00003845  0.00003994  0.00004230  0.00004884  0.00004902  0.00005122  0.00005226  0.00005386
    Gval  0.00005558  0.00005853  0.00006072  0.00006464  0.00006626  0.00006894  0.00007098  0.00007393
    Gval  0.00007492  0.00008137  0.00008242  0.00008354  0.00008627  0.00008760  0.00008796  0.00009318
    Gval  0.00009352  0.00009494  0.00009986  0.00010372  0.00011592  0.00011785  0.00012112  0.00012248
    Gval  0.00013419  0.00013532  0.00013709  0.00013733  0.00013843  0.00014192  0.00015807  0.00015912
    Gval  0.00016282  0.00016621  0.00016907  0.00018150  0.00020048  0.00021479  0.00022171  0.00022401
    Gval  0.00023031  0.00023213  0.00026513  0.00027079  0.00028591  0.00028814  0.00028937  0.00029702
    Gval  0.00030129  0.00030696  0.00034180  0.00035044  0.00036049  0.00037256  0.00037613  0.00038077
    Gval  0.00038937  0.00038991  0.00039529  0.00039818  0.00041434  0.00042420  0.00042549  0.00043165
    Gval  0.00043193  0.00043520  0.00044061  0.00044196  0.00046217  0.00046604  0.00046889  0.00049499
    Gval  0.00052440  0.00053430  0.00053716  0.00055248  0.00055410  0.00055602  0.00055633  0.00058330
    Gval  0.00059097  0.00059676  0.00059849  0.00059923  0.00059956  0.00059984  0.00060219  0.00061985
    Gval  0.00062389  0.00062806  0.00064075  0.00064424  0.00064501  0.00064683  0.00066028  0.00067169
    Gval  0.00069370  0.00069775  0.00079836  0.00081049  0.00092194  0.00098969  0.00108142  0.00108917
    Gval  0.00109335  0.00109428  0.00109497  0.00109547  0.00114175  0.00114284  0.00116540  0.00116568
    Gval  0.00116588  0.00116622  0.00117127  0.00117187  0.00118424  0.00120606  0.00122620  0.00129544
    Gval  0.00133197  0.00133671  0.00137960  0.00148366  0.00153002  0.00166049  0.00171605  0.00176251
    Gval  0.00191517  0.00195195  0.00208064  0.00228050  0.00233953  0.00252129  0.00252429  0.00255943
    Gval  0.00265559  0.00278895  0.00292174  0.00302355  0.00302601  0.00304204  0.00308120  0.00309631
    Gval  0.00367431  0.00367593  0.00369854  0.00372107  0.00372269  0.00394552  0.00407962  5.45204234
    Gval 18.72911593188.39369453
  1.681800948054771E-007  1.681800948054771E-007
  5.049293840121037E-007  1.681800948054771E-007
  7.770396238450327E-007  1.681800948054771E-007
  1.221016791977277E-006  1.681800948054771E-007
  2.816153309015821E-006  1.681800948054771E-007
  3.609636611305989E-006  1.681800948054771E-007
  3.825874376013365E-006  1.681800948054771E-007
  5.547385403598901E-006  1.681800948054771E-007
  6.162525654734775E-006  1.681800948054771E-007
  8.856144666023636E-006  1.681800948054771E-007
  9.640956530252135E-006  1.681800948054771E-007
  9.710215495762682E-006  1.681800948054771E-007
  1.122974223276784E-005  1.681800948054771E-007
  1.463329501411063E-005  1.681800948054771E-007
  1.552016422950354E-005  1.681800948054771E-007
  1.637737293161876E-005  1.681800948054771E-007
  1.696772338344513E-005  1.681800948054771E-007
  1.764693860734024E-005  1.681800948054771E-007
  1.830625021761160E-005  1.681800948054771E-007
  1.922757490431566E-005  1.681800948054771E-007
  1.977966821907786E-005  1.681800948054771E-007
  2.150823404710875E-005  1.681800948054771E-007
  2.373998962148334E-005  1.681800948054771E-007
  2.409089887484631E-005  1.681800948054771E-007
  2.508179220385905E-005  1.681800948054771E-007
  2.551552819969025E-005  1.681800948054771E-007
  2.920905745639047E-005  1.681800948054771E-007
  3.382833857619279E-005  1.681800948054771E-007
  3.395652175752561E-005  1.681800948054771E-007
  3.680916844034221E-005  1.681800948054771E-007
  3.845138958725125E-005  1.681800948054771E-007
  3.994019476954340E-005  1.681800948054771E-007
  4.229880818110276E-005  1.681800948054771E-007
  4.883685074939498E-005  1.681800948054771E-007
  4.901710408272698E-005  1.681800948054771E-007
  5.121908526491337E-005  1.681800948054771E-007
  5.225829172498557E-005  1.681800948054771E-007
  5.385549686147443E-005  1.681800948054771E-007
  5.557834271399168E-005  1.681800948054771E-007
  5.853183367381484E-005  1.681800948054771E-007
  6.072014064625870E-005  1.681800948054771E-007
  6.464023285179253E-005  1.681800948054771E-007
  6.626361184781453E-005  1.681800948054771E-007
  6.893827370220074E-005  1.681800948054771E-007
  7.098048412019031E-005  1.681800948054771E-007
  7.393135092494509E-005  1.681800948054771E-007
  7.492002259035596E-005  1.681800948054771E-007
  8.136549926801406E-005  1.681800948054771E-007
  8.242400505012423E-005  1.681800948054771E-007
  8.353852033068717E-005  1.681800948054771E-007
  8.626567466857108E-005  1.681800948054771E-007
  8.759968305286871E-005  1.681800948054771E-007
  8.795671260221753E-005  1.681800948054771E-007
  9.318175681397575E-005  1.681800948054771E-007
  9.351609346756643E-005  1.681800948054771E-007
  9.494012070611203E-005  1.681800948054771E-007
  9.985679209854115E-005  1.681800948054771E-007
  1.037163665785938E-004  1.681800948054771E-007
  1.159177288381169E-004  1.681800948054771E-007
  1.178534677781825E-004  1.681800948054771E-007
  1.211198140399641E-004  1.681800948054771E-007
  1.224792615382159E-004  1.681800948054771E-007
  1.341899337001675E-004  1.681800948054771E-007
  1.353246177415850E-004  1.681800948054771E-007
  1.370933883359438E-004  1.681800948054771E-007
  1.373275177194106E-004  1.681800948054771E-007
  1.384345144355800E-004  1.681800948054771E-007
  1.419161413517151E-004  1.681800948054771E-007
  1.580672994754082E-004  1.681800948054771E-007
  1.591232388457626E-004  1.681800948054771E-007
  1.628192124904236E-004  1.681800948054771E-007
  1.662061193298722E-004  1.681800948054771E-007
  1.690676113013921E-004  1.681800948054771E-007
  1.814976780528941E-004  1.681800948054771E-007
  2.004806811443341E-004  1.681800948054771E-007
  2.147889122669301E-004  1.681800948054771E-007
  2.217077521403830E-004  1.681800948054771E-007
  2.240120305388085E-004  1.681800948054771E-007
  2.303117806516810E-004  1.681800948054771E-007
  2.321260501869452E-004  1.681800948054771E-007
  2.651286979379201E-004  1.681800948054771E-007
  2.707869210248966E-004  1.681800948054771E-007
  2.859094724423466E-004  1.681800948054771E-007
  2.881421209493621E-004  1.681800948054771E-007
  2.893690783165060E-004  1.681800948054771E-007
  2.970152779219129E-004  1.681800948054771E-007
  3.012947622308863E-004  1.681800948054771E-007
  3.069618518024897E-004  1.681800948054771E-007
  3.418021341622683E-004  1.681800948054771E-007
  3.504379848373125E-004  1.681800948054771E-007
  3.604872118440603E-004  1.681800948054771E-007
  3.725642367829097E-004  1.681800948054771E-007
  3.761251394374604E-004  1.681800948054771E-007
  3.807682788245924E-004  1.681800948054771E-007
  3.893679921573100E-004  1.681800948054771E-007
  3.899137796373683E-004  1.681800948054771E-007
  3.952853259087906E-004  1.681800948054771E-007
  3.981846010257138E-004  1.681800948054771E-007
  4.143359098854338E-004  1.681800948054771E-007
  4.241956472719464E-004  1.681800948054771E-007
  4.254926195307517E-004  1.681800948054771E-007
  4.316545434613306E-004  1.681800948054771E-007
  4.319324841734813E-004  1.681800948054771E-007
  4.352044027283751E-004  1.681800948054771E-007
  4.406055992004832E-004  1.681800948054771E-007
  4.419597562753491E-004  1.681800948054771E-007
  4.621725835664369E-004  1.681800948054771E-007
  4.660443752369667E-004  1.681800948054771E-007
  4.688926049459888E-004  1.681800948054771E-007
  4.949876510494542E-004  1.681800948054771E-007
  5.244045928871822E-004  1.681800948054771E-007
  5.343009287125430E-004  1.681800948054771E-007
  5.371590485162372E-004  1.681800948054771E-007
  5.524804634997557E-004  1.681800948054771E-007
  5.541048053211666E-004  1.681800948054771E-007
  5.560152425997005E-004  1.681800948054771E-007
  5.563323377724923E-004  1.681800948054771E-007
  5.833006296907121E-004  1.681800948054771E-007
  5.909740816270975E-004  1.681800948054771E-007
  5.967571712198610E-004  1.681800948054771E-007
  5.984897659806451E-004  1.681800948054771E-007
  5.992300096970063E-004  1.681800948054771E-007
  5.995606838157457E-004  1.681800948054771E-007
  5.998403855824031E-004  1.681800948054771E-007
  6.021861871314681E-004  1.681800948054771E-007
  6.198484222070052E-004  1.681800948054771E-007
  6.238879445099426E-004  1.681800948054771E-007
  6.280551997064897E-004  1.681800948054771E-007
  6.407537252134902E-004  1.681800948054771E-007
  6.442442046766901E-004  1.681800948054771E-007
  6.450120206277377E-004  1.681800948054771E-007
  6.468285968439918E-004  1.681800948054771E-007
  6.602806667127237E-004  1.681800948054771E-007
  6.716925811484900E-004  1.681800948054771E-007
  6.937013187059200E-004  1.681800948054771E-007
  6.977477201183643E-004  1.681800948054771E-007
  7.983587786418927E-004  1.681800948054771E-007
  8.104946714376978E-004  1.681800948054771E-007
  9.219382671560377E-004  1.681800948054771E-007
  9.896883504830760E-004  1.681800948054771E-007
  1.081417443926124E-003  1.681800948054771E-007
  1.089171647976933E-003  1.681800948054771E-007
  1.093347951556184E-003  1.681800948054771E-007
  1.094275655509883E-003  1.681800948054771E-007
  1.094972861981249E-003  1.681800948054771E-007
  1.095465168325856E-003  1.681800948054771E-007
  1.141748195904402E-003  1.681800948054771E-007
  1.142837951155879E-003  1.681800948054771E-007
  1.165399032651070E-003  1.681800948054771E-007
  1.165682661489422E-003  1.681800948054771E-007
  1.165880847136728E-003  1.681800948054771E-007
  1.166224187915136E-003  1.681800948054771E-007
  1.171270051025985E-003  1.681800948054771E-007
  1.171865184720585E-003  1.681800948054771E-007
  1.184240850096575E-003  1.681800948054771E-007
  1.206063314096029E-003  1.681800948054771E-007
  1.226200940650079E-003  1.681800948054771E-007
  1.295443571517038E-003  1.681800948054771E-007
  1.331965375092550E-003  1.681800948054771E-007
  1.336714318230998E-003  1.681800948054771E-007
  1.379603116296860E-003  1.681800948054771E-007
  1.483664667580777E-003  1.681800948054771E-007
  1.530018253176025E-003  1.681800948054771E-007
  1.660494362169048E-003  1.681800948054771E-007
  1.716051452823944E-003  1.681800948054771E-007
  1.762507139641975E-003  1.681800948054771E-007
  1.915165674787545E-003  1.681800948054771E-007
  1.951953143507888E-003  1.681800948054771E-007
  2.080637756995998E-003  1.681800948054771E-007
  2.280503542028897E-003  1.681800948054771E-007
  2.339528038647825E-003  1.681800948054771E-007
  2.521294019104958E-003  1.681800948054771E-007
  2.524291455281681E-003  1.681800948054771E-007
  2.559426321898779E-003  1.681800948054771E-007
  2.655585985180725E-003  1.681800948054771E-007
  2.788952161940472E-003  1.681800948054771E-007
  2.921743024813025E-003  1.681800948054771E-007
  3.023549214516208E-003  1.681800948054771E-007
  3.026007041649055E-003  1.681800948054771E-007
  3.042039611947329E-003  1.681800948054771E-007
  3.081202820507310E-003  1.681800948054771E-007
  3.096308727527232E-003  1.681800948054771E-007
  3.674311998662069E-003  1.681800948054771E-007
  3.675932883219600E-003  1.681800948054771E-007
  3.698542795532173E-003  1.681800948054771E-007
  3.721070375473731E-003  1.681800948054771E-007
  3.722690368779573E-003  1.681800948054771E-007
  3.945524458512315E-003  1.681800948054771E-007
  4.079618755401059E-003  1.681800948054771E-007
   5.45204234310695       1.681800948054771E-007
   18.7291159346446       1.681800948054771E-007
   188.393694529592       1.681800948054771E-007
 cut=1d-8, nber non-redundant internal coords=         192
 Check on Eigenvals of non-red overlap matrix:
  0.00000017  0.00000050  0.00000078  0.00000122  0.00000282  0.00000361  0.00000383  0.00000555
  0.00000616  0.00000886  0.00000964  0.00000971  0.00001123  0.00001463  0.00001552  0.00001638
  0.00001697  0.00001765  0.00001831  0.00001923  0.00001978  0.00002151  0.00002374  0.00002409
  0.00002508  0.00002552  0.00002921  0.00003383  0.00003396  0.00003681  0.00003845  0.00003994
  0.00004230  0.00004884  0.00004902  0.00005122  0.00005226  0.00005386  0.00005558  0.00005853
  0.00006072  0.00006464  0.00006626  0.00006894  0.00007098  0.00007393  0.00007492  0.00008137
  0.00008242  0.00008354  0.00008627  0.00008760  0.00008796  0.00009318  0.00009352  0.00009494
  0.00009986  0.00010372  0.00011592  0.00011785  0.00012112  0.00012248  0.00013419  0.00013532
  0.00013709  0.00013733  0.00013843  0.00014192  0.00015807  0.00015912  0.00016282  0.00016621
  0.00016907  0.00018150  0.00020048  0.00021479  0.00022171  0.00022401  0.00023031  0.00023213
  0.00026513  0.00027079  0.00028591  0.00028814  0.00028937  0.00029702  0.00030129  0.00030696
  0.00034180  0.00035044  0.00036049  0.00037256  0.00037613  0.00038077  0.00038937  0.00038991
  0.00039529  0.00039818  0.00041434  0.00042420  0.00042549  0.00043165  0.00043193  0.00043520
  0.00044061  0.00044196  0.00046217  0.00046604  0.00046889  0.00049499  0.00052440  0.00053430
  0.00053716  0.00055248  0.00055410  0.00055602  0.00055633  0.00058330  0.00059097  0.00059676
  0.00059849  0.00059923  0.00059956  0.00059984  0.00060219  0.00061985  0.00062389  0.00062806
  0.00064075  0.00064424  0.00064501  0.00064683  0.00066028  0.00067169  0.00069370  0.00069775
  0.00079836  0.00081049  0.00092194  0.00098969  0.00108142  0.00108917  0.00109335  0.00109428
  0.00109497  0.00109547  0.00114175  0.00114284  0.00116540  0.00116568  0.00116588  0.00116622
  0.00117127  0.00117187  0.00118424  0.00120606  0.00122620  0.00129544  0.00133197  0.00133671
  0.00137960  0.00148366  0.00153002  0.00166049  0.00171605  0.00176251  0.00191517  0.00195195
  0.00208064  0.00228050  0.00233953  0.00252129  0.00252429  0.00255943  0.00265559  0.00278895
  0.00292174  0.00302355  0.00302601  0.00304204  0.00308120  0.00309631  0.00367431  0.00367593
  0.00369854  0.00372107  0.00372269  0.00394552  0.00407962  5.45204234 18.72911593188.39369453
 Checking for correct frequencies
 recalc frequencies=
    -0.0   -0.0    0.0    0.0    0.0    0.0    5.8    9.2   11.5   25.4
    28.7   42.1   55.0   62.1   70.5   76.6   89.3   98.6  114.7  115.3
   121.0  141.7  161.3  167.7  184.6  196.7  199.6  202.8  211.5  228.5
   234.2  236.4  250.7  256.3  258.4  280.0  296.0  301.9  318.8  350.3
   350.4  386.4  388.6  392.8  416.1  417.3  419.2  429.9  433.1  438.2
   446.5  447.2  467.0  468.1  476.2  484.1  497.8  498.8  505.1  505.8
   522.4  530.1  544.7  570.6  571.2  574.2  575.3  575.7  597.4  604.4
   616.0  630.9  632.2  633.8  651.7  679.8  689.4  697.4  703.1  705.5
   711.7  715.2  725.3  743.9  754.1  757.7  763.7  800.5  808.9  810.8
   815.0  817.4  822.9  826.5  832.1  843.7  851.2  877.6  900.1  907.8
   929.2  935.9  937.5  945.4  951.9  956.8  975.0  976.8  984.8  988.1
   989.0 1001.6 1027.2 1062.0 1087.1 1095.8 1109.7 1119.0 1137.6 1149.9
  1155.5 1157.5 1164.1 1170.0 1177.0 1186.0 1196.2 1199.6 1209.5 1224.6
  1232.8 1242.7 1251.5 1259.6 1276.3 1299.2 1317.6 1318.0 1342.7 1351.5
  1365.8 1367.5 1374.4 1382.2 1391.6 1400.4 1403.6 1404.8 1416.4 1428.1
  1433.7 1438.2 1444.6 1447.5 1458.2 1460.7 1466.1 1467.9 1485.1 1491.2
  1497.6 1505.0 1511.2 1522.5 1528.8 1546.8 1547.6 1554.8 1569.9 1579.6
  1598.6 1599.8 1621.0 1686.2 1715.6 1725.9 1750.8 2334.0 3028.9 3034.5
  3038.5 3056.6 3092.5 3095.7 3112.6 3132.6 3143.0 3198.6 3199.0 3199.6
  3205.2 3205.4 3211.2 3213.2 3213.4 3225.0 3225.2 3246.1
 recalc symmetries=
                                                                       
                                                                       
                                                                       
                                                                       
                                                                       
                                                                       
                                                                       
                                                                       
                                                                       
                                                                       
                                                                       
                                                                       
                                                                       
                                                                       
                                                                       
                                                                       
                                                                       
                                                                       
                                                                       
                                                         
 recalc freqs check OK
 Zero-point lengths:
 10.0000 10.0000 10.0000 10.0000 10.0000 10.0000102.8398 81.8471 73.1411 49.2082
 46.2937 38.2208 33.4197 31.4678 29.5245 28.3167 26.2394 24.9659 23.1501 23.0865
 22.5368 20.8240 19.5190 19.1420 18.2448 17.6746 17.5473 17.4095 17.0448 16.4002
 16.1979 16.1240 15.6585 15.4855 15.4221 14.8159 14.4103 14.2690 13.8856 13.2459
 13.2437 12.6115 12.5759 12.5094 12.1533 12.1353 12.1086 11.9573 11.9120 11.8430
 11.7321 11.7231 11.4716 11.4586 11.3612 11.2681 11.1111 11.0998 11.0309 11.0228
 10.8469 10.7671 10.6227 10.3782 10.3733 10.3460 10.3363 10.3322 10.1431 10.0843
  9.9884  9.8696  9.8599  9.8477  9.7109  9.5083  9.4420  9.3875  9.3495  9.3332
  9.2931  9.2702  9.2054  9.0894  9.0278  9.0065  8.9709  8.7623  8.7166  8.7066
  8.6840  8.6709  8.6421  8.6231  8.5941  8.5349  8.4975  8.3686  8.2633  8.2280
  8.1330  8.1036  8.0969  8.0628  8.0355  8.0146  7.9394  7.9321  7.8999  7.8867
  7.8831  7.8334  7.7351  7.6073  7.5191  7.4890  7.4419  7.4111  7.3501  7.3109
  7.2930  7.2866  7.2661  7.2477  7.2261  7.1987  7.1678  7.1578  7.1283  7.0843
  7.0607  7.0326  7.0079  6.9853  6.9395  6.8780  6.8299  6.8288  6.7657  6.7436
  6.7082  6.7040  6.6871  6.6683  6.6458  6.6248  6.6171  6.6145  6.5872  6.5602
  6.5474  6.5370  6.5227  6.5161  6.4921  6.4866  6.4746  6.4707  6.4331  6.4199
  6.4061  6.3903  6.3773  6.3536  6.3405  6.3035  6.3018  6.2872  6.2569  6.2377
  6.2004  6.1982  6.1575  6.0372  5.9854  5.9674  5.9248  5.1316  4.5045  4.5004
  4.4974  4.4841  4.4580  4.4557  4.4436  4.4294  4.4221  4.3834  4.3832  4.3827
  4.3789  4.3788  4.3748  4.3734  4.3733  4.3655  4.3653  4.3513
 highest evec of mol 1
  0.0000  0.0000 -0.0000
  0.0000  0.0000 -0.0000
  0.0000  0.0000 -0.0000
 -0.0000 -0.0000  0.0000
  0.0000  0.0000 -0.0000
 -0.0000  0.0000  0.0000
 -0.0000 -0.0000  0.0000
  0.0000 -0.0000 -0.0000
 -0.0000 -0.0000  0.0000
  0.0000 -0.0000 -0.0000
 -0.0000  0.0000  0.0000
  0.0000 -0.0000 -0.0000
 -0.0000 -0.0000  0.0000
 -0.0000  0.0000  0.0000
  0.0000 -0.0001 -0.0000
 -0.0000  0.0000 -0.0000
 -0.0000 -0.0000  0.0001
  0.0000  0.0000 -0.0000
  0.0000  0.0000 -0.0000
 -0.0001  0.0001  0.0001
  0.0001 -0.0002 -0.0001
  0.0002 -0.0002 -0.0002
  0.0001  0.0001 -0.0002
 -0.0039 -0.0027  0.0048
  0.0013  0.0671 -0.0165
  0.2002 -0.0302 -0.2067
 -0.0003 -0.0020  0.0007
 -0.0024  0.0007  0.0024
 -0.0002  0.0003  0.0002
  0.0000  0.0000 -0.0000
 -0.0000  0.0001  0.0000
  0.0000 -0.0000 -0.0000
  0.0000 -0.0000 -0.0000
 -0.0000  0.0000  0.0000
 -0.0000  0.0000 -0.0000
 -0.0000 -0.0000  0.0000
  0.0000  0.0000 -0.0000
 -0.0000  0.0000  0.0000
  0.0000  0.0000 -0.0000
 -0.0000 -0.0000  0.0000
  0.0000  0.0000 -0.0000
 -0.0000 -0.0000  0.0000
 -0.0000 -0.0000  0.0000
 -0.0000  0.0000  0.0000
  0.0000  0.0000 -0.0000
 -0.0000 -0.0000  0.0000
 -0.0000 -0.0000  0.0000
  0.0000 -0.0000 -0.0000
  0.0000  0.0000 -0.0000
  0.0000 -0.0000 -0.0000
  0.0000 -0.0000 -0.0000
 -0.0000 -0.0000  0.0000
 -0.0000  0.0000 -0.0000
 -0.0000  0.0000  0.0000
 -0.0000  0.0001 -0.0000
 -0.0001  0.0001  0.0001
  0.0000  0.0001 -0.0000
 -0.0004  0.0005  0.0003
  0.0003 -0.0001 -0.0001
  0.0001 -0.0001 -0.0003
 -0.0265 -0.1685  0.0662
 -0.6462  0.0593  0.6759
  0.0001 -0.0000 -0.0000
  0.0000 -0.0002  0.0000
  0.0001 -0.0001 -0.0001
 -0.0000 -0.0000  0.0000
 generating redundant internal coords
         300        3600          66
 Adding extra bonds for z output only
           6           6           6           7           6           8
           6           6           6           6           6           6
           6           6           6           8           7           6
           6           6           6           6           6           6
           6           6          16           6           6          16
           6           8           6           6           6           6
           6           6           6           6           6           8
           6           6           6           6           1           1
           1           1           1           1           1           1
           1           1           1           1           1           1
           1           1           1           1           1           1
 search for int coords
   1 str   2   1   1.532
   2 str   3   2   1.532
   3 str   4   2   1.498
   4 str   5   4   1.400
   5 str   6   5   1.222
   6 str   7   5   1.479
   7 str   8   7   1.400
   8 str   9   8   1.380
   9 str  10   9   1.422
  10 str  11  10   1.441
  11 str  12  11   1.422
  12 str  13  12   1.379
  13 str  14  13   1.401
  14 str  15  14   1.471
  15 str  16  15   1.213
  16 str  17  15   1.428
  17 str  18  17   1.355
  18 str  19  18   1.206
  19 str  20  19   1.401
  20 str  21  20   1.385
  21 str  22  21   1.407
  22 str  23  22   1.515
  23 str  24  23   1.515
  24 str  25  24   1.417
  25 str  26  25   1.370
  26 str  27  26   1.748
  27 str  28  24   1.384
  28 str  28  27   1.729
  29 str  29  22   1.387
  30 str  29  28   1.440
  31 str  30  20   1.773
  32 str  30  29   1.726
  33 str  31  17   1.429
  34 str  32  31   1.213
  35 str  33  31   1.470
  36 str  34  33   1.401
  37 str  35  34   1.379
  38 str  36  35   1.422
  39 str  37  36   1.441
  40 str  38  37   1.422
  41 str  39  38   1.380
  42 str  40  39   1.400
  43 str  41   4   1.407
  44 str  41  40   1.478
  45 str  42  41   1.221
  46 str  43   7   1.410
  47 str  43  40   1.410
  48 str  44  10   1.426
  49 str  44  37   1.426
  50 str  44  43   1.428
  51 str  45  11   1.428
  52 str  45  36   1.428
  53 str  46  14   1.414
  54 str  46  33   1.414
  55 str  46  45   1.429
  56 str  47   1   1.093
  57 str  48   1   1.089
  58 str  49   1   1.093
  59 str  50   2   1.088
  60 str  51   3   1.089
  61 str  52   3   1.093
  62 str  53   3   1.093
  63 str  54   8   1.082
  64 str  55   9   1.081
  65 str  56  12   1.081
  66 str  57  13   1.082
  67 str  58  21   1.082
  68 str  59  23   1.096
  69 str  60  23   1.096
  70 str  61  25   1.082
  71 str  62  26   1.079
  72 str  63  34   1.082
  73 str  64  35   1.081
  74 str  65  38   1.081
  75 str  66  39   1.082
 nber stretches=          75
  76 ben   1   2   3
  77 prop tor   1   2   3  51
  78 prop tor   1   2   3  52
  79 prop tor   1   2   3  53
  80 ben   1   2   4
  81 prop tor   1   2   4   5
  82 prop tor   1   2   4  41
  83 ben   1   2  50
  84 ben   2   1  47
  85 ben   2   1  48
  86 ben   2   1  49
  87 ben   2   3  51
  88 ben   2   3  52
  89 ben   2   3  53
  90 ben   2   4   5
  91 prop tor   2   4   5   6
  92 prop tor   2   4   5   7
  93 ben   2   4  41
  94 prop tor   2   4  41  40
  95 prop tor   2   4  41  42
  96 ben   3   2   4
  97 prop tor   3   2   4   5
  98 prop tor   3   2   4  41
  99 ben   3   2  50
 100 prop tor   4   2   3  51
 101 prop tor   4   2   3  52
 102 prop tor   4   2   3  53
 103 ben   4   2  50
 104 ben   4   5   6
 105 ben   4   5   7
 106 prop tor   4   5   7   8
 107 prop tor   4   5   7  43
 108 ben   4  41  40
 109 ben   4  41  42
 110 ben   5   4  41
 111 prop tor   5   4  41  40
 112 prop tor   5   4  41  42
 113 ben   5   7   8
 114 prop tor   5   7   8   9
 115 prop tor   5   7   8  54
 116 ben   5   7  43
 117 prop tor   5   7  43  40
 118 prop tor   5   7  43  44
 119 ben   6   5   7
 120 prop tor   6   5   7   8
 121 prop tor   6   5   7  43
 122 ben   7   8   9
 123 prop tor   7   8   9  10
 124 prop tor   7   8   9  55
 125 ben   7   8  54
 126 ben   7  43  40
 127 ben   7  43  44
 128 prop tor   7  43  44  10
 129 prop tor   7  43  44  37
 130 ben   8   7  43
 131 prop tor   8   7  43  40
 132 prop tor   8   7  43  44
 133 ben   8   9  10
 134 prop tor   8   9  10  11
 135 prop tor   8   9  10  44
 136 ben   8   9  55
 137 ben   9   8  54
 138 ben   9  10  11
 139 prop tor   9  10  11  12
 140 prop tor   9  10  11  45
 141 ben   9  10  44
 142 prop tor   9  10  44  37
 143 prop tor   9  10  44  43
 144 ben  10   9  55
 145 ben  10  11  12
 146 prop tor  10  11  12  13
 147 prop tor  10  11  12  56
 148 ben  10  11  45
 149 prop tor  10  11  45  36
 150 prop tor  10  11  45  46
 151 ben  10  44  37
 152 ben  10  44  43
 153 ben  11  10  44
 154 prop tor  11  10  44  37
 155 prop tor  11  10  44  43
 156 ben  11  12  13
 157 prop tor  11  12  13  14
 158 prop tor  11  12  13  57
 159 ben  11  12  56
 160 ben  11  45  36
 161 ben  11  45  46
 162 prop tor  11  45  46  14
 163 prop tor  11  45  46  33
 164 ben  12  11  45
 165 prop tor  12  11  45  36
 166 prop tor  12  11  45  46
 167 ben  12  13  14
 168 prop tor  12  13  14  15
 169 prop tor  12  13  14  46
 170 ben  12  13  57
 171 ben  13  12  56
 172 ben  13  14  15
 173 prop tor  13  14  15  16
 174 prop tor  13  14  15  17
 175 ben  13  14  46
 176 prop tor  13  14  46  33
 177 prop tor  13  14  46  45
 178 ben  14  13  57
 179 ben  14  15  16
 180 ben  14  15  17
 181 prop tor  14  15  17  18
 182 prop tor  14  15  17  31
 183 ben  14  46  33
 184 ben  14  46  45
 185 ben  15  14  46
 186 prop tor  15  14  46  33
 187 prop tor  15  14  46  45
 188 ben  15  17  18
 189 prop tor  15  17  18  19
 190 ben  15  17  31
 191 prop tor  15  17  31  32
 192 prop tor  15  17  31  33
 193 ben  16  15  17
 194 prop tor  16  15  17  18
 195 prop tor  16  15  17  31
 196 lin ben  17  18  19
 198 ben  17  31  32
 199 ben  17  31  33
 200 prop tor  17  31  33  34
 201 prop tor  17  31  33  46
 202 ben  18  17  31
 203 prop tor  18  17  31  32
 204 prop tor  18  17  31  33
 Extend lin bond           1          17          18          20
 205 lin ben  18  19  20
 207 ben  19  20  21
 208 prop tor  19  20  21  22
 209 prop tor  19  20  21  58
 210 ben  19  20  30
 211 prop tor  19  20  30  29
 212 ben  20  21  22
 213 prop tor  20  21  22  23
 214 prop tor  20  21  22  29
 215 ben  20  21  58
 216 ben  20  30  29
 217 ben  21  20  30
 218 prop tor  21  20  30  29
 219 ben  21  22  23
 220 prop tor  21  22  23  24
 221 prop tor  21  22  23  59
 222 prop tor  21  22  23  60
 223 ben  21  22  29
 224 prop tor  21  22  29  28
 225 prop tor  21  22  29  30
 226 ben  22  21  58
 227 ben  22  23  24
 228 prop tor  22  23  24  25
 229 prop tor  22  23  24  28
 230 ben  22  23  59
 231 ben  22  23  60
 232 ben  22  29  28
 233 ben  22  29  30
 234 prop tor  22  29  30  20
 235 ben  23  22  29
 236 prop tor  23  22  29  28
 237 prop tor  23  22  29  30
 238 ben  23  24  25
 239 prop tor  23  24  25  26
 240 prop tor  23  24  25  61
 241 ben  23  24  28
 242 prop tor  23  24  28  27
 243 prop tor  23  24  28  29
 244 ben  24  23  59
 245 ben  24  23  60
 246 ben  24  25  26
 247 prop tor  24  25  26  27
 248 prop tor  24  25  26  62
 249 ben  24  25  61
 250 ben  24  28  27
 251 ben  24  28  29
 252 prop tor  24  28  29  22
 253 prop tor  24  28  29  30
 254 ben  25  24  28
 255 prop tor  25  24  28  27
 256 prop tor  25  24  28  29
 257 ben  25  26  27
 258 prop tor  25  26  27  28
 259 ben  25  26  62
 260 ben  26  25  61
 261 ben  26  27  28
 262 prop tor  26  27  28  24
 263 prop tor  26  27  28  29
 264 ben  27  26  62
 265 ben  27  28  29
 266 prop tor  27  28  29  22
 267 prop tor  27  28  29  30
 268 prop tor  28  24  25  26
 269 prop tor  28  24  25  61
 270 ben  28  29  30
 271 prop tor  28  29  30  20
 272 prop tor  29  22  23  24
 273 prop tor  29  22  23  59
 274 prop tor  29  22  23  60
 275 prop tor  30  20  21  22
 276 prop tor  30  20  21  58
 277 prop tor  31  17  18  19
 278 ben  31  33  34
 279 prop tor  31  33  34  35
 280 prop tor  31  33  34  63
 281 ben  31  33  46
 282 prop tor  31  33  46  14
 283 prop tor  31  33  46  45
 284 ben  32  31  33
 285 prop tor  32  31  33  34
 286 prop tor  32  31  33  46
 287 ben  33  34  35
 288 prop tor  33  34  35  36
 289 prop tor  33  34  35  64
 290 ben  33  34  63
 291 ben  33  46  45
 292 ben  34  33  46
 293 prop tor  34  33  46  14
 294 prop tor  34  33  46  45
 295 ben  34  35  36
 296 prop tor  34  35  36  37
 297 prop tor  34  35  36  45
 298 ben  34  35  64
 299 ben  35  34  63
 300 ben  35  36  37
 301 prop tor  35  36  37  38
 302 prop tor  35  36  37  44
 303 ben  35  36  45
 304 prop tor  35  36  45  11
 305 prop tor  35  36  45  46
 306 ben  36  35  64
 307 ben  36  37  38
 308 prop tor  36  37  38  39
 309 prop tor  36  37  38  65
 310 ben  36  37  44
 311 prop tor  36  37  44  10
 312 prop tor  36  37  44  43
 313 ben  36  45  46
 314 prop tor  36  45  46  14
 315 prop tor  36  45  46  33
 316 ben  37  36  45
 317 prop tor  37  36  45  11
 318 prop tor  37  36  45  46
 319 ben  37  38  39
 320 prop tor  37  38  39  40
 321 prop tor  37  38  39  66
 322 ben  37  38  65
 323 ben  37  44  43
 324 ben  38  37  44
 325 prop tor  38  37  44  10
 326 prop tor  38  37  44  43
 327 ben  38  39  40
 328 prop tor  38  39  40  41
 329 prop tor  38  39  40  43
 330 ben  38  39  66
 331 ben  39  38  65
 332 ben  39  40  41
 333 prop tor  39  40  41   4
 334 prop tor  39  40  41  42
 335 ben  39  40  43
 336 prop tor  39  40  43   7
 337 prop tor  39  40  43  44
 338 ben  40  39  66
 339 ben  40  41  42
 340 ben  40  43  44
 341 prop tor  40  43  44  10
 342 prop tor  40  43  44  37
 343 prop tor  41   4   5   6
 344 prop tor  41   4   5   7
 345 ben  41  40  43
 346 prop tor  41  40  43   7
 347 prop tor  41  40  43  44
 348 prop tor  43   7   8   9
 349 prop tor  43   7   8  54
 350 prop tor  43  40  41   4
 351 prop tor  43  40  41  42
 352 prop tor  44  10  11  12
 353 prop tor  44  10  11  45
 354 prop tor  44  37  38  39
 355 prop tor  44  37  38  65
 356 prop tor  45  11  12  13
 357 prop tor  45  11  12  56
 358 prop tor  45  36  37  38
 359 prop tor  45  36  37  44
 360 prop tor  46  14  15  16
 361 prop tor  46  14  15  17
 362 prop tor  46  33  34  35
 363 prop tor  46  33  34  63
 364 prop tor  47   1   2   3
 365 prop tor  47   1   2   4
 366 prop tor  47   1   2  50
 367 ben  47   1  48
 368 ben  47   1  49
 369 prop tor  48   1   2   3
 370 prop tor  48   1   2   4
 371 prop tor  48   1   2  50
 372 ben  48   1  49
 373 prop tor  49   1   2   3
 374 prop tor  49   1   2   4
 375 prop tor  49   1   2  50
 376 prop tor  50   2   3  51
 377 prop tor  50   2   3  52
 378 prop tor  50   2   3  53
 379 prop tor  50   2   4   5
 380 prop tor  50   2   4  41
 381 ben  51   3  52
 382 ben  51   3  53
 383 ben  52   3  53
 384 prop tor  54   8   9  10
 385 prop tor  54   8   9  55
 386 prop tor  55   9  10  11
 387 prop tor  55   9  10  44
 388 prop tor  56  12  13  14
 389 prop tor  56  12  13  57
 390 prop tor  57  13  14  15
 391 prop tor  57  13  14  46
 392 prop tor  58  21  22  23
 393 prop tor  58  21  22  29
 394 prop tor  59  23  24  25
 395 prop tor  59  23  24  28
 396 ben  59  23  60
 397 prop tor  60  23  24  25
 398 prop tor  60  23  24  28
 399 prop tor  61  25  26  27
 400 prop tor  61  25  26  62
 401 prop tor  62  26  27  28
 402 prop tor  63  34  35  36
 403 prop tor  63  34  35  64
 404 prop tor  64  35  36  37
 405 prop tor  64  35  36  45
 406 prop tor  65  38  39  40
 407 prop tor  65  38  39  66
 408 prop tor  66  39  40  41
 409 prop tor  66  39  40  43
 410 lin bend prop tor  15  17  20  19
 411 lin bend prop tor  15  17  20  21
 412 lin bend prop tor  15  17  20  30
 413 lin bend prop tor  18  17  20  19
 414 lin bend prop tor  18  17  20  21
 415 lin bend prop tor  18  17  20  30
 416 lin bend prop tor  31  17  20  19
 417 lin bend prop tor  31  17  20  21
 418 lin bend prop tor  31  17  20  30
 nber bend=             132
 nber lin bend=           1
 nber prop tor=         211
 nber impr tor=           0
 nber tot redund int=         418
 Reading file: 
 ./CDT-PDI_2_C0S1.log                                                           
                                          
  Entering Gaussian System, Link 0=g16                                          
  
 Gaussian format, type: g94, g98, g03= F F F
  #P Geom=AllCheck Guess=TCheck SCRF=Check GenChk RB3LYP TD(FC,Read)/6-3    
 energy type= TD      
 Original G94 input coords:
  6 19.820032 26.261240-19.620390
  6 18.332993 26.399975-19.965427
  6 17.976228 25.837522-21.345983
  7 17.458510 25.839110-18.893853
  6 17.514475 24.464122-18.615542
  8 18.268790 23.726151-19.238726
  6 16.632945 23.958884-17.551538
  6 16.651494 22.599662-17.237680
  6 15.835312 22.093277-16.243745
  6 14.955248 22.919534-15.508840
  6 14.095544 22.401255-14.466382
  6 14.089395 21.026091-14.122938
  6 13.273314 20.537511-13.135232
  6 12.409075 21.388121-12.424134
  6 11.578701 20.804259-11.398981
  8 11.520576 19.645816-11.054561
  7 10.707333 21.774553-10.709971
  6  9.919231 21.299980 -9.759229
  6  9.197684 20.857461 -8.887501
  6  8.380181 20.354737 -7.900824
  6  8.273737 19.017414 -7.466798
  6  7.347221 18.871214 -6.450972
  6  6.805338 17.739681 -5.606114
  6  5.811854 18.467322 -4.729466
  6  4.914669 18.142029 -3.702044
  6  4.235083 19.254520 -3.249858
 16  4.677328 20.722746 -4.070320
  6  5.800576 19.836513 -5.046138
  6  6.722956 20.088370 -6.082524
 16  7.289176 21.433090 -7.004942
  6 10.629410 23.222285-10.979670
  8  9.857893 23.880663-10.319852
  6 11.512736 23.670829-12.028382
  6 11.506110 25.038101-12.355180
  6 12.320064 25.531726-13.342144
  6 13.197127 24.689117-14.070052
  6 14.056689 25.207183-15.112536
  6 14.074990 26.575103-15.467624
  6 14.900107 27.058413-16.465476
  6 15.752284 26.201698-17.163459
  6 16.616174 26.749571-18.219097
  8 16.613301 27.939399-18.508276
  6 15.771507 24.826361-16.846349
  6 14.920030 24.313031-15.813053
  6 13.227262 23.292586-13.760375
  6 12.368677 22.775205-12.720220
  1 20.412144 26.811071-20.357896
  1 20.135873 25.218867-19.623299
  1 20.027669 26.691860-18.637212
  1 18.082961 27.458705-19.958169
  1 18.215038 24.777414-21.419795
  1 18.539647 26.379920-22.110953
  1 16.911912 25.976500-21.553586
  1 17.321201 21.955646-17.793344
  1 15.883932 21.033905-16.035787
  1 14.737670 20.337171-14.643850
  1 13.277161 19.484903-12.881810
  1  8.871440 18.235006 -7.911638
  1  7.592555 17.251880 -5.022554
  1  6.329363 16.965567 -6.216369
  1  4.756058 17.152442 -3.296758
  1  3.489080 19.298637 -2.471030
  1 10.840107 25.691573-11.805984
  1 12.282679 26.588681-13.560487
  1 13.432135 27.276280-14.954842
  1 14.903677 28.108869-16.727101
 nber atoms=          66
  Total Energy, E(TD-HF/TD-DFT) =  -2667.36883050                               
  
          32          49 "  -2667.36883050"
After scan for Atom:   Atom  AN      X      Y      Z        X      Y      Z        X      Y      Z   
After scan for Atom:   Atom  AN      X      Y      Z        X      Y      Z        X      Y      Z   
After scan for Atom:   Atom  AN      X      Y      Z        X      Y      Z        X      Y      Z   
After scan for Atom:   Atom  AN      X      Y      Z        X      Y      Z        X      Y      Z   
After scan for Atom:   Atom  AN      X      Y      Z        X      Y      Z        X      Y      Z   
After scan for Atom:   Atom  AN      X      Y      Z        X      Y      Z        X      Y      Z   
After scan for Atom:   Atom  AN      X      Y      Z        X      Y      Z        X      Y      Z   
After scan for Atom:   Atom  AN      X      Y      Z        X      Y      Z        X      Y      Z   
After scan for Atom:   Atom  AN      X      Y      Z        X      Y      Z        X      Y      Z   
After scan for Atom:   Atom  AN      X      Y      Z        X      Y      Z        X      Y      Z   
After scan for Atom:   Atom  AN      X      Y      Z        X      Y      Z        X      Y      Z   
After scan for Atom:   Atom  AN      X      Y      Z        X      Y      Z        X      Y      Z   
After scan for Atom:   Atom  AN      X      Y      Z        X      Y      Z        X      Y      Z   
After scan for Atom:   Atom  AN      X      Y      Z        X      Y      Z        X      Y      Z   
After scan for Atom:   Atom  AN      X      Y      Z        X      Y      Z        X      Y      Z   
After scan for Atom:   Atom  AN      X      Y      Z        X      Y      Z        X      Y      Z   
After scan for Atom:   Atom  AN      X      Y      Z        X      Y      Z        X      Y      Z   
After scan for Atom:   Atom  AN      X      Y      Z        X      Y      Z        X      Y      Z   
After scan for Atom:   Atom  AN      X      Y      Z        X      Y      Z        X      Y      Z   
After scan for Atom:   Atom  AN      X      Y      Z        X      Y      Z        X      Y      Z   
After scan for Atom:   Atom  AN      X      Y      Z        X      Y      Z        X      Y      Z   
After scan for Atom:   Atom  AN      X      Y      Z        X      Y      Z        X      Y      Z   
After scan for Atom:   Atom  AN      X      Y      Z        X      Y      Z        X      Y      Z   
After scan for Atom:   Atom  AN      X      Y      Z        X      Y      Z        X      Y      Z   
After scan for Atom:   Atom  AN      X      Y      Z        X      Y      Z        X      Y      Z   
After scan for Atom:   Atom  AN      X      Y      Z        X      Y      Z        X      Y      Z   
After scan for Atom:   Atom  AN      X      Y      Z        X      Y      Z        X      Y      Z   
After scan for Atom:   Atom  AN      X      Y      Z        X      Y      Z        X      Y      Z   
After scan for Atom:   Atom  AN      X      Y      Z        X      Y      Z        X      Y      Z   
After scan for Atom:   Atom  AN      X      Y      Z        X      Y      Z        X      Y      Z   
After scan for Atom:   Atom  AN      X      Y      Z        X      Y      Z        X      Y      Z   
After scan for Atom:   Atom  AN      X      Y      Z        X      Y      Z        X      Y      Z   
After scan for Atom:   Atom  AN      X      Y      Z        X      Y      Z        X      Y      Z   
After scan for Atom:   Atom  AN      X      Y      Z        X      Y      Z        X      Y      Z   
After scan for Atom:   Atom  AN      X      Y      Z        X      Y      Z        X      Y      Z   
After scan for Atom:   Atom  AN      X      Y      Z        X      Y      Z        X      Y      Z   
After scan for Atom:   Atom  AN      X      Y      Z        X      Y      Z        X      Y      Z   
After scan for Atom:   Atom  AN      X      Y      Z        X      Y      Z        X      Y      Z   
After scan for Atom:   Atom  AN      X      Y      Z        X      Y      Z        X      Y      Z   
After scan for Atom:   Atom  AN      X      Y      Z        X      Y      Z        X      Y      Z   
After scan for Atom:   Atom  AN      X      Y      Z        X      Y      Z        X      Y      Z   
After scan for Atom:   Atom  AN      X      Y      Z        X      Y      Z        X      Y      Z   
After scan for Atom:   Atom  AN      X      Y      Z        X      Y      Z        X      Y      Z   
After scan for Atom:   Atom  AN      X      Y      Z        X      Y      Z        X      Y      Z   
After scan for Atom:   Atom  AN      X      Y      Z        X      Y      Z        X      Y      Z   
After scan for Atom:   Atom  AN      X      Y      Z        X      Y      Z        X      Y      Z   
After scan for Atom:   Atom  AN      X      Y      Z        X      Y      Z        X      Y      Z   
After scan for Atom:   Atom  AN      X      Y      Z        X      Y      Z        X      Y      Z   
After scan for Atom:   Atom  AN      X      Y      Z        X      Y      Z        X      Y      Z   
After scan for Atom:   Atom  AN      X      Y      Z        X      Y      Z        X      Y      Z   
After scan for Atom:   Atom  AN      X      Y      Z        X      Y      Z        X      Y      Z   
After scan for Atom:   Atom  AN      X      Y      Z        X      Y      Z        X      Y      Z   
After scan for Atom:   Atom  AN      X      Y      Z        X      Y      Z        X      Y      Z   
After scan for Atom:   Atom  AN      X      Y      Z        X      Y      Z        X      Y      Z   
After scan for Atom:   Atom  AN      X      Y      Z        X      Y      Z        X      Y      Z   
After scan for Atom:   Atom  AN      X      Y      Z        X      Y      Z        X      Y      Z   
After scan for Atom:   Atom  AN      X      Y      Z        X      Y      Z        X      Y      Z   
After scan for Atom:   Atom  AN      X      Y      Z        X      Y      Z        X      Y      Z   
After scan for Atom:   Atom  AN      X      Y      Z        X      Y      Z        X      Y      Z   
After scan for Atom:   Atom  AN      X      Y      Z        X      Y      Z        X      Y      Z   
After scan for Atom:   Atom  AN      X      Y      Z        X      Y      Z        X      Y      Z   
After scan for Atom:   Atom  AN      X      Y      Z        X      Y      Z        X      Y      Z   
After scan for Atom:   Atom  AN      X      Y      Z        X      Y      Z        X      Y      Z   
After scan for Atom:   Atom  AN      X      Y      Z        X      Y      Z        X      Y      Z   
 g94    frequencies=
     0.0    0.0    0.0    0.0    0.0    0.0    7.6   10.3   16.3   24.6
    26.8   39.7   55.6   61.7   71.4   79.3   89.1   98.0  108.8  117.3
   123.2  140.8  159.9  169.3  195.2  200.1  202.6  204.4  214.4  230.4
   234.5  235.8  251.6  259.1  261.0  281.1  295.8  296.7  330.6  343.1
   357.9  385.8  392.4  395.3  417.3  422.7  434.8  437.7  442.0  449.8
   452.8  453.6  462.4  474.8  491.5  495.6  502.2  504.5  516.4  526.0
   530.5  542.9  547.7  570.7  578.3  578.8  582.9  593.4  593.4  623.4
   625.7  627.6  646.1  662.7  667.5  675.2  706.4  713.1  714.9  728.1
   733.1  748.2  757.1  762.7  770.4  786.7  802.0  806.5  815.9  819.4
   823.3  823.7  830.5  832.5  844.7  850.4  859.6  897.9  899.4  907.2
   937.8  944.1  948.7  952.7  955.8  969.3  973.0  976.4  983.7  985.6
   986.2  988.8  997.3 1027.3 1068.5 1079.5 1094.9 1106.7 1130.8 1150.0
  1155.3 1162.7 1165.0 1174.7 1175.1 1190.0 1200.9 1215.5 1216.3 1227.5
  1236.3 1250.4 1258.1 1274.6 1286.8 1295.2 1298.0 1322.7 1340.0 1345.1
  1362.1 1363.2 1370.2 1384.3 1387.5 1392.7 1394.4 1397.9 1411.6 1425.1
  1437.2 1441.2 1451.4 1458.6 1467.4 1470.3 1483.6 1484.2 1486.2 1487.1
  1496.2 1506.6 1518.8 1523.6 1538.1 1552.1 1559.9 1574.4 1588.6 1613.0
  1617.8 1621.3 1635.2 1683.3 1720.1 1789.5 1865.6 2276.7 3029.4 3034.0
  3043.8 3074.1 3086.7 3089.8 3109.2 3131.6 3141.4 3192.5 3192.9 3197.6
  3197.9 3208.6 3208.9 3218.4 3225.0 3225.1 3230.7 3249.0
 g94    symmetries=
                                                 A      A      A      A
       A      A      A      A      A      A      A      A      A      A
       A      A      A      A      A      A      A      A      A      A
       A      A      A      A      A      A      A      A      A      A
       A      A      A      A      A      A      A      A      A      A
       A      A      A      A      A      A      A      A      A      A
       A      A      A      A      A      A      A      A      A      A
       A      A      A      A      A      A      A      A      A      A
       A      A      A      A      A      A      A      A      A      A
       A      A      A      A      A      A      A      A      A      A
       A      A      A      A      A      A      A      A      A      A
       A      A      A      A      A      A      A      A      A      A
       A      A      A      A      A      A      A      A      A      A
       A      A      A      A      A      A      A      A      A      A
       A      A      A      A      A      A      A      A      A      A
       A      A      A      A      A      A      A      A      A      A
       A      A      A      A      A      A      A      A      A      A
       A      A      A      A      A      A      A      A      A      A
       A      A      A      A      A      A      A      A      A      A
       A      A      A      A      A      A      A      A
 atomic masses:
 12.0000 12.0000 12.0000 14.0031 12.0000 15.9949 12.0000 12.0000 12.0000 12.0000
 12.0000 12.0000 12.0000 12.0000 12.0000 15.9949 14.0031 12.0000 12.0000 12.0000
 12.0000 12.0000 12.0000 12.0000 12.0000 12.0000 31.9721 12.0000 12.0000 31.9721
 12.0000 15.9949 12.0000 12.0000 12.0000 12.0000 12.0000 12.0000 12.0000 12.0000
 12.0000 15.9949 12.0000 12.0000 12.0000 12.0000  1.0078  1.0078  1.0078  1.0078
  1.0078  1.0078  1.0078  1.0078  1.0078  1.0078  1.0078  1.0078  1.0078  1.0078
  1.0078  1.0078  1.0078  1.0078  1.0078  1.0078
 looking for force constants in 
 ./CDT-PDI_2_C0S1.fchk                                                          
  
 Cartesian Force Constants                  R   N=       19701                  
  
 n3=         198       19701
 g94-fc frequencies=
    -4.3   -0.0   -0.0    0.0    0.5    1.3    7.7   10.3   16.3   24.6
    26.8   39.7   55.6   61.7   71.4   79.3   89.1   98.0  108.8  117.3
   123.2  140.8  159.9  169.3  195.2  200.1  202.6  204.4  214.4  230.4
   234.5  235.8  251.6  259.1  261.0  281.2  295.8  296.7  330.6  343.1
   358.0  385.9  392.4  395.3  417.3  422.7  434.8  437.7  442.0  449.8
   452.8  453.6  462.4  474.8  491.5  495.7  502.2  504.6  516.4  526.0
   530.5  542.9  547.7  570.7  578.3  578.8  583.0  593.4  593.4  623.4
   625.7  627.6  646.1  662.8  667.5  675.2  706.4  713.1  714.9  728.1
   733.1  748.2  757.1  762.7  770.4  786.7  802.1  806.6  815.9  819.4
   823.3  823.7  830.5  832.5  844.7  850.4  859.6  897.9  899.5  907.2
   937.8  944.1  948.7  952.7  955.8  969.3  973.0  976.5  983.8  985.6
   986.2  988.8  997.3 1027.3 1068.5 1079.6 1094.9 1106.7 1130.8 1150.1
  1155.3 1162.8 1165.0 1174.7 1175.1 1190.0 1200.9 1215.5 1216.3 1227.5
  1236.3 1250.4 1258.1 1274.7 1286.8 1295.2 1298.0 1322.7 1340.1 1345.1
  1362.1 1363.3 1370.2 1384.3 1387.6 1392.8 1394.4 1397.9 1411.6 1425.1
  1437.3 1441.2 1451.4 1458.7 1467.4 1470.4 1483.6 1484.2 1486.2 1487.1
  1496.2 1506.6 1518.8 1523.6 1538.1 1552.2 1559.9 1574.5 1588.6 1613.1
  1617.8 1621.3 1635.2 1683.3 1720.1 1789.6 1865.6 2276.8 3029.5 3034.1
  3043.8 3074.2 3086.7 3089.9 3109.3 3131.7 3141.5 3192.6 3193.0 3197.6
  3198.0 3208.6 3208.9 3218.4 3225.0 3225.2 3230.8 3249.0
 at 99999: n3=         198
 symm operator            1 :  F  nop=           0
 symm operator            2 :  F  nop=           0
 symm operator            3 :  F  nop=           0
 symm operator            4 :  F  nop=           0
 symm operator            5 :  F  nop=           0
 symm operator            6 :  F  nop=           0
 symm operator            7 :  F  nop=           0
 The point group of the molecule is  C1
 Symmetry rotation matrix:
   1.00000   0.00000   0.00000
   0.00000   1.00000   0.00000
   0.00000   0.00000   1.00000

 Projecting out zero-frequency components
 generating redundant internal coords
         300        3600          66
 search for int coords
   1 str   2   1   1.533
   2 str   3   2   1.533
   3 str   4   2   1.493
   4 str   5   4   1.404
   5 str   6   5   1.226
   6 str   7   5   1.471
   7 str   8   7   1.395
   8 str   9   8   1.382
   9 str  10   9   1.413
  10 str  11  10   1.447
  11 str  12  11   1.417
  12 str  13  12   1.371
  13 str  14  13   1.406
  14 str  15  14   1.443
  15 str  16  15   1.210
  16 str  17  15   1.475
  17 str  18  17   1.323
  18 str  19  18   1.215
  19 str  20  19   1.376
  20 str  21  20   1.410
  21 str  22  21   1.383
  22 str  23  22   1.513
  23 str  24  23   1.512
  24 str  25  24   1.402
  25 str  26  25   1.380
  26 str  27  26   1.739
  27 str  28  24   1.405
  28 str  28  27   1.732
  29 str  29  22   1.417
  30 str  29  28   1.410
  31 str  30  20   1.776
  32 str  30  29   1.726
  33 str  31  17   1.475
  34 str  32  31   1.210
  35 str  33  31   1.443
  36 str  34  33   1.406
  37 str  35  34   1.371
  38 str  36  35   1.417
  39 str  37  36   1.447
  40 str  38  37   1.413
  41 str  39  38   1.382
  42 str  40  39   1.395
  43 str  41   4   1.412
  44 str  41  40   1.470
  45 str  42  41   1.224
  46 str  43   7   1.411
  47 str  43  40   1.412
  48 str  44  10   1.427
  49 str  44  37   1.427
  50 str  44  43   1.434
  51 str  45  11   1.431
  52 str  45  36   1.431
  53 str  46  14   1.419
  54 str  46  33   1.419
  55 str  46  45   1.445
  56 str  47   1   1.094
  57 str  48   1   1.089
  58 str  49   1   1.093
  59 str  50   2   1.088
  60 str  51   3   1.089
  61 str  52   3   1.094
  62 str  53   3   1.093
  63 str  54   8   1.083
  64 str  55   9   1.081
  65 str  56  12   1.080
  66 str  57  13   1.083
  67 str  58  21   1.080
  68 str  59  23   1.095
  69 str  60  23   1.095
  70 str  61  25   1.081
  71 str  62  26   1.079
  72 str  63  34   1.083
  73 str  64  35   1.080
  74 str  65  38   1.081
  75 str  66  39   1.083
 nber stretches=          75
  76 ben   1   2   3
  77 prop tor   1   2   3  51
  78 prop tor   1   2   3  52
  79 prop tor   1   2   3  53
  80 ben   1   2   4
  81 prop tor   1   2   4   5
  82 prop tor   1   2   4  41
  83 ben   1   2  50
  84 ben   2   1  47
  85 ben   2   1  48
  86 ben   2   1  49
  87 ben   2   3  51
  88 ben   2   3  52
  89 ben   2   3  53
  90 ben   2   4   5
  91 prop tor   2   4   5   6
  92 prop tor   2   4   5   7
  93 ben   2   4  41
  94 prop tor   2   4  41  40
  95 prop tor   2   4  41  42
  96 ben   3   2   4
  97 prop tor   3   2   4   5
[...]
 nber times 1st assigned=         189           0
 nber times 1st assigned=         190           0
 nber times 1st assigned=         191           0
 nber times 1st assigned=         192           0
 nber times 1st assigned=         193           0
 nber times 1st assigned=         194           0
 nber times 1st assigned=         195           0
 nber times 1st assigned=         196           0
 nber times 1st assigned=         197           0
 nber times 1st assigned=         198           0
 modes represented=   1271.03053762111     
 p1=
    0.   -0.    0.   -0.   -0.    0.   -7.  -14.   15.   -5.    1.    2.    0.   -0.   -8.   -0.   -0.   -1.   -5.   25.
   27.   -0.    0.    0.   -0.    3.   -0.   -9.    0.   -8.    0.    3.   -0.    0.   -0.    3.   -7.   -0.   -0.   -1.
   -0.   -0.   -1.   -1.    0.   -0.   -1.    2.    2.    1.    2.   -0.    0.    7.    3.   -0.    4.   -0.   -5.   -0.
    1.   -2.   -3.   -1.    0.   -0.   -0.   -0.   -2.    0.    0.    4.    0.   -0.    0.    0.   -3.    0.    0.   -0.
    2.    1.    3.   -0.    0.    0.   -0.   -0.    0.    0.    0.   -1.   -1.    0.   -0.   -0.   -0.    0.    1.    2.
   -1.   -1.    0.    0.    0.    0.    0.    0.    0.   -0.    0.   -1.   -2.    0.    1.    0.    0.    0.   -0.    0.
    0.   -2.   -1.   -0.   -1.   -0.   -0.    0.   -1.    1.   -0.    0.    0.    1.   -0.    2.   -2.    1.    5.    0.
   -0.   -0.   -3.   -0.    0.   -0.   -0.    1.   -0.   -1.   -1.    0.    0.   -0.    0.    0.    0.    2.    0.    1.
   -0.    0.    0.   -0.   -0.    0.   -0.    1.    0.    0.    0.   -0.    0.    0.    0.    1.   -0.    1.   -0.    0.
    0.    0.   -0.   -0.    0.   -0.    0.    0.    0.    0.    0.   -0.   -0.    0.   -0.    0.    0.    0.
 p2=
   -0.   -0.   -0.   -0.    0.   -0.   28.  -89.   -3.    8.   -2.    3.   -0.    0.  -22.    0.   -0.   -1.    1.  -34.
  -13.    0.    0.    0.   -0.   -3.   -0.   -7.    0.    9.   -3.   -4.    0.   -0.    1.    2.   -0.   -7.    1.    0.
   -0.    2.    2.    1.    0.    0.   -2.    0.   -0.   -9.    6.    0.   -0.    2.    5.    1.    0.    0.   -0.   -1.
    0.    1.   -0.   -1.   -0.   -0.    0.    1.    3.   -0.    0.   -3.   -0.    0.    0.    2.    1.   -2.   -1.    2.
    0.    0.   -0.    0.   -0.    0.   -0.   -0.   -0.   -1.   -1.   -0.    0.    0.   -0.    0.    0.    1.    0.   -2.
    2.    0.   -0.    1.   -0.   -0.    0.    0.    1.   -0.    0.   -0.    1.   -2.    0.    1.    1.   -0.   -4.   -0.
    0.    0.    0.    0.    1.   -0.   -0.   -1.   -0.    0.    0.   -0.    3.   -3.   -3.    0.   -2.    1.    2.   -0.
    0.   -0.    2.    0.   -0.   -0.   -0.    0.   -0.   -1.   -1.   -1.   -2.    1.   -1.   -0.   -0.   -0.    0.   -0.
   -0.    0.    1.   -0.    2.    0.    1.    1.   -0.   -0.    0.    0.   -1.   -0.    1.   -1.    0.    2.    0.    0.
    0.    0.   -0.   -0.    0.   -0.    0.    0.    0.   -0.   -0.    0.    0.   -0.   -0.    0.   -0.   -0.

 Displacement: in terms of nc of 1 THEN of nc of 2

   1     freq=    -0. Q=  0.000 lam=    -0.0     freq=    -0. Q=  0.000 lam=    -0.0
   2     freq=    -0. Q= -0.000 lam=    -0.0     freq=    -0. Q= -0.000 lam=    -0.0
   3     freq=     0. Q=  0.000 lam=     0.0     freq=    -0. Q=  0.000 lam=    -0.0
   4     freq=     0. Q= -0.000 lam=     0.0     freq=     0. Q= -0.000 lam=     0.0
   5     freq=     0. Q= -0.000 lam=     0.0     freq=     0. Q= -0.000 lam=     0.0
   6     freq=     0. Q=  0.000 lam=     0.0     freq=     0. Q=  0.000 lam=     0.0
   7     freq=     6. Q= -0.064 lam=     0.0     freq=     8. Q= -0.315 lam=     0.4
   8     freq=     9. Q= -0.170 lam=     0.1     freq=    10. Q= -1.156 lam=     6.9
   9     freq=    11. Q=  0.203 lam=     0.2     freq=    16. Q=  0.049 lam=     0.0
  10     freq=    25. Q= -0.107 lam=     0.1     freq=    25. Q= -0.160 lam=     0.3
  11     freq=    29. Q=  0.021 lam=     0.0     freq=    27. Q=  0.050 lam=     0.0
  12     freq=    42. Q=  0.064 lam=     0.1     freq=    40. Q=  0.074 lam=     0.1
  13     freq=    55. Q=  0.000 lam=     0.0     freq=    56. Q=  0.006 lam=     0.0
  14     freq=    62. Q= -0.006 lam=     0.0     freq=    62. Q= -0.006 lam=     0.0
  15     freq=    71. Q= -0.279 lam=     2.7     freq=    71. Q= -0.761 lam=    20.7
  16     freq=    77. Q= -0.003 lam=     0.0     freq=    79. Q= -0.002 lam=     0.0
  17     freq=    89. Q= -0.007 lam=     0.0     freq=    89. Q= -0.010 lam=     0.0
  18     freq=    99. Q= -0.027 lam=     0.0     freq=    98. Q= -0.051 lam=     0.1
  19     freq=   115. Q= -0.221 lam=     2.8     freq=   109. Q= -0.059 lam=     0.2
  20     freq=   115. Q=  1.101 lam=    69.8     freq=   117. Q=  1.497 lam=   131.4
  21     freq=   121. Q=  1.200 lam=    87.1     freq=   123. Q=  0.587 lam=    21.2
  22     freq=   142. Q= -0.006 lam=     0.0     freq=   141. Q= -0.002 lam=     0.0
  23     freq=   161. Q=  0.025 lam=     0.0     freq=   160. Q=  0.025 lam=     0.0
  24     freq=   168. Q=  0.002 lam=     0.0     freq=   169. Q=  0.002 lam=     0.0
  25     freq=   185. Q= -0.000 lam=     0.0     freq=   195. Q= -0.002 lam=     0.0
  26     freq=   197. Q=  0.152 lam=     2.3     freq=   200. Q=  0.158 lam=     2.5
  27     freq=   200. Q= -0.008 lam=     0.0     freq=   203. Q= -0.020 lam=     0.0
  28     freq=   203. Q= -0.535 lam=    29.0     freq=   204. Q= -0.389 lam=    15.5
  29     freq=   212. Q=  0.010 lam=     0.0     freq=   214. Q=  0.021 lam=     0.0
  30     freq=   228. Q= -0.507 lam=    29.3     freq=   230. Q= -0.538 lam=    33.3
  31     freq=   234. Q=  0.017 lam=     0.0     freq=   234. Q=  0.192 lam=     4.3
  32     freq=   236. Q=  0.192 lam=     4.4     freq=   236. Q=  0.223 lam=     5.9
  33     freq=   251. Q= -0.010 lam=     0.0     freq=   252. Q= -0.005 lam=     0.0
  34     freq=   256. Q=  0.001 lam=     0.0     freq=   259. Q=  0.003 lam=     0.0
  35     freq=   258. Q= -0.024 lam=     0.1     freq=   261. Q= -0.074 lam=     0.7
  36     freq=   280. Q=  0.189 lam=     5.0     freq=   281. Q=  0.161 lam=     3.7
  37     freq=   296. Q= -0.494 lam=    36.1     freq=   296. Q= -0.007 lam=     0.0
  38     freq=   302. Q= -0.000 lam=     0.0     freq=   297. Q= -0.476 lam=    33.7
  39     freq=   319. Q= -0.019 lam=     0.1     freq=   331. Q= -0.041 lam=     0.3
  40     freq=   350. Q= -0.068 lam=     0.8     freq=   343. Q= -0.013 lam=     0.0
  41     freq=   350. Q= -0.002 lam=     0.0     freq=   358. Q= -0.008 lam=     0.0
  42     freq=   386. Q= -0.016 lam=     0.0     freq=   386. Q= -0.187 lam=     6.7
  43     freq=   389. Q= -0.095 lam=     1.8     freq=   392. Q= -0.159 lam=     4.9
  44     freq=   393. Q= -0.109 lam=     2.3     freq=   395. Q= -0.075 lam=     1.1
  45     freq=   416. Q=  0.026 lam=     0.1     freq=   417. Q=  0.000 lam=     0.0
  46     freq=   417. Q= -0.001 lam=     0.0     freq=   423. Q= -0.016 lam=     0.1
  47     freq=   419. Q= -0.071 lam=     1.1     freq=   435. Q= -0.157 lam=     5.4
  48     freq=   430. Q=  0.162 lam=     5.6     freq=   438. Q=  0.027 lam=     0.2
  49     freq=   433. Q=  0.193 lam=     8.0     freq=   442. Q=  0.008 lam=     0.0
  50     freq=   438. Q=  0.119 lam=     3.1     freq=   450. Q=  0.769 lam=   133.1
  51     freq=   447. Q=  0.166 lam=     6.2     freq=   453. Q=  0.500 lam=    56.6
  52     freq=   447. Q= -0.000 lam=     0.0     freq=   454. Q= -0.004 lam=     0.0
  53     freq=   467. Q=  0.011 lam=     0.0     freq=   462. Q=  0.013 lam=     0.0
  54     freq=   468. Q=  0.624 lam=    91.0     freq=   475. Q=  0.195 lam=     9.0
  55     freq=   476. Q=  0.275 lam=    18.1     freq=   492. Q=  0.461 lam=    52.1
  56     freq=   484. Q= -0.002 lam=     0.0     freq=   496. Q= -0.091 lam=     2.0
  57     freq=   498. Q=  0.404 lam=    40.7     freq=   502. Q=  0.000 lam=     0.0
  58     freq=   499. Q= -0.006 lam=     0.0     freq=   505. Q= -0.004 lam=     0.0
  59     freq=   505. Q= -0.445 lam=    50.0     freq=   516. Q= -0.001 lam=     0.0
  60     freq=   506. Q= -0.001 lam=     0.0     freq=   526. Q= -0.134 lam=     4.7
  61     freq=   522. Q=  0.053 lam=     0.7     freq=   531. Q=  0.045 lam=     0.5
  62     freq=   530. Q= -0.195 lam=    10.0     freq=   543. Q= -0.123 lam=     4.1
  63     freq=   545. Q= -0.257 lam=    18.0     freq=   548. Q= -0.032 lam=     0.3
  64     freq=   571. Q= -0.060 lam=     1.0     freq=   571. Q= -0.075 lam=     1.6
  65     freq=   571. Q=  0.001 lam=     0.0     freq=   578. Q=  0.004 lam=     0.0
  66     freq=   574. Q= -0.007 lam=     0.0     freq=   579. Q= -0.007 lam=     0.0
  67     freq=   575. Q= -0.020 lam=     0.1     freq=   583. Q= -0.041 lam=     0.5
  68     freq=   576. Q= -0.015 lam=     0.1     freq=   593. Q= -0.142 lam=     6.0
  69     freq=   597. Q= -0.239 lam=    17.1     freq=   593. Q= -0.280 lam=    23.2
  70     freq=   604. Q=  0.000 lam=     0.0     freq=   623. Q=  0.001 lam=     0.0
  71     freq=   616. Q=  0.007 lam=     0.0     freq=   626. Q=  0.009 lam=     0.0
  72     freq=   631. Q=  0.388 lam=    47.4     freq=   628. Q=  0.336 lam=    35.4
  73     freq=   632. Q=  0.001 lam=     0.0     freq=   646. Q=  0.001 lam=     0.0
  74     freq=   634. Q= -0.002 lam=     0.0     freq=   663. Q= -0.001 lam=     0.0
  75     freq=   652. Q=  0.000 lam=     0.0     freq=   668. Q=  0.001 lam=     0.0
  76     freq=   680. Q=  0.001 lam=     0.0     freq=   675. Q=  0.193 lam=    12.6
  77     freq=   689. Q= -0.274 lam=    26.0     freq=   706. Q= -0.111 lam=     4.4
  78     freq=   697. Q=  0.001 lam=     0.0     freq=   713. Q=  0.197 lam=    13.9
  79     freq=   703. Q=  0.000 lam=     0.0     freq=   715. Q=  0.068 lam=     1.6
  80     freq=   706. Q= -0.041 lam=     0.6     freq=   728. Q= -0.216 lam=    17.0
  81     freq=   712. Q=  0.250 lam=    22.2     freq=   733. Q=  0.000 lam=     0.0
  82     freq=   715. Q=  0.055 lam=     1.1     freq=   748. Q=  0.000 lam=     0.0
  83     freq=   725. Q=  0.280 lam=    28.4     freq=   757. Q=  0.001 lam=     0.0
  84     freq=   744. Q= -0.000 lam=     0.0     freq=   763. Q= -0.004 lam=     0.0
  85     freq=   754. Q=  0.004 lam=     0.0     freq=   770. Q=  0.001 lam=     0.0
  86     freq=   758. Q=  0.000 lam=     0.0     freq=   787. Q=  0.001 lam=     0.0
  87     freq=   764. Q= -0.001 lam=     0.0     freq=   802. Q= -0.041 lam=     0.7
  88     freq=   800. Q= -0.047 lam=     0.9     freq=   807. Q= -0.005 lam=     0.0
  89     freq=   809. Q=  0.001 lam=     0.0     freq=   816. Q=  0.000 lam=     0.0
  90     freq=   811. Q=  0.031 lam=     0.4     freq=   819. Q=  0.071 lam=     2.1
  91     freq=   815. Q=  0.000 lam=     0.0     freq=   823. Q=  0.106 lam=     4.6
  92     freq=   817. Q= -0.083 lam=     2.8     freq=   824. Q= -0.000 lam=     0.0
  93     freq=   823. Q= -0.095 lam=     3.7     freq=   831. Q= -0.001 lam=     0.0
  94     freq=   827. Q=  0.001 lam=     0.0     freq=   832. Q=  0.000 lam=     0.0
  95     freq=   832. Q= -0.000 lam=     0.0     freq=   845. Q= -0.018 lam=     0.1
  96     freq=   844. Q= -0.022 lam=     0.2     freq=   850. Q= -0.002 lam=     0.0
  97     freq=   851. Q= -0.006 lam=     0.0     freq=   860. Q= -0.006 lam=     0.0
  98     freq=   878. Q=  0.001 lam=     0.0     freq=   898. Q=  0.062 lam=     1.7
  99     freq=   900. Q=  0.134 lam=     8.0     freq=   899. Q=  0.002 lam=     0.0
 100     freq=   908. Q=  0.219 lam=    21.8     freq=   907. Q=  0.273 lam=    33.8
 101     freq=   929. Q= -0.174 lam=    14.1     freq=   938. Q= -0.221 lam=    23.0
 102     freq=   936. Q= -0.139 lam=     9.0     freq=   944. Q= -0.001 lam=     0.0
 103     freq=   937. Q=  0.002 lam=     0.0     freq=   949. Q=  0.002 lam=     0.0
 104     freq=   945. Q=  0.000 lam=     0.0     freq=   953. Q=  0.098 lam=     4.6
 105     freq=   952. Q=  0.058 lam=     1.6     freq=   956. Q=  0.001 lam=     0.0
 106     freq=   957. Q=  0.000 lam=     0.0     freq=   969. Q=  0.007 lam=     0.0
 107     freq=   975. Q=  0.000 lam=     0.0     freq=   973. Q=  0.000 lam=     0.0
 108     freq=   977. Q=  0.000 lam=     0.0     freq=   976. Q=  0.001 lam=     0.0
 109     freq=   985. Q=  0.032 lam=     0.5     freq=   984. Q=  0.128 lam=     8.1
 110     freq=   988. Q= -0.000 lam=     0.0     freq=   986. Q= -0.000 lam=     0.0
 111     freq=   989. Q=  0.000 lam=     0.0     freq=   986. Q=  0.044 lam=     1.0
 112     freq=  1002. Q= -0.139 lam=     9.7     freq=   989. Q= -0.000 lam=     0.0
 113     freq=  1027. Q= -0.232 lam=    27.6     freq=   997. Q= -0.152 lam=    11.5
 114     freq=  1062. Q=  0.020 lam=     0.2     freq=  1027. Q=  0.253 lam=    33.0
 115     freq=  1087. Q=  0.087 lam=     4.1     freq=  1069. Q=  0.008 lam=     0.0
 116     freq=  1096. Q=  0.025 lam=     0.4     freq=  1080. Q=  0.085 lam=     3.9
 117     freq=  1110. Q=  0.037 lam=     0.8     freq=  1095. Q=  0.095 lam=     5.0
 118     freq=  1119. Q=  0.020 lam=     0.2     freq=  1107. Q=  0.022 lam=     0.3
 119     freq=  1138. Q= -0.014 lam=     0.1     freq=  1131. Q= -0.479 lam=   129.8
 120     freq=  1150. Q=  0.001 lam=     0.0     freq=  1150. Q=  0.013 lam=     0.1
 121     freq=  1155. Q=  0.000 lam=     0.0     freq=  1155. Q=  0.000 lam=     0.0
 122     freq=  1158. Q= -0.333 lam=    64.0     freq=  1163. Q= -0.001 lam=     0.0
 123     freq=  1164. Q= -0.175 lam=    17.8     freq=  1165. Q= -0.024 lam=     0.3
 124     freq=  1170. Q= -0.012 lam=     0.1     freq=  1175. Q= -0.022 lam=     0.3
 125     freq=  1177. Q= -0.076 lam=     3.4     freq=  1175. Q= -0.174 lam=    17.7
 126     freq=  1186. Q= -0.024 lam=     0.3     freq=  1190. Q= -0.037 lam=     0.8
 127     freq=  1196. Q= -0.014 lam=     0.1     freq=  1201. Q= -0.014 lam=     0.1
 128     freq=  1200. Q=  0.007 lam=     0.0     freq=  1215. Q=  0.167 lam=    17.0
 129     freq=  1210. Q= -0.094 lam=     5.3     freq=  1216. Q= -0.026 lam=     0.4
 130     freq=  1225. Q=  0.093 lam=     5.3     freq=  1228. Q=  0.062 lam=     2.3
 131     freq=  1233. Q= -0.026 lam=     0.4     freq=  1236. Q= -0.028 lam=     0.5
 132     freq=  1243. Q=  0.002 lam=     0.0     freq=  1250. Q=  0.000 lam=     0.0
 133     freq=  1251. Q=  0.011 lam=     0.1     freq=  1258. Q=  0.407 lam=   104.1
 134     freq=  1260. Q=  0.126 lam=     9.9     freq=  1275. Q=  0.414 lam=   109.3
 135     freq=  1276. Q= -0.023 lam=     0.3     freq=  1287. Q= -0.419 lam=   112.8
 136     freq=  1299. Q=  0.300 lam=    58.6     freq=  1295. Q=  0.010 lam=     0.1
 137     freq=  1318. Q= -0.340 lam=    76.2     freq=  1298. Q= -0.237 lam=    36.6
 138     freq=  1318. Q=  0.201 lam=    26.6     freq=  1323. Q=  0.092 lam=     5.6
 139     freq=  1343. Q=  0.748 lam=   375.4     freq=  1340. Q=  0.325 lam=    70.8
 140     freq=  1351. Q=  0.064 lam=     2.8     freq=  1345. Q=  0.001 lam=     0.0
 141     freq=  1366. Q= -0.031 lam=     0.7     freq=  1362. Q= -0.048 lam=     1.5
 142     freq=  1367. Q= -0.050 lam=     1.7     freq=  1363. Q= -0.022 lam=     0.3
 143     freq=  1374. Q= -0.444 lam=   135.2     freq=  1370. Q= -0.230 lam=    36.4
 144     freq=  1382. Q= -0.001 lam=     0.0     freq=  1384. Q= -0.000 lam=     0.0
 145     freq=  1392. Q=  0.000 lam=     0.0     freq=  1388. Q=  0.060 lam=     2.5
 146     freq=  1400. Q= -0.000 lam=     0.0     freq=  1393. Q= -0.041 lam=     1.2
 147     freq=  1404. Q= -0.010 lam=     0.1     freq=  1394. Q= -0.002 lam=     0.0
 148     freq=  1405. Q=  0.205 lam=    29.6     freq=  1398. Q=  0.000 lam=     0.0
 149     freq=  1416. Q= -0.036 lam=     0.9     freq=  1412. Q= -0.025 lam=     0.5
 150     freq=  1428. Q= -0.144 lam=    14.7     freq=  1425. Q= -0.113 lam=     9.1
 151     freq=  1434. Q= -0.159 lam=    18.1     freq=  1437. Q= -0.123 lam=    10.8
 152     freq=  1438. Q=  0.029 lam=     0.6     freq=  1441. Q=  0.109 lam=     8.5
 153     freq=  1445. Q=  0.003 lam=     0.0     freq=  1451. Q=  0.304 lam=    67.0
 154     freq=  1447. Q= -0.056 lam=     2.3     freq=  1459. Q= -0.157 lam=    18.1
 155     freq=  1458. Q=  0.041 lam=     1.2     freq=  1467. Q=  0.135 lam=    13.4
 156     freq=  1461. Q=  0.065 lam=     3.0     freq=  1470. Q=  0.001 lam=     0.0
 157     freq=  1466. Q=  0.002 lam=     0.0     freq=  1484. Q=  0.039 lam=     1.1
 158     freq=  1468. Q=  0.378 lam=   104.8     freq=  1484. Q=  0.000 lam=     0.0
 159     freq=  1485. Q=  0.000 lam=     0.0     freq=  1486. Q=  0.006 lam=     0.0
 160     freq=  1491. Q=  0.086 lam=     5.5     freq=  1487. Q=  0.060 lam=     2.7
 161     freq=  1498. Q= -0.028 lam=     0.6     freq=  1496. Q= -0.022 lam=     0.4
 162     freq=  1505. Q=  0.000 lam=     0.0     freq=  1507. Q=  0.000 lam=     0.0
 163     freq=  1511. Q=  0.003 lam=     0.0     freq=  1519. Q=  0.128 lam=    12.4
 164     freq=  1522. Q= -0.014 lam=     0.1     freq=  1524. Q= -0.013 lam=     0.1
 165     freq=  1529. Q= -0.003 lam=     0.0     freq=  1538. Q= -0.314 lam=    75.9
 166     freq=  1547. Q=  0.052 lam=     2.1     freq=  1552. Q=  0.000 lam=     0.0
 167     freq=  1548. Q= -0.063 lam=     3.1     freq=  1560. Q= -0.164 lam=    20.9
 168     freq=  1555. Q=  0.178 lam=    24.6     freq=  1574. Q=  0.149 lam=    17.5
 169     freq=  1570. Q=  0.001 lam=     0.0     freq=  1589. Q=  0.004 lam=     0.0
 170     freq=  1580. Q=  0.005 lam=     0.0     freq=  1613. Q=  0.001 lam=     0.0
 171     freq=  1599. Q=  0.003 lam=     0.0     freq=  1618. Q=  0.001 lam=     0.0
 172     freq=  1600. Q= -0.064 lam=     3.3     freq=  1621. Q= -0.015 lam=     0.2
 173     freq=  1621. Q=  0.013 lam=     0.1     freq=  1635. Q=  0.142 lam=    16.6
 174     freq=  1686. Q=  0.002 lam=     0.0     freq=  1683. Q=  0.003 lam=     0.0
 175     freq=  1716. Q=  0.007 lam=     0.0     freq=  1720. Q=  0.127 lam=    13.8
 176     freq=  1726. Q=  0.113 lam=    11.1     freq=  1790. Q=  0.178 lam=    28.4
 177     freq=  1751. Q= -0.046 lam=     1.9     freq=  1866. Q= -0.005 lam=     0.0
 178     freq=  2334. Q=  0.267 lam=    83.3     freq=  2277. Q=  0.297 lam=   100.2
 179     freq=  3029. Q= -0.016 lam=     0.4     freq=  3029. Q= -0.000 lam=     0.0
 180     freq=  3034. Q=  0.000 lam=     0.0     freq=  3034. Q=  0.009 lam=     0.1
 181     freq=  3038. Q=  0.007 lam=     0.1     freq=  3044. Q=  0.019 lam=     0.5
 182     freq=  3057. Q=  0.000 lam=     0.0     freq=  3074. Q=  0.000 lam=     0.0
 183     freq=  3092. Q= -0.000 lam=     0.0     freq=  3087. Q= -0.000 lam=     0.0
 184     freq=  3096. Q= -0.006 lam=     0.1     freq=  3090. Q= -0.007 lam=     0.1
 185     freq=  3113. Q=  0.003 lam=     0.0     freq=  3109. Q=  0.004 lam=     0.0
 186     freq=  3133. Q= -0.000 lam=     0.0     freq=  3132. Q= -0.000 lam=     0.0
 187     freq=  3143. Q=  0.004 lam=     0.0     freq=  3141. Q=  0.005 lam=     0.0
 188     freq=  3199. Q=  0.004 lam=     0.0     freq=  3193. Q=  0.003 lam=     0.0
 189     freq=  3199. Q=  0.001 lam=     0.0     freq=  3193. Q=  0.001 lam=     0.0
 190     freq=  3200. Q=  0.013 lam=     0.3     freq=  3198. Q=  0.003 lam=     0.0
 191     freq=  3205. Q=  0.002 lam=     0.0     freq=  3198. Q=  0.003 lam=     0.0
 192     freq=  3205. Q= -0.004 lam=     0.0     freq=  3209. Q= -0.003 lam=     0.0
 193     freq=  3211. Q= -0.015 lam=     0.3     freq=  3209. Q= -0.004 lam=     0.0
 194     freq=  3213. Q=  0.003 lam=     0.0     freq=  3218. Q=  0.015 lam=     0.4
 195     freq=  3213. Q= -0.002 lam=     0.0     freq=  3225. Q= -0.001 lam=     0.0
 196     freq=  3225. Q=  0.000 lam=     0.0     freq=  3225. Q=  0.003 lam=     0.0
 197     freq=  3225. Q=  0.002 lam=     0.0     freq=  3231. Q=  0.013 lam=     0.3
 198     freq=  3246. Q=  0.002 lam=     0.0     freq=  3249. Q=  0.003 lam=     0.0

 total reorg energy (cm**-1, kcal/mol)=     1874.     1881.      5.36      5.38
 Nber of molecules processed=           2
