 Enter ifcurve (0=recti, 1=orth curvi, 2=apprx curvi, -1 = skip
 And atom ordering flag, 0= never changes, 1= use the first order thenceforth,
  2= deduce it (does read on fail), 3= always read it
 Reading file: 
 ./CDT-A_5_C0S0.log                                                             
                                          
  Entering Gaussian System, Link 0=g16                                          
  
 Gaussian format, type: g94, g98, g03= F F F
  #P Geom=AllCheck Guess=TCheck SCRF=Check GenChk RB3LYP/6-311G(d,p) Fre    
 energy type= B3LYP   
 Original G94 input coords:
  6  6.382046-14.913941-35.593507
  6  5.113508-15.605185-35.083144
  6  4.851113-16.963837-35.740894
  7  5.096859-15.700155-33.588101
  6  6.070714-16.471582-32.940882
  8  6.928794-17.066925-33.568658
  6  6.016469-16.535171-31.457731
  6  6.959070-17.283410-30.779239
  6  6.932329-17.360931-29.384786
  6  5.968514-16.697508-28.627354
  6  5.931312-16.772346-27.160233
  6  6.857776-17.513155-26.428832
  6  6.815070-17.578825-25.034574
  6  5.839035-16.901014-24.330133
  6  5.824198-16.993254-22.849046
  8  6.637129-17.644035-22.226378
  7  4.805033-16.278088-22.186917
  6  4.768371-16.350556-20.742401
  6  5.334565-15.333328-19.981179
  6  5.304446-15.404910-18.595821
  6  4.695147-16.488400-17.939451
  6  4.652299-16.537491-16.477047
  6  4.650412-15.485739-15.583644
  6  4.603384-15.905387-14.236594
  6  4.565937-15.251232-12.870120
  6  4.510904-16.455202-11.951649
  6  4.458179-16.697753-10.556055
  6  4.421914-18.036681-10.268933
 16  4.452086-19.031279-11.706128
  6  4.514067-17.618521-12.699698
  6  4.568798-17.281242-14.100316
 16  4.603080-18.087300-15.626091
  6  4.130238-17.503172-18.729548
  6  4.170036-17.437540-20.115785
  6  3.819816-15.496018-22.823728
  8  2.976681-14.906663-22.180127
  6  3.878407-15.439836-24.305567
  6  2.936757-14.692523-24.986090
  6  2.963632-14.617799-26.380272
  6  3.927634-15.283256-27.135204
  6  3.964394-15.209270-28.602389
  6  3.038163-14.470002-29.336205
  6  3.082127-14.405197-30.730758
  6  4.060273-15.082634-31.433390
  6  4.081830-14.993847-32.914989
  8  3.255131-14.336585-33.521195
  6  5.020271-15.845267-30.733484
  6  4.984023-15.918009-29.308329
  6  4.912071-16.062882-26.452837
  6  4.876400-16.134785-25.026615
  1  6.279605-14.731686-36.666709
  1  7.268874-15.524065-35.427514
  1  6.519242-13.946616-35.103342
  1  4.266508-14.957292-35.297161
  1  5.675817-17.656651-35.579068
  1  4.723520-16.818452-36.817025
  1  3.931126-17.409597-35.353979
  1  7.715916-17.806198-31.350213
  1  7.690584-17.958379-28.897932
  1  7.639917-18.060162-26.936635
  1  7.543379-18.160071-24.483117
  1  5.808727-14.493624-20.474758
  1  5.778974-14.624416-18.013775
  1  4.651310-14.452787-15.906424
  1  3.691685-14.601753-12.749403
  1  5.452411-14.634022-12.685876
  1  4.446500-15.932324 -9.791018
  1  4.378867-18.514776 -9.302791
  1  3.635263-18.342016-18.254458
  1  3.727873-18.225894-20.712711
  1  2.180339-14.167931-24.415995
  1  2.206124-14.020957-26.868930
  1  2.254681-13.923246-28.830147
  1  2.353457-13.825099-31.282605
 nber atoms=          74
  SCF Done:  E(RB3LYP) =  -2822.34640484     A.U. after    1 cycles             
  
          23          40 "  -2822.34640484"
After scan for Atom:   Atom  AN      X      Y      Z        X      Y      Z        X      Y      Z   
After scan for Atom:   Atom  AN      X      Y      Z        X      Y      Z        X      Y      Z   
After scan for Atom:   Atom  AN      X      Y      Z        X      Y      Z        X      Y      Z   
After scan for Atom:   Atom  AN      X      Y      Z        X      Y      Z        X      Y      Z   
After scan for Atom:   Atom  AN      X      Y      Z        X      Y      Z        X      Y      Z   
After scan for Atom:   Atom  AN      X      Y      Z        X      Y      Z        X      Y      Z   
After scan for Atom:   Atom  AN      X      Y      Z        X      Y      Z        X      Y      Z   
After scan for Atom:   Atom  AN      X      Y      Z        X      Y      Z        X      Y      Z   
After scan for Atom:   Atom  AN      X      Y      Z        X      Y      Z        X      Y      Z   
After scan for Atom:   Atom  AN      X      Y      Z        X      Y      Z        X      Y      Z   
After scan for Atom:   Atom  AN      X      Y      Z        X      Y      Z        X      Y      Z   
After scan for Atom:   Atom  AN      X      Y      Z        X      Y      Z        X      Y      Z   
After scan for Atom:   Atom  AN      X      Y      Z        X      Y      Z        X      Y      Z   
After scan for Atom:   Atom  AN      X      Y      Z        X      Y      Z        X      Y      Z   
After scan for Atom:   Atom  AN      X      Y      Z        X      Y      Z        X      Y      Z   
After scan for Atom:   Atom  AN      X      Y      Z        X      Y      Z        X      Y      Z   
After scan for Atom:   Atom  AN      X      Y      Z        X      Y      Z        X      Y      Z   
After scan for Atom:   Atom  AN      X      Y      Z        X      Y      Z        X      Y      Z   
After scan for Atom:   Atom  AN      X      Y      Z        X      Y      Z        X      Y      Z   
After scan for Atom:   Atom  AN      X      Y      Z        X      Y      Z        X      Y      Z   
After scan for Atom:   Atom  AN      X      Y      Z        X      Y      Z        X      Y      Z   
After scan for Atom:   Atom  AN      X      Y      Z        X      Y      Z        X      Y      Z   
After scan for Atom:   Atom  AN      X      Y      Z        X      Y      Z        X      Y      Z   
After scan for Atom:   Atom  AN      X      Y      Z        X      Y      Z        X      Y      Z   
After scan for Atom:   Atom  AN      X      Y      Z        X      Y      Z        X      Y      Z   
After scan for Atom:   Atom  AN      X      Y      Z        X      Y      Z        X      Y      Z   
After scan for Atom:   Atom  AN      X      Y      Z        X      Y      Z        X      Y      Z   
After scan for Atom:   Atom  AN      X      Y      Z        X      Y      Z        X      Y      Z   
After scan for Atom:   Atom  AN      X      Y      Z        X      Y      Z        X      Y      Z   
After scan for Atom:   Atom  AN      X      Y      Z        X      Y      Z        X      Y      Z   
After scan for Atom:   Atom  AN      X      Y      Z        X      Y      Z        X      Y      Z   
After scan for Atom:   Atom  AN      X      Y      Z        X      Y      Z        X      Y      Z   
After scan for Atom:   Atom  AN      X      Y      Z        X      Y      Z        X      Y      Z   
After scan for Atom:   Atom  AN      X      Y      Z        X      Y      Z        X      Y      Z   
After scan for Atom:   Atom  AN      X      Y      Z        X      Y      Z        X      Y      Z   
After scan for Atom:   Atom  AN      X      Y      Z        X      Y      Z        X      Y      Z   
After scan for Atom:   Atom  AN      X      Y      Z        X      Y      Z        X      Y      Z   
After scan for Atom:   Atom  AN      X      Y      Z        X      Y      Z        X      Y      Z   
After scan for Atom:   Atom  AN      X      Y      Z        X      Y      Z        X      Y      Z   
After scan for Atom:   Atom  AN      X      Y      Z        X      Y      Z        X      Y      Z   
After scan for Atom:   Atom  AN      X      Y      Z        X      Y      Z        X      Y      Z   
After scan for Atom:   Atom  AN      X      Y      Z        X      Y      Z        X      Y      Z   
After scan for Atom:   Atom  AN      X      Y      Z        X      Y      Z        X      Y      Z   
After scan for Atom:   Atom  AN      X      Y      Z        X      Y      Z        X      Y      Z   
After scan for Atom:   Atom  AN      X      Y      Z        X      Y      Z        X      Y      Z   
After scan for Atom:   Atom  AN      X      Y      Z        X      Y      Z        X      Y      Z   
After scan for Atom:   Atom  AN      X      Y      Z        X      Y      Z        X      Y      Z   
After scan for Atom:   Atom  AN      X      Y      Z        X      Y      Z        X      Y      Z   
After scan for Atom:   Atom  AN      X      Y      Z        X      Y      Z        X      Y      Z   
After scan for Atom:   Atom  AN      X      Y      Z        X      Y      Z        X      Y      Z   
After scan for Atom:   Atom  AN      X      Y      Z        X      Y      Z        X      Y      Z   
After scan for Atom:   Atom  AN      X      Y      Z        X      Y      Z        X      Y      Z   
After scan for Atom:   Atom  AN      X      Y      Z        X      Y      Z        X      Y      Z   
After scan for Atom:   Atom  AN      X      Y      Z        X      Y      Z        X      Y      Z   
After scan for Atom:   Atom  AN      X      Y      Z        X      Y      Z        X      Y      Z   
After scan for Atom:   Atom  AN      X      Y      Z        X      Y      Z        X      Y      Z   
After scan for Atom:   Atom  AN      X      Y      Z        X      Y      Z        X      Y      Z   
After scan for Atom:   Atom  AN      X      Y      Z        X      Y      Z        X      Y      Z   
After scan for Atom:   Atom  AN      X      Y      Z        X      Y      Z        X      Y      Z   
After scan for Atom:   Atom  AN      X      Y      Z        X      Y      Z        X      Y      Z   
After scan for Atom:   Atom  AN      X      Y      Z        X      Y      Z        X      Y      Z   
After scan for Atom:   Atom  AN      X      Y      Z        X      Y      Z        X      Y      Z   
After scan for Atom:   Atom  AN      X      Y      Z        X      Y      Z        X      Y      Z   
After scan for Atom:   Atom  AN      X      Y      Z        X      Y      Z        X      Y      Z   
After scan for Atom:   Atom  AN      X      Y      Z        X      Y      Z        X      Y      Z   
After scan for Atom:   Atom  AN      X      Y      Z        X      Y      Z        X      Y      Z   
After scan for Atom:   Atom  AN      X      Y      Z        X      Y      Z        X      Y      Z   
After scan for Atom:   Atom  AN      X      Y      Z        X      Y      Z        X      Y      Z   
After scan for Atom:   Atom  AN      X      Y      Z        X      Y      Z        X      Y      Z   
After scan for Atom:   Atom  AN      X      Y      Z        X      Y      Z        X      Y      Z   
After scan for Atom:   Atom  AN      X      Y      Z        X      Y      Z        X      Y      Z   
After scan for Atom:   Atom  AN      X      Y      Z        X      Y      Z        X      Y      Z   
 g94    frequencies=
     0.0    0.0    0.0    0.0    0.0    0.0    5.5    8.9   11.7   22.1
    28.4   40.2   43.3   52.4   55.8   65.9   75.2   86.6   95.6   99.2
   104.7  121.6  134.1  143.9  163.5  174.6  182.0  188.5  203.6  206.5
   217.6  228.3  234.8  236.8  253.3  263.6  271.7  282.3  290.2  314.7
   329.5  341.0  355.1  358.9  381.3  391.5  395.2  419.7  431.1  435.8
   437.2  438.6  446.1  447.7  451.7  466.7  469.6  480.1  480.3  483.6
   498.6  512.1  518.7  533.8  534.9  551.6  561.3  570.6  577.7  585.0
   586.1  596.5  611.8  623.1  631.5  633.4  647.1  659.1  664.8  666.5
   697.0  697.6  711.8  713.9  716.9  725.8  742.3  746.1  750.7  763.1
   772.2  785.6  800.0  803.2  810.8  816.8  822.4  834.0  836.4  844.5
   855.0  858.3  864.7  865.3  869.9  871.9  877.3  912.2  923.1  927.9
   936.7  946.0  957.1  957.9  964.9  970.3  979.5  986.8  992.4  996.6
  1001.2 1001.8 1005.6 1028.9 1035.5 1063.4 1081.3 1100.8 1109.9 1133.9
  1149.2 1150.4 1156.1 1160.1 1165.6 1171.8 1175.8 1193.9 1200.4 1204.9
  1210.4 1212.3 1220.5 1221.3 1235.2 1240.6 1251.2 1260.3 1268.2 1269.0
  1309.3 1314.3 1316.0 1326.4 1333.0 1336.5 1355.6 1361.2 1368.6 1374.7
  1382.3 1385.0 1400.8 1403.7 1406.7 1417.1 1420.6 1428.8 1436.6 1438.1
  1446.2 1454.7 1458.2 1469.6 1476.9 1485.5 1491.3 1498.2 1505.5 1506.1
  1522.7 1527.2 1534.6 1542.7 1559.2 1560.5 1603.9 1608.2 1614.8 1619.8
  1631.4 1631.5 1648.2 1648.9 1713.1 1734.5 1751.0 1768.4 3027.7 3034.7
  3038.8 3055.3 3092.6 3095.7 3113.1 3133.2 3143.5 3175.6 3179.4 3193.4
  3193.6 3193.8 3195.5 3199.3 3200.9 3201.1 3201.2 3208.1 3208.4 3218.0
  3218.2 3246.2
 g94    symmetries=
                                                 A      A      A      A
       A      A      A      A      A      A      A      A      A      A
       A      A      A      A      A      A      A      A      A      A
       A      A      A      A      A      A      A      A      A      A
       A      A      A      A      A      A      A      A      A      A
       A      A      A      A      A      A      A      A      A      A
       A      A      A      A      A      A      A      A      A      A
       A      A      A      A      A      A      A      A      A      A
       A      A      A      A      A      A      A      A      A      A
       A      A      A      A      A      A      A      A      A      A
       A      A      A      A      A      A      A      A      A      A
       A      A      A      A      A      A      A      A      A      A
       A      A      A      A      A      A      A      A      A      A
       A      A      A      A      A      A      A      A      A      A
       A      A      A      A      A      A      A      A      A      A
       A      A      A      A      A      A      A      A      A      A
       A      A      A      A      A      A      A      A      A      A
       A      A      A      A      A      A      A      A      A      A
       A      A      A      A      A      A      A      A      A      A
       A      A      A      A      A      A      A      A      A      A
       A      A      A      A      A      A      A      A      A      A
       A      A      A      A      A      A      A      A      A      A
       A      A
 atomic masses:
 12.0000 12.0000 12.0000 14.0031 12.0000 15.9949 12.0000 12.0000 12.0000 12.0000
 12.0000 12.0000 12.0000 12.0000 12.0000 15.9949 14.0031 12.0000 12.0000 12.0000
 12.0000 12.0000 12.0000 12.0000 12.0000 12.0000 12.0000 12.0000 31.9721 12.0000
 12.0000 31.9721 12.0000 12.0000 12.0000 15.9949 12.0000 12.0000 12.0000 12.0000
 12.0000 12.0000 12.0000 12.0000 12.0000 15.9949 12.0000 12.0000 12.0000 12.0000
  1.0078  1.0078  1.0078  1.0078  1.0078  1.0078  1.0078  1.0078  1.0078  1.0078
  1.0078  1.0078  1.0078  1.0078  1.0078  1.0078  1.0078  1.0078  1.0078  1.0078
  1.0078  1.0078  1.0078  1.0078
 looking for force constants in 
 ./CDT-A_5_C0S0.fchk                                                            
  
 Cartesian Force Constants                  R   N=       24753                  
  
 n3=         222       24753
 g94-fc frequencies=
    -6.2   -1.3   -0.0    0.0    0.0    0.8    6.7    8.9   11.8   22.1
    28.4   40.2   43.3   52.4   55.8   65.9   75.2   86.6   95.6   99.2
   104.7  121.6  134.1  143.9  163.5  174.6  182.0  188.5  203.6  206.5
   217.6  228.3  234.8  236.8  253.3  263.6  271.7  282.3  290.2  314.7
   329.5  341.0  355.2  358.9  381.3  391.5  395.2  419.7  431.1  435.8
   437.2  438.6  446.1  447.7  451.7  466.7  469.6  480.1  480.3  483.6
   498.6  512.1  518.7  533.8  534.9  551.7  561.3  570.6  577.7  585.1
   586.2  596.6  611.8  623.1  631.5  633.4  647.1  659.1  664.8  666.6
   697.1  697.7  711.8  713.9  716.9  725.8  742.3  746.1  750.7  763.1
   772.2  785.6  800.0  803.2  810.9  816.8  822.4  834.0  836.4  844.5
   855.0  858.4  864.8  865.3  869.9  872.0  877.3  912.2  923.1  927.9
   936.7  946.0  957.2  958.0  964.9  970.4  979.5  986.9  992.5  996.6
  1001.2 1001.8 1005.6 1028.9 1035.5 1063.4 1081.3 1100.8 1109.9 1133.9
  1149.2 1150.4 1156.2 1160.1 1165.7 1171.8 1175.9 1194.0 1200.4 1204.9
  1210.4 1212.3 1220.5 1221.4 1235.2 1240.6 1251.2 1260.3 1268.2 1269.1
  1309.3 1314.4 1316.1 1326.5 1333.0 1336.5 1355.6 1361.2 1368.6 1374.8
  1382.3 1385.1 1400.8 1403.7 1406.8 1417.2 1420.6 1428.9 1436.6 1438.1
  1446.2 1454.8 1458.2 1469.7 1477.0 1485.5 1491.3 1498.2 1505.5 1506.1
  1522.8 1527.2 1534.6 1542.7 1559.2 1560.6 1604.0 1608.2 1614.9 1619.9
  1631.4 1631.5 1648.2 1649.0 1713.1 1734.5 1751.1 1768.4 3027.8 3034.8
  3038.9 3055.4 3092.6 3095.8 3113.2 3133.3 3143.6 3175.6 3179.5 3193.4
  3193.7 3193.9 3195.5 3199.3 3201.0 3201.1 3201.3 3208.2 3208.5 3218.1
  3218.3 3246.3
 at 99999: n3=         222
 symm operator            1 :  F  nop=           0
 symm operator            2 :  F  nop=           0
 symm operator            3 :  F  nop=           0
 symm operator            4 :  F  nop=           0
 symm operator            5 :  F  nop=           0
 symm operator            6 :  F  nop=           0
 symm operator            7 :  F  nop=           0
 The point group of the molecule is  C1
 Symmetry rotation matrix:
   1.00000   0.00000   0.00000
   0.00000   1.00000   0.00000
   0.00000   0.00000   1.00000

 Projecting out zero-frequency components
 generating redundant internal coords
         300        3600          74
 search for int coords
   1 str   2   1   1.532
   2 str   3   2   1.532
   3 str   4   2   1.498
   4 str   5   4   1.401
   5 str   6   5   1.219
   6 str   7   5   1.486
   7 str   8   7   1.382
   8 str   9   8   1.397
   9 str  10   9   1.394
  10 str  11  10   1.469
  11 str  12  11   1.394
  12 str  13  12   1.396
  13 str  14  13   1.381
  14 str  15  14   1.484
  15 str  16  15   1.213
  16 str  17  15   1.410
  17 str  18  17   1.447
  18 str  19  18   1.391
  19 str  20  19   1.388
  20 str  21  20   1.406
  21 str  22  21   1.464
  22 str  23  22   1.380
  23 str  24  23   1.412
  24 str  25  24   1.515
  25 str  26  25   1.515
  26 str  27  26   1.417
  27 str  28  27   1.370
  28 str  29  28   1.748
  29 str  30  26   1.383
  30 str  30  29   1.728
  31 str  31  24   1.383
  32 str  31  30   1.442
  33 str  32  22   1.769
  34 str  32  31   1.726
  35 str  33  21   1.405
  36 str  34  18   1.390
  37 str  34  33   1.388
  38 str  35  17   1.410
  39 str  36  35   1.213
  40 str  37  35   1.484
  41 str  38  37   1.381
  42 str  39  38   1.396
  43 str  40  39   1.394
  44 str  41  40   1.470
  45 str  42  41   1.394
  46 str  43  42   1.397
  47 str  44  43   1.382
  48 str  45   4   1.408
  49 str  45  44   1.484
  50 str  46  45   1.218
  51 str  47   7   1.412
  52 str  47  44   1.412
  53 str  48  10   1.428
  54 str  48  41   1.428
  55 str  48  47   1.427
  56 str  49  11   1.429
  57 str  49  40   1.429
  58 str  50  14   1.414
  59 str  50  37   1.414
  60 str  50  49   1.428
  61 str  51   1   1.093
  62 str  52   1   1.089
  63 str  53   1   1.093
  64 str  54   2   1.088
  65 str  55   3   1.089
  66 str  56   3   1.093
  67 str  57   3   1.093
  68 str  58   8   1.083
  69 str  59   9   1.081
  70 str  60  12   1.081
  71 str  61  13   1.083
  72 str  62  19   1.083
  73 str  63  20   1.083
  74 str  64  23   1.082
  75 str  65  25   1.096
  76 str  66  25   1.096
  77 str  67  27   1.082
  78 str  68  28   1.079
  79 str  69  33   1.084
  80 str  70  34   1.083
  81 str  71  38   1.083
  82 str  72  39   1.081
  83 str  73  42   1.081
  84 str  74  43   1.083
 nber stretches=          84
  85 ben   1   2   3
  86 prop tor   1   2   3  55
  87 prop tor   1   2   3  56
  88 prop tor   1   2   3  57
  89 ben   1   2   4
  90 prop tor   1   2   4   5
  91 prop tor   1   2   4  45
  92 ben   1   2  54
  93 ben   2   1  51
  94 ben   2   1  52
  95 ben   2   1  53
  96 ben   2   3  55
  97 ben   2   3  56
  98 ben   2   3  57
  99 ben   2   4   5
 100 prop tor   2   4   5   6
 101 prop tor   2   4   5   7
 102 ben   2   4  45
 103 prop tor   2   4  45  44
 104 prop tor   2   4  45  46
 105 ben   3   2   4
 106 prop tor   3   2   4   5
 107 prop tor   3   2   4  45
 108 ben   3   2  54
 109 prop tor   4   2   3  55
 110 prop tor   4   2   3  56
 111 prop tor   4   2   3  57
 112 ben   4   2  54
 113 ben   4   5   6
 114 ben   4   5   7
 115 prop tor   4   5   7   8
 116 prop tor   4   5   7  47
 117 ben   4  45  44
 118 ben   4  45  46
 119 ben   5   4  45
 120 prop tor   5   4  45  44
 121 prop tor   5   4  45  46
 122 ben   5   7   8
 123 prop tor   5   7   8   9
 124 prop tor   5   7   8  58
 125 ben   5   7  47
 126 prop tor   5   7  47  44
 127 prop tor   5   7  47  48
 128 ben   6   5   7
 129 prop tor   6   5   7   8
 130 prop tor   6   5   7  47
 131 ben   7   8   9
 132 prop tor   7   8   9  10
 133 prop tor   7   8   9  59
 134 ben   7   8  58
 135 ben   7  47  44
 136 ben   7  47  48
 137 prop tor   7  47  48  10
 138 prop tor   7  47  48  41
 139 ben   8   7  47
 140 prop tor   8   7  47  44
 141 prop tor   8   7  47  48
 142 ben   8   9  10
 143 prop tor   8   9  10  11
 144 prop tor   8   9  10  48
 145 ben   8   9  59
 146 ben   9   8  58
 147 ben   9  10  11
 148 prop tor   9  10  11  12
 149 prop tor   9  10  11  49
 150 ben   9  10  48
 151 prop tor   9  10  48  41
 152 prop tor   9  10  48  47
 153 ben  10   9  59
 154 ben  10  11  12
 155 prop tor  10  11  12  13
 156 prop tor  10  11  12  60
 157 ben  10  11  49
 158 prop tor  10  11  49  40
 159 prop tor  10  11  49  50
 160 ben  10  48  41
 161 ben  10  48  47
 162 ben  11  10  48
 163 prop tor  11  10  48  41
 164 prop tor  11  10  48  47
 165 ben  11  12  13
 166 prop tor  11  12  13  14
 167 prop tor  11  12  13  61
 168 ben  11  12  60
 169 ben  11  49  40
 170 ben  11  49  50
 171 prop tor  11  49  50  14
 172 prop tor  11  49  50  37
 173 ben  12  11  49
 174 prop tor  12  11  49  40
 175 prop tor  12  11  49  50
 176 ben  12  13  14
 177 prop tor  12  13  14  15
 178 prop tor  12  13  14  50
 179 ben  12  13  61
 180 ben  13  12  60
 181 ben  13  14  15
 182 prop tor  13  14  15  16
 183 prop tor  13  14  15  17
 184 ben  13  14  50
 185 prop tor  13  14  50  37
 186 prop tor  13  14  50  49
 187 ben  14  13  61
 188 ben  14  15  16
 189 ben  14  15  17
 190 prop tor  14  15  17  18
 191 prop tor  14  15  17  35
 192 ben  14  50  37
 193 ben  14  50  49
 194 ben  15  14  50
 195 prop tor  15  14  50  37
 196 prop tor  15  14  50  49
 197 ben  15  17  18
 198 prop tor  15  17  18  19
 199 prop tor  15  17  18  34
 200 ben  15  17  35
 201 prop tor  15  17  35  36
 202 prop tor  15  17  35  37
 203 ben  16  15  17
 204 prop tor  16  15  17  18
 205 prop tor  16  15  17  35
 206 ben  17  18  19
 207 prop tor  17  18  19  20
 208 prop tor  17  18  19  62
 209 ben  17  18  34
 210 prop tor  17  18  34  33
 211 prop tor  17  18  34  70
 212 ben  17  35  36
 213 ben  17  35  37
 214 prop tor  17  35  37  38
 215 prop tor  17  35  37  50
 216 ben  18  17  35
 217 prop tor  18  17  35  36
 218 prop tor  18  17  35  37
 219 ben  18  19  20
 220 prop tor  18  19  20  21
 221 prop tor  18  19  20  63
 222 ben  18  19  62
 223 ben  18  34  33
 224 ben  18  34  70
 225 ben  19  18  34
 226 prop tor  19  18  34  33
 227 prop tor  19  18  34  70
 228 ben  19  20  21
 229 prop tor  19  20  21  22
 230 prop tor  19  20  21  33
 231 ben  19  20  63
 232 ben  20  19  62
 233 ben  20  21  22
 234 prop tor  20  21  22  23
 235 prop tor  20  21  22  32
 236 ben  20  21  33
 237 prop tor  20  21  33  34
 238 prop tor  20  21  33  69
 239 ben  21  20  63
 240 ben  21  22  23
 241 prop tor  21  22  23  24
 242 prop tor  21  22  23  64
 243 ben  21  22  32
 244 prop tor  21  22  32  31
 245 ben  21  33  34
 246 prop tor  21  33  34  18
 247 prop tor  21  33  34  70
 248 ben  21  33  69
 249 ben  22  21  33
 250 prop tor  22  21  33  34
 251 prop tor  22  21  33  69
 252 ben  22  23  24
 253 prop tor  22  23  24  25
 254 prop tor  22  23  24  31
 255 ben  22  23  64
 256 ben  22  32  31
 257 ben  23  22  32
 258 prop tor  23  22  32  31
 259 ben  23  24  25
 260 prop tor  23  24  25  26
 261 prop tor  23  24  25  65
 262 prop tor  23  24  25  66
 263 ben  23  24  31
 264 prop tor  23  24  31  30
 265 prop tor  23  24  31  32
 266 ben  24  23  64
 267 ben  24  25  26
 268 prop tor  24  25  26  27
 269 prop tor  24  25  26  30
 270 ben  24  25  65
 271 ben  24  25  66
 272 ben  24  31  30
 273 ben  24  31  32
 274 prop tor  24  31  32  22
 275 ben  25  24  31
 276 prop tor  25  24  31  30
 277 prop tor  25  24  31  32
 278 ben  25  26  27
 279 prop tor  25  26  27  28
 280 prop tor  25  26  27  67
 281 ben  25  26  30
 282 prop tor  25  26  30  29
 283 prop tor  25  26  30  31
 284 ben  26  25  65
 285 ben  26  25  66
 286 ben  26  27  28
 287 prop tor  26  27  28  29
 288 prop tor  26  27  28  68
 289 ben  26  27  67
 290 ben  26  30  29
 291 ben  26  30  31
 292 prop tor  26  30  31  24
 293 prop tor  26  30  31  32
 294 ben  27  26  30
 295 prop tor  27  26  30  29
 296 prop tor  27  26  30  31
 297 ben  27  28  29
 298 prop tor  27  28  29  30
 299 ben  27  28  68
 300 ben  28  27  67
 301 ben  28  29  30
 302 prop tor  28  29  30  26
 303 prop tor  28  29  30  31
 304 ben  29  28  68
 305 ben  29  30  31
 306 prop tor  29  30  31  24
 307 prop tor  29  30  31  32
 308 prop tor  30  26  27  28
 309 prop tor  30  26  27  67
 310 ben  30  31  32
 311 prop tor  30  31  32  22
 312 prop tor  31  24  25  26
 313 prop tor  31  24  25  65
 314 prop tor  31  24  25  66
 315 prop tor  32  22  23  24
 316 prop tor  32  22  23  64
 317 prop tor  33  21  22  23
 318 prop tor  33  21  22  32
 319 ben  33  34  70
 320 prop tor  34  18  19  20
 321 prop tor  34  18  19  62
 322 ben  34  33  69
 323 prop tor  35  17  18  19
 324 prop tor  35  17  18  34
 325 ben  35  37  38
 326 prop tor  35  37  38  39
 327 prop tor  35  37  38  71
 328 ben  35  37  50
 329 prop tor  35  37  50  14
 330 prop tor  35  37  50  49
 331 ben  36  35  37
 332 prop tor  36  35  37  38
 333 prop tor  36  35  37  50
 334 ben  37  38  39
 335 prop tor  37  38  39  40
 336 prop tor  37  38  39  72
 337 ben  37  38  71
 338 ben  37  50  49
 339 ben  38  37  50
 340 prop tor  38  37  50  14
 341 prop tor  38  37  50  49
 342 ben  38  39  40
 343 prop tor  38  39  40  41
 344 prop tor  38  39  40  49
 345 ben  38  39  72
 346 ben  39  38  71
 347 ben  39  40  41
 348 prop tor  39  40  41  42
 349 prop tor  39  40  41  48
 350 ben  39  40  49
 351 prop tor  39  40  49  11
 352 prop tor  39  40  49  50
 353 ben  40  39  72
 354 ben  40  41  42
 355 prop tor  40  41  42  43
 356 prop tor  40  41  42  73
 357 ben  40  41  48
 358 prop tor  40  41  48  10
 359 prop tor  40  41  48  47
 360 ben  40  49  50
 361 prop tor  40  49  50  14
 362 prop tor  40  49  50  37
 363 ben  41  40  49
 364 prop tor  41  40  49  11
 365 prop tor  41  40  49  50
 366 ben  41  42  43
 367 prop tor  41  42  43  44
 368 prop tor  41  42  43  74
 369 ben  41  42  73
 370 ben  41  48  47
 371 ben  42  41  48
 372 prop tor  42  41  48  10
 373 prop tor  42  41  48  47
 374 ben  42  43  44
 375 prop tor  42  43  44  45
 376 prop tor  42  43  44  47
 377 ben  42  43  74
 378 ben  43  42  73
 379 ben  43  44  45
 380 prop tor  43  44  45   4
 381 prop tor  43  44  45  46
 382 ben  43  44  47
 383 prop tor  43  44  47   7
 384 prop tor  43  44  47  48
 385 ben  44  43  74
 386 ben  44  45  46
 387 ben  44  47  48
 388 prop tor  44  47  48  10
 389 prop tor  44  47  48  41
 390 prop tor  45   4   5   6
 391 prop tor  45   4   5   7
 392 ben  45  44  47
 393 prop tor  45  44  47   7
 394 prop tor  45  44  47  48
 395 prop tor  47   7   8   9
 396 prop tor  47   7   8  58
 397 prop tor  47  44  45   4
 398 prop tor  47  44  45  46
 399 prop tor  48  10  11  12
 400 prop tor  48  10  11  49
 401 prop tor  48  41  42  43
 402 prop tor  48  41  42  73
 403 prop tor  49  11  12  13
 404 prop tor  49  11  12  60
 405 prop tor  49  40  41  42
 406 prop tor  49  40  41  48
 407 prop tor  50  14  15  16
 408 prop tor  50  14  15  17
 409 prop tor  50  37  38  39
 410 prop tor  50  37  38  71
 411 prop tor  51   1   2   3
 412 prop tor  51   1   2   4
 413 prop tor  51   1   2  54
 414 ben  51   1  52
 415 ben  51   1  53
 416 prop tor  52   1   2   3
 417 prop tor  52   1   2   4
 418 prop tor  52   1   2  54
 419 ben  52   1  53
 420 prop tor  53   1   2   3
 421 prop tor  53   1   2   4
 422 prop tor  53   1   2  54
 423 prop tor  54   2   3  55
 424 prop tor  54   2   3  56
 425 prop tor  54   2   3  57
 426 prop tor  54   2   4   5
 427 prop tor  54   2   4  45
 428 ben  55   3  56
 429 ben  55   3  57
 430 ben  56   3  57
 431 prop tor  58   8   9  10
 432 prop tor  58   8   9  59
 433 prop tor  59   9  10  11
 434 prop tor  59   9  10  48
 435 prop tor  60  12  13  14
 436 prop tor  60  12  13  61
 437 prop tor  61  13  14  15
 438 prop tor  61  13  14  50
 439 prop tor  62  19  20  21
 440 prop tor  62  19  20  63
 441 prop tor  63  20  21  22
 442 prop tor  63  20  21  33
 443 prop tor  64  23  24  25
 444 prop tor  64  23  24  31
 445 prop tor  65  25  26  27
 446 prop tor  65  25  26  30
 447 ben  65  25  66
 448 prop tor  66  25  26  27
 449 prop tor  66  25  26  30
 450 prop tor  67  27  28  29
 451 prop tor  67  27  28  68
 452 prop tor  68  28  29  30
 453 prop tor  69  33  34  18
 454 prop tor  69  33  34  70
 455 prop tor  71  38  39  40
 456 prop tor  71  38  39  72
 457 prop tor  72  39  40  41
 458 prop tor  72  39  40  49
 459 prop tor  73  42  43  44
 460 prop tor  73  42  43  74
 461 prop tor  74  43  44  45
 462 prop tor  74  43  44  47
 nber bend=             146
 nber lin bend=           0
 nber prop tor=         232
 nber impr tor=           0
 nber tot redund int=         462
 Eigenvalues of G in red int coords
    Gval -0.00000000 -0.00000000 -0.00000000 -0.00000000 -0.00000000 -0.00000000 -0.00000000 -0.00000000
    Gval -0.00000000 -0.00000000 -0.00000000 -0.00000000 -0.00000000 -0.00000000 -0.00000000 -0.00000000
    Gval -0.00000000 -0.00000000 -0.00000000 -0.00000000 -0.00000000 -0.00000000 -0.00000000 -0.00000000
    Gval -0.00000000 -0.00000000 -0.00000000 -0.00000000 -0.00000000 -0.00000000 -0.00000000 -0.00000000
    Gval -0.00000000 -0.00000000 -0.00000000 -0.00000000 -0.00000000 -0.00000000 -0.00000000 -0.00000000
    Gval -0.00000000 -0.00000000 -0.00000000 -0.00000000 -0.00000000 -0.00000000 -0.00000000 -0.00000000
    Gval -0.00000000 -0.00000000 -0.00000000 -0.00000000 -0.00000000 -0.00000000 -0.00000000 -0.00000000
    Gval -0.00000000 -0.00000000 -0.00000000 -0.00000000 -0.00000000 -0.00000000 -0.00000000 -0.00000000
    Gval -0.00000000 -0.00000000 -0.00000000 -0.00000000 -0.00000000 -0.00000000 -0.00000000 -0.00000000
    Gval -0.00000000 -0.00000000 -0.00000000 -0.00000000 -0.00000000 -0.00000000 -0.00000000 -0.00000000
    Gval -0.00000000 -0.00000000 -0.00000000 -0.00000000 -0.00000000 -0.00000000 -0.00000000 -0.00000000
    Gval -0.00000000 -0.00000000 -0.00000000 -0.00000000 -0.00000000 -0.00000000 -0.00000000 -0.00000000
    Gval -0.00000000 -0.00000000 -0.00000000 -0.00000000 -0.00000000 -0.00000000 -0.00000000 -0.00000000
    Gval -0.00000000 -0.00000000 -0.00000000 -0.00000000 -0.00000000 -0.00000000 -0.00000000 -0.00000000
    Gval -0.00000000 -0.00000000 -0.00000000 -0.00000000 -0.00000000 -0.00000000 -0.00000000 -0.00000000
    Gval -0.00000000  0.00000000  0.00000000  0.00000000  0.00000000  0.00000000  0.00000000  0.00000000
    Gval  0.00000000  0.00000000  0.00000000  0.00000000  0.00000000  0.00000000  0.00000000  0.00000000
    Gval  0.00000000  0.00000000  0.00000000  0.00000000  0.00000000  0.00000000  0.00000000  0.00000000
    Gval  0.00000000  0.00000000  0.00000000  0.00000000  0.00000000  0.00000000  0.00000000  0.00000000
    Gval  0.00000000  0.00000000  0.00000000  0.00000000  0.00000000  0.00000000  0.00000000  0.00000000
    Gval  0.00000000  0.00000000  0.00000000  0.00000000  0.00000000  0.00000000  0.00000000  0.00000000
    Gval  0.00000000  0.00000000  0.00000000  0.00000000  0.00000000  0.00000000  0.00000000  0.00000000
    Gval  0.00000000  0.00000000  0.00000000  0.00000000  0.00000000  0.00000000  0.00000000  0.00000000
    Gval  0.00000000  0.00000000  0.00000000  0.00000000  0.00000000  0.00000000  0.00000000  0.00000000
    Gval  0.00000000  0.00000000  0.00000000  0.00000000  0.00000000  0.00000000  0.00000000  0.00000000
    Gval  0.00000000  0.00000000  0.00000000  0.00000000  0.00000000  0.00000000  0.00000000  0.00000000
    Gval  0.00000000  0.00000000  0.00000000  0.00000000  0.00000000  0.00000000  0.00000000  0.00000000
    Gval  0.00000000  0.00000000  0.00000000  0.00000000  0.00000000  0.00000000  0.00000000  0.00000000
    Gval  0.00000000  0.00000000  0.00000000  0.00000000  0.00000000  0.00000000  0.00000000  0.00000000
    Gval  0.00000000  0.00000000  0.00000000  0.00000000  0.00000000  0.00000000  0.00000000  0.00000000
    Gval  0.00000000  0.00000000  0.00000000  0.00000000  0.00000000  0.00000000  0.00000012  0.00000016
    Gval  0.00000076  0.00000112  0.00000156  0.00000289  0.00000327  0.00000346  0.00000479  0.00000641
    Gval  0.00000699  0.00000930  0.00001033  0.00001125  0.00001252  0.00001355  0.00001583  0.00001625
    Gval  0.00001670  0.00001786  0.00001830  0.00001919  0.00002174  0.00002314  0.00002374  0.00002411
    Gval  0.00002532  0.00002630  0.00002780  0.00002941  0.00003006  0.00003444  0.00003581  0.00003900
    Gval  0.00003993  0.00004413  0.00004591  0.00004897  0.00004920  0.00005092  0.00005245  0.00005356
    Gval  0.00005484  0.00005676  0.00005914  0.00006117  0.00006357  0.00006478  0.00006889  0.00007147
    Gval  0.00007364  0.00007821  0.00007962  0.00008142  0.00008253  0.00008588  0.00008844  0.00008859
    Gval  0.00009024  0.00009327  0.00009362  0.00009455  0.00009824  0.00010078  0.00011300  0.00011749
    Gval  0.00011822  0.00012168  0.00012271  0.00013409  0.00013613  0.00013701  0.00013756  0.00014057
    Gval  0.00014965  0.00015501  0.00015918  0.00016050  0.00016439  0.00017364  0.00018051  0.00018200
    Gval  0.00020320  0.00020752  0.00022241  0.00022364  0.00023011  0.00023150  0.00026409  0.00027215
    Gval  0.00028351  0.00028666  0.00029078  0.00029308  0.00029566  0.00030251  0.00030841  0.00033697
    Gval  0.00034246  0.00036064  0.00036918  0.00037341  0.00037921  0.00038138  0.00038309  0.00038983
    Gval  0.00039299  0.00039430  0.00040346  0.00042115  0.00042445  0.00042850  0.00042987  0.00043566
    Gval  0.00044153  0.00044309  0.00046098  0.00046216  0.00046604  0.00047432  0.00048112  0.00049285
    Gval  0.00053384  0.00053717  0.00054371  0.00055413  0.00055416  0.00055595  0.00055603  0.00057164
    Gval  0.00058331  0.00059676  0.00059864  0.00059869  0.00059944  0.00059970  0.00060002  0.00060037
    Gval  0.00060220  0.00060929  0.00062385  0.00062738  0.00062927  0.00063932  0.00064194  0.00064560
    Gval  0.00064615  0.00064810  0.00065058  0.00067098  0.00069425  0.00069788  0.00079559  0.00080553
    Gval  0.00082350  0.00094186  0.00099536  0.00107228  0.00108083  0.00108140  0.00109539  0.00109636
    Gval  0.00109709  0.00109761  0.00110940  0.00114120  0.00114391  0.00115077  0.00116248  0.00116258
    Gval  0.00116297  0.00116319  0.00116688  0.00117166  0.00117205  0.00117225  0.00118433  0.00120298
    Gval  0.00126216  0.00129520  0.00133659  0.00137424  0.00138184  0.00149540  0.00156081  0.00166025
    Gval  0.00172337  0.00175881  0.00178493  0.00191240  0.00195760  0.00208602  0.00229272  0.00234977
    Gval  0.00235468  0.00246714  0.00253517  0.00253645  0.00256407  0.00267224  0.00278640  0.00292299
    Gval  0.00302357  0.00302555  0.00304219  0.00308154  0.00309680  0.00362152  0.00365555  0.00365748
    Gval  0.00370416  0.00370585  0.00372620  0.00375354  0.00394292  0.00408011
  1.204183898601317E-007  1.204183898601317E-007
  1.587717924845909E-007  1.204183898601317E-007
  7.578243585516439E-007  1.204183898601317E-007
  1.122805333814116E-006  1.204183898601317E-007
  1.563143973636533E-006  1.204183898601317E-007
  2.894647743927105E-006  1.204183898601317E-007
  3.272801924423619E-006  1.204183898601317E-007
  3.456735074497825E-006  1.204183898601317E-007
  4.790012776506405E-006  1.204183898601317E-007
  6.412411701880951E-006  1.204183898601317E-007
  6.994910915409119E-006  1.204183898601317E-007
  9.303225539585491E-006  1.204183898601317E-007
  1.033379958395370E-005  1.204183898601317E-007
  1.124891961659469E-005  1.204183898601317E-007
  1.252341482383251E-005  1.204183898601317E-007
  1.354676115568399E-005  1.204183898601317E-007
  1.582696076843741E-005  1.204183898601317E-007
  1.625378946635309E-005  1.204183898601317E-007
  1.669616226478451E-005  1.204183898601317E-007
  1.786173292706700E-005  1.204183898601317E-007
  1.830366784914083E-005  1.204183898601317E-007
  1.919406700437704E-005  1.204183898601317E-007
  2.174209517723478E-005  1.204183898601317E-007
  2.313807551012255E-005  1.204183898601317E-007
  2.373682042008421E-005  1.204183898601317E-007
  2.411234134368705E-005  1.204183898601317E-007
  2.531769846943928E-005  1.204183898601317E-007
  2.629876471864737E-005  1.204183898601317E-007
  2.780028852608519E-005  1.204183898601317E-007
  2.940591718523586E-005  1.204183898601317E-007
  3.005586114717251E-005  1.204183898601317E-007
  3.444076172655607E-005  1.204183898601317E-007
  3.581031742720159E-005  1.204183898601317E-007
  3.899599206287161E-005  1.204183898601317E-007
  3.993496792554999E-005  1.204183898601317E-007
  4.413490795085447E-005  1.204183898601317E-007
  4.590918513612898E-005  1.204183898601317E-007
  4.896799520584395E-005  1.204183898601317E-007
  4.920021249447583E-005  1.204183898601317E-007
  5.091516840314767E-005  1.204183898601317E-007
  5.245042457807794E-005  1.204183898601317E-007
  5.355952095141582E-005  1.204183898601317E-007
  5.483746188344312E-005  1.204183898601317E-007
  5.676180670460156E-005  1.204183898601317E-007
  5.913916051395021E-005  1.204183898601317E-007
  6.117202045136329E-005  1.204183898601317E-007
  6.357304863284869E-005  1.204183898601317E-007
  6.477761344407331E-005  1.204183898601317E-007
  6.889080043787627E-005  1.204183898601317E-007
  7.147104293523475E-005  1.204183898601317E-007
  7.363627951543286E-005  1.204183898601317E-007
  7.821107085015822E-005  1.204183898601317E-007
  7.961566162249452E-005  1.204183898601317E-007
  8.141646169120455E-005  1.204183898601317E-007
  8.252986994701595E-005  1.204183898601317E-007
  8.587909356735740E-005  1.204183898601317E-007
  8.843962271738014E-005  1.204183898601317E-007
  8.858649405064344E-005  1.204183898601317E-007
  9.024330637604007E-005  1.204183898601317E-007
  9.327119280738382E-005  1.204183898601317E-007
  9.361729522043537E-005  1.204183898601317E-007
  9.455279342052740E-005  1.204183898601317E-007
  9.824330429848257E-005  1.204183898601317E-007
  1.007788421636682E-004  1.204183898601317E-007
  1.129997020698595E-004  1.204183898601317E-007
  1.174925576747195E-004  1.204183898601317E-007
  1.182150155114160E-004  1.204183898601317E-007
  1.216769889332549E-004  1.204183898601317E-007
  1.227055584847597E-004  1.204183898601317E-007
  1.340860574576990E-004  1.204183898601317E-007
  1.361329968510947E-004  1.204183898601317E-007
  1.370071050728822E-004  1.204183898601317E-007
  1.375551080193722E-004  1.204183898601317E-007
  1.405701703599527E-004  1.204183898601317E-007
  1.496504245560213E-004  1.204183898601317E-007
  1.550121392388679E-004  1.204183898601317E-007
  1.591772242092992E-004  1.204183898601317E-007
  1.605046909982752E-004  1.204183898601317E-007
  1.643942784946921E-004  1.204183898601317E-007
  1.736381913554472E-004  1.204183898601317E-007
  1.805124998841158E-004  1.204183898601317E-007
  1.820000864104805E-004  1.204183898601317E-007
  2.032047564420328E-004  1.204183898601317E-007
  2.075215095419565E-004  1.204183898601317E-007
  2.224132626529223E-004  1.204183898601317E-007
  2.236376429547880E-004  1.204183898601317E-007
  2.301109107892470E-004  1.204183898601317E-007
  2.315003869101360E-004  1.204183898601317E-007
  2.640944854578848E-004  1.204183898601317E-007
  2.721453367027487E-004  1.204183898601317E-007
  2.835065380596176E-004  1.204183898601317E-007
  2.866594319025420E-004  1.204183898601317E-007
  2.907787687197914E-004  1.204183898601317E-007
  2.930751534605123E-004  1.204183898601317E-007
  2.956553131822818E-004  1.204183898601317E-007
  3.025149474506067E-004  1.204183898601317E-007
  3.084081374414624E-004  1.204183898601317E-007
  3.369695213320835E-004  1.204183898601317E-007
  3.424637107708977E-004  1.204183898601317E-007
  3.606441570958385E-004  1.204183898601317E-007
  3.691834935487254E-004  1.204183898601317E-007
  3.734102656619031E-004  1.204183898601317E-007
  3.792098530428290E-004  1.204183898601317E-007
  3.813824075860659E-004  1.204183898601317E-007
  3.830894446079105E-004  1.204183898601317E-007
  3.898286992452874E-004  1.204183898601317E-007
  3.929949892029698E-004  1.204183898601317E-007
  3.943028344769416E-004  1.204183898601317E-007
  4.034557171858185E-004  1.204183898601317E-007
  4.211476967279002E-004  1.204183898601317E-007
  4.244497976045964E-004  1.204183898601317E-007
  4.284951539497883E-004  1.204183898601317E-007
  4.298685180089562E-004  1.204183898601317E-007
  4.356584433569901E-004  1.204183898601317E-007
  4.415325175462995E-004  1.204183898601317E-007
  4.430944234640779E-004  1.204183898601317E-007
  4.609826629175712E-004  1.204183898601317E-007
  4.621636600159824E-004  1.204183898601317E-007
  4.660432344872342E-004  1.204183898601317E-007
  4.743249558898099E-004  1.204183898601317E-007
  4.811161606914246E-004  1.204183898601317E-007
  4.928467745920039E-004  1.204183898601317E-007
  5.338442612575835E-004  1.204183898601317E-007
  5.371718571452191E-004  1.204183898601317E-007
  5.437063649287100E-004  1.204183898601317E-007
  5.541298336636957E-004  1.204183898601317E-007
  5.541619378880637E-004  1.204183898601317E-007
  5.559500666710506E-004  1.204183898601317E-007
  5.560294066894855E-004  1.204183898601317E-007
  5.716409979886558E-004  1.204183898601317E-007
  5.833088660829061E-004  1.204183898601317E-007
  5.967571119002688E-004  1.204183898601317E-007
  5.986398814238049E-004  1.204183898601317E-007
  5.986870087523068E-004  1.204183898601317E-007
  5.994399339578493E-004  1.204183898601317E-007
  5.996965272122652E-004  1.204183898601317E-007
  6.000187494444951E-004  1.204183898601317E-007
  6.003736588222591E-004  1.204183898601317E-007
  6.021966696377730E-004  1.204183898601317E-007
  6.092924172703782E-004  1.204183898601317E-007
  6.238458041896682E-004  1.204183898601317E-007
  6.273832857654619E-004  1.204183898601317E-007
  6.292742709844034E-004  1.204183898601317E-007
  6.393225702639480E-004  1.204183898601317E-007
  6.419426875428080E-004  1.204183898601317E-007
  6.456000130114300E-004  1.204183898601317E-007
  6.461468240529537E-004  1.204183898601317E-007
  6.481004964849824E-004  1.204183898601317E-007
  6.505834688727855E-004  1.204183898601317E-007
  6.709792687515536E-004  1.204183898601317E-007
  6.942474757536570E-004  1.204183898601317E-007
  6.978832831957941E-004  1.204183898601317E-007
  7.955927547476543E-004  1.204183898601317E-007
  8.055290539291009E-004  1.204183898601317E-007
  8.235027452853930E-004  1.204183898601317E-007
  9.418588458111325E-004  1.204183898601317E-007
  9.953578519989266E-004  1.204183898601317E-007
  1.072277475543342E-003  1.204183898601317E-007
  1.080833099426643E-003  1.204183898601317E-007
  1.081404463674751E-003  1.204183898601317E-007
  1.095389282991184E-003  1.204183898601317E-007
  1.096360729507242E-003  1.204183898601317E-007
  1.097087616581728E-003  1.204183898601317E-007
  1.097613872428887E-003  1.204183898601317E-007
  1.109400171260726E-003  1.204183898601317E-007
  1.141202002821861E-003  1.204183898601317E-007
  1.143914261587954E-003  1.204183898601317E-007
  1.150767153729750E-003  1.204183898601317E-007
  1.162478380594996E-003  1.204183898601317E-007
  1.162579661831259E-003  1.204183898601317E-007
  1.162974810020985E-003  1.204183898601317E-007
  1.163189528244106E-003  1.204183898601317E-007
  1.166875590299170E-003  1.204183898601317E-007
  1.171662531254087E-003  1.204183898601317E-007
  1.172048364022125E-003  1.204183898601317E-007
  1.172245230284820E-003  1.204183898601317E-007
  1.184327121847117E-003  1.204183898601317E-007
  1.202983334588388E-003  1.204183898601317E-007
  1.262156559667746E-003  1.204183898601317E-007
  1.295201295960468E-003  1.204183898601317E-007
  1.336591250025854E-003  1.204183898601317E-007
  1.374241484730628E-003  1.204183898601317E-007
  1.381841829889145E-003  1.204183898601317E-007
  1.495397924047526E-003  1.204183898601317E-007
  1.560814386925346E-003  1.204183898601317E-007
  1.660245957890109E-003  1.204183898601317E-007
  1.723371829305310E-003  1.204183898601317E-007
  1.758812811778831E-003  1.204183898601317E-007
  1.784930010335646E-003  1.204183898601317E-007
  1.912396563740671E-003  1.204183898601317E-007
  1.957597722327456E-003  1.204183898601317E-007
  2.086018095060054E-003  1.204183898601317E-007
  2.292724875507737E-003  1.204183898601317E-007
  2.349773946288042E-003  1.204183898601317E-007
  2.354676410694089E-003  1.204183898601317E-007
  2.467135863719334E-003  1.204183898601317E-007
  2.535171169277053E-003  1.204183898601317E-007
  2.536452457298248E-003  1.204183898601317E-007
  2.564072486809803E-003  1.204183898601317E-007
  2.672241739702166E-003  1.204183898601317E-007
  2.786401329558809E-003  1.204183898601317E-007
  2.922989440182342E-003  1.204183898601317E-007
  3.023573817375060E-003  1.204183898601317E-007
  3.025545467325176E-003  1.204183898601317E-007
  3.042194638906509E-003  1.204183898601317E-007
  3.081538639126820E-003  1.204183898601317E-007
  3.096796279232649E-003  1.204183898601317E-007
  3.621518502778441E-003  1.204183898601317E-007
  3.655553601813602E-003  1.204183898601317E-007
  3.657482128424993E-003  1.204183898601317E-007
  3.704155510783988E-003  1.204183898601317E-007
  3.705852505700308E-003  1.204183898601317E-007
  3.726200236234345E-003  1.204183898601317E-007
  3.753539671388014E-003  1.204183898601317E-007
  3.942921532003046E-003  1.204183898601317E-007
  4.080113437576400E-003  1.204183898601317E-007
 cut=1d-8, nber non-redundant internal coords=         216
 Check on Eigenvals of non-red overlap matrix:
  0.00000012  0.00000016  0.00000076  0.00000112  0.00000156  0.00000289  0.00000327  0.00000346
  0.00000479  0.00000641  0.00000699  0.00000930  0.00001033  0.00001125  0.00001252  0.00001355
  0.00001583  0.00001625  0.00001670  0.00001786  0.00001830  0.00001919  0.00002174  0.00002314
  0.00002374  0.00002411  0.00002532  0.00002630  0.00002780  0.00002941  0.00003006  0.00003444
  0.00003581  0.00003900  0.00003993  0.00004413  0.00004591  0.00004897  0.00004920  0.00005092
  0.00005245  0.00005356  0.00005484  0.00005676  0.00005914  0.00006117  0.00006357  0.00006478
  0.00006889  0.00007147  0.00007364  0.00007821  0.00007962  0.00008142  0.00008253  0.00008588
  0.00008844  0.00008859  0.00009024  0.00009327  0.00009362  0.00009455  0.00009824  0.00010078
  0.00011300  0.00011749  0.00011822  0.00012168  0.00012271  0.00013409  0.00013613  0.00013701
  0.00013756  0.00014057  0.00014965  0.00015501  0.00015918  0.00016050  0.00016439  0.00017364
  0.00018051  0.00018200  0.00020320  0.00020752  0.00022241  0.00022364  0.00023011  0.00023150
  0.00026409  0.00027215  0.00028351  0.00028666  0.00029078  0.00029308  0.00029566  0.00030251
  0.00030841  0.00033697  0.00034246  0.00036064  0.00036918  0.00037341  0.00037921  0.00038138
  0.00038309  0.00038983  0.00039299  0.00039430  0.00040346  0.00042115  0.00042445  0.00042850
  0.00042987  0.00043566  0.00044153  0.00044309  0.00046098  0.00046216  0.00046604  0.00047432
  0.00048112  0.00049285  0.00053384  0.00053717  0.00054371  0.00055413  0.00055416  0.00055595
  0.00055603  0.00057164  0.00058331  0.00059676  0.00059864  0.00059869  0.00059944  0.00059970
  0.00060002  0.00060037  0.00060220  0.00060929  0.00062385  0.00062738  0.00062927  0.00063932
  0.00064194  0.00064560  0.00064615  0.00064810  0.00065058  0.00067098  0.00069425  0.00069788
  0.00079559  0.00080553  0.00082350  0.00094186  0.00099536  0.00107228  0.00108083  0.00108140
  0.00109539  0.00109636  0.00109709  0.00109761  0.00110940  0.00114120  0.00114391  0.00115077
  0.00116248  0.00116258  0.00116297  0.00116319  0.00116688  0.00117166  0.00117205  0.00117225
  0.00118433  0.00120298  0.00126216  0.00129520  0.00133659  0.00137424  0.00138184  0.00149540
  0.00156081  0.00166025  0.00172337  0.00175881  0.00178493  0.00191240  0.00195760  0.00208602
  0.00229272  0.00234977  0.00235468  0.00246714  0.00253517  0.00253645  0.00256407  0.00267224
  0.00278640  0.00292299  0.00302357  0.00302555  0.00304219  0.00308154  0.00309680  0.00362152
  0.00365555  0.00365748  0.00370416  0.00370585  0.00372620  0.00375354  0.00394292  0.00408011
 Checking for correct frequencies
 recalc frequencies=
    -0.0   -0.0    0.0    0.0    0.0    0.0    5.5    8.9   11.7   22.1
    28.4   40.2   43.3   52.4   55.8   65.9   75.2   86.6   95.6   99.2
   104.7  121.6  134.1  143.9  163.5  174.6  182.0  188.5  203.6  206.5
   217.6  228.3  234.8  236.8  253.3  263.6  271.7  282.3  290.2  314.7
   329.5  341.0  355.2  358.9  381.3  391.5  395.2  419.7  431.1  435.8
   437.2  438.6  446.1  447.7  451.7  466.7  469.6  480.1  480.3  483.6
   498.6  512.1  518.7  533.8  534.9  551.7  561.3  570.6  577.7  585.1
   586.2  596.6  611.8  623.1  631.5  633.4  647.1  659.1  664.8  666.6
   697.1  697.7  711.8  713.9  716.9  725.8  742.3  746.1  750.7  763.1
   772.2  785.6  800.0  803.2  810.9  816.8  822.4  834.0  836.4  844.5
   855.0  858.4  864.8  865.3  869.9  872.0  877.3  912.2  923.1  927.9
   936.7  946.0  957.2  958.0  964.9  970.4  979.5  986.9  992.5  996.6
  1001.2 1001.8 1005.6 1028.9 1035.5 1063.4 1081.3 1100.8 1109.9 1133.9
  1149.2 1150.4 1156.2 1160.1 1165.7 1171.8 1175.9 1194.0 1200.4 1204.9
  1210.4 1212.3 1220.5 1221.4 1235.2 1240.6 1251.2 1260.3 1268.2 1269.1
  1309.3 1314.4 1316.1 1326.5 1333.0 1336.5 1355.6 1361.2 1368.6 1374.8
  1382.3 1385.1 1400.8 1403.7 1406.8 1417.2 1420.6 1428.9 1436.6 1438.1
  1446.2 1454.8 1458.2 1469.7 1477.0 1485.5 1491.3 1498.2 1505.5 1506.1
  1522.8 1527.2 1534.6 1542.7 1559.2 1560.6 1604.0 1608.2 1614.9 1619.9
  1631.4 1631.5 1648.2 1649.0 1713.1 1734.5 1751.1 1768.4 3027.8 3034.8
  3038.9 3055.4 3092.6 3095.8 3113.2 3133.3 3143.6 3175.6 3179.5 3193.4
  3193.7 3193.9 3195.5 3199.3 3201.0 3201.1 3201.3 3208.2 3208.5 3218.1
  3218.3 3246.3
 recalc symmetries=
                                                                       
                                                                       
                                                                       
                                                                       
                                                                       
                                                                       
                                                                       
                                                                       
                                                                       
                                                                       
                                                                       
                                                                       
                                                                       
                                                                       
                                                                       
                                                                       
                                                                       
                                                                       
                                                                       
                                                                       
                                                                       
                                                                       
               
 recalc freqs check OK
 Zero-point lengths:
 10.0000 10.0000 10.0000 10.0000 10.0000 10.0000105.3459 83.0702 72.3356 52.7780
 46.5287 39.1229 37.6675 34.2568 33.2004 30.5430 28.5833 26.6445 25.3502 24.8969
 24.2266 22.4779 21.4061 20.6667 19.3856 18.7605 18.3761 18.0556 17.3743 17.2537
 16.8059 16.4065 16.1794 16.1087 15.5774 15.2693 15.0405 14.7540 14.5533 13.9753
 13.6571 13.4254 13.1549 13.0855 12.6953 12.5300 12.4707 12.1005 11.9402 11.8749
 11.8570 11.8377 11.7375 11.7160 11.6649 11.4751 11.4405 11.3142 11.3122 11.2738
 11.1027 10.9550 10.8856 10.7302 10.7189 10.5551 10.4641 10.3782 10.3143 10.2494
 10.2397 10.1501 10.0225  9.9315  9.8654  9.8506  9.7457  9.6565  9.6148  9.6023
  9.3899  9.3858  9.2920  9.2785  9.2589  9.2020  9.0991  9.0761  9.0483  8.9745
  8.9212  8.8448  8.7648  8.7476  8.7060  8.6742  8.6447  8.5845  8.5720  8.5310
  8.4784  8.4618  8.4304  8.4279  8.4053  8.3955  8.3699  8.2083  8.1596  8.1383
  8.1001  8.0604  8.0131  8.0098  7.9810  7.9585  7.9211  7.8916  7.8694  7.8529
  7.8349  7.8325  7.8176  7.7286  7.7040  7.6024  7.5390  7.4719  7.4414  7.3623
  7.3130  7.3092  7.2910  7.2785  7.2612  7.2420  7.2296  7.1746  7.1554  7.1420
  7.1257  7.1201  7.0961  7.0937  7.0537  7.0384  7.0086  6.9833  6.9614  6.9591
  6.8513  6.8382  6.8337  6.8069  6.7902  6.7812  6.7332  6.7193  6.7013  6.6863
  6.6680  6.6613  6.6238  6.6170  6.6097  6.5854  6.5775  6.5584  6.5407  6.5373
  6.5189  6.4998  6.4921  6.4668  6.4508  6.4322  6.4196  6.4049  6.3893  6.3881
  6.3530  6.3437  6.3284  6.3118  6.2783  6.2756  6.1901  6.1819  6.1692  6.1597
  6.1378  6.1376  6.1065  6.1051  5.9897  5.9526  5.9244  5.8953  4.5054  4.5002
  4.4972  4.4850  4.4579  4.4556  4.4432  4.4289  4.4216  4.3993  4.3966  4.3870
  4.3868  4.3867  4.3856  4.3829  4.3818  4.3817  4.3816  4.3769  4.3767  4.3701
  4.3700  4.3511
 highest evec of mol 1
 -0.0000 -0.0000  0.0000
  0.0000 -0.0000  0.0000
 -0.0000 -0.0000  0.0000
  0.0000 -0.0000 -0.0000
 -0.0000  0.0000  0.0000
  0.0000 -0.0000 -0.0000
 -0.0000  0.0000 -0.0000
  0.0000 -0.0000  0.0000
 -0.0000  0.0000 -0.0000
  0.0000  0.0000  0.0000
  0.0000 -0.0000  0.0000
 -0.0000  0.0000  0.0000
 -0.0000  0.0000 -0.0000
  0.0000 -0.0000 -0.0000
 -0.0000  0.0000  0.0000
  0.0000 -0.0000 -0.0000
  0.0000 -0.0000 -0.0000
 -0.0000 -0.0000  0.0000
 -0.0001 -0.0001  0.0001
 -0.0000 -0.0000 -0.0001
 -0.0000 -0.0000  0.0001
  0.0000  0.0001 -0.0001
 -0.0000 -0.0002  0.0000
 -0.0000 -0.0003  0.0002
 -0.0000  0.0000  0.0002
  0.0002 -0.0002 -0.0067
 -0.0002  0.0573  0.0379
 -0.0116 -0.1400  0.2531
  0.0000 -0.0016 -0.0014
  0.0001  0.0020 -0.0029
  0.0000  0.0004 -0.0001
 -0.0000  0.0000  0.0001
  0.0000  0.0001 -0.0001
  0.0001  0.0001  0.0001
  0.0000 -0.0000  0.0000
 -0.0000  0.0000 -0.0000
 -0.0000  0.0000 -0.0000
  0.0000 -0.0000 -0.0000
  0.0000 -0.0000  0.0000
 -0.0000  0.0000  0.0000
 -0.0000  0.0000  0.0000
 -0.0000  0.0000 -0.0000
  0.0000 -0.0000  0.0000
  0.0000 -0.0000 -0.0000
  0.0000 -0.0000  0.0000
 -0.0000  0.0000 -0.0000
  0.0000  0.0000 -0.0000
 -0.0000 -0.0000 -0.0000
  0.0000  0.0000 -0.0000
 -0.0000  0.0000 -0.0000
 -0.0000  0.0000 -0.0000
  0.0000 -0.0000  0.0000
 -0.0000  0.0000  0.0000
 -0.0000  0.0000 -0.0000
  0.0000 -0.0000  0.0000
 -0.0000  0.0000 -0.0000
  0.0000  0.0000 -0.0000
 -0.0000  0.0000  0.0000
  0.0000 -0.0000  0.0000
  0.0001 -0.0001 -0.0001
  0.0000 -0.0000  0.0000
  0.0002  0.0003 -0.0002
  0.0001  0.0001  0.0001
  0.0000  0.0006 -0.0002
  0.0001 -0.0002  0.0002
 -0.0001 -0.0002  0.0002
  0.0019 -0.1303 -0.1263
  0.0374  0.4184 -0.8379
 -0.0001 -0.0002  0.0001
 -0.0002 -0.0003 -0.0002
 -0.0000  0.0000  0.0000
 -0.0000  0.0000 -0.0000
  0.0000 -0.0000 -0.0000
 -0.0000  0.0000 -0.0000
 generating redundant internal coords
         300        3600          74
 Adding extra bonds for z output only
           6           6           6           7           6           8
           6           6           6           6           6           6
           6           6           6           8           7           6
           6           6           6           6           6           6
           6           6           6           6          16           6
           6          16           6           6           6           8
           6           6           6           6           6           6
           6           6           6           8           6           6
           6           6           1           1           1           1
           1           1           1           1           1           1
           1           1           1           1           1           1
           1           1           1           1           1           1
           1           1
 search for int coords
   1 str   2   1   1.532
   2 str   3   2   1.532
   3 str   4   2   1.498
   4 str   5   4   1.401
   5 str   6   5   1.219
   6 str   7   5   1.486
   7 str   8   7   1.382
   8 str   9   8   1.397
   9 str  10   9   1.394
  10 str  11  10   1.469
  11 str  12  11   1.394
  12 str  13  12   1.396
  13 str  14  13   1.381
  14 str  15  14   1.484
  15 str  16  15   1.213
  16 str  17  15   1.410
  17 str  18  17   1.447
  18 str  19  18   1.391
  19 str  20  19   1.388
  20 str  21  20   1.406
  21 str  22  21   1.464
  22 str  23  22   1.380
  23 str  24  23   1.412
  24 str  25  24   1.515
  25 str  26  25   1.515
  26 str  27  26   1.417
  27 str  28  27   1.370
  28 str  29  28   1.748
  29 str  30  26   1.383
  30 str  30  29   1.728
  31 str  31  24   1.383
  32 str  31  30   1.442
  33 str  32  22   1.769
  34 str  32  31   1.726
  35 str  33  21   1.405
  36 str  34  18   1.390
  37 str  34  33   1.388
  38 str  35  17   1.410
  39 str  36  35   1.213
  40 str  37  35   1.484
  41 str  38  37   1.381
  42 str  39  38   1.396
  43 str  40  39   1.394
  44 str  41  40   1.470
  45 str  42  41   1.394
  46 str  43  42   1.397
  47 str  44  43   1.382
  48 str  45   4   1.408
  49 str  45  44   1.484
  50 str  46  45   1.218
  51 str  47   7   1.412
  52 str  47  44   1.412
  53 str  48  10   1.428
  54 str  48  41   1.428
  55 str  48  47   1.427
  56 str  49  11   1.429
  57 str  49  40   1.429
  58 str  50  14   1.414
  59 str  50  37   1.414
  60 str  50  49   1.428
  61 str  51   1   1.093
  62 str  52   1   1.089
  63 str  53   1   1.093
  64 str  54   2   1.088
  65 str  55   3   1.089
  66 str  56   3   1.093
  67 str  57   3   1.093
  68 str  58   8   1.083
  69 str  59   9   1.081
  70 str  60  12   1.081
  71 str  61  13   1.083
  72 str  62  19   1.083
  73 str  63  20   1.083
  74 str  64  23   1.082
  75 str  65  25   1.096
  76 str  66  25   1.096
  77 str  67  27   1.082
  78 str  68  28   1.079
  79 str  69  33   1.084
  80 str  70  34   1.083
  81 str  71  38   1.083
  82 str  72  39   1.081
  83 str  73  42   1.081
  84 str  74  43   1.083
 nber stretches=          84
  85 ben   1   2   3
  86 prop tor   1   2   3  55
  87 prop tor   1   2   3  56
  88 prop tor   1   2   3  57
  89 ben   1   2   4
  90 prop tor   1   2   4   5
  91 prop tor   1   2   4  45
  92 ben   1   2  54
  93 ben   2   1  51
  94 ben   2   1  52
  95 ben   2   1  53
  96 ben   2   3  55
  97 ben   2   3  56
  98 ben   2   3  57
  99 ben   2   4   5
 100 prop tor   2   4   5   6
 101 prop tor   2   4   5   7
 102 ben   2   4  45
 103 prop tor   2   4  45  44
 104 prop tor   2   4  45  46
 105 ben   3   2   4
 106 prop tor   3   2   4   5
 107 prop tor   3   2   4  45
 108 ben   3   2  54
 109 prop tor   4   2   3  55
 110 prop tor   4   2   3  56
 111 prop tor   4   2   3  57
 112 ben   4   2  54
 113 ben   4   5   6
 114 ben   4   5   7
 115 prop tor   4   5   7   8
 116 prop tor   4   5   7  47
 117 ben   4  45  44
 118 ben   4  45  46
 119 ben   5   4  45
 120 prop tor   5   4  45  44
 121 prop tor   5   4  45  46
 122 ben   5   7   8
 123 prop tor   5   7   8   9
 124 prop tor   5   7   8  58
 125 ben   5   7  47
 126 prop tor   5   7  47  44
 127 prop tor   5   7  47  48
 128 ben   6   5   7
 129 prop tor   6   5   7   8
 130 prop tor   6   5   7  47
 131 ben   7   8   9
 132 prop tor   7   8   9  10
 133 prop tor   7   8   9  59
 134 ben   7   8  58
 135 ben   7  47  44
 136 ben   7  47  48
 137 prop tor   7  47  48  10
 138 prop tor   7  47  48  41
 139 ben   8   7  47
 140 prop tor   8   7  47  44
 141 prop tor   8   7  47  48
 142 ben   8   9  10
 143 prop tor   8   9  10  11
 144 prop tor   8   9  10  48
 145 ben   8   9  59
 146 ben   9   8  58
 147 ben   9  10  11
 148 prop tor   9  10  11  12
 149 prop tor   9  10  11  49
 150 ben   9  10  48
 151 prop tor   9  10  48  41
 152 prop tor   9  10  48  47
 153 ben  10   9  59
 154 ben  10  11  12
 155 prop tor  10  11  12  13
 156 prop tor  10  11  12  60
 157 ben  10  11  49
 158 prop tor  10  11  49  40
 159 prop tor  10  11  49  50
 160 ben  10  48  41
 161 ben  10  48  47
 162 ben  11  10  48
 163 prop tor  11  10  48  41
 164 prop tor  11  10  48  47
 165 ben  11  12  13
 166 prop tor  11  12  13  14
 167 prop tor  11  12  13  61
 168 ben  11  12  60
 169 ben  11  49  40
 170 ben  11  49  50
 171 prop tor  11  49  50  14
 172 prop tor  11  49  50  37
 173 ben  12  11  49
 174 prop tor  12  11  49  40
 175 prop tor  12  11  49  50
 176 ben  12  13  14
 177 prop tor  12  13  14  15
 178 prop tor  12  13  14  50
 179 ben  12  13  61
 180 ben  13  12  60
 181 ben  13  14  15
 182 prop tor  13  14  15  16
 183 prop tor  13  14  15  17
 184 ben  13  14  50
 185 prop tor  13  14  50  37
 186 prop tor  13  14  50  49
 187 ben  14  13  61
 188 ben  14  15  16
 189 ben  14  15  17
 190 prop tor  14  15  17  18
 191 prop tor  14  15  17  35
 192 ben  14  50  37
 193 ben  14  50  49
 194 ben  15  14  50
 195 prop tor  15  14  50  37
 196 prop tor  15  14  50  49
 197 ben  15  17  18
 198 prop tor  15  17  18  19
 199 prop tor  15  17  18  34
 200 ben  15  17  35
 201 prop tor  15  17  35  36
 202 prop tor  15  17  35  37
 203 ben  16  15  17
 204 prop tor  16  15  17  18
 205 prop tor  16  15  17  35
 206 ben  17  18  19
 207 prop tor  17  18  19  20
 208 prop tor  17  18  19  62
 209 ben  17  18  34
 210 prop tor  17  18  34  33
 211 prop tor  17  18  34  70
 212 ben  17  35  36
 213 ben  17  35  37
 214 prop tor  17  35  37  38
 215 prop tor  17  35  37  50
 216 ben  18  17  35
 217 prop tor  18  17  35  36
 218 prop tor  18  17  35  37
 219 ben  18  19  20
 220 prop tor  18  19  20  21
 221 prop tor  18  19  20  63
 222 ben  18  19  62
 223 ben  18  34  33
 224 ben  18  34  70
 225 ben  19  18  34
 226 prop tor  19  18  34  33
 227 prop tor  19  18  34  70
 228 ben  19  20  21
 229 prop tor  19  20  21  22
 230 prop tor  19  20  21  33
 231 ben  19  20  63
 232 ben  20  19  62
 233 ben  20  21  22
 234 prop tor  20  21  22  23
 235 prop tor  20  21  22  32
 236 ben  20  21  33
 237 prop tor  20  21  33  34
 238 prop tor  20  21  33  69
 239 ben  21  20  63
 240 ben  21  22  23
 241 prop tor  21  22  23  24
 242 prop tor  21  22  23  64
 243 ben  21  22  32
 244 prop tor  21  22  32  31
 245 ben  21  33  34
 246 prop tor  21  33  34  18
 247 prop tor  21  33  34  70
 248 ben  21  33  69
 249 ben  22  21  33
 250 prop tor  22  21  33  34
 251 prop tor  22  21  33  69
 252 ben  22  23  24
 253 prop tor  22  23  24  25
 254 prop tor  22  23  24  31
 255 ben  22  23  64
 256 ben  22  32  31
 257 ben  23  22  32
 258 prop tor  23  22  32  31
 259 ben  23  24  25
 260 prop tor  23  24  25  26
 261 prop tor  23  24  25  65
 262 prop tor  23  24  25  66
 263 ben  23  24  31
 264 prop tor  23  24  31  30
 265 prop tor  23  24  31  32
 266 ben  24  23  64
 267 ben  24  25  26
 268 prop tor  24  25  26  27
 269 prop tor  24  25  26  30
 270 ben  24  25  65
 271 ben  24  25  66
 272 ben  24  31  30
 273 ben  24  31  32
 274 prop tor  24  31  32  22
 275 ben  25  24  31
 276 prop tor  25  24  31  30
 277 prop tor  25  24  31  32
 278 ben  25  26  27
 279 prop tor  25  26  27  28
 280 prop tor  25  26  27  67
 281 ben  25  26  30
 282 prop tor  25  26  30  29
 283 prop tor  25  26  30  31
 284 ben  26  25  65
 285 ben  26  25  66
 286 ben  26  27  28
 287 prop tor  26  27  28  29
 288 prop tor  26  27  28  68
 289 ben  26  27  67
 290 ben  26  30  29
 291 ben  26  30  31
 292 prop tor  26  30  31  24
 293 prop tor  26  30  31  32
 294 ben  27  26  30
 295 prop tor  27  26  30  29
 296 prop tor  27  26  30  31
 297 ben  27  28  29
 298 prop tor  27  28  29  30
 299 ben  27  28  68
 300 ben  28  27  67
 301 ben  28  29  30
 302 prop tor  28  29  30  26
 303 prop tor  28  29  30  31
 304 ben  29  28  68
 305 ben  29  30  31
 306 prop tor  29  30  31  24
 307 prop tor  29  30  31  32
 308 prop tor  30  26  27  28
 309 prop tor  30  26  27  67
 310 ben  30  31  32
 311 prop tor  30  31  32  22
 312 prop tor  31  24  25  26
 313 prop tor  31  24  25  65
 314 prop tor  31  24  25  66
 315 prop tor  32  22  23  24
 316 prop tor  32  22  23  64
 317 prop tor  33  21  22  23
 318 prop tor  33  21  22  32
 319 ben  33  34  70
 320 prop tor  34  18  19  20
 321 prop tor  34  18  19  62
 322 ben  34  33  69
 323 prop tor  35  17  18  19
 324 prop tor  35  17  18  34
 325 ben  35  37  38
 326 prop tor  35  37  38  39
 327 prop tor  35  37  38  71
 328 ben  35  37  50
 329 prop tor  35  37  50  14
 330 prop tor  35  37  50  49
 331 ben  36  35  37
 332 prop tor  36  35  37  38
 333 prop tor  36  35  37  50
 334 ben  37  38  39
 335 prop tor  37  38  39  40
 336 prop tor  37  38  39  72
 337 ben  37  38  71
 338 ben  37  50  49
 339 ben  38  37  50
 340 prop tor  38  37  50  14
 341 prop tor  38  37  50  49
 342 ben  38  39  40
 343 prop tor  38  39  40  41
 344 prop tor  38  39  40  49
 345 ben  38  39  72
 346 ben  39  38  71
 347 ben  39  40  41
 348 prop tor  39  40  41  42
 349 prop tor  39  40  41  48
 350 ben  39  40  49
 351 prop tor  39  40  49  11
 352 prop tor  39  40  49  50
 353 ben  40  39  72
 354 ben  40  41  42
 355 prop tor  40  41  42  43
 356 prop tor  40  41  42  73
 357 ben  40  41  48
 358 prop tor  40  41  48  10
 359 prop tor  40  41  48  47
 360 ben  40  49  50
 361 prop tor  40  49  50  14
 362 prop tor  40  49  50  37
 363 ben  41  40  49
 364 prop tor  41  40  49  11
 365 prop tor  41  40  49  50
 366 ben  41  42  43
 367 prop tor  41  42  43  44
 368 prop tor  41  42  43  74
 369 ben  41  42  73
 370 ben  41  48  47
 371 ben  42  41  48
 372 prop tor  42  41  48  10
 373 prop tor  42  41  48  47
 374 ben  42  43  44
 375 prop tor  42  43  44  45
 376 prop tor  42  43  44  47
 377 ben  42  43  74
 378 ben  43  42  73
 379 ben  43  44  45
 380 prop tor  43  44  45   4
 381 prop tor  43  44  45  46
 382 ben  43  44  47
 383 prop tor  43  44  47   7
 384 prop tor  43  44  47  48
 385 ben  44  43  74
 386 ben  44  45  46
 387 ben  44  47  48
 388 prop tor  44  47  48  10
 389 prop tor  44  47  48  41
 390 prop tor  45   4   5   6
 391 prop tor  45   4   5   7
 392 ben  45  44  47
 393 prop tor  45  44  47   7
 394 prop tor  45  44  47  48
 395 prop tor  47   7   8   9
 396 prop tor  47   7   8  58
 397 prop tor  47  44  45   4
 398 prop tor  47  44  45  46
 399 prop tor  48  10  11  12
 400 prop tor  48  10  11  49
 401 prop tor  48  41  42  43
 402 prop tor  48  41  42  73
 403 prop tor  49  11  12  13
 404 prop tor  49  11  12  60
 405 prop tor  49  40  41  42
 406 prop tor  49  40  41  48
 407 prop tor  50  14  15  16
 408 prop tor  50  14  15  17
 409 prop tor  50  37  38  39
 410 prop tor  50  37  38  71
 411 prop tor  51   1   2   3
 412 prop tor  51   1   2   4
 413 prop tor  51   1   2  54
 414 ben  51   1  52
 415 ben  51   1  53
 416 prop tor  52   1   2   3
 417 prop tor  52   1   2   4
 418 prop tor  52   1   2  54
 419 ben  52   1  53
 420 prop tor  53   1   2   3
 421 prop tor  53   1   2   4
 422 prop tor  53   1   2  54
 423 prop tor  54   2   3  55
 424 prop tor  54   2   3  56
 425 prop tor  54   2   3  57
 426 prop tor  54   2   4   5
 427 prop tor  54   2   4  45
 428 ben  55   3  56
 429 ben  55   3  57
 430 ben  56   3  57
 431 prop tor  58   8   9  10
 432 prop tor  58   8   9  59
 433 prop tor  59   9  10  11
 434 prop tor  59   9  10  48
 435 prop tor  60  12  13  14
 436 prop tor  60  12  13  61
 437 prop tor  61  13  14  15
 438 prop tor  61  13  14  50
 439 prop tor  62  19  20  21
 440 prop tor  62  19  20  63
 441 prop tor  63  20  21  22
 442 prop tor  63  20  21  33
 443 prop tor  64  23  24  25
 444 prop tor  64  23  24  31
 445 prop tor  65  25  26  27
 446 prop tor  65  25  26  30
 447 ben  65  25  66
 448 prop tor  66  25  26  27
 449 prop tor  66  25  26  30
 450 prop tor  67  27  28  29
 451 prop tor  67  27  28  68
 452 prop tor  68  28  29  30
 453 prop tor  69  33  34  18
 454 prop tor  69  33  34  70
 455 prop tor  71  38  39  40
 456 prop tor  71  38  39  72
 457 prop tor  72  39  40  41
 458 prop tor  72  39  40  49
 459 prop tor  73  42  43  44
 460 prop tor  73  42  43  74
 461 prop tor  74  43  44  45
 462 prop tor  74  43  44  47
 nber bend=             146
 nber lin bend=           0
 nber prop tor=         232
 nber impr tor=           0
 nber tot redund int=         462
 Reading file: 
 ./CDT-A_5_C0S1.log                                                             
                                          
  Entering Gaussian System, Link 0=g16                                          
  
 Gaussian format, type: g94, g98, g03= F F F
  #P Geom=AllCheck Guess=TCheck SCRF=Check GenChk RB3LYP TD(FC,Read)/6-3    
 energy type= TD      
 Original G94 input coords:
  6  2.023385-36.888908  4.546176
  6  0.901772-36.030110  5.141578
  6  0.045877-36.780739  6.168299
  7  1.416340-34.739658  5.683108
  6  0.961314-33.559418  5.053300
  8  0.181733-33.611286  4.108885
  6  1.465051-32.286873  5.583134
  6  1.047691-31.089602  4.998043
  6  1.502726-29.874586  5.472351
  6  2.401811-29.787717  6.559707
  6  2.885433-28.521320  7.065600
  6  2.485693-27.284440  6.501987
  6  2.950834-26.085530  6.987637
  6  3.845617-26.043453  8.068599
  6  4.312529-24.755086  8.537198
  8  3.986585-23.673926  8.065676
  7  5.217848-24.787968  9.654399
  6  5.693439-23.545530 10.150311
  6  5.641161-23.262706 11.523291
  6  6.108545-22.057994 12.008407
  6  6.642238-21.083878 11.136662
  6  7.128118-19.831444 11.655221
  6  7.390787-19.490132 12.995849
  6  7.856321-18.196059 13.139178
  6  8.301726-17.299120 14.272228
  6  8.660446-16.033304 13.528071
  6  9.143446-14.757188 13.844725
  6  9.290203-13.976228 12.715343
 16  8.842088-14.782767 11.242657
  6  8.445093-16.204814 12.147566
  6  7.963606-17.505729 11.907636
 16  7.471104-18.473246 10.568379
  6  6.683820-21.378524  9.757861
  6  6.221701-22.585588  9.273811
  6  5.678540-25.984198 10.306942
  8  6.454343-25.888972 11.248578
  6  5.176654-27.229431  9.763728
  6  5.593209-28.437101 10.345811
  6  5.138244-29.644133  9.870723
  6  4.235672-29.722867  8.781488
  6  3.751027-30.989162  8.275890
  6  4.143696-32.226980  8.834017
  6  3.674222-33.429787  8.342523
  6  2.786245-33.463654  7.265818
  6  2.307409-34.760284  6.769000
  8  2.661126-35.822923  7.269806
  6  2.363062-32.254357  6.672496
  6  2.842884-30.999181  7.173814
  6  3.795549-28.507720  8.168912
  6  4.277073-27.248591  8.671670
  1  1.583900-37.751493  4.036253
  1  2.704914-37.245688  5.317243
  1  2.592072-36.317787  3.807459
  1  0.251868-35.714282  4.328250
  1  0.645394-37.131827  7.007152
  1 -0.423526-37.642493  5.684291
  1 -0.750818-36.135374  6.547850
  1  0.359116-31.141235  4.164222
  1  1.152765-28.973835  4.988112
  1  1.797699-27.270136  5.669043
  1  2.637019-25.147799  6.546861
  1  5.236182-23.998055 12.200307
  1  6.031385-21.858597 13.069506
  1  7.258923-20.192726 13.805050
  1  7.504268-17.136459 15.004062
  1  9.156646-17.716285 14.813632
  1  9.379878-14.402788 14.838089
  1  9.641673-12.956967 12.663008
  1  7.109231-20.666479  9.059749
  1  6.260388-22.796492  8.216956
  1  6.282784-28.391936 11.179212
  1  5.485375-30.549054 10.348166
  1  4.829755-32.249213  9.668987
  1  3.982931-34.371111  8.779305
 nber atoms=          74
  Total Energy, E(TD-HF/TD-DFT) =  -2822.30842335                               
  
          32          49 "  -2822.30842335"
After scan for Atom:   Atom  AN      X      Y      Z        X      Y      Z        X      Y      Z   
After scan for Atom:   Atom  AN      X      Y      Z        X      Y      Z        X      Y      Z   
After scan for Atom:   Atom  AN      X      Y      Z        X      Y      Z        X      Y      Z   
After scan for Atom:   Atom  AN      X      Y      Z        X      Y      Z        X      Y      Z   
After scan for Atom:   Atom  AN      X      Y      Z        X      Y      Z        X      Y      Z   
After scan for Atom:   Atom  AN      X      Y      Z        X      Y      Z        X      Y      Z   
After scan for Atom:   Atom  AN      X      Y      Z        X      Y      Z        X      Y      Z   
After scan for Atom:   Atom  AN      X      Y      Z        X      Y      Z        X      Y      Z   
After scan for Atom:   Atom  AN      X      Y      Z        X      Y      Z        X      Y      Z   
After scan for Atom:   Atom  AN      X      Y      Z        X      Y      Z        X      Y      Z   
After scan for Atom:   Atom  AN      X      Y      Z        X      Y      Z        X      Y      Z   
After scan for Atom:   Atom  AN      X      Y      Z        X      Y      Z        X      Y      Z   
After scan for Atom:   Atom  AN      X      Y      Z        X      Y      Z        X      Y      Z   
After scan for Atom:   Atom  AN      X      Y      Z        X      Y      Z        X      Y      Z   
After scan for Atom:   Atom  AN      X      Y      Z        X      Y      Z        X      Y      Z   
After scan for Atom:   Atom  AN      X      Y      Z        X      Y      Z        X      Y      Z   
After scan for Atom:   Atom  AN      X      Y      Z        X      Y      Z        X      Y      Z   
After scan for Atom:   Atom  AN      X      Y      Z        X      Y      Z        X      Y      Z   
After scan for Atom:   Atom  AN      X      Y      Z        X      Y      Z        X      Y      Z   
After scan for Atom:   Atom  AN      X      Y      Z        X      Y      Z        X      Y      Z   
After scan for Atom:   Atom  AN      X      Y      Z        X      Y      Z        X      Y      Z   
After scan for Atom:   Atom  AN      X      Y      Z        X      Y      Z        X      Y      Z   
After scan for Atom:   Atom  AN      X      Y      Z        X      Y      Z        X      Y      Z   
After scan for Atom:   Atom  AN      X      Y      Z        X      Y      Z        X      Y      Z   
After scan for Atom:   Atom  AN      X      Y      Z        X      Y      Z        X      Y      Z   
After scan for Atom:   Atom  AN      X      Y      Z        X      Y      Z        X      Y      Z   
After scan for Atom:   Atom  AN      X      Y      Z        X      Y      Z        X      Y      Z   
After scan for Atom:   Atom  AN      X      Y      Z        X      Y      Z        X      Y      Z   
After scan for Atom:   Atom  AN      X      Y      Z        X      Y      Z        X      Y      Z   
After scan for Atom:   Atom  AN      X      Y      Z        X      Y      Z        X      Y      Z   
After scan for Atom:   Atom  AN      X      Y      Z        X      Y      Z        X      Y      Z   
After scan for Atom:   Atom  AN      X      Y      Z        X      Y      Z        X      Y      Z   
After scan for Atom:   Atom  AN      X      Y      Z        X      Y      Z        X      Y      Z   
After scan for Atom:   Atom  AN      X      Y      Z        X      Y      Z        X      Y      Z   
After scan for Atom:   Atom  AN      X      Y      Z        X      Y      Z        X      Y      Z   
After scan for Atom:   Atom  AN      X      Y      Z        X      Y      Z        X      Y      Z   
After scan for Atom:   Atom  AN      X      Y      Z        X      Y      Z        X      Y      Z   
After scan for Atom:   Atom  AN      X      Y      Z        X      Y      Z        X      Y      Z   
After scan for Atom:   Atom  AN      X      Y      Z        X      Y      Z        X      Y      Z   
After scan for Atom:   Atom  AN      X      Y      Z        X      Y      Z        X      Y      Z   
After scan for Atom:   Atom  AN      X      Y      Z        X      Y      Z        X      Y      Z   
After scan for Atom:   Atom  AN      X      Y      Z        X      Y      Z        X      Y      Z   
After scan for Atom:   Atom  AN      X      Y      Z        X      Y      Z        X      Y      Z   
After scan for Atom:   Atom  AN      X      Y      Z        X      Y      Z        X      Y      Z   
After scan for Atom:   Atom  AN      X      Y      Z        X      Y      Z        X      Y      Z   
After scan for Atom:   Atom  AN      X      Y      Z        X      Y      Z        X      Y      Z   
After scan for Atom:   Atom  AN      X      Y      Z        X      Y      Z        X      Y      Z   
After scan for Atom:   Atom  AN      X      Y      Z        X      Y      Z        X      Y      Z   
After scan for Atom:   Atom  AN      X      Y      Z        X      Y      Z        X      Y      Z   
After scan for Atom:   Atom  AN      X      Y      Z        X      Y      Z        X      Y      Z   
After scan for Atom:   Atom  AN      X      Y      Z        X      Y      Z        X      Y      Z   
After scan for Atom:   Atom  AN      X      Y      Z        X      Y      Z        X      Y      Z   
After scan for Atom:   Atom  AN      X      Y      Z        X      Y      Z        X      Y      Z   
After scan for Atom:   Atom  AN      X      Y      Z        X      Y      Z        X      Y      Z   
After scan for Atom:   Atom  AN      X      Y      Z        X      Y      Z        X      Y      Z   
After scan for Atom:   Atom  AN      X      Y      Z        X      Y      Z        X      Y      Z   
After scan for Atom:   Atom  AN      X      Y      Z        X      Y      Z        X      Y      Z   
After scan for Atom:   Atom  AN      X      Y      Z        X      Y      Z        X      Y      Z   
After scan for Atom:   Atom  AN      X      Y      Z        X      Y      Z        X      Y      Z   
After scan for Atom:   Atom  AN      X      Y      Z        X      Y      Z        X      Y      Z   
After scan for Atom:   Atom  AN      X      Y      Z        X      Y      Z        X      Y      Z   
After scan for Atom:   Atom  AN      X      Y      Z        X      Y      Z        X      Y      Z   
After scan for Atom:   Atom  AN      X      Y      Z        X      Y      Z        X      Y      Z   
After scan for Atom:   Atom  AN      X      Y      Z        X      Y      Z        X      Y      Z   
After scan for Atom:   Atom  AN      X      Y      Z        X      Y      Z        X      Y      Z   
After scan for Atom:   Atom  AN      X      Y      Z        X      Y      Z        X      Y      Z   
After scan for Atom:   Atom  AN      X      Y      Z        X      Y      Z        X      Y      Z   
After scan for Atom:   Atom  AN      X      Y      Z        X      Y      Z        X      Y      Z   
After scan for Atom:   Atom  AN      X      Y      Z        X      Y      Z        X      Y      Z   
After scan for Atom:   Atom  AN      X      Y      Z        X      Y      Z        X      Y      Z   
After scan for Atom:   Atom  AN      X      Y      Z        X      Y      Z        X      Y      Z   
After scan for Atom:   Atom  AN      X      Y      Z        X      Y      Z        X      Y      Z   
 g94    frequencies=
     0.0    0.0    0.0    0.0    0.0    0.0    7.3   13.7   14.8   25.3
    28.1   40.2   55.0   57.8   65.4   70.6   86.0   92.1   94.0  105.2
   111.4  125.9  140.5  155.1  169.5  181.1  189.4  196.6  204.3  212.5
   223.9  233.0  234.5  236.0  252.1  263.6  276.8  290.6  299.6  310.6
   333.6  343.9  349.3  364.6  372.8  394.0  395.9  409.4  418.2  428.3
   435.3  442.8  443.2  448.2  454.0  464.1  467.1  471.4  499.1  503.6
   504.0  509.5  517.2  525.5  534.1  547.8  559.8  571.8  579.5  582.9
[...]
    1.    1.    1.    1.   -3.   -0.    0.    2.    1.   -1.    1.   -1.   -0.   -2.    3.   -0.    0.   -0.    1.   -0.
   -1.    1.    2.    1.   -0.   -0.    0.    1.   -2.    2.  -12.   -0.   16.   -1.   -0.   -1.   -1.    0.   -1.   -0.
   -0.    2.    0.   -3.    5.    1.   -1.   -4.   -1.   -0.   -1.   -0.  -10.    3.   -0.   -0.    3.   -9.    4.   -8.
    7.    1.    7.   -6.   -6.    4.   -1.    0.    0.    0.   -5.    7.   -0.   -4.   -3.    3.    1.    0.    2.   -3.
    1.   33.    1.    0.  -26.   -2.   -5.   -3.   -4.    0.   -1.    0.   -2.   -1.    0.   -0.   -0.    8.   -1.    0.
   -1.    1.   -2.    0.   -2.   -1.   -0.   -0.    0.    0.    0.   -2.   -5.   -2.    1.   -0.   -1.    5.    0.    0.
    0.    0.   -0.    0.    0.   -1.    0.    0.   -0.    0.    0.    0.   -0.   -0.   -0.   -0.    0.    0.    0.    1.
    1.    0.

 Displacement: in terms of nc of 1 THEN of nc of 2

   1     freq=    -0. Q= -0.000 lam=    -0.0     freq=    -0. Q= -0.000 lam=    -0.0
   2     freq=    -0. Q= -0.000 lam=    -0.0     freq=    -0. Q= -0.000 lam=    -0.0
   3     freq=     0. Q= -0.000 lam=     0.0     freq=    -0. Q= -0.000 lam=    -0.0
   4     freq=     0. Q= -0.000 lam=     0.0     freq=     0. Q= -0.000 lam=     0.0
   5     freq=     0. Q=  0.000 lam=     0.0     freq=     0. Q=  0.000 lam=     0.0
   6     freq=     0. Q= -0.000 lam=     0.0     freq=     0. Q= -0.000 lam=     0.0
   7     freq=     6. Q=-11.788 lam=   384.7     freq=     7. Q= -3.905 lam=    55.6
   8     freq=     9. Q= -3.470 lam=    53.6     freq=    14. Q= -9.236 lam=   586.3
   9     freq=    12. Q= -2.705 lam=    43.0     freq=    15. Q=-13.207 lam=  1289.4
  10     freq=    22. Q= -1.582 lam=    27.6     freq=    25. Q= -0.228 lam=     0.7
  11     freq=    28. Q=  1.018 lam=    14.7     freq=    28. Q=  0.128 lam=     0.2
  12     freq=    40. Q=  5.117 lam=   525.6     freq=    40. Q=  1.124 lam=    25.4
  13     freq=    43. Q=  5.579 lam=   674.1     freq=    55. Q=  0.310 lam=     2.6
  14     freq=    52. Q= -3.319 lam=   288.4     freq=    58. Q= -2.779 lam=   223.3
  15     freq=    56. Q= -4.817 lam=   646.9     freq=    65. Q=-21.161 lam= 14638.2
  16     freq=    66. Q=  0.419 lam=     5.8     freq=    71. Q=  5.235 lam=   967.5
  17     freq=    75. Q= -2.793 lam=   293.5     freq=    86. Q= -5.767 lam=  1429.7
  18     freq=    87. Q=  1.993 lam=   172.0     freq=    92. Q=  3.193 lam=   469.6
  19     freq=    96. Q=  0.036 lam=     0.1     freq=    94. Q=  6.997 lam=  2302.0
  20     freq=    99. Q=  3.356 lam=   558.3     freq=   105. Q=  3.296 lam=   571.5
  21     freq=   105. Q=  0.943 lam=    46.6     freq=   111. Q= 12.665 lam=  8934.8
  22     freq=   122. Q= -1.212 lam=    89.3     freq=   126. Q= -0.459 lam=    13.3
  23     freq=   134. Q=  0.085 lam=     0.5     freq=   141. Q=  0.891 lam=    55.8
  24     freq=   144. Q= -0.736 lam=    39.0     freq=   155. Q= -0.475 lam=    17.5
  25     freq=   164. Q=  3.817 lam=  1191.2     freq=   169. Q=  4.148 lam=  1457.8
  26     freq=   175. Q= -1.450 lam=   183.4     freq=   181. Q= -1.592 lam=   229.5
  27     freq=   182. Q= -0.562 lam=    28.7     freq=   189. Q= -0.256 lam=     6.2
  28     freq=   189. Q= -2.733 lam=   703.9     freq=   197. Q= -1.807 lam=   321.1
  29     freq=   204. Q= -0.930 lam=    88.1     freq=   204. Q= -0.214 lam=     4.7
  30     freq=   206. Q= -1.623 lam=   271.9     freq=   212. Q= -1.417 lam=   213.4
  31     freq=   218. Q=  1.932 lam=   406.0     freq=   224. Q=  0.162 lam=     2.9
  32     freq=   228. Q= -1.791 lam=   366.0     freq=   233. Q= -1.841 lam=   395.0
  33     freq=   235. Q=  4.462 lam=  2337.0     freq=   235. Q=  4.755 lam=  2651.4
  34     freq=   237. Q= -0.808 lam=    77.3     freq=   236. Q= -1.034 lam=   126.2
  35     freq=   253. Q= -0.359 lam=    16.4     freq=   252. Q= -0.050 lam=     0.3
  36     freq=   264. Q= -0.754 lam=    74.9     freq=   264. Q= -0.402 lam=    21.3
  37     freq=   272. Q= -0.449 lam=    27.4     freq=   277. Q= -0.518 lam=    37.1
  38     freq=   282. Q= -2.491 lam=   876.1     freq=   291. Q= -5.106 lam=  3788.0
  39     freq=   290. Q= -4.308 lam=  2692.6     freq=   300. Q= -0.462 lam=    32.0
  40     freq=   315. Q=  0.270 lam=    11.5     freq=   311. Q=  0.102 lam=     1.6
  41     freq=   330. Q=  1.203 lam=   238.5     freq=   334. Q=  3.177 lam=  1683.5
  42     freq=   341. Q=  1.492 lam=   379.3     freq=   344. Q=  0.095 lam=     1.6
  43     freq=   355. Q= -0.442 lam=    34.8     freq=   349. Q= -4.543 lam=  3605.3
  44     freq=   359. Q= -0.383 lam=    26.3     freq=   365. Q= -1.591 lam=   461.7
  45     freq=   381. Q=  0.058 lam=     0.6     freq=   373. Q=  1.758 lam=   576.0
  46     freq=   391. Q=  0.031 lam=     0.2     freq=   394. Q=  0.620 lam=    75.7
  47     freq=   395. Q= -1.199 lam=   284.0     freq=   396. Q= -0.071 lam=     1.0
  48     freq=   420. Q=  0.039 lam=     0.3     freq=   409. Q=  3.483 lam=  2483.8
  49     freq=   431. Q=  1.530 lam=   504.6     freq=   418. Q=  0.083 lam=     1.4
  50     freq=   436. Q= -1.951 lam=   829.6     freq=   428. Q= -0.114 lam=     2.8
  51     freq=   437. Q=  0.004 lam=     0.0     freq=   435. Q=  1.994 lam=   865.2
  52     freq=   439. Q= -0.645 lam=    91.1     freq=   443. Q= -0.740 lam=   121.2
  53     freq=   446. Q= -1.513 lam=   510.8     freq=   443. Q= -0.104 lam=     2.4
  54     freq=   448. Q=  0.013 lam=     0.0     freq=   448. Q=  0.234 lam=    12.3
  55     freq=   452. Q= -2.044 lam=   943.4     freq=   454. Q= -2.754 lam=  1721.3
  56     freq=   467. Q= -2.073 lam=  1003.1     freq=   464. Q= -0.108 lam=     2.7
  57     freq=   470. Q= -0.189 lam=     8.4     freq=   467. Q= -0.875 lam=   178.8
  58     freq=   480. Q=  0.878 lam=   184.9     freq=   471. Q=  2.982 lam=  2095.7
  59     freq=   480. Q= -0.235 lam=    13.2     freq=   499. Q= -1.042 lam=   271.2
  60     freq=   484. Q=  1.377 lam=   458.1     freq=   504. Q=  0.772 lam=   150.1
  61     freq=   499. Q=  0.279 lam=    19.4     freq=   504. Q=  0.133 lam=     4.4
  62     freq=   512. Q= -0.053 lam=     0.7     freq=   509. Q= -0.436 lam=    48.5
  63     freq=   519. Q= -0.007 lam=     0.0     freq=   517. Q= -0.067 lam=     1.2
  64     freq=   534. Q= -0.304 lam=    24.6     freq=   526. Q= -0.172 lam=     7.7
  65     freq=   535. Q=  0.086 lam=     2.0     freq=   534. Q=  0.267 lam=    19.1
  66     freq=   552. Q=  0.707 lam=   137.9     freq=   548. Q=  0.533 lam=    77.8
  67     freq=   561. Q=  0.021 lam=     0.1     freq=   560. Q=  0.058 lam=     0.9
  68     freq=   571. Q=  0.061 lam=     1.1     freq=   572. Q=  0.101 lam=     2.9
  69     freq=   578. Q= -0.038 lam=     0.4     freq=   580. Q= -0.029 lam=     0.2
  70     freq=   585. Q=  0.191 lam=    10.6     freq=   583. Q=  0.424 lam=    52.3
  71     freq=   586. Q= -0.255 lam=    19.1     freq=   592. Q= -0.465 lam=    64.1
  72     freq=   597. Q= -0.458 lam=    62.7     freq=   597. Q= -0.076 lam=     1.7
  73     freq=   612. Q=  0.510 lam=    79.4     freq=   605. Q=  0.014 lam=     0.1
  74     freq=   623. Q=  0.018 lam=     0.1     freq=   624. Q=  0.011 lam=     0.0
  75     freq=   631. Q= -0.024 lam=     0.2     freq=   626. Q= -0.005 lam=     0.0
  76     freq=   633. Q= -0.069 lam=     1.5     freq=   636. Q= -0.120 lam=     4.6
  77     freq=   647. Q=  0.151 lam=     7.4     freq=   647. Q=  0.010 lam=     0.0
  78     freq=   659. Q=  0.166 lam=     9.1     freq=   659. Q=  0.169 lam=     9.4
  79     freq=   665. Q=  0.124 lam=     5.1     freq=   662. Q=  0.155 lam=     8.0
  80     freq=   667. Q= -0.024 lam=     0.2     freq=   667. Q= -0.011 lam=     0.0
  81     freq=   697. Q=  0.053 lam=     1.0     freq=   690. Q=  0.130 lam=     5.8
  82     freq=   698. Q=  0.138 lam=     6.7     freq=   709. Q=  0.146 lam=     7.6
  83     freq=   712. Q= -0.127 lam=     5.7     freq=   713. Q= -0.084 lam=     2.5
  84     freq=   714. Q= -0.031 lam=     0.3     freq=   715. Q= -0.097 lam=     3.4
  85     freq=   717. Q=  0.062 lam=     1.4     freq=   730. Q=  0.306 lam=    34.2
  86     freq=   726. Q=  0.038 lam=     0.5     freq=   740. Q=  0.034 lam=     0.4
  87     freq=   742. Q= -0.095 lam=     3.4     freq=   741. Q= -0.012 lam=     0.1
  88     freq=   746. Q=  0.098 lam=     3.6     freq=   748. Q=  0.186 lam=    13.0
  89     freq=   751. Q= -0.036 lam=     0.5     freq=   758. Q= -0.088 lam=     3.0
  90     freq=   763. Q= -0.022 lam=     0.2     freq=   758. Q= -0.102 lam=     3.9
  91     freq=   772. Q=  0.042 lam=     0.7     freq=   770. Q=  0.107 lam=     4.4
  92     freq=   786. Q= -0.169 lam=    11.2     freq=   786. Q= -0.141 lam=     7.8
  93     freq=   800. Q= -0.022 lam=     0.2     freq=   802. Q= -0.045 lam=     0.8
  94     freq=   803. Q= -0.125 lam=     6.3     freq=   808. Q= -0.210 lam=    17.8
  95     freq=   811. Q=  0.082 lam=     2.7     freq=   810. Q=  0.317 lam=    40.7
  96     freq=   817. Q= -0.206 lam=    17.3     freq=   815. Q= -0.006 lam=     0.0
  97     freq=   822. Q= -0.008 lam=     0.0     freq=   816. Q= -0.029 lam=     0.3
  98     freq=   834. Q=  0.011 lam=     0.1     freq=   820. Q=  0.014 lam=     0.1
  99     freq=   836. Q=  0.166 lam=    11.5     freq=   822. Q=  0.100 lam=     4.1
 100     freq=   844. Q=  0.254 lam=    27.1     freq=   825. Q=  0.026 lam=     0.3
 101     freq=   855. Q=  0.107 lam=     4.9     freq=   831. Q=  0.085 lam=     3.0
 102     freq=   858. Q=  0.342 lam=    50.3     freq=   837. Q=  0.102 lam=     4.4
 103     freq=   865. Q=  0.017 lam=     0.1     freq=   838. Q=  0.210 lam=    18.4
 104     freq=   865. Q= -0.025 lam=     0.3     freq=   849. Q= -0.094 lam=     3.8
 105     freq=   870. Q=  0.023 lam=     0.2     freq=   857. Q=  0.009 lam=     0.0
 106     freq=   872. Q= -0.005 lam=     0.0     freq=   861. Q= -0.014 lam=     0.1
 107     freq=   877. Q=  0.024 lam=     0.3     freq=   903. Q=  0.004 lam=     0.0
 108     freq=   912. Q=  0.152 lam=    10.6     freq=   908. Q=  0.155 lam=    10.9
 109     freq=   923. Q= -0.163 lam=    12.3     freq=   919. Q= -0.203 lam=    18.9
 110     freq=   928. Q=  0.148 lam=    10.1     freq=   930. Q=  0.287 lam=    38.2
 111     freq=   937. Q=  0.003 lam=     0.0     freq=   943. Q=  1.485 lam=  1039.2
 112     freq=   946. Q=  1.387 lam=   909.3     freq=   950. Q=  0.008 lam=     0.0
 113     freq=   957. Q= -2.127 lam=  2165.3     freq=   955. Q= -2.052 lam=  2010.2
 114     freq=   958. Q= -0.027 lam=     0.3     freq=   957. Q= -0.153 lam=    11.3
 115     freq=   965. Q= -0.061 lam=     1.8     freq=   962. Q= -0.046 lam=     1.0
 116     freq=   970. Q=  0.290 lam=    40.8     freq=   970. Q=  0.076 lam=     2.8
 117     freq=   980. Q=  0.384 lam=    72.2     freq=   973. Q=  0.118 lam=     6.8
 118     freq=   987. Q= -0.152 lam=    11.4     freq=   973. Q= -0.035 lam=     0.6
 119     freq=   992. Q= -0.016 lam=     0.1     freq=   975. Q= -0.131 lam=     8.3
 120     freq=   997. Q=  0.007 lam=     0.0     freq=   983. Q=  0.013 lam=     0.1
 121     freq=  1001. Q= -0.007 lam=     0.0     freq=   986. Q= -0.025 lam=     0.3
 122     freq=  1002. Q= -0.164 lam=    13.5     freq=   987. Q= -0.293 lam=    42.3
 123     freq=  1006. Q=  0.006 lam=     0.0     freq=   997. Q=  0.026 lam=     0.3
 124     freq=  1029. Q=  0.132 lam=     8.9     freq=  1024. Q=  0.341 lam=    59.5
 125     freq=  1035. Q= -0.088 lam=     4.0     freq=  1031. Q= -0.669 lam=   230.5
 126     freq=  1063. Q=  0.042 lam=     0.9     freq=  1066. Q=  0.139 lam=    10.3
 127     freq=  1081. Q= -0.064 lam=     2.2     freq=  1079. Q= -0.162 lam=    14.1
 128     freq=  1101. Q=  0.387 lam=    82.5     freq=  1082. Q=  0.538 lam=   156.7
 129     freq=  1110. Q=  0.015 lam=     0.1     freq=  1094. Q=  0.129 lam=     9.0
 130     freq=  1134. Q=  0.057 lam=     1.8     freq=  1107. Q=  0.059 lam=     1.9
 131     freq=  1149. Q=  0.002 lam=     0.0     freq=  1146. Q=  0.168 lam=    16.2
 132     freq=  1150. Q=  0.006 lam=     0.0     freq=  1152. Q=  0.051 lam=     1.5
 133     freq=  1156. Q= -1.497 lam=  1294.6     freq=  1155. Q= -1.370 lam=  1084.3
 134     freq=  1160. Q=  0.132 lam=    10.2     freq=  1158. Q=  0.455 lam=   120.0
 135     freq=  1166. Q=  0.172 lam=    17.3     freq=  1164. Q=  0.044 lam=     1.1
 136     freq=  1172. Q= -0.770 lam=   347.1     freq=  1164. Q= -0.003 lam=     0.0
 137     freq=  1176. Q=  0.011 lam=     0.1     freq=  1174. Q=  0.377 lam=    83.5
 138     freq=  1194. Q= -1.435 lam=  1229.4     freq=  1188. Q= -1.298 lam=  1001.4
 139     freq=  1200. Q=  0.538 lam=   174.0     freq=  1190. Q=  0.597 lam=   212.1
 140     freq=  1205. Q= -0.130 lam=    10.1     freq=  1196. Q= -1.104 lam=   729.1
 141     freq=  1210. Q=  0.416 lam=   105.0     freq=  1199. Q=  0.997 lam=   595.7
 142     freq=  1212. Q=  0.058 lam=     2.0     freq=  1205. Q=  0.169 lam=    17.1
 143     freq=  1221. Q=  0.267 lam=    43.4     freq=  1220. Q=  0.994 lam=   602.4
 144     freq=  1221. Q=  0.536 lam=   175.6     freq=  1226. Q=  0.822 lam=   414.2
 145     freq=  1235. Q=  0.231 lam=    32.8     freq=  1230. Q=  0.807 lam=   400.9
 146     freq=  1241. Q= -0.729 lam=   329.7     freq=  1236. Q= -0.590 lam=   214.7
 147     freq=  1251. Q= -0.268 lam=    45.0     freq=  1247. Q= -0.127 lam=    10.0
 148     freq=  1260. Q= -0.046 lam=     1.3     freq=  1265. Q= -0.024 lam=     0.4
 149     freq=  1268. Q=  0.098 lam=     6.1     freq=  1280. Q=  0.056 lam=     2.0
 150     freq=  1269. Q=  0.226 lam=    32.4     freq=  1280. Q=  0.053 lam=     1.8
 151     freq=  1309. Q=  0.415 lam=   112.8     freq=  1298. Q=  0.673 lam=   294.0
 152     freq=  1314. Q=  0.029 lam=     0.6     freq=  1304. Q=  1.005 lam=   658.5
 153     freq=  1316. Q= -0.033 lam=     0.7     freq=  1318. Q= -0.012 lam=     0.1
 154     freq=  1326. Q= -0.266 lam=    47.0     freq=  1328. Q= -0.547 lam=   198.5
 155     freq=  1333. Q= -0.004 lam=     0.0     freq=  1337. Q= -0.462 lam=   142.4
 156     freq=  1337. Q=  0.073 lam=     3.6     freq=  1341. Q=  0.496 lam=   164.6
 157     freq=  1356. Q= -0.073 lam=     3.6     freq=  1346. Q= -0.099 lam=     6.6
 158     freq=  1361. Q=  0.221 lam=    33.3     freq=  1358. Q=  0.048 lam=     1.6
 159     freq=  1369. Q= -0.087 lam=     5.2     freq=  1363. Q= -0.305 lam=    63.6
 160     freq=  1375. Q= -0.204 lam=    28.5     freq=  1368. Q= -0.444 lam=   134.8
 161     freq=  1382. Q= -5.871 lam= 23822.9     freq=  1372. Q= -0.211 lam=    30.6
 162     freq=  1385. Q=  0.904 lam=   566.5     freq=  1384. Q=  4.945 lam= 16921.4
 163     freq=  1401. Q= -1.968 lam=  2713.7     freq=  1393. Q= -0.156 lam=    17.0
 164     freq=  1404. Q= -0.328 lam=    75.6     freq=  1393. Q= -0.042 lam=     1.2
 165     freq=  1407. Q=  0.054 lam=     2.0     freq=  1397. Q=  3.850 lam= 10352.9
 166     freq=  1417. Q=  0.102 lam=     7.3     freq=  1410. Q=  0.238 lam=    40.0
 167     freq=  1421. Q= -0.228 lam=    37.0     freq=  1424. Q= -0.704 lam=   352.8
 168     freq=  1429. Q= -0.019 lam=     0.3     freq=  1430. Q= -0.389 lam=   108.2
 169     freq=  1437. Q=  0.768 lam=   424.1     freq=  1438. Q=  0.654 lam=   307.2
 170     freq=  1438. Q= -0.236 lam=    39.9     freq=  1444. Q= -0.009 lam=     0.1
 171     freq=  1446. Q=  0.070 lam=     3.5     freq=  1458. Q=  0.119 lam=    10.3
 172     freq=  1455. Q= -0.285 lam=    59.1     freq=  1463. Q= -0.062 lam=     2.9
 173     freq=  1458. Q=  0.019 lam=     0.3     freq=  1465. Q=  0.315 lam=    72.5
 174     freq=  1470. Q= -0.425 lam=   132.9     freq=  1470. Q= -0.174 lam=    22.1
 175     freq=  1477. Q= -0.179 lam=    23.8     freq=  1471. Q= -0.018 lam=     0.2
 176     freq=  1485. Q= -1.122 lam=   934.6     freq=  1477. Q= -0.036 lam=     1.0
 177     freq=  1491. Q=  0.018 lam=     0.2     freq=  1483. Q=  0.014 lam=     0.2
 178     freq=  1498. Q=  0.082 lam=     5.0     freq=  1484. Q=  1.191 lam=  1052.0
 179     freq=  1505. Q=  0.281 lam=    59.6     freq=  1487. Q=  0.100 lam=     7.4
 180     freq=  1506. Q= -0.020 lam=     0.3     freq=  1495. Q= -0.075 lam=     4.2
 181     freq=  1523. Q=  0.185 lam=    26.1     freq=  1507. Q=  0.215 lam=    34.8
 182     freq=  1527. Q= -0.114 lam=     9.8     freq=  1524. Q= -0.223 lam=    37.9
 183     freq=  1535. Q= -0.097 lam=     7.2     freq=  1535. Q= -0.317 lam=    77.1
 184     freq=  1543. Q= -0.017 lam=     0.2     freq=  1537. Q= -0.002 lam=     0.0
 185     freq=  1559. Q=  0.066 lam=     3.4     freq=  1541. Q=  0.282 lam=    61.4
 186     freq=  1561. Q= -0.019 lam=     0.3     freq=  1561. Q= -0.177 lam=    24.4
 187     freq=  1604. Q=  0.375 lam=   112.9     freq=  1573. Q=  0.067 lam=     3.5
 188     freq=  1608. Q=  0.007 lam=     0.0     freq=  1574. Q=  0.001 lam=     0.0
 189     freq=  1615. Q= -0.029 lam=     0.7     freq=  1581. Q= -0.018 lam=     0.3
 190     freq=  1620. Q= -0.500 lam=   202.3     freq=  1593. Q= -0.016 lam=     0.2
 191     freq=  1631. Q= -0.047 lam=     1.8     freq=  1613. Q= -0.020 lam=     0.3
 192     freq=  1631. Q=  0.081 lam=     5.3     freq=  1620. Q=  0.312 lam=    78.8
 193     freq=  1648. Q=  0.080 lam=     5.3     freq=  1623. Q=  0.752 lam=   459.2
 194     freq=  1649. Q=  0.023 lam=     0.4     freq=  1631. Q=  0.267 lam=    58.3
 195     freq=  1713. Q=  0.084 lam=     6.0     freq=  1679. Q=  0.097 lam=     7.9
 196     freq=  1734. Q= -0.005 lam=     0.0     freq=  1706. Q= -0.001 lam=     0.0
 197     freq=  1751. Q=  0.180 lam=    28.4     freq=  1715. Q=  0.093 lam=     7.4
 198     freq=  1768. Q=  0.221 lam=    43.3     freq=  1737. Q=  0.758 lam=   498.7
 199     freq=  3028. Q=  0.018 lam=     0.5     freq=  3028. Q=  0.013 lam=     0.2
 200     freq=  3035. Q=  0.021 lam=     0.7     freq=  3033. Q=  0.013 lam=     0.3
 201     freq=  3039. Q=  0.001 lam=     0.0     freq=  3045. Q=  0.013 lam=     0.3
 202     freq=  3055. Q= -0.000 lam=     0.0     freq=  3076. Q= -0.000 lam=     0.0
 203     freq=  3093. Q=  0.006 lam=     0.1     freq=  3085. Q=  0.018 lam=     0.5
 204     freq=  3096. Q=  0.016 lam=     0.4     freq=  3088. Q=  0.000 lam=     0.0
 205     freq=  3113. Q=  0.009 lam=     0.1     freq=  3108. Q=  0.006 lam=     0.1
 206     freq=  3133. Q= -0.180 lam=    50.9     freq=  3131. Q= -0.184 lam=    52.9
 207     freq=  3144. Q=  0.003 lam=     0.0     freq=  3141. Q=  0.000 lam=     0.0
 208     freq=  3176. Q=  0.019 lam=     0.6     freq=  3174. Q=  0.038 lam=     2.3
 209     freq=  3179. Q=  0.025 lam=     1.0     freq=  3190. Q=  0.003 lam=     0.0
 210     freq=  3193. Q=  0.013 lam=     0.3     freq=  3190. Q=  0.002 lam=     0.0
 211     freq=  3194. Q=  0.001 lam=     0.0     freq=  3194. Q=  0.024 lam=     1.0
 212     freq=  3194. Q=  0.000 lam=     0.0     freq=  3196. Q=  0.001 lam=     0.0
 213     freq=  3195. Q= -0.027 lam=     1.1     freq=  3197. Q= -0.001 lam=     0.0
 214     freq=  3199. Q=  0.014 lam=     0.3     freq=  3206. Q=  0.003 lam=     0.0
 215     freq=  3201. Q=  0.000 lam=     0.0     freq=  3207. Q=  0.003 lam=     0.0
 216     freq=  3201. Q=  0.020 lam=     0.6     freq=  3220. Q=  0.002 lam=     0.0
 217     freq=  3201. Q=  0.000 lam=     0.0     freq=  3220. Q=  0.008 lam=     0.1
 218     freq=  3208. Q= -0.002 lam=     0.0     freq=  3222. Q= -0.008 lam=     0.1
 219     freq=  3208. Q=  0.003 lam=     0.0     freq=  3234. Q=  0.017 lam=     0.5
 220     freq=  3218. Q=  0.004 lam=     0.0     freq=  3247. Q=  0.333 lam=   179.7
 221     freq=  3218. Q=  0.006 lam=     0.1     freq=  3248. Q=  0.287 lam=   133.6
 222     freq=  3246. Q= -0.003 lam=     0.0     freq=  3250. Q= -0.006 lam=     0.1

 total reorg energy (cm**-1, kcal/mol)=    56124.    97541.    160.46    278.88
 Nber of molecules processed=           2
