 Enter ifcurve (0=recti, 1=orth curvi, 2=apprx curvi, -1 = skip
 And atom ordering flag, 0= never changes, 1= use the first order thenceforth,
  2= deduce it (does read on fail), 3= always read it
 Reading file: 
 ./Common_Moeties_19_C0S0.log                                                   
                                          
  Entering Gaussian System, Link 0=g16                                          
  
 Gaussian format, type: g94, g98, g03= F F F
  #P Geom=AllCheck Guess=TCheck SCRF=Check GenChk RB3LYP/6-311G(d,p) Fre    
 energy type= B3LYP   
 Original G94 input coords:
  7  2.926927 -2.216164  0.000000
  6  2.348365 -1.213728  0.000000
  6  1.609268 -0.000007  0.000000
  6  2.348454  1.213692  0.000000
  7  2.926260  2.216441  0.000000
  6  0.217878 -0.000009  0.000000
  6 -0.519862 -1.240663  0.000000
  6 -1.865890 -1.335405  0.000000
 16 -2.976165 -0.000044  0.000000
  6 -1.865920  1.335340  0.000000
  6 -0.519889  1.240633  0.000000
  1  0.048052 -2.164233  0.000000
  1 -2.360892 -2.298443  0.000000
  1 -2.360943  2.298366  0.000000
  1  0.048000  2.164225  0.000000
 nber atoms=          15
 Original standard coords:
  7 -2.216010  2.936286  0.000000
  6 -1.213605  2.357670  0.000000
  6  0.000076  1.618508  0.000000
  6  1.213815  2.357629  0.000000
  7  2.216595  2.935381  0.000000
  6  0.000000  0.227118  0.000000
  6 -1.240694 -0.510556  0.000000
  6 -1.335508 -1.856578  0.000000
 16 -0.000206 -2.966925  0.000000
  6  1.335237 -1.856751  0.000000
  6  1.240603 -0.510715  0.000000
  1 -2.164233  0.057408  0.000000
  1 -2.298572 -2.351528  0.000000
  1  2.298237 -2.351826  0.000000
  1  2.164225  0.057124  0.000000
  SCF Done:  E(RB3LYP) =  -815.013300505     A.U. after    1 cycles             
  
          23          40 "  -815.013300505"
After scan for Atom:   Atom  AN      X      Y      Z        X      Y      Z        X      Y      Z   
After scan for Atom:   Atom  AN      X      Y      Z        X      Y      Z        X      Y      Z   
After scan for Atom:   Atom  AN      X      Y      Z        X      Y      Z        X      Y      Z   
After scan for Atom:   Atom  AN      X      Y      Z        X      Y      Z        X      Y      Z   
After scan for Atom:   Atom  AN      X      Y      Z        X      Y      Z        X      Y      Z   
After scan for Atom:   Atom  AN      X      Y      Z        X      Y      Z        X      Y      Z   
After scan for Atom:   Atom  AN      X      Y      Z        X      Y      Z        X      Y      Z   
After scan for Atom:   Atom  AN      X      Y      Z        X      Y      Z        X      Y      Z   
After scan for Atom:   Atom  AN      X      Y      Z        X      Y      Z        X      Y      Z   
After scan for Atom:   Atom  AN      X      Y      Z        X      Y      Z        X      Y      Z   
After scan for Atom:   Atom  AN      X      Y      Z        X      Y      Z        X      Y      Z   
After scan for Atom:   Atom  AN      X      Y      Z        X      Y      Z        X      Y      Z   
After scan for Atom:   Atom  AN      X      Y      Z        X      Y      Z        X      Y      Z   
 g94    frequencies=
     0.0    0.0    0.0    0.0    0.0    0.0   81.8   86.4  122.4  134.0
   202.0  336.1  360.7  379.8  389.8  481.1  528.2  579.1  586.5  610.1
   618.9  667.8  713.2  768.7  779.3  828.1  933.5  982.4  984.1  984.2
  1166.1 1231.5 1232.5 1342.4 1400.5 1431.8 1520.5 1571.2 1652.3 2307.4
  2324.0 3176.5 3176.6 3200.9 3201.2
 g94    symmetries=
                                                A"     A"     A'     A'
      A"     A'     A'     A"     A"     A"     A'     A'     A"     A'
      A'     A"     A'     A"     A'     A"     A'     A"     A"     A'
      A'     A'     A'     A'     A'     A'     A'     A'     A'     A'
      A'     A'     A'     A'     A'
 atomic masses:
 14.0031 12.0000 12.0000 12.0000 14.0031 12.0000 12.0000 12.0000 31.9721 12.0000
 12.0000  1.0078  1.0078  1.0078  1.0078
 looking for force constants in 
 ./Common_Moeties_19_C0S0.fchk                                                  
  
 Cartesian Force Constants                  R   N=        1035                  
  
 n3=          45        1035
 g94-fc frequencies=
    -4.9   -3.4   -0.0   -0.0    0.0    1.6   81.8   86.4  122.4  134.0
   202.0  336.1  360.7  379.8  389.8  481.1  528.2  579.1  586.6  610.2
   618.9  667.8  713.2  768.7  779.4  828.1  933.5  982.4  984.1  984.2
  1166.1 1231.5 1232.6 1342.4 1400.6 1431.8 1520.5 1571.3 1652.4 2307.5
  2324.0 3176.6 3176.6 3201.0 3201.3
 at 99999: n3=          45
 symm operator            1 :  F  nop=           0
 symm operator            2 :  F  nop=           0
 symm operator            3 :  F  nop=           0
 symm operator            4 :  F  nop=           0
 symm operator            5 :  T  nop=           1
 symm operator            6 :  F  nop=           1
 symm operator            7 :  F  nop=           1
 The point group of the molecule is  CS
 enforcing symm op           5  jsymt=           1           1          -1
 cartesian coord symmetries:
 A' :   30 A" :   15
 Symmetry rotation matrix:
   1.00000   0.00000   0.00000
   0.00000   1.00000   0.00000
   0.00000   0.00000   1.00000

 Projecting out zero-frequency components
 generating redundant internal coords
         300        3600          15
 search for int coords
   1 str   2   1   1.157
   2 str   3   2   1.421
   3 str   4   3   1.421
   4 str   5   4   1.157
   5 str   6   3   1.391
   6 str   7   6   1.443
   7 str   8   7   1.349
   8 str   9   8   1.737
   9 str  10   9   1.737
  10 str  11   6   1.443
  11 str  11  10   1.349
  12 str  12   7   1.084
  13 str  13   8   1.083
  14 str  14  10   1.083
  15 str  15  11   1.084
 nber stretches=          15
  16 lin ben   1   2   3
  18 ben   2   3   4
  19 prop tor   2   3   4   5
  20 ben   2   3   6
  21 prop tor   2   3   6   7
  22 prop tor   2   3   6  11
  23 lin ben   3   4   5
  25 ben   3   6   7
  26 prop tor   3   6   7   8
  27 prop tor   3   6   7  12
  28 ben   3   6  11
  29 prop tor   3   6  11  10
  30 prop tor   3   6  11  15
  31 ben   4   3   6
  32 prop tor   4   3   6   7
  33 prop tor   4   3   6  11
  34 prop tor   6   3   4   5
  35 ben   6   7   8
  36 prop tor   6   7   8   9
  37 prop tor   6   7   8  13
  38 ben   6   7  12
  39 ben   6  11  10
  40 ben   6  11  15
  41 ben   7   6  11
  42 prop tor   7   6  11  10
  43 prop tor   7   6  11  15
  44 ben   7   8   9
  45 prop tor   7   8   9  10
  46 ben   7   8  13
  47 ben   8   7  12
  48 ben   8   9  10
  49 prop tor   8   9  10  11
  50 prop tor   8   9  10  14
  51 ben   9   8  13
  52 ben   9  10  11
  53 prop tor   9  10  11   6
  54 prop tor   9  10  11  15
  55 ben   9  10  14
  56 ben  10  11  15
  57 prop tor  11   6   7   8
  58 prop tor  11   6   7  12
  59 ben  11  10  14
  60 prop tor  12   7   8   9
  61 prop tor  12   7   8  13
  62 prop tor  13   8   9  10
  63 prop tor  14  10  11   6
  64 prop tor  14  10  11  15
  65 lin bend prop tor   2   1   3   4
  66 lin bend prop tor   2   1   3   6
  67 lin bend prop tor   2   3   5   4
  68 lin bend prop tor   6   3   5   4
 nber bend=              23
 nber lin bend=           2
 nber prop tor=          30
 nber impr tor=           0
 nber tot redund int=          68
 Eigenvalues of G in red int coords
    Gval -0.00000000 -0.00000000 -0.00000000 -0.00000000 -0.00000000 -0.00000000 -0.00000000 -0.00000000
    Gval -0.00000000 -0.00000000 -0.00000000 -0.00000000  0.00000000  0.00000000  0.00000000  0.00000000
    Gval  0.00000000  0.00000000  0.00000000  0.00000000  0.00000000  0.00000000  0.00000000  0.00000000
    Gval  0.00000000  0.00000000  0.00000000  0.00000000  0.00000000  0.00000420  0.00000633  0.00001370
    Gval  0.00001724  0.00003272  0.00003289  0.00004352  0.00004443  0.00004640  0.00005513  0.00006527
    Gval  0.00009654  0.00011454  0.00012048  0.00012849  0.00014248  0.00017843  0.00024532  0.00024779
    Gval  0.00032983  0.00036986  0.00043329  0.00056836  0.00059480  0.00059696  0.00062694  0.00063434
    Gval  0.00067370  0.00106002  0.00107677  0.00114960  0.00115990  0.00133546  0.00177297  0.00191353
    Gval  0.00324749  0.00333324  0.57356815  1.13598827
  4.200685310033867E-006  4.200685310033867E-006
  6.334176983920015E-006  4.200685310033867E-006
  1.370033413709727E-005  4.200685310033867E-006
  1.724465155548928E-005  4.200685310033867E-006
  3.271531289979695E-005  4.200685310033867E-006
  3.289207879713297E-005  4.200685310033867E-006
  4.352008943616007E-005  4.200685310033867E-006
  4.442639249457965E-005  4.200685310033867E-006
  4.640217185124600E-005  4.200685310033867E-006
  5.513168479024767E-005  4.200685310033867E-006
  6.527016673119961E-005  4.200685310033867E-006
  9.654188131980453E-005  4.200685310033867E-006
  1.145418524481172E-004  4.200685310033867E-006
  1.204752370628876E-004  4.200685310033867E-006
  1.284860167037351E-004  4.200685310033867E-006
  1.424832076765974E-004  4.200685310033867E-006
  1.784258676841419E-004  4.200685310033867E-006
  2.453179843336516E-004  4.200685310033867E-006
  2.477943470586199E-004  4.200685310033867E-006
  3.298293360576007E-004  4.200685310033867E-006
  3.698631025809691E-004  4.200685310033867E-006
  4.332897525068550E-004  4.200685310033867E-006
  5.683568750272950E-004  4.200685310033867E-006
  5.947988500567847E-004  4.200685310033867E-006
  5.969571848696455E-004  4.200685310033867E-006
  6.269360805378304E-004  4.200685310033867E-006
  6.343350726786874E-004  4.200685310033867E-006
  6.736956964423420E-004  4.200685310033867E-006
  1.060024097195060E-003  4.200685310033867E-006
  1.076770027494358E-003  4.200685310033867E-006
  1.149596861702280E-003  4.200685310033867E-006
  1.159899481149185E-003  4.200685310033867E-006
  1.335457892949409E-003  4.200685310033867E-006
  1.772967051493927E-003  4.200685310033867E-006
  1.913530337043729E-003  4.200685310033867E-006
  3.247489500381000E-003  4.200685310033867E-006
  3.333241691598248E-003  4.200685310033867E-006
  0.573568148690946       4.200685310033867E-006
   1.13598826670357       4.200685310033867E-006
 cut=1d-8, nber non-redundant internal coords=          39
 Check on Eigenvals of non-red overlap matrix:
  0.00000420  0.00000633  0.00001370  0.00001724  0.00003272  0.00003289  0.00004352  0.00004443
  0.00004640  0.00005513  0.00006527  0.00009654  0.00011454  0.00012048  0.00012849  0.00014248
  0.00017843  0.00024532  0.00024779  0.00032983  0.00036986  0.00043329  0.00056836  0.00059480
  0.00059696  0.00062694  0.00063434  0.00067370  0.00106002  0.00107677  0.00114960  0.00115990
  0.00133546  0.00177297  0.00191353  0.00324749  0.00333324  0.57356815  1.13598827
 Checking for correct frequencies
 recalc frequencies=
    -0.0   -0.0   -0.0    0.0    0.0    0.0   81.8   86.4  122.4  134.0
   202.0  336.1  360.7  379.8  389.8  481.1  528.2  579.1  586.6  610.2
   618.9  667.8  713.2  768.7  779.4  828.1  933.5  982.4  984.1  984.2
  1166.1 1231.5 1232.6 1342.4 1400.6 1431.8 1520.5 1571.3 1652.4 2307.5
  2324.0 3176.6 3176.6 3201.0 3201.3
 recalc symmetries=
     A'     A'     A"     A'     A"     A"     A"     A"     A'     A' 
     A"     A'     A'     A"     A"     A"     A'     A'     A"     A' 
     A'     A"     A'     A"     A'     A"     A'     A"     A"     A' 
     A'     A'     A'     A'     A'     A'     A'     A'     A'     A' 
     A'     A'     A'     A'     A' 
 recalc freqs check OK
 Zero-point lengths:
 10.0000 10.0000 10.0000 10.0000 10.0000 10.0000 27.4096 26.6673 22.4049 21.4169
 17.4431 13.5220 13.0533 12.7204 12.5562 11.3023 10.7864 10.3020 10.2363 10.0363
  9.9648  9.5932  9.2831  8.9418  8.8803  8.6151  8.1140  7.9094  7.9028  7.9023
  7.2599  7.0643  7.0614  6.7664  6.6244  6.5517  6.3578  6.2542  6.0988  5.1609
  5.1425  4.3986  4.3986  4.3818  4.3816
 highest evec of mol 1
  0.0001 -0.0002  0.0000
 -0.0002 -0.0000  0.0000
  0.0007  0.0000  0.0000
 -0.0002  0.0000  0.0000
  0.0001  0.0002  0.0000
 -0.0044 -0.0000  0.0000
  0.0529 -0.0453  0.0000
  0.1689  0.1001  0.0000
 -0.0004  0.0000  0.0000
  0.1655 -0.0981  0.0000
  0.0516  0.0443  0.0000
 -0.1792  0.1112  0.0000
 -0.5779 -0.2971  0.0000
 -0.5665  0.2913  0.0000
 -0.1751 -0.1086  0.0000
 generating redundant internal coords
         300        3600          15
 Adding extra bonds for z output only
           7           6           6           6           7           6
           6           6          16           6           6           1
           1           1           1
 search for int coords
   1 str   2   1   1.157
   2 str   3   2   1.421
   3 str   4   3   1.421
   4 str   5   4   1.157
   5 str   6   3   1.391
   6 str   7   6   1.443
   7 str   8   7   1.349
   8 str   9   8   1.737
   9 str  10   9   1.737
  10 str  11   6   1.443
  11 str  11  10   1.349
  12 str  12   7   1.084
  13 str  13   8   1.083
  14 str  14  10   1.083
  15 str  15  11   1.084
 nber stretches=          15
  16 lin ben   1   2   3
  18 ben   2   3   4
  19 prop tor   2   3   4   5
  20 ben   2   3   6
  21 prop tor   2   3   6   7
  22 prop tor   2   3   6  11
  23 lin ben   3   4   5
  25 ben   3   6   7
  26 prop tor   3   6   7   8
  27 prop tor   3   6   7  12
  28 ben   3   6  11
  29 prop tor   3   6  11  10
  30 prop tor   3   6  11  15
  31 ben   4   3   6
  32 prop tor   4   3   6   7
  33 prop tor   4   3   6  11
  34 prop tor   6   3   4   5
  35 ben   6   7   8
  36 prop tor   6   7   8   9
  37 prop tor   6   7   8  13
  38 ben   6   7  12
  39 ben   6  11  10
  40 ben   6  11  15
  41 ben   7   6  11
  42 prop tor   7   6  11  10
  43 prop tor   7   6  11  15
  44 ben   7   8   9
  45 prop tor   7   8   9  10
  46 ben   7   8  13
  47 ben   8   7  12
  48 ben   8   9  10
  49 prop tor   8   9  10  11
  50 prop tor   8   9  10  14
  51 ben   9   8  13
  52 ben   9  10  11
  53 prop tor   9  10  11   6
  54 prop tor   9  10  11  15
  55 ben   9  10  14
  56 ben  10  11  15
  57 prop tor  11   6   7   8
  58 prop tor  11   6   7  12
  59 ben  11  10  14
  60 prop tor  12   7   8   9
  61 prop tor  12   7   8  13
  62 prop tor  13   8   9  10
  63 prop tor  14  10  11   6
  64 prop tor  14  10  11  15
  65 lin bend prop tor   2   1   3   4
  66 lin bend prop tor   2   1   3   6
  67 lin bend prop tor   2   3   5   4
  68 lin bend prop tor   6   3   5   4
 nber bend=              23
 nber lin bend=           2
 nber prop tor=          30
 nber impr tor=           0
 nber tot redund int=          68
 Reading file: 
 ./Common_Moeties_19_C1S0.log                                                   
                                          
  Entering Gaussian System, Link 0=g16                                          
  
 Gaussian format, type: g94, g98, g03= F F F
  #P Geom=AllCheck Guess=TCheck SCRF=Check GenChk UB3LYP/6-311G(d,p) Fre    
 energy type= B3LYP   
 Original G94 input coords:
  7  2.929330 -2.215261  0.000000
  6  2.355797 -1.206492  0.000000
  6  1.630000  0.000073  0.000000
  6  2.355648  1.206707  0.000000
  7  2.929121  2.215444  0.000000
  6  0.186680  0.000012  0.000000
  6 -0.512496 -1.234565  0.000000
  6 -1.879320 -1.328950  0.000000
 16 -2.946385 -0.000118  0.000000
  6 -1.879429  1.328801  0.000000
  6 -0.512597  1.234529  0.000000
  1  0.052783 -2.160166  0.000000
  1 -2.379827 -2.290662  0.000000
  1 -2.380015  2.290473  0.000000
  1  0.052607  2.160175  0.000000
 nber atoms=          15
 Original standard coords:
  7 -2.215457  2.933105  0.000000
  6 -1.206650  2.359640  0.000000
  6 -0.000035  1.633924  0.000000
  6  1.206549  2.359653  0.000000
  7  2.215248  2.933194  0.000000
  6  0.000000  0.190604  0.000000
  6 -1.234529 -0.508655  0.000000
  6 -1.328822 -1.875485  0.000000
 16  0.000081 -2.942461  0.000000
  6  1.328928 -1.875416  0.000000
  6  1.234564 -0.508591  0.000000
  1 -2.160169  0.056562  0.000000
  1 -2.290502 -2.376057  0.000000
  1  2.290633 -2.375937  0.000000
  1  2.160172  0.056676  0.000000
  SCF Done:  E(UB3LYP) =  -814.712902783     A.U. after    1 cycles             
  
          23          40 "  -814.712902783"
After scan for Atom:   Atom  AN      X      Y      Z        X      Y      Z        X      Y      Z   
After scan for Atom:   Atom  AN      X      Y      Z        X      Y      Z        X      Y      Z   
After scan for Atom:   Atom  AN      X      Y      Z        X      Y      Z        X      Y      Z   
After scan for Atom:   Atom  AN      X      Y      Z        X      Y      Z        X      Y      Z   
After scan for Atom:   Atom  AN      X      Y      Z        X      Y      Z        X      Y      Z   
After scan for Atom:   Atom  AN      X      Y      Z        X      Y      Z        X      Y      Z   
After scan for Atom:   Atom  AN      X      Y      Z        X      Y      Z        X      Y      Z   
After scan for Atom:   Atom  AN      X      Y      Z        X      Y      Z        X      Y      Z   
After scan for Atom:   Atom  AN      X      Y      Z        X      Y      Z        X      Y      Z   
After scan for Atom:   Atom  AN      X      Y      Z        X      Y      Z        X      Y      Z   
After scan for Atom:   Atom  AN      X      Y      Z        X      Y      Z        X      Y      Z   
After scan for Atom:   Atom  AN      X      Y      Z        X      Y      Z        X      Y      Z   
After scan for Atom:   Atom  AN      X      Y      Z        X      Y      Z        X      Y      Z   
 g94    frequencies=
     0.0    0.0    0.0    0.0    0.0    0.0   60.7   94.1  121.7  130.9
   215.9  322.9  354.0  361.1  396.2  406.0  513.1  582.5  593.0  606.0
   617.7  673.8  759.3  815.2  815.3  840.3  952.4  992.0  995.2 1003.6
  1176.2 1225.2 1249.5 1310.5 1340.0 1449.1 1450.0 1495.1 1605.2 2221.9
  2268.4 3182.6 3182.9 3199.7 3200.4
 g94    symmetries=
                                                A"     A"     A'     A'
      A"     A'     A"     A'     A"     A"     A'     A'     A"     A'
      A'     A"     A'     A'     A"     A"     A'     A"     A"     A'
      A'     A'     A'     A'     A'     A'     A'     A'     A'     A'
      A'     A'     A'     A'     A'
 atomic masses:
 14.0031 12.0000 12.0000 12.0000 14.0031 12.0000 12.0000 12.0000 31.9721 12.0000
 12.0000  1.0078  1.0078  1.0078  1.0078
 looking for force constants in 
 ./Common_Moeties_19_C1S0.fchk                                                  
  
 Cartesian Force Constants                  R   N=        1035                  
  
 n3=          45        1035
 g94-fc frequencies=
    -1.8   -1.4   -0.0    0.0    0.0    4.7   60.7   94.1  121.7  130.9
   215.9  322.9  354.0  361.1  396.2  406.0  513.1  582.5  593.1  606.0
   617.7  673.9  759.3  815.2  815.3  840.3  952.5  992.0  995.2 1003.6
  1176.2 1225.2 1249.5 1310.5 1340.0 1449.1 1450.0 1495.1 1605.3 2221.9
  2268.5 3182.7 3182.9 3199.8 3200.4
 at 99999: n3=          45
 symm operator            1 :  F  nop=           0
 symm operator            2 :  F  nop=           0
 symm operator            3 :  F  nop=           0
 symm operator            4 :  F  nop=           0
 symm operator            5 :  T  nop=           1
 symm operator            6 :  F  nop=           1
 symm operator            7 :  F  nop=           1
 The point group of the molecule is  CS
 enforcing symm op           5  jsymt=           1           1          -1
 cartesian coord symmetries:
 A' :   30 A" :   15
 Symmetry rotation matrix:
   1.00000   0.00000   0.00000
   0.00000   1.00000   0.00000
   0.00000   0.00000   1.00000

 Projecting out zero-frequency components
 generating redundant internal coords
         300        3600          15
 search for int coords
   1 str   2   1   1.160
   2 str   3   2   1.408
   3 str   4   3   1.408
   4 str   5   4   1.160
   5 str   6   3   1.443
   6 str   7   6   1.419
   7 str   8   7   1.370
   8 str   9   8   1.704
   9 str  10   9   1.704
  10 str  11   6   1.419
  11 str  11  10   1.370
  12 str  12   7   1.085
  13 str  13   8   1.084
  14 str  14  10   1.084
  15 str  15  11   1.085
 nber stretches=          15
  16 lin ben   1   2   3
  18 ben   2   3   4
  19 prop tor   2   3   4   5
  20 ben   2   3   6
  21 prop tor   2   3   6   7
  22 prop tor   2   3   6  11
  23 lin ben   3   4   5
  25 ben   3   6   7
  26 prop tor   3   6   7   8
  27 prop tor   3   6   7  12
  28 ben   3   6  11
  29 prop tor   3   6  11  10
  30 prop tor   3   6  11  15
  31 ben   4   3   6
  32 prop tor   4   3   6   7
  33 prop tor   4   3   6  11
  34 prop tor   6   3   4   5
  35 ben   6   7   8
  36 prop tor   6   7   8   9
  37 prop tor   6   7   8  13
  38 ben   6   7  12
  39 ben   6  11  10
  40 ben   6  11  15
  41 ben   7   6  11
  42 prop tor   7   6  11  10
  43 prop tor   7   6  11  15
  44 ben   7   8   9
  45 prop tor   7   8   9  10
  46 ben   7   8  13
  47 ben   8   7  12
  48 ben   8   9  10
  49 prop tor   8   9  10  11
  50 prop tor   8   9  10  14
  51 ben   9   8  13
  52 ben   9  10  11
  53 prop tor   9  10  11   6
  54 prop tor   9  10  11  15
  55 ben   9  10  14
  56 ben  10  11  15
  57 prop tor  11   6   7   8
  58 prop tor  11   6   7  12
  59 ben  11  10  14
  60 prop tor  12   7   8   9
  61 prop tor  12   7   8  13
  62 prop tor  13   8   9  10
  63 prop tor  14  10  11   6
  64 prop tor  14  10  11  15
  65 lin bend prop tor   2   1   3   4
  66 lin bend prop tor   2   1   3   6
  67 lin bend prop tor   2   3   5   4
  68 lin bend prop tor   6   3   5   4
 nber bend=              23
 nber lin bend=           2
 nber prop tor=          30
 nber impr tor=           0
 nber tot redund int=          68
 Eigenvalues of G in red int coords
    Gval -0.00000000 -0.00000000 -0.00000000 -0.00000000 -0.00000000 -0.00000000 -0.00000000 -0.00000000
    Gval -0.00000000 -0.00000000 -0.00000000 -0.00000000  0.00000000  0.00000000  0.00000000  0.00000000
    Gval  0.00000000  0.00000000  0.00000000  0.00000000  0.00000000  0.00000000  0.00000000  0.00000000
    Gval  0.00000000  0.00000000  0.00000000  0.00000000  0.00000000  0.00000424  0.00000637  0.00001376
    Gval  0.00001713  0.00003280  0.00003300  0.00004370  0.00004423  0.00004662  0.00005498  0.00006547
    Gval  0.00009614  0.00011482  0.00012035  0.00012864  0.00014154  0.00017944  0.00024547  0.00025275
    Gval  0.00033439  0.00037521  0.00041928  0.00053871  0.00059484  0.00059713  0.00062581  0.00063479
    Gval  0.00063874  0.00106013  0.00107823  0.00114651  0.00115869  0.00134778  0.00179040  0.00191197
    Gval  0.00325956  0.00335838  0.52895256  1.11987103
  4.240029763895837E-006  4.240029763895837E-006
  6.372303961049047E-006  4.240029763895837E-006
  1.376005350104594E-005  4.240029763895837E-006
  1.712714102749330E-005  4.240029763895837E-006
  3.280399512886020E-005  4.240029763895837E-006
  3.299656751214345E-005  4.240029763895837E-006
  4.369705473361228E-005  4.240029763895837E-006
  4.423402494973677E-005  4.240029763895837E-006
  4.661578294185904E-005  4.240029763895837E-006
  5.498188292608129E-005  4.240029763895837E-006
  6.547199709704950E-005  4.240029763895837E-006
  9.614060426957845E-005  4.240029763895837E-006
  1.148160949236537E-004  4.240029763895837E-006
  1.203502580121620E-004  4.240029763895837E-006
  1.286428907473241E-004  4.240029763895837E-006
  1.415361252183430E-004  4.240029763895837E-006
  1.794415592666940E-004  4.240029763895837E-006
  2.454689069607756E-004  4.240029763895837E-006
  2.527542921837055E-004  4.240029763895837E-006
  3.343945908609882E-004  4.240029763895837E-006
  3.752145083576339E-004  4.240029763895837E-006
  4.192849689669131E-004  4.240029763895837E-006
  5.387114442902589E-004  4.240029763895837E-006
  5.948355027936839E-004  4.240029763895837E-006
  5.971307297612467E-004  4.240029763895837E-006
  6.258095184700806E-004  4.240029763895837E-006
  6.347920827873610E-004  4.240029763895837E-006
  6.387376778812797E-004  4.240029763895837E-006
  1.060133963682401E-003  4.240029763895837E-006
  1.078230372755543E-003  4.240029763895837E-006
  1.146511596143505E-003  4.240029763895837E-006
  1.158689351394244E-003  4.240029763895837E-006
  1.347778841062302E-003  4.240029763895837E-006
  1.790396787040109E-003  4.240029763895837E-006
  1.911971082336331E-003  4.240029763895837E-006
  3.259559163218945E-003  4.240029763895837E-006
  3.358380091567218E-003  4.240029763895837E-006
  0.528952562820287       4.240029763895837E-006
   1.11987103075043       4.240029763895837E-006
 cut=1d-8, nber non-redundant internal coords=          39
 Check on Eigenvals of non-red overlap matrix:
  0.00000424  0.00000637  0.00001376  0.00001713  0.00003280  0.00003300  0.00004370  0.00004423
  0.00004662  0.00005498  0.00006547  0.00009614  0.00011482  0.00012035  0.00012864  0.00014154
  0.00017944  0.00024547  0.00025275  0.00033439  0.00037521  0.00041928  0.00053871  0.00059484
  0.00059713  0.00062581  0.00063479  0.00063874  0.00106013  0.00107823  0.00114651  0.00115869
  0.00134778  0.00179040  0.00191197  0.00325956  0.00335838  0.52895256  1.11987103
 Checking for correct frequencies
 recalc frequencies=
    -0.0   -0.0   -0.0   -0.0    0.0    0.0   60.7   94.1  121.7  130.9
   215.9  322.9  354.0  361.1  396.2  406.0  513.1  582.5  593.1  606.0
   617.7  673.9  759.3  815.2  815.3  840.3  952.5  992.0  995.2 1003.6
  1176.2 1225.2 1249.5 1310.5 1340.0 1449.1 1450.0 1495.1 1605.3 2221.9
  2268.5 3182.7 3182.9 3199.8 3200.4
 recalc symmetries=
     A'     A"     A'     A"     A"     A'     A"     A"     A'     A' 
     A"     A'     A"     A'     A"     A"     A'     A'     A"     A' 
     A'     A"     A'     A'     A"     A"     A'     A"     A"     A' 
     A'     A'     A'     A'     A'     A'     A'     A'     A'     A' 
     A'     A'     A'     A'     A' 
 recalc freqs check OK
 Zero-point lengths:
 10.0000 10.0000 10.0000 10.0000 10.0000 10.0000 31.8155 25.5603 22.4753 21.6657
 16.8717 13.7965 13.1769 13.0465 12.4552 12.3041 10.9444 10.2717 10.1800 10.0707
  9.9751  9.5502  8.9968  8.6827  8.6824  8.5521  8.0329  7.8711  7.8586  7.8256
  7.2285  7.0826  7.0133  6.8481  6.7724  6.5125  6.5104  6.4115  6.1876  5.2593
  5.2051  4.3944  4.3942  4.3826  4.3822
 highest evec of mol 2
 -0.0001  0.0002  0.0000
  0.0003 -0.0003  0.0000
  0.0000  0.0003  0.0000
 -0.0003 -0.0003  0.0000
  0.0001  0.0002  0.0000
 -0.0000  0.0028  0.0000
 -0.0597  0.0475  0.0000
 -0.1692 -0.0977  0.0000
 -0.0000 -0.0005  0.0000
  0.1696 -0.0980  0.0000
  0.0599  0.0477  0.0000
  0.1995 -0.1235  0.0000
  0.5601  0.2931  0.0000
 -0.5616  0.2938  0.0000
 -0.2001 -0.1239  0.0000
 Enter nber and list of atoms to keep of mol #2
 keep list:          15           1           2           3           4
           5           6           7           8           9          10
          11          12          13          14          15
 reordering atoms
           1   2.87305684648391     
           2   2.29955824189903     
           3   1.57380204811180     
           4   2.29949085455193     
           5   2.87299825292830     
           6  0.130482047746694     
           7 -0.568735827817459     
           8  -1.93556268601515     
           9  -3.00258295321323     
          10  -1.93558221972987     
          11 -0.568754077079154     
          12 -3.487993647884021E-003
          13  -2.43610265070676     
          14  -2.43613525531561     
          15 -3.517910809985265E-003
           1           1
           2           2
           3           3
           4           4
           5           5
           6           6
           7           7
           8           8
           9           9
          10          10
          11          11
          12          12
          13          13
          14          14
          15          15
 initial cartes coords mol 1
   7   0.00000  -2.21614   2.87670
   6   0.00000  -1.21371   2.29813
   6   0.00000   0.00000   1.55902
   6   0.00000   1.21371   2.29820
   7   0.00000   2.21646   2.87599
   6   0.00000  -0.00001   0.16763
   6   0.00000  -1.24067  -0.57010
   6   0.00000  -1.33543  -1.91612
  16   0.00000  -0.00007  -3.02641
   6   0.00000   1.33532  -1.91618
   6   0.00000   1.24062  -0.57015
   1   0.00000  -2.16424  -0.00218
   1   0.00000  -2.29847  -2.41112
   1   0.00000   2.29834  -2.41121
   1   0.00000   2.16422  -0.00226
 initial cartes coords mol 2
   7   0.00000  -2.21536   2.87306
   6   0.00000  -1.20657   2.29956
   6   0.00000   0.00002   1.57380
   6   0.00000   1.20663   2.29949
   7   0.00000   2.21535   2.87300
   6   0.00000   0.00001   0.13048
   6   0.00000  -1.23455  -0.56874
   6   0.00000  -1.32888  -1.93556
  16   0.00000  -0.00002  -3.00258
   6   0.00000   1.32887  -1.93558
   6   0.00000   1.23455  -0.56875
   1   0.00000  -2.16017  -0.00349
   1   0.00000  -2.29058  -2.43610
   1   0.00000   2.29055  -2.43614
   1   0.00000   2.16017  -0.00352
 loop 1 0
 mod cartes coords mol 2
   7   0.00000  -2.21536   2.87306
   6   0.00000  -1.20657   2.29956
   6   0.00000   0.00002   1.57380
   6   0.00000   1.20663   2.29949
   7   0.00000   2.21535   2.87300
   6   0.00000   0.00001   0.13048
   6   0.00000  -1.23455  -0.56874
   6   0.00000  -1.32888  -1.93556
  16   0.00000  -0.00002  -3.00258
   6   0.00000   1.32887  -1.93558
   6   0.00000   1.23455  -0.56875
   1   0.00000  -2.16017  -0.00349
   1   0.00000  -2.29058  -2.43610
   1   0.00000   2.29055  -2.43614
   1   0.00000   2.16017  -0.00352
 read in order, maxerr=  0.04 for atom   6
 final axis swaps:           1           1           1
 final xyz swap pattern=           1
 reorder list:
   1   2   3   4   5   6   7   8   9  10  11  12  13  14  15
 axis signs=           1           1           1
  7     0.000000 -2.215360  2.873057     0.000000 -2.216144  2.876700
  6     0.000000 -1.206572  2.299558     0.000000 -1.213713  2.298129
  6     0.000000  0.000019  1.573802     0.000000  0.000001  1.559022
  6     0.000000  1.206627  2.299491     0.000000  1.213707  2.298198
  7     0.000000  2.215345  2.872998     0.000000  2.216461  2.875995
  6     0.000000  0.000006  0.130482     0.000000 -0.000012  0.167632
  6     0.000000 -1.234546 -0.568736     0.000000 -1.240673 -0.570098
  6     0.000000 -1.328885 -1.935563     0.000000 -1.335426 -1.916124
 16     0.000000 -0.000017 -3.002583     0.000000 -0.000074 -3.026411
  6     0.000000  1.328865 -1.935582     0.000000  1.335319 -1.916177
  6     0.000000  1.234547 -0.568754     0.000000  1.240624 -0.570145
  1     0.000000 -2.160167 -0.003488     0.000000 -2.164237 -0.002176
  1     0.000000 -2.290581 -2.436103     0.000000 -2.298468 -2.411118
  1     0.000000  2.290554 -2.436135     0.000000  2.298341 -2.411208
  1     0.000000  2.160174 -0.003518     0.000000  2.164221 -0.002264
 generating redundant internal coords
         300        3600          15
 Adding extra bonds for z output only
           7           6           6           6           7           6
           6           6          16           6           6           1
           1           1           1
 search for int coords
   1 str   2   1   1.160
   2 str   3   2   1.408
   3 str   4   3   1.408
   4 str   5   4   1.160
   5 str   6   3   1.443
   6 str   7   6   1.419
   7 str   8   7   1.370
   8 str   9   8   1.704
   9 str  10   9   1.704
  10 str  11   6   1.419
  11 str  11  10   1.370
  12 str  12   7   1.085
  13 str  13   8   1.084
  14 str  14  10   1.084
  15 str  15  11   1.085
 nber stretches=          15
  16 lin ben   1   2   3
  18 ben   2   3   4
  19 prop tor   2   3   4   5
  20 ben   2   3   6
  21 prop tor   2   3   6   7
  22 prop tor   2   3   6  11
  23 lin ben   3   4   5
  25 ben   3   6   7
  26 prop tor   3   6   7   8
  27 prop tor   3   6   7  12
  28 ben   3   6  11
  29 prop tor   3   6  11  10
  30 prop tor   3   6  11  15
  31 ben   4   3   6
  32 prop tor   4   3   6   7
  33 prop tor   4   3   6  11
  34 prop tor   6   3   4   5
  35 ben   6   7   8
  36 prop tor   6   7   8   9
  37 prop tor   6   7   8  13
  38 ben   6   7  12
  39 ben   6  11  10
  40 ben   6  11  15
  41 ben   7   6  11
  42 prop tor   7   6  11  10
  43 prop tor   7   6  11  15
  44 ben   7   8   9
  45 prop tor   7   8   9  10
  46 ben   7   8  13
  47 ben   8   7  12
  48 ben   8   9  10
  49 prop tor   8   9  10  11
  50 prop tor   8   9  10  14
  51 ben   9   8  13
  52 ben   9  10  11
  53 prop tor   9  10  11   6
  54 prop tor   9  10  11  15
  55 ben   9  10  14
  56 ben  10  11  15
  57 prop tor  11   6   7   8
  58 prop tor  11   6   7  12
  59 ben  11  10  14
  60 prop tor  12   7   8   9
  61 prop tor  12   7   8  13
  62 prop tor  13   8   9  10
  63 prop tor  14  10  11   6
  64 prop tor  14  10  11  15
  65 lin bend prop tor   2   1   3   4
  66 lin bend prop tor   2   1   3   6
  67 lin bend prop tor   2   3   5   4
  68 lin bend prop tor   6   3   5   4
 nber bend=              23
 nber lin bend=           2
 nber prop tor=          30
 nber impr tor=           0
 nber tot redund int=          68
 generating redundant internal coords
         300        3600          15
 search for int coords
   1 str   2   1   1.157
   2 str   3   2   1.421
   3 str   4   3   1.421
   4 str   5   4   1.157
   5 str   6   3   1.391
   6 str   7   6   1.443
   7 str   8   7   1.349
   8 str   9   8   1.737
   9 str  10   9   1.737
  10 str  11   6   1.443
  11 str  11  10   1.349
  12 str  12   7   1.084
  13 str  13   8   1.083
  14 str  14  10   1.083
  15 str  15  11   1.084
 nber stretches=          15
  16 lin ben   1   2   3
  18 ben   2   3   4
  19 prop tor   2   3   4   5
  20 ben   2   3   6
  21 prop tor   2   3   6   7
  22 prop tor   2   3   6  11
  23 lin ben   3   4   5
  25 ben   3   6   7
  26 prop tor   3   6   7   8
  27 prop tor   3   6   7  12
  28 ben   3   6  11
  29 prop tor   3   6  11  10
  30 prop tor   3   6  11  15
  31 ben   4   3   6
  32 prop tor   4   3   6   7
  33 prop tor   4   3   6  11
  34 prop tor   6   3   4   5
  35 ben   6   7   8
  36 prop tor   6   7   8   9
  37 prop tor   6   7   8  13
  38 ben   6   7  12
  39 ben   6  11  10
  40 ben   6  11  15
  41 ben   7   6  11
  42 prop tor   7   6  11  10
  43 prop tor   7   6  11  15
  44 ben   7   8   9
  45 prop tor   7   8   9  10
  46 ben   7   8  13
  47 ben   8   7  12
  48 ben   8   9  10
  49 prop tor   8   9  10  11
  50 prop tor   8   9  10  14
  51 ben   9   8  13
  52 ben   9  10  11
  53 prop tor   9  10  11   6
  54 prop tor   9  10  11  15
  55 ben   9  10  14
  56 ben  10  11  15
  57 prop tor  11   6   7   8
  58 prop tor  11   6   7  12
  59 ben  11  10  14
  60 prop tor  12   7   8   9
  61 prop tor  12   7   8  13
  62 prop tor  13   8   9  10
  63 prop tor  14  10  11   6
  64 prop tor  14  10  11  15
  65 lin bend prop tor   2   1   3   4
  66 lin bend prop tor   2   1   3   6
  67 lin bend prop tor   2   3   5   4
  68 lin bend prop tor   6   3   5   4
 nber bend=              23
 nber lin bend=           2
 nber prop tor=          30
 nber impr tor=           0
 nber tot redund int=          68
 Eigenvalues of G in red int coords
    Gval -0.00000000 -0.00000000 -0.00000000 -0.00000000 -0.00000000 -0.00000000 -0.00000000 -0.00000000
    Gval -0.00000000 -0.00000000 -0.00000000 -0.00000000  0.00000000  0.00000000  0.00000000  0.00000000
    Gval  0.00000000  0.00000000  0.00000000  0.00000000  0.00000000  0.00000000  0.00000000  0.00000000
    Gval  0.00000000  0.00000000  0.00000000  0.00000000  0.00000000  0.00000420  0.00000633  0.00001370
    Gval  0.00001724  0.00003272  0.00003289  0.00004352  0.00004443  0.00004640  0.00005513  0.00006527
    Gval  0.00009654  0.00011454  0.00012048  0.00012849  0.00014248  0.00017843  0.00024532  0.00024779
    Gval  0.00032983  0.00036986  0.00043329  0.00056836  0.00059480  0.00059696  0.00062694  0.00063434
    Gval  0.00067370  0.00106002  0.00107677  0.00114960  0.00115990  0.00133546  0.00177297  0.00191353
    Gval  0.00324749  0.00333324  0.57356815  1.13598827
  4.200685310033920E-006  4.200685310033920E-006
  6.334176983920051E-006  4.200685310033920E-006
  1.370033413709733E-005  4.200685310033920E-006
  1.724465155548935E-005  4.200685310033920E-006
  3.271531289979702E-005  4.200685310033920E-006
  3.289207879713292E-005  4.200685310033920E-006
  4.352008943616012E-005  4.200685310033920E-006
  4.442639249457465E-005  4.200685310033920E-006
  4.640217185124612E-005  4.200685310033920E-006
  5.513168479024766E-005  4.200685310033920E-006
  6.527016673119984E-005  4.200685310033920E-006
  9.654188131980455E-005  4.200685310033920E-006
  1.145418524481170E-004  4.200685310033920E-006
  1.204752370628877E-004  4.200685310033920E-006
  1.284860167037353E-004  4.200685310033920E-006
  1.424832076765972E-004  4.200685310033920E-006
  1.784258676841422E-004  4.200685310033920E-006
  2.453179843336436E-004  4.200685310033920E-006
  2.477943470586200E-004  4.200685310033920E-006
  3.298293360576007E-004  4.200685310033920E-006
  3.698631025809690E-004  4.200685310033920E-006
  4.332897525068559E-004  4.200685310033920E-006
  5.683568750272935E-004  4.200685310033920E-006
  5.947988500567845E-004  4.200685310033920E-006
  5.969571848696452E-004  4.200685310033920E-006
  6.269360805378299E-004  4.200685310033920E-006
  6.343350726786862E-004  4.200685310033920E-006
  6.736956964423330E-004  4.200685310033920E-006
  1.060024097195060E-003  4.200685310033920E-006
  1.076770027494358E-003  4.200685310033920E-006
  1.149596861702279E-003  4.200685310033920E-006
  1.159899481149184E-003  4.200685310033920E-006
  1.335457892949402E-003  4.200685310033920E-006
  1.772967051493923E-003  4.200685310033920E-006
  1.913530337043725E-003  4.200685310033920E-006
  3.247489500381001E-003  4.200685310033920E-006
  3.333241691598247E-003  4.200685310033920E-006
  0.573568148689494       4.200685310033920E-006
   1.13598826670347       4.200685310033920E-006
 cut=1d-8, nber non-redundant internal coords=          39
 Check on Eigenvals of non-red overlap matrix:
  0.00000420  0.00000633  0.00001370  0.00001724  0.00003272  0.00003289  0.00004352  0.00004443
  0.00004640  0.00005513  0.00006527  0.00009654  0.00011454  0.00012048  0.00012849  0.00014248
  0.00017843  0.00024532  0.00024779  0.00032983  0.00036986  0.00043329  0.00056836  0.00059480
  0.00059696  0.00062694  0.00063434  0.00067370  0.00106002  0.00107677  0.00114960  0.00115990
  0.00133546  0.00177297  0.00191353  0.00324749  0.00333324  0.57356815  1.13598827
 generating redundant internal coords
         300        3600          15
 search for int coords
   1 str   2   1   1.160
   2 str   3   2   1.408
   3 str   4   3   1.408
   4 str   5   4   1.160
   5 str   6   3   1.443
   6 str   7   6   1.419
   7 str   8   7   1.370
   8 str   9   8   1.704
   9 str  10   9   1.704
  10 str  11   6   1.419
  11 str  11  10   1.370
  12 str  12   7   1.085
  13 str  13   8   1.084
  14 str  14  10   1.084
  15 str  15  11   1.085
 nber stretches=          15
  16 lin ben   1   2   3
  18 ben   2   3   4
  19 prop tor   2   3   4   5
  20 ben   2   3   6
  21 prop tor   2   3   6   7
  22 prop tor   2   3   6  11
  23 lin ben   3   4   5
  25 ben   3   6   7
  26 prop tor   3   6   7   8
  27 prop tor   3   6   7  12
  28 ben   3   6  11
  29 prop tor   3   6  11  10
  30 prop tor   3   6  11  15
  31 ben   4   3   6
  32 prop tor   4   3   6   7
  33 prop tor   4   3   6  11
  34 prop tor   6   3   4   5
  35 ben   6   7   8
  36 prop tor   6   7   8   9
  37 prop tor   6   7   8  13
  38 ben   6   7  12
  39 ben   6  11  10
  40 ben   6  11  15
  41 ben   7   6  11
  42 prop tor   7   6  11  10
  43 prop tor   7   6  11  15
  44 ben   7   8   9
  45 prop tor   7   8   9  10
  46 ben   7   8  13
  47 ben   8   7  12
  48 ben   8   9  10
  49 prop tor   8   9  10  11
  50 prop tor   8   9  10  14
  51 ben   9   8  13
  52 ben   9  10  11
  53 prop tor   9  10  11   6
  54 prop tor   9  10  11  15
  55 ben   9  10  14
  56 ben  10  11  15
  57 prop tor  11   6   7   8
  58 prop tor  11   6   7  12
  59 ben  11  10  14
  60 prop tor  12   7   8   9
  61 prop tor  12   7   8  13
  62 prop tor  13   8   9  10
  63 prop tor  14  10  11   6
  64 prop tor  14  10  11  15
  65 lin bend prop tor   2   1   3   4
  66 lin bend prop tor   2   1   3   6
  67 lin bend prop tor   2   3   5   4
  68 lin bend prop tor   6   3   5   4
 nber bend=              23
 nber lin bend=           2
 nber prop tor=          30
 nber impr tor=           0
 nber tot redund int=          68
 Eigenvalues of G in red int coords
    Gval -0.00000000 -0.00000000 -0.00000000 -0.00000000 -0.00000000 -0.00000000 -0.00000000 -0.00000000
    Gval -0.00000000 -0.00000000 -0.00000000 -0.00000000  0.00000000  0.00000000  0.00000000  0.00000000
    Gval  0.00000000  0.00000000  0.00000000  0.00000000  0.00000000  0.00000000  0.00000000  0.00000000
    Gval  0.00000000  0.00000000  0.00000000  0.00000000  0.00000000  0.00000424  0.00000637  0.00001376
    Gval  0.00001713  0.00003280  0.00003300  0.00004370  0.00004423  0.00004662  0.00005498  0.00006547
    Gval  0.00009614  0.00011482  0.00012035  0.00012864  0.00014154  0.00017944  0.00024547  0.00025275
    Gval  0.00033439  0.00037521  0.00041928  0.00053871  0.00059484  0.00059713  0.00062581  0.00063479
    Gval  0.00063874  0.00106013  0.00107823  0.00114651  0.00115869  0.00134778  0.00179040  0.00191197
    Gval  0.00325956  0.00335838  0.52895256  1.11987103
  4.240029763895902E-006  4.240029763895902E-006
  6.372303961049065E-006  4.240029763895902E-006
  1.376005350104599E-005  4.240029763895902E-006
  1.712714102749328E-005  4.240029763895902E-006
  3.280399512886019E-005  4.240029763895902E-006
  3.299656751214386E-005  4.240029763895902E-006
  4.369705473361228E-005  4.240029763895902E-006
  4.423402494973383E-005  4.240029763895902E-006
  4.661578294185900E-005  4.240029763895902E-006
  5.498188292608132E-005  4.240029763895902E-006
  6.547199709704948E-005  4.240029763895902E-006
  9.614060426957838E-005  4.240029763895902E-006
  1.148160949236537E-004  4.240029763895902E-006
  1.203502580121619E-004  4.240029763895902E-006
  1.286428907473240E-004  4.240029763895902E-006
  1.415361252183428E-004  4.240029763895902E-006
  1.794415592666941E-004  4.240029763895902E-006
  2.454689069607763E-004  4.240029763895902E-006
  2.527542921837011E-004  4.240029763895902E-006
  3.343945908609882E-004  4.240029763895902E-006
  3.752145083576336E-004  4.240029763895902E-006
  4.192849689669131E-004  4.240029763895902E-006
  5.387114442902573E-004  4.240029763895902E-006
  5.948355027936842E-004  4.240029763895902E-006
  5.971307297612470E-004  4.240029763895902E-006
  6.258095184700814E-004  4.240029763895902E-006
  6.347920827873617E-004  4.240029763895902E-006
  6.387376778812774E-004  4.240029763895902E-006
  1.060133963682401E-003  4.240029763895902E-006
  1.078230372755541E-003  4.240029763895902E-006
  1.146511596143505E-003  4.240029763895902E-006
  1.158689351394245E-003  4.240029763895902E-006
  1.347778841062304E-003  4.240029763895902E-006
  1.790396787040110E-003  4.240029763895902E-006
  1.911971082336327E-003  4.240029763895902E-006
  3.259559163218941E-003  4.240029763895902E-006
  3.358380091567212E-003  4.240029763895902E-006
  0.528952562817808       4.240029763895902E-006
   1.11987103075373       4.240029763895902E-006
 cut=1d-8, nber non-redundant internal coords=          39
 Check on Eigenvals of non-red overlap matrix:
  0.00000424  0.00000637  0.00001376  0.00001713  0.00003280  0.00003300  0.00004370  0.00004423
  0.00004662  0.00005498  0.00006547  0.00009614  0.00011482  0.00012035  0.00012864  0.00014154
  0.00017944  0.00024547  0.00025275  0.00033439  0.00037521  0.00041928  0.00053871  0.00059484
  0.00059713  0.00062581  0.00063479  0.00063874  0.00106013  0.00107823  0.00114651  0.00115869
  0.00134778  0.00179040  0.00191197  0.00325956  0.00335838  0.52895256  1.11987103
 d1=
   0.0   0.7   1.1  -0.0  -4.4   0.0   0.0  -0.0  -0.2   5.1  -0.0  -1.6   0.0  -0.9  -0.0   0.0   5.4  -0.0   0.0  -1.4
   3.1  -0.0   0.0  -0.0  -0.2   0.0   0.6  -0.0   0.0   1.2   0.0   0.6  -0.0   0.0  -0.0   0.0  -0.0   0.0  -0.0
 d2=
   0.0  -0.5   1.1   0.0  -4.3  -0.0   0.0  -0.0   0.1  -5.2  -0.0  -1.5   0.0   1.0  -0.0   0.0   5.3   0.0  -0.0  -1.4
   3.1   0.0  -0.0   0.0   0.2   0.0   0.6  -0.0  -0.0   1.2  -0.0  -0.7   0.0  -0.0   0.0  -0.0   0.0  -0.0   0.0
 curvilinear- renormalizn of Dush matrix done
  mol 1 sym            1  -> mol 2 sym            1
  mol 1 sym            2  -> mol 2 sym            2

 Dushinsky matrix, ncs 2 in terms of ncs 1

   mode   freq    coeff     %      %tot     of    at

   1 A'     -0.  0.0000     0.0     0.0  10 A'    134.
   2 A"     -0.  0.0000     0.0     0.0  10 A'    134.
   3 A'     -0.  0.0000     0.0     0.0  10 A'    134.
   4 A"     -0. -0.0000     0.0     0.0   9 A'    122.
   5 A"      0. -0.0000     0.0     0.0   9 A'    122.
   6 A'      0.  0.0000     0.0     0.0   9 A'    122.
   7 A"     61. -0.9992    99.8   100.2   8 A"     86.
   8 A"     94. -0.9913    98.3    99.5   7 A"     82.
   9 A'    122. -0.9999   100.0   100.3   9 A'    122.
  10 A'    131.  0.9998   100.0   100.2  10 A'    134.
  11 A"    216.  0.9795    95.9    98.8  11 A"    202.
  12 A'    323.  0.9989    99.8    96.9  12 A'    336.
  13 A"    354. -0.9979    99.6    94.9  15 A"    390.
  14 A'    361.  0.9977    99.5   101.8  13 A'    361.
  15 A"    396.  0.9707    94.2    98.3  14 A"    380.
  16 A"    406. -0.9982    99.6    95.9  16 A"    481.
  17 A'    513.  0.9978    99.6    99.6  17 A'    528.
  18 A'    582. -0.9970    99.4    98.4  18 A'    579.
  19 A"    593.  0.9752    95.1    99.6  19 A"    587.
  20 A'    606.  0.7763    60.3   101.7  20 A'    610.
                -0.6245    39.0          21 A'    619.
  21 A'    618. -0.6267    39.3   101.0  20 A'    610.
                -0.7771    60.4          21 A'    619.
  22 A"    674. -0.9738    94.8    98.8  22 A"    668.
  23 A'    759.  0.9986    99.7   100.9  23 A'    713.
  24 A'    815. -0.9981    99.6   101.0  25 A'    779.
  25 A"    815.  0.9986    99.7   101.0  24 A"    769.
  26 A"    840.  0.9909    98.2   100.2  26 A"    828.
  27 A'    952.  0.9667    93.5    99.8  27 A'    933.
  28 A"    992.  0.9986    99.7   100.5  29 A"    984.
  29 A"    995.  0.9997    99.9   100.3  28 A"    982.
  30 A'   1004. -0.9675    93.6    99.6  30 A'    984.
  31 A'   1176. -0.9675    93.6   100.2  31 A'   1166.
  32 A'   1225. -0.9728    94.6    99.4  33 A'   1233.
  33 A'   1249. -0.9764    95.3   100.0  32 A'   1232.
  34 A'   1311.  0.6625    43.9   100.1  35 A'   1401.
                 0.7095    50.3          37 A'   1520.
  35 A'   1340.  0.9455    89.4    99.8  34 A'   1342.
  36 A'   1449. -0.4688    22.0   100.6  36 A'   1432.
                 0.8231    67.7          38 A'   1571.
  37 A'   1450. -0.7238    52.4    99.9  35 A'   1401.
                 0.6873    47.2          37 A'   1520.
  38 A'   1495. -0.8668    75.1    99.9  36 A'   1432.
                -0.4828    23.3          38 A'   1571.
  39 A'   1605. -0.9907    98.2   100.4  39 A'   1652.
  40 A'   2222. -0.9998   100.0   100.0  40 A'   2307.
  41 A'   2268.  0.9998   100.0   100.0  41 A'   2324.
  42 A'   3183. -0.9250    85.6   100.0  42 A'   3177.
                 0.3798    14.4          43 A'   3177.
  43 A'   3183. -0.3798    14.4   100.0  42 A'   3177.
                -0.9250    85.6          43 A'   3177.
  44 A'   3200.  0.9999   100.0   100.0  45 A'   3201.
  45 A'   3200.  0.9999   100.0   100.0  44 A'   3201.
 nber times 1st assigned=           1           0
 nber times 1st assigned=           2           0
 nber times 1st assigned=           3           0
 nber times 1st assigned=           4           0
 nber times 1st assigned=           5           0
 nber times 1st assigned=           6           0
 nber times 1st assigned=           7           0
 nber times 1st assigned=           8           0
 nber times 1st assigned=           9           3
 nber times 1st assigned=          10           3
 nber times 1st assigned=          11           0
 nber times 1st assigned=          12           0
 nber times 1st assigned=          13           0
 nber times 1st assigned=          14           0
 nber times 1st assigned=          15           0
 nber times 1st assigned=          16           0
 nber times 1st assigned=          17           0
 nber times 1st assigned=          18           0
 nber times 1st assigned=          19           0
 nber times 1st assigned=          20           0
 nber times 1st assigned=          21           0
 nber times 1st assigned=          22           0
 nber times 1st assigned=          23           0
 nber times 1st assigned=          24           0
 nber times 1st assigned=          25           0
 nber times 1st assigned=          26           0
 nber times 1st assigned=          27           0
 nber times 1st assigned=          28           0
 nber times 1st assigned=          29           0
 nber times 1st assigned=          30           0
 nber times 1st assigned=          31           0
 nber times 1st assigned=          32           0
 nber times 1st assigned=          33           0
 nber times 1st assigned=          34           0
 nber times 1st assigned=          35           0
 nber times 1st assigned=          36           0
 nber times 1st assigned=          37           0
 nber times 1st assigned=          38           0
 nber times 1st assigned=          39           0
 nber times 1st assigned=          40           0
 nber times 1st assigned=          41           0
 nber times 1st assigned=          42           0
 nber times 1st assigned=          43           0
 nber times 1st assigned=          44           0
 nber times 1st assigned=          45           0
 Dushinsky matrix written to .out file
 modes represented=   38.8943874150425     

 Dushinsky matrix, ncs 1 in terms of ncs 2

   mode   freq    coeff     %      %tot     of    at

   7 A"     82. -0.9913    98.3   101.1   8 A"     94.
   8 A"     86. -0.9992    99.8   100.2   7 A"     61.
   9 A'    122. -0.9999   100.0   100.5   9 A'    122.
  10 A'    134.  0.9998   100.0   100.4  10 A'    131.
  11 A"    202.  0.9795    95.9   100.5  11 A"    216.
  12 A'    336.  0.9989    99.8    97.1  12 A'    323.
  13 A'    361.  0.9977    99.5   102.2  14 A'    361.
  14 A"    380.  0.9707    94.2    96.1  15 A"    396.
  15 A"    390. -0.9979    99.6    94.8  13 A"    354.
  16 A"    481. -0.9982    99.6    95.9  16 A"    406.
  17 A'    528.  0.9978    99.6    99.9  17 A'    513.
  18 A'    579. -0.9970    99.4    98.5  18 A'    582.
  19 A"    587.  0.9752    95.1    99.5  19 A"    593.
  20 A'    610.  0.7763    60.3   101.8  20 A'    606.
                -0.6267    39.3          21 A'    618.
  21 A'    619. -0.6245    39.0   100.8  20 A'    606.
                -0.7771    60.4          21 A'    618.
  22 A"    668. -0.9738    94.8    97.9  22 A"    674.
  23 A'    713.  0.9986    99.7   100.8  23 A'    759.
  24 A"    769.  0.9986    99.7   101.0  25 A"    815.
  25 A'    779. -0.9981    99.6   100.9  24 A'    815.
  26 A"    828.  0.9909    98.2   100.0  26 A"    840.
  27 A'    933.  0.9667    93.5    99.5  27 A'    952.
  28 A"    982.  0.9997    99.9   100.3  29 A"    995.
  29 A"    984.  0.9986    99.7   100.6  28 A"    992.
  30 A'    984. -0.9675    93.6    99.8  30 A'   1004.
  31 A'   1166. -0.9675    93.6   100.4  31 A'   1176.
  32 A'   1232. -0.9764    95.3    99.8  33 A'   1249.
  33 A'   1233. -0.9728    94.6    99.5  32 A'   1225.
  34 A'   1342.  0.9455    89.4    99.7  35 A'   1340.
  35 A'   1401.  0.6625    43.9    99.7  34 A'   1311.
                -0.7238    52.4          37 A'   1450.
  36 A'   1432. -0.4688    22.0    99.5  36 A'   1449.
                -0.8668    75.1          38 A'   1495.
  37 A'   1520.  0.7095    50.3   100.1  34 A'   1311.
                 0.6873    47.2          37 A'   1450.
  38 A'   1571.  0.8231    67.7   100.5  36 A'   1449.
                -0.4828    23.3          38 A'   1495.
  39 A'   1652. -0.9907    98.2   100.3  39 A'   1605.
  40 A'   2307. -0.9998   100.0   100.0  40 A'   2222.
  41 A'   2324.  0.9998   100.0   100.0  41 A'   2268.
  42 A'   3177. -0.9250    85.6   100.0  42 A'   3183.
                -0.3798    14.4          43 A'   3183.
  43 A'   3177.  0.3798    14.4   100.0  42 A'   3183.
                -0.9250    85.6          43 A'   3183.
  44 A'   3201.  0.9999   100.0   100.0  45 A'   3200.
  45 A'   3201.  0.9999   100.0   100.0  44 A'   3200.
 nber times 1st assigned=           1           0
 nber times 1st assigned=           2           0
 nber times 1st assigned=           3           0
 nber times 1st assigned=           4           0
 nber times 1st assigned=           5           0
 nber times 1st assigned=           6           0
 nber times 1st assigned=           7           0
 nber times 1st assigned=           8           0
 nber times 1st assigned=           9           0
 nber times 1st assigned=          10           0
 nber times 1st assigned=          11           0
 nber times 1st assigned=          12           0
 nber times 1st assigned=          13           0
 nber times 1st assigned=          14           0
 nber times 1st assigned=          15           0
 nber times 1st assigned=          16           0
 nber times 1st assigned=          17           0
 nber times 1st assigned=          18           0
 nber times 1st assigned=          19           0
 nber times 1st assigned=          20           0
 nber times 1st assigned=          21           0
 nber times 1st assigned=          22           0
 nber times 1st assigned=          23           0
 nber times 1st assigned=          24           0
 nber times 1st assigned=          25           0
 nber times 1st assigned=          26           0
 nber times 1st assigned=          27           0
 nber times 1st assigned=          28           0
 nber times 1st assigned=          29           0
 nber times 1st assigned=          30           0
 nber times 1st assigned=          31           0
 nber times 1st assigned=          32           0
 nber times 1st assigned=          33           0
 nber times 1st assigned=          34           0
 nber times 1st assigned=          35           0
 nber times 1st assigned=          36           0
 nber times 1st assigned=          37           0
 nber times 1st assigned=          38           0
 nber times 1st assigned=          39           0
 nber times 1st assigned=          40           0
 nber times 1st assigned=          41           0
 nber times 1st assigned=          42           0
 nber times 1st assigned=          43           0
 nber times 1st assigned=          44           0
 nber times 1st assigned=          45           0
 modes represented=   38.8943874150425     
 p1=
   -0.    0.    0.    0.   -0.    0.   -0.   -0.    0.    0.   -0.    0.    3.    0.   -0.   -0.    0.   -0.    0.   -4.
    1.    0.    5.    0.   -0.    0.   -0.    0.   -0.    1.   -0.    0.   -2.    0.   -2.   -0.   -3.   -0.    4.    0.
    0.    0.   -0.   -0.    0.
 p2=
   -0.   -0.    0.   -0.   -0.    0.   -0.   -0.    0.   -0.   -0.   -0.    0.   -3.   -0.    0.   -0.   -0.   -0.    4.
   -2.    0.   -5.   -0.   -0.   -0.    0.    0.   -0.    0.    0.   -3.   -0.    3.   -0.   -0.    0.   -0.    4.   -0.
   -0.    0.    0.   -0.    0.

 Displacement: in terms of nc of 1 THEN of nc of 2

   1 A'  freq=    -0. Q= -0.000 lam=    -0.0 A'  freq=    -0. Q= -0.000 lam=    -0.0
   2 A'  freq=    -0. Q=  0.000 lam=    -0.0 A"  freq=    -0. Q=  0.000 lam=    -0.0
   3 A"  freq=    -0. Q=  0.000 lam=    -0.0 A'  freq=    -0. Q=  0.000 lam=    -0.0
   4 A'  freq=     0. Q=  0.000 lam=     0.0 A"  freq=    -0. Q=  0.000 lam=    -0.0
   5 A"  freq=     0. Q= -0.000 lam=     0.0 A"  freq=     0. Q= -0.000 lam=     0.0
   6 A"  freq=     0. Q=  0.000 lam=     0.0 A'  freq=     0. Q=  0.000 lam=     0.0
   7 A"  freq=    82. Q= -0.000 lam=     0.0 A"  freq=    61. Q= -0.000 lam=     0.0
   8 A"  freq=    86. Q= -0.000 lam=     0.0 A"  freq=    94. Q= -0.000 lam=     0.0
   9 A'  freq=   122. Q=  0.001 lam=     0.0 A'  freq=   122. Q=  0.001 lam=     0.0
  10 A'  freq=   134. Q=  0.014 lam=     0.0 A'  freq=   131. Q=  0.006 lam=     0.0
  11 A"  freq=   202. Q= -0.000 lam=     0.0 A"  freq=   216. Q= -0.000 lam=     0.0
  12 A'  freq=   336. Q=  0.001 lam=     0.0 A'  freq=   323. Q=  0.000 lam=     0.0
  13 A'  freq=   361. Q=  0.251 lam=    11.3 A"  freq=   354. Q=  0.000 lam=     0.0
  14 A"  freq=   380. Q=  0.000 lam=     0.0 A'  freq=   361. Q=  0.197 lam=     7.0
  15 A"  freq=   390. Q= -0.000 lam=     0.0 A"  freq=   396. Q= -0.000 lam=     0.0
  16 A"  freq=   481. Q= -0.000 lam=     0.0 A"  freq=   406. Q= -0.000 lam=     0.0
  17 A'  freq=   528. Q=  0.001 lam=     0.0 A'  freq=   513. Q=  0.001 lam=     0.0
  18 A'  freq=   579. Q= -0.000 lam=     0.0 A'  freq=   582. Q= -0.000 lam=     0.0
  19 A"  freq=   587. Q=  0.000 lam=     0.0 A"  freq=   593. Q=  0.000 lam=     0.0
  20 A'  freq=   610. Q= -0.411 lam=    51.6 A'  freq=   606. Q= -0.422 lam=    54.0
  21 A'  freq=   619. Q=  0.094 lam=     2.8 A'  freq=   618. Q=  0.206 lam=    13.0
  22 A"  freq=   668. Q=  0.000 lam=     0.0 A"  freq=   674. Q=  0.000 lam=     0.0
  23 A'  freq=   713. Q=  0.541 lam=   104.3 A'  freq=   759. Q=  0.556 lam=   117.2
  24 A"  freq=   769. Q=  0.000 lam=     0.0 A'  freq=   815. Q=  0.000 lam=     0.0
  25 A'  freq=   779. Q= -0.000 lam=     0.0 A"  freq=   815. Q= -0.000 lam=     0.0
  26 A"  freq=   828. Q=  0.000 lam=     0.0 A"  freq=   840. Q=  0.000 lam=     0.0
  27 A'  freq=   933. Q= -0.007 lam=     0.0 A'  freq=   952. Q= -0.060 lam=     1.7
  28 A"  freq=   982. Q=  0.000 lam=     0.0 A"  freq=   992. Q=  0.000 lam=     0.0
  29 A"  freq=   984. Q= -0.000 lam=     0.0 A"  freq=   995. Q= -0.000 lam=     0.0
  30 A'  freq=   984. Q=  0.075 lam=     2.8 A'  freq=  1004. Q=  0.042 lam=     0.9
  31 A'  freq=  1166. Q= -0.000 lam=     0.0 A'  freq=  1176. Q= -0.000 lam=     0.0
  32 A'  freq=  1232. Q=  0.001 lam=     0.0 A'  freq=  1225. Q=  0.475 lam=   138.2
  33 A'  freq=  1233. Q= -0.313 lam=    60.3 A'  freq=  1249. Q= -0.000 lam=     0.0
  34 A'  freq=  1342. Q=  0.000 lam=     0.0 A'  freq=  1311. Q=  0.498 lam=   162.4
  35 A'  freq=  1401. Q= -0.328 lam=    75.4 A'  freq=  1340. Q= -0.000 lam=     0.0
  36 A'  freq=  1432. Q= -0.000 lam=     0.0 A'  freq=  1449. Q= -0.000 lam=     0.0
  37 A'  freq=  1520. Q= -0.507 lam=   195.1 A'  freq=  1450. Q= -0.048 lam=     1.7
  38 A'  freq=  1571. Q= -0.000 lam=     0.0 A'  freq=  1495. Q= -0.000 lam=     0.0
  39 A'  freq=  1652. Q=  0.721 lam=   429.2 A'  freq=  1605. Q=  0.637 lam=   325.4
  40 A'  freq=  2307. Q=  0.001 lam=     0.0 A'  freq=  2222. Q=  0.000 lam=     0.0
  41 A'  freq=  2324. Q=  0.090 lam=     9.5 A'  freq=  2268. Q=  0.090 lam=     9.2
  42 A'  freq=  3177. Q=  0.002 lam=     0.0 A'  freq=  3183. Q=  0.003 lam=     0.0
  43 A'  freq=  3177. Q= -0.001 lam=     0.0 A'  freq=  3183. Q= -0.000 lam=     0.0
  44 A'  freq=  3201. Q= -0.008 lam=     0.1 A'  freq=  3200. Q= -0.000 lam=     0.0
  45 A'  freq=  3201. Q=  0.000 lam=     0.0 A'  freq=  3200. Q=  0.009 lam=     0.1

 total reorg energy (cm**-1, kcal/mol)=      942.      831.      2.69      2.38
 Nber of molecules processed=           2
