 Enter ifcurve (0=recti, 1=orth curvi, 2=apprx curvi, -1 = skip
 And atom ordering flag, 0= never changes, 1= use the first order thenceforth,
  2= deduce it (does read on fail), 3= always read it
 Reading file: 
 ./Benzene_Conj_3_C0S0.log                                                      
                                          
  Entering Gaussian System, Link 0=g16                                          
  
 Gaussian format, type: g94, g98, g03= F F F
  #P Geom=AllCheck Guess=TCheck SCRF=Check GenChk RB3LYP/6-311G(d,p) Fre    
 energy type= B3LYP   
 Original G94 input coords:
  6  3.706285 -1.407130  0.000000
  6  2.446171 -0.724861  0.000000
  6  1.233638 -1.404427  0.000000
  6  0.000000 -0.725013  0.000000
  6 -1.233638 -1.404427  0.000000
  6 -2.446171 -0.724861  0.000000
  6 -3.706285 -1.407130  0.000000
  6 -4.880778 -0.714616  0.000000
  6 -4.880778  0.714616  0.000000
  6 -3.706285  1.407130  0.000000
  6 -2.446171  0.724861  0.000000
  6 -1.233638  1.404427  0.000000
  6  0.000000  0.725013  0.000000
  6  1.233638  1.404427  0.000000
  6  2.446171  0.724861  0.000000
  6  3.706285  1.407130  0.000000
  6  4.880778  0.714616  0.000000
  6  4.880778 -0.714616  0.000000
  1  3.706104 -2.492156  0.000000
  1  1.234076 -2.490157  0.000000
  1 -1.234076 -2.490157  0.000000
  1 -3.706104 -2.492156  0.000000
  1 -5.826294 -1.245181  0.000000
  1 -5.826294  1.245181  0.000000
  1 -3.706104  2.492156  0.000000
  1 -1.234076  2.490157  0.000000
  1  1.234076  2.490157  0.000000
  1  3.706104  2.492156  0.000000
  1  5.826294  1.245181  0.000000
  1  5.826294 -1.245181  0.000000
 nber atoms=          30
 Original standard coords:
  6  0.000000  3.706285  1.407130
  6  0.000000  2.446171  0.724861
  6  0.000000  1.233638  1.404427
  6  0.000000  0.000000  0.725013
  6  0.000000 -1.233638  1.404427
  6  0.000000 -2.446171  0.724861
  6  0.000000 -3.706285  1.407130
  6  0.000000 -4.880778  0.714616
  6  0.000000 -4.880778 -0.714616
  6  0.000000 -3.706285 -1.407130
  6  0.000000 -2.446171 -0.724861
  6  0.000000 -1.233638 -1.404427
  6  0.000000  0.000000 -0.725013
  6  0.000000  1.233638 -1.404427
  6  0.000000  2.446171 -0.724861
  6  0.000000  3.706285 -1.407130
  6  0.000000  4.880778 -0.714616
  6  0.000000  4.880778  0.714616
  1  0.000000  3.706104  2.492156
  1  0.000000  1.234076  2.490157
  1  0.000000 -1.234076  2.490157
  1  0.000000 -3.706104  2.492156
  1  0.000000 -5.826294  1.245181
  1  0.000000 -5.826294 -1.245181
  1  0.000000 -3.706104 -2.492156
  1  0.000000 -1.234076 -2.490157
  1  0.000000  1.234076 -2.490157
  1  0.000000  3.706104 -2.492156
  1  0.000000  5.826294 -1.245181
  1  0.000000  5.826294  1.245181
  SCF Done:  E(RB3LYP) =  -693.322889370     A.U. after    1 cycles             
  
          23          40 "  -693.322889370"
After scan for Atom:   Atom  AN      X      Y      Z        X      Y      Z        X      Y      Z   
After scan for Atom:   Atom  AN      X      Y      Z        X      Y      Z        X      Y      Z   
After scan for Atom:   Atom  AN      X      Y      Z        X      Y      Z        X      Y      Z   
After scan for Atom:   Atom  AN      X      Y      Z        X      Y      Z        X      Y      Z   
After scan for Atom:   Atom  AN      X      Y      Z        X      Y      Z        X      Y      Z   
After scan for Atom:   Atom  AN      X      Y      Z        X      Y      Z        X      Y      Z   
After scan for Atom:   Atom  AN      X      Y      Z        X      Y      Z        X      Y      Z   
After scan for Atom:   Atom  AN      X      Y      Z        X      Y      Z        X      Y      Z   
After scan for Atom:   Atom  AN      X      Y      Z        X      Y      Z        X      Y      Z   
After scan for Atom:   Atom  AN      X      Y      Z        X      Y      Z        X      Y      Z   
After scan for Atom:   Atom  AN      X      Y      Z        X      Y      Z        X      Y      Z   
After scan for Atom:   Atom  AN      X      Y      Z        X      Y      Z        X      Y      Z   
After scan for Atom:   Atom  AN      X      Y      Z        X      Y      Z        X      Y      Z   
After scan for Atom:   Atom  AN      X      Y      Z        X      Y      Z        X      Y      Z   
After scan for Atom:   Atom  AN      X      Y      Z        X      Y      Z        X      Y      Z   
After scan for Atom:   Atom  AN      X      Y      Z        X      Y      Z        X      Y      Z   
After scan for Atom:   Atom  AN      X      Y      Z        X      Y      Z        X      Y      Z   
After scan for Atom:   Atom  AN      X      Y      Z        X      Y      Z        X      Y      Z   
After scan for Atom:   Atom  AN      X      Y      Z        X      Y      Z        X      Y      Z   
After scan for Atom:   Atom  AN      X      Y      Z        X      Y      Z        X      Y      Z   
After scan for Atom:   Atom  AN      X      Y      Z        X      Y      Z        X      Y      Z   
After scan for Atom:   Atom  AN      X      Y      Z        X      Y      Z        X      Y      Z   
After scan for Atom:   Atom  AN      X      Y      Z        X      Y      Z        X      Y      Z   
After scan for Atom:   Atom  AN      X      Y      Z        X      Y      Z        X      Y      Z   
After scan for Atom:   Atom  AN      X      Y      Z        X      Y      Z        X      Y      Z   
After scan for Atom:   Atom  AN      X      Y      Z        X      Y      Z        X      Y      Z   
After scan for Atom:   Atom  AN      X      Y      Z        X      Y      Z        X      Y      Z   
After scan for Atom:   Atom  AN      X      Y      Z        X      Y      Z        X      Y      Z   
 g94    frequencies=
     0.0    0.0    0.0    0.0    0.0    0.0   55.0   89.3  149.3  163.0
   191.2  270.8  304.9  317.7  317.8  382.0  448.2  472.3  476.4  482.1
   505.1  519.3  562.6  567.2  618.3  634.6  645.0  733.8  744.2  757.3
   757.4  762.8  768.7  777.3  788.1  841.5  853.0  862.0  867.7  889.8
   910.6  913.7  914.8  945.2  971.0  972.5  995.3  995.5 1020.5 1022.5
  1147.3 1149.7 1151.5 1186.0 1189.1 1204.3 1223.3 1224.2 1291.2 1298.9
  1315.5 1318.2 1359.7 1368.2 1411.8 1417.8 1424.1 1432.4 1479.6 1481.6
  1501.5 1557.5 1578.1 1583.5 1608.9 1648.6 1663.0 1677.2 3153.4 3155.2
  3155.7 3157.4 3158.6 3158.6 3162.1 3163.2 3175.0 3175.1 3186.9 3187.2
 g94    symmetries=
                                                B3     AU     B1     B1
      B2     B3     B3     AU     AG     B1     B1     B3     B1     B3
      B3     B2     B2     AU     B1     AG     B2     B2     B1     B2
      B3     AG     AU     B2     B3     AU     B2     B1     AG     AU
      B3     B3     B2     B1     B1     B3     AU     B2     B2     AG
      B2     B1     B3     AG     B2     B3     B1     AG     B3     B1
      B1     B2     B3     B2     AG     B1     AG     B2     AG     B3
      B2     AG     AG     B2     B1     B3     B3     B1     B3     B2
      B1     B3     AG     B1     B2     AG     B3     B1     B2     AG
 atomic masses:
 12.0000 12.0000 12.0000 12.0000 12.0000 12.0000 12.0000 12.0000 12.0000 12.0000
 12.0000 12.0000 12.0000 12.0000 12.0000 12.0000 12.0000 12.0000  1.0078  1.0078
  1.0078  1.0078  1.0078  1.0078  1.0078  1.0078  1.0078  1.0078  1.0078  1.0078
 looking for force constants in 
 ./Benzene_Conj_3_C0S0.fchk                                                     
  
 Cartesian Force Constants                  R   N=        4095                  
  
 n3=          90        4095
 g94-fc frequencies=
    -6.3   -4.4   -3.4   -0.0   -0.0    0.0   55.0   89.4  149.3  163.0
   191.2  270.8  304.9  317.7  317.8  382.0  448.2  472.3  476.4  482.2
   505.1  519.3  562.7  567.2  618.3  634.6  645.0  733.8  744.2  757.3
   757.4  762.8  768.7  777.3  788.2  841.5  853.0  862.0  867.8  889.9
   910.6  913.7  914.8  945.3  971.1  972.5  995.4  995.5 1020.5 1022.5
  1147.4 1149.7 1151.6 1186.0 1189.1 1204.4 1223.4 1224.3 1291.2 1298.9
  1315.6 1318.3 1359.7 1368.2 1411.9 1417.9 1424.2 1432.4 1479.6 1481.7
  1501.5 1557.6 1578.1 1583.5 1608.9 1648.7 1663.1 1677.3 3153.5 3155.3
  3155.8 3157.4 3158.6 3158.7 3162.2 3163.3 3175.1 3175.2 3187.0 3187.2
 at 99999: n3=          90
 symm operator            1 :  T  nop=           1
 symm operator            2 :  T  nop=           2
 symm operator            3 :  T  nop=           3
 symm operator            4 :  T  nop=           4
 symm operator            5 :  T  nop=           5
 symm operator            6 :  T  nop=           6
 symm operator            7 :  T  nop=           7
 The point group of the molecule is D2H
 enforcing symm op           1  jsymt=          -1          -1           1
 enforcing symm op           2  jsymt=          -1           1          -1
 enforcing symm op           3  jsymt=           1          -1          -1
 enforcing symm op           4  jsymt=          -1          -1          -1
 enforcing symm op           5  jsymt=           1           1          -1
 enforcing symm op           6  jsymt=           1          -1           1
 enforcing symm op           7  jsymt=          -1           1           1
 cartesian coord symmetries:
 Ag :   15 Au :    7 B1g:    7 B1u:   15 B2g:    8 B2u:   15 B3g:   15 B3u:    8
 Symmetry rotation matrix:
   1.00000   0.00000   0.00000
   0.00000   1.00000   0.00000
   0.00000   0.00000   1.00000

 Projecting out zero-frequency components
 generating redundant internal coords
         300        3600          30
 search for int coords
   1 str   2   1   1.433
   2 str   3   2   1.390
   3 str   4   3   1.408
   4 str   5   4   1.408
   5 str   6   5   1.390
   6 str   7   6   1.433
   7 str   8   7   1.363
   8 str   9   8   1.429
   9 str  10   9   1.363
  10 str  11   6   1.450
  11 str  11  10   1.433
  12 str  12  11   1.390
  13 str  13   4   1.450
  14 str  13  12   1.408
  15 str  14  13   1.408
  16 str  15   2   1.450
  17 str  15  14   1.390
  18 str  16  15   1.433
  19 str  17  16   1.363
  20 str  18   1   1.363
  21 str  18  17   1.429
  22 str  19   1   1.085
  23 str  20   3   1.086
  24 str  21   5   1.086
  25 str  22   7   1.085
  26 str  23   8   1.084
  27 str  24   9   1.084
  28 str  25  10   1.085
  29 str  26  12   1.086
  30 str  27  14   1.086
  31 str  28  16   1.085
  32 str  29  17   1.084
  33 str  30  18   1.084
 nber stretches=          33
  34 ben   1   2   3
  35 prop tor   1   2   3   4
  36 prop tor   1   2   3  20
  37 ben   1   2  15
  38 prop tor   1   2  15  14
  39 prop tor   1   2  15  16
  40 ben   1  18  17
  41 ben   1  18  30
  42 ben   2   1  18
  43 prop tor   2   1  18  17
  44 prop tor   2   1  18  30
  45 ben   2   1  19
  46 ben   2   3   4
  47 prop tor   2   3   4   5
  48 prop tor   2   3   4  13
  49 ben   2   3  20
  50 ben   2  15  14
  51 ben   2  15  16
  52 prop tor   2  15  16  17
  53 prop tor   2  15  16  28
  54 ben   3   2  15
  55 prop tor   3   2  15  14
  56 prop tor   3   2  15  16
  57 ben   3   4   5
  58 prop tor   3   4   5   6
  59 prop tor   3   4   5  21
  60 ben   3   4  13
  61 prop tor   3   4  13  12
  62 prop tor   3   4  13  14
  63 ben   4   3  20
  64 ben   4   5   6
  65 prop tor   4   5   6   7
  66 prop tor   4   5   6  11
  67 ben   4   5  21
  68 ben   4  13  12
  69 ben   4  13  14
  70 prop tor   4  13  14  15
  71 prop tor   4  13  14  27
  72 ben   5   4  13
  73 prop tor   5   4  13  12
  74 prop tor   5   4  13  14
  75 ben   5   6   7
  76 prop tor   5   6   7   8
  77 prop tor   5   6   7  22
  78 ben   5   6  11
  79 prop tor   5   6  11  10
  80 prop tor   5   6  11  12
  81 ben   6   5  21
  82 ben   6   7   8
  83 prop tor   6   7   8   9
  84 prop tor   6   7   8  23
  85 ben   6   7  22
  86 ben   6  11  10
  87 ben   6  11  12
  88 prop tor   6  11  12  13
  89 prop tor   6  11  12  26
  90 ben   7   6  11
  91 prop tor   7   6  11  10
  92 prop tor   7   6  11  12
  93 ben   7   8   9
  94 prop tor   7   8   9  10
  95 prop tor   7   8   9  24
  96 ben   7   8  23
  97 ben   8   7  22
  98 ben   8   9  10
  99 prop tor   8   9  10  11
 100 prop tor   8   9  10  25
 101 ben   8   9  24
 102 ben   9   8  23
 103 ben   9  10  11
 104 prop tor   9  10  11   6
 105 prop tor   9  10  11  12
 106 ben   9  10  25
 107 ben  10   9  24
 108 ben  10  11  12
 109 prop tor  10  11  12  13
 110 prop tor  10  11  12  26
 111 prop tor  11   6   7   8
 112 prop tor  11   6   7  22
 113 ben  11  10  25
 114 ben  11  12  13
 115 prop tor  11  12  13   4
 116 prop tor  11  12  13  14
 117 ben  11  12  26
 118 ben  12  13  14
 119 prop tor  12  13  14  15
 120 prop tor  12  13  14  27
 121 prop tor  13   4   5   6
 122 prop tor  13   4   5  21
 123 ben  13  12  26
 124 ben  13  14  15
 125 prop tor  13  14  15   2
 126 prop tor  13  14  15  16
 127 ben  13  14  27
 128 ben  14  15  16
 129 prop tor  14  15  16  17
 130 prop tor  14  15  16  28
 131 prop tor  15   2   3   4
 132 prop tor  15   2   3  20
 133 ben  15  14  27
 134 ben  15  16  17
 135 prop tor  15  16  17  18
 136 prop tor  15  16  17  29
 137 ben  15  16  28
 138 ben  16  17  18
 139 prop tor  16  17  18   1
 140 prop tor  16  17  18  30
 141 ben  16  17  29
 142 ben  17  16  28
 143 ben  17  18  30
 144 prop tor  18   1   2   3
 145 prop tor  18   1   2  15
 146 ben  18   1  19
 147 ben  18  17  29
 148 prop tor  19   1   2   3
 149 prop tor  19   1   2  15
 150 prop tor  19   1  18  17
 151 prop tor  19   1  18  30
 152 prop tor  20   3   4   5
 153 prop tor  20   3   4  13
 154 prop tor  21   5   6   7
 155 prop tor  21   5   6  11
 156 prop tor  22   7   8   9
 157 prop tor  22   7   8  23
 158 prop tor  23   8   9  10
 159 prop tor  23   8   9  24
 160 prop tor  24   9  10  11
 161 prop tor  24   9  10  25
 162 prop tor  25  10  11   6
 163 prop tor  25  10  11  12
 164 prop tor  26  12  13   4
 165 prop tor  26  12  13  14
 166 prop tor  27  14  15   2
 167 prop tor  27  14  15  16
 168 prop tor  28  16  17  18
 169 prop tor  28  16  17  29
 170 prop tor  29  17  18   1
 171 prop tor  29  17  18  30
 nber bend=              54
 nber lin bend=           0
 nber prop tor=          84
 nber impr tor=           0
 nber tot redund int=         171
 Eigenvalues of G in red int coords
    Gval -0.00000000 -0.00000000 -0.00000000 -0.00000000 -0.00000000 -0.00000000 -0.00000000 -0.00000000
    Gval -0.00000000 -0.00000000 -0.00000000 -0.00000000 -0.00000000 -0.00000000 -0.00000000 -0.00000000
    Gval -0.00000000 -0.00000000 -0.00000000 -0.00000000 -0.00000000 -0.00000000 -0.00000000 -0.00000000
    Gval -0.00000000 -0.00000000 -0.00000000 -0.00000000 -0.00000000 -0.00000000 -0.00000000 -0.00000000
    Gval -0.00000000 -0.00000000 -0.00000000 -0.00000000 -0.00000000 -0.00000000 -0.00000000 -0.00000000
    Gval -0.00000000 -0.00000000 -0.00000000 -0.00000000 -0.00000000 -0.00000000 -0.00000000 -0.00000000
    Gval -0.00000000  0.00000000  0.00000000  0.00000000  0.00000000  0.00000000  0.00000000  0.00000000
    Gval  0.00000000  0.00000000  0.00000000  0.00000000  0.00000000  0.00000000  0.00000000  0.00000000
    Gval  0.00000000  0.00000000  0.00000000  0.00000000  0.00000000  0.00000000  0.00000000  0.00000000
    Gval  0.00000000  0.00000000  0.00000000  0.00000000  0.00000000  0.00000000  0.00000000  0.00000000
    Gval  0.00000000  0.00000000  0.00000000  0.00000000  0.00000000  0.00000000  0.00000000  0.00000375
    Gval  0.00000606  0.00001330  0.00001763  0.00002275  0.00003491  0.00003954  0.00004139  0.00004287
    Gval  0.00004573  0.00004929  0.00006125  0.00006270  0.00006726  0.00007186  0.00008167  0.00009168
    Gval  0.00009981  0.00010282  0.00010294  0.00011888  0.00013061  0.00013982  0.00015864  0.00017170
    Gval  0.00017316  0.00020376  0.00023244  0.00028382  0.00029100  0.00029531  0.00033056  0.00037679
    Gval  0.00038123  0.00038747  0.00039687  0.00041378  0.00041601  0.00043293  0.00048298  0.00059310
    Gval  0.00059311  0.00059683  0.00059690  0.00060835  0.00061326  0.00062210  0.00062690  0.00063674
    Gval  0.00064832  0.00065596  0.00065826  0.00072031  0.00078675  0.00079180  0.00088722  0.00100133
    Gval  0.00105037  0.00105090  0.00111189  0.00111198  0.00111294  0.00112122  0.00112653  0.00112678
    Gval  0.00116172  0.00116178  0.00117003  0.00117003  0.00165712  0.00177076  0.00177086  0.00188184
    Gval  0.00200410  0.00255825  0.00259519  0.00285901  0.00297542  0.00321678  0.00330012  0.00354792
    Gval  0.00359240  0.00400193  0.00400385
  3.747674412625572E-006  3.747674412625572E-006
  6.057600306710884E-006  3.747674412625572E-006
  1.329834434078295E-005  3.747674412625572E-006
  1.762900189550031E-005  3.747674412625572E-006
  2.274569402763681E-005  3.747674412625572E-006
  3.490728544774432E-005  3.747674412625572E-006
  3.953638590630448E-005  3.747674412625572E-006
  4.138659248603317E-005  3.747674412625572E-006
  4.286511398977358E-005  3.747674412625572E-006
  4.572923477283099E-005  3.747674412625572E-006
  4.929084997457548E-005  3.747674412625572E-006
  6.125243532926147E-005  3.747674412625572E-006
  6.270105003670316E-005  3.747674412625572E-006
  6.726074543949212E-005  3.747674412625572E-006
  7.186065209690458E-005  3.747674412625572E-006
  8.166704532747667E-005  3.747674412625572E-006
  9.168057513039256E-005  3.747674412625572E-006
  9.980585807087149E-005  3.747674412625572E-006
  1.028190072630510E-004  3.747674412625572E-006
  1.029360281867943E-004  3.747674412625572E-006
  1.188835455566111E-004  3.747674412625572E-006
  1.306118772313308E-004  3.747674412625572E-006
  1.398217002544585E-004  3.747674412625572E-006
  1.586394938089029E-004  3.747674412625572E-006
  1.716995943901278E-004  3.747674412625572E-006
  1.731591086460345E-004  3.747674412625572E-006
  2.037648087114415E-004  3.747674412625572E-006
  2.324366160970782E-004  3.747674412625572E-006
  2.838151550539664E-004  3.747674412625572E-006
  2.910015107434058E-004  3.747674412625572E-006
  2.953108312698832E-004  3.747674412625572E-006
  3.305580565396013E-004  3.747674412625572E-006
  3.767944582691261E-004  3.747674412625572E-006
  3.812288868691334E-004  3.747674412625572E-006
  3.874654098791016E-004  3.747674412625572E-006
  3.968693876867405E-004  3.747674412625572E-006
  4.137777293865773E-004  3.747674412625572E-006
  4.160134062723807E-004  3.747674412625572E-006
  4.329287241797022E-004  3.747674412625572E-006
  4.829819631730000E-004  3.747674412625572E-006
  5.930968706268707E-004  3.747674412625572E-006
  5.931072281310756E-004  3.747674412625572E-006
  5.968300009915549E-004  3.747674412625572E-006
  5.968950187835243E-004  3.747674412625572E-006
  6.083522326756753E-004  3.747674412625572E-006
  6.132576671206606E-004  3.747674412625572E-006
  6.220955118806826E-004  3.747674412625572E-006
  6.268954732658920E-004  3.747674412625572E-006
  6.367399221378039E-004  3.747674412625572E-006
  6.483229976180866E-004  3.747674412625572E-006
  6.559567143460628E-004  3.747674412625572E-006
  6.582647869847401E-004  3.747674412625572E-006
  7.203077916206651E-004  3.747674412625572E-006
  7.867504770650474E-004  3.747674412625572E-006
  7.918024649408379E-004  3.747674412625572E-006
  8.872159271175619E-004  3.747674412625572E-006
  1.001325314422607E-003  3.747674412625572E-006
  1.050373472145779E-003  3.747674412625572E-006
  1.050904291224843E-003  3.747674412625572E-006
  1.111886892503904E-003  3.747674412625572E-006
  1.111983795771421E-003  3.747674412625572E-006
  1.112940996097746E-003  3.747674412625572E-006
  1.121221236702196E-003  3.747674412625572E-006
  1.126526483533067E-003  3.747674412625572E-006
  1.126782623920673E-003  3.747674412625572E-006
  1.161723433485111E-003  3.747674412625572E-006
  1.161775745562835E-003  3.747674412625572E-006
  1.170031879225752E-003  3.747674412625572E-006
  1.170031938408418E-003  3.747674412625572E-006
  1.657115101066898E-003  3.747674412625572E-006
  1.770758791403803E-003  3.747674412625572E-006
  1.770855593054598E-003  3.747674412625572E-006
  1.881840559692859E-003  3.747674412625572E-006
  2.004104706769413E-003  3.747674412625572E-006
  2.558253111923142E-003  3.747674412625572E-006
  2.595187490112763E-003  3.747674412625572E-006
  2.859013760619385E-003  3.747674412625572E-006
  2.975415825190231E-003  3.747674412625572E-006
  3.216777258340179E-003  3.747674412625572E-006
  3.300124863107293E-003  3.747674412625572E-006
  3.547921746059054E-003  3.747674412625572E-006
  3.592399135326534E-003  3.747674412625572E-006
  4.001927081016397E-003  3.747674412625572E-006
  4.003854276531506E-003  3.747674412625572E-006
 cut=1d-8, nber non-redundant internal coords=          84
 Check on Eigenvals of non-red overlap matrix:
  0.00000375  0.00000606  0.00001330  0.00001763  0.00002275  0.00003491  0.00003954  0.00004139
  0.00004287  0.00004573  0.00004929  0.00006125  0.00006270  0.00006726  0.00007186  0.00008167
  0.00009168  0.00009981  0.00010282  0.00010294  0.00011888  0.00013061  0.00013982  0.00015864
  0.00017170  0.00017316  0.00020376  0.00023244  0.00028382  0.00029100  0.00029531  0.00033056
  0.00037679  0.00038123  0.00038747  0.00039687  0.00041378  0.00041601  0.00043293  0.00048298
  0.00059310  0.00059311  0.00059683  0.00059690  0.00060835  0.00061326  0.00062210  0.00062690
  0.00063674  0.00064832  0.00065596  0.00065826  0.00072031  0.00078675  0.00079180  0.00088722
  0.00100133  0.00105037  0.00105090  0.00111189  0.00111198  0.00111294  0.00112122  0.00112653
  0.00112678  0.00116172  0.00116178  0.00117003  0.00117003  0.00165712  0.00177076  0.00177086
  0.00188184  0.00200410  0.00255825  0.00259519  0.00285901  0.00297542  0.00321678  0.00330012
  0.00354792  0.00359240  0.00400193  0.00400385
 Checking for correct frequencies
 recalc frequencies=
    -0.0   -0.0   -0.0   -0.0   -0.0    0.0   55.0   89.4  149.3  163.0
   191.2  270.8  304.9  317.7  317.8  382.0  448.2  472.3  476.4  482.2
   505.1  519.3  562.7  567.2  618.3  634.6  645.0  733.8  744.2  757.3
   757.4  762.8  768.7  777.3  788.2  841.5  853.0  862.0  867.8  889.9
   910.6  913.7  914.8  945.3  971.1  972.5  995.4  995.5 1020.5 1022.5
  1147.4 1149.7 1151.6 1186.0 1189.1 1204.4 1223.4 1224.3 1291.2 1298.9
  1315.6 1318.3 1359.7 1368.2 1411.9 1417.9 1424.2 1432.4 1479.6 1481.7
  1501.5 1557.6 1578.1 1583.5 1608.9 1648.7 1663.1 1677.3 3153.5 3155.3
  3155.8 3157.4 3158.6 3158.7 3162.2 3163.3 3175.1 3175.2 3187.0 3187.2
 recalc symmetries=
     B3g    B2g    B2u    B3u    B1g    B1u    B3u    Au     B1g    B1u
     B2g    B3u    B3g    Au     Ag     B1g    B1u    B3u    B1g    B3u
     B3g    B2g    B2u    Au     B1u    Ag     B2u    B2g    B1g    B2u
     B3u    Ag     Au     B2g    B3g    Au     B2g    B1g    Ag     Au 
     B3g    B3u    B2g    B1u    B1g    B3u    Au     B2g    B2u    Ag 
     B2u    B1u    B3g    Ag     B2u    B3g    B1u    Ag     B3g    B1u
     B1u    B2u    B3g    B2u    Ag     B1u    Ag     B2u    Ag     B3g
     B2u    Ag     Ag     B2u    B1u    B3g    B3g    B1u    B3g    B2u
     B1u    B3g    Ag     B1u    B2u    Ag     B3g    B1u    B2u    Ag 
 recalc freqs check OK
 Zero-point lengths:
 10.0000 10.0000 10.0000 10.0000 10.0000 10.0000 33.4183 26.2266 20.2896 19.4165
 17.9269 15.0649 14.1965 13.9080 13.9055 12.6849 11.7103 11.4072 11.3582 11.2902
 11.0307 10.8788 10.4514 10.4092  9.9698  9.8411  9.7614  9.1518  9.0878  9.0088
  9.0081  8.9759  8.9416  8.8920  8.8306  8.5459  8.4884  8.4440  8.4158  8.3106
  8.2153  8.2013  8.1964  8.0634  7.9556  7.9498  7.8579  7.8571  7.7606  7.7529
  7.3189  7.3114  7.3056  7.1987  7.1893  7.1436  7.0879  7.0853  6.8992  6.8787
  6.8350  6.8280  6.7231  6.7022  6.5978  6.5838  6.5693  6.5503  6.4450  6.4405
  6.3978  6.2816  6.2406  6.2299  6.1805  6.1056  6.0792  6.0533  4.4147  4.4134
  4.4131  4.4119  4.4111  4.4111  4.4086  4.4078  4.3997  4.3996  4.3914  4.3913
 highest evec of mol 1
  0.0000  0.0067 -0.0644
  0.0000  0.0026  0.0003
  0.0000 -0.0001 -0.0066
  0.0000  0.0000  0.0003
  0.0000  0.0001 -0.0066
  0.0000 -0.0026  0.0003
  0.0000 -0.0067 -0.0644
  0.0000  0.1175 -0.0651
  0.0000  0.1175  0.0651
  0.0000 -0.0067  0.0644
  0.0000 -0.0026 -0.0003
  0.0000  0.0001  0.0066
  0.0000  0.0000 -0.0003
  0.0000 -0.0001  0.0066
  0.0000  0.0026 -0.0003
  0.0000  0.0067  0.0644
  0.0000 -0.1175  0.0651
  0.0000 -0.1175 -0.0651
  0.0000 -0.0017  0.2007
  0.0000 -0.0006  0.0217
  0.0000  0.0006  0.0217
  0.0000  0.0017  0.2007
  0.0000 -0.3766  0.2125
  0.0000 -0.3766 -0.2125
  0.0000  0.0017 -0.2007
  0.0000  0.0006 -0.0217
  0.0000 -0.0006 -0.0217
  0.0000 -0.0017 -0.2007
  0.0000  0.3766 -0.2125
  0.0000  0.3766  0.2125
 generating redundant internal coords
         300        3600          30
 Adding extra bonds for z output only
           6           6           6           6           6           6
           6           6           6           6           6           6
           6           6           6           6           6           6
           1           1           1           1           1           1
           1           1           1           1           1           1
 search for int coords
   1 str   2   1   1.433
   2 str   3   2   1.390
   3 str   4   3   1.408
   4 str   5   4   1.408
   5 str   6   5   1.390
   6 str   7   6   1.433
   7 str   8   7   1.363
   8 str   9   8   1.429
   9 str  10   9   1.363
  10 str  11   6   1.450
  11 str  11  10   1.433
  12 str  12  11   1.390
  13 str  13   4   1.450
  14 str  13  12   1.408
  15 str  14  13   1.408
  16 str  15   2   1.450
  17 str  15  14   1.390
  18 str  16  15   1.433
  19 str  17  16   1.363
  20 str  18   1   1.363
  21 str  18  17   1.429
  22 str  19   1   1.085
  23 str  20   3   1.086
  24 str  21   5   1.086
  25 str  22   7   1.085
  26 str  23   8   1.084
  27 str  24   9   1.084
  28 str  25  10   1.085
  29 str  26  12   1.086
  30 str  27  14   1.086
  31 str  28  16   1.085
  32 str  29  17   1.084
  33 str  30  18   1.084
 nber stretches=          33
  34 ben   1   2   3
  35 prop tor   1   2   3   4
  36 prop tor   1   2   3  20
  37 ben   1   2  15
  38 prop tor   1   2  15  14
  39 prop tor   1   2  15  16
  40 ben   1  18  17
  41 ben   1  18  30
  42 ben   2   1  18
  43 prop tor   2   1  18  17
  44 prop tor   2   1  18  30
  45 ben   2   1  19
  46 ben   2   3   4
  47 prop tor   2   3   4   5
  48 prop tor   2   3   4  13
  49 ben   2   3  20
  50 ben   2  15  14
  51 ben   2  15  16
  52 prop tor   2  15  16  17
  53 prop tor   2  15  16  28
  54 ben   3   2  15
  55 prop tor   3   2  15  14
  56 prop tor   3   2  15  16
  57 ben   3   4   5
  58 prop tor   3   4   5   6
  59 prop tor   3   4   5  21
  60 ben   3   4  13
  61 prop tor   3   4  13  12
  62 prop tor   3   4  13  14
  63 ben   4   3  20
  64 ben   4   5   6
  65 prop tor   4   5   6   7
  66 prop tor   4   5   6  11
  67 ben   4   5  21
  68 ben   4  13  12
  69 ben   4  13  14
  70 prop tor   4  13  14  15
  71 prop tor   4  13  14  27
  72 ben   5   4  13
  73 prop tor   5   4  13  12
  74 prop tor   5   4  13  14
  75 ben   5   6   7
  76 prop tor   5   6   7   8
  77 prop tor   5   6   7  22
  78 ben   5   6  11
  79 prop tor   5   6  11  10
  80 prop tor   5   6  11  12
  81 ben   6   5  21
  82 ben   6   7   8
  83 prop tor   6   7   8   9
  84 prop tor   6   7   8  23
  85 ben   6   7  22
  86 ben   6  11  10
  87 ben   6  11  12
  88 prop tor   6  11  12  13
  89 prop tor   6  11  12  26
  90 ben   7   6  11
  91 prop tor   7   6  11  10
  92 prop tor   7   6  11  12
  93 ben   7   8   9
  94 prop tor   7   8   9  10
  95 prop tor   7   8   9  24
  96 ben   7   8  23
  97 ben   8   7  22
  98 ben   8   9  10
  99 prop tor   8   9  10  11
 100 prop tor   8   9  10  25
 101 ben   8   9  24
 102 ben   9   8  23
 103 ben   9  10  11
 104 prop tor   9  10  11   6
 105 prop tor   9  10  11  12
 106 ben   9  10  25
 107 ben  10   9  24
 108 ben  10  11  12
 109 prop tor  10  11  12  13
 110 prop tor  10  11  12  26
 111 prop tor  11   6   7   8
 112 prop tor  11   6   7  22
 113 ben  11  10  25
 114 ben  11  12  13
 115 prop tor  11  12  13   4
 116 prop tor  11  12  13  14
 117 ben  11  12  26
 118 ben  12  13  14
 119 prop tor  12  13  14  15
 120 prop tor  12  13  14  27
 121 prop tor  13   4   5   6
 122 prop tor  13   4   5  21
 123 ben  13  12  26
 124 ben  13  14  15
 125 prop tor  13  14  15   2
 126 prop tor  13  14  15  16
 127 ben  13  14  27
 128 ben  14  15  16
 129 prop tor  14  15  16  17
 130 prop tor  14  15  16  28
 131 prop tor  15   2   3   4
 132 prop tor  15   2   3  20
 133 ben  15  14  27
 134 ben  15  16  17
 135 prop tor  15  16  17  18
 136 prop tor  15  16  17  29
 137 ben  15  16  28
 138 ben  16  17  18
 139 prop tor  16  17  18   1
 140 prop tor  16  17  18  30
 141 ben  16  17  29
 142 ben  17  16  28
 143 ben  17  18  30
 144 prop tor  18   1   2   3
 145 prop tor  18   1   2  15
 146 ben  18   1  19
 147 ben  18  17  29
 148 prop tor  19   1   2   3
 149 prop tor  19   1   2  15
 150 prop tor  19   1  18  17
 151 prop tor  19   1  18  30
 152 prop tor  20   3   4   5
 153 prop tor  20   3   4  13
 154 prop tor  21   5   6   7
 155 prop tor  21   5   6  11
 156 prop tor  22   7   8   9
 157 prop tor  22   7   8  23
 158 prop tor  23   8   9  10
 159 prop tor  23   8   9  24
 160 prop tor  24   9  10  11
 161 prop tor  24   9  10  25
 162 prop tor  25  10  11   6
 163 prop tor  25  10  11  12
 164 prop tor  26  12  13   4
 165 prop tor  26  12  13  14
 166 prop tor  27  14  15   2
 167 prop tor  27  14  15  16
 168 prop tor  28  16  17  18
 169 prop tor  28  16  17  29
 170 prop tor  29  17  18   1
 171 prop tor  29  17  18  30
 nber bend=              54
 nber lin bend=           0
 nber prop tor=          84
 nber impr tor=           0
 nber tot redund int=         171
 Reading file: 
 ./Benzene_Conj_3_C-1S0.log                                                     
                                          
  Entering Gaussian System, Link 0=g16                                          
  
 Gaussian format, type: g94, g98, g03= F F F
  #P Geom=AllCheck Guess=TCheck SCRF=Check GenChk UB3LYP/6-311G(d,p) Fre    
 energy type= B3LYP   
 Original G94 input coords:
  6  3.723675 -1.396365  0.000000
  6  2.471820 -0.724467  0.000000
  6  1.238207 -1.400841  0.000000
  6  0.000000 -0.730233  0.000000
  6 -1.238207 -1.400841  0.000000
  6 -2.471820 -0.724467  0.000000
  6 -3.723675 -1.396365  0.000000
  6 -4.921414 -0.705220  0.000000
  6 -4.921414  0.705220  0.000000
  6 -3.723675  1.396365  0.000000
  6 -2.471820  0.724467  0.000000
  6 -1.238207  1.400841  0.000000
  6  0.000000  0.730233  0.000000
  6  1.238207  1.400841  0.000000
  6  2.471820  0.724467  0.000000
  6  3.723675  1.396365  0.000000
  6  4.921414  0.705220  0.000000
  6  4.921414 -0.705220  0.000000
  1  3.723472 -2.483684  0.000000
  1  1.239717 -2.488480  0.000000
  1 -1.239717 -2.488480  0.000000
  1 -3.723472 -2.483684  0.000000
  1 -5.862543 -1.247484  0.000000
  1 -5.862543  1.247484  0.000000
  1 -3.723472  2.483684  0.000000
  1 -1.239717  2.488480  0.000000
  1  1.239717  2.488480  0.000000
  1  3.723472  2.483684  0.000000
  1  5.862543  1.247484  0.000000
  1  5.862543 -1.247484  0.000000
 nber atoms=          30
 Original standard coords:
  6  0.000000  3.723675  1.396365
  6  0.000000  2.471820  0.724467
  6  0.000000  1.238207  1.400841
  6  0.000000  0.000000  0.730233
  6  0.000000 -1.238207  1.400841
  6  0.000000 -2.471820  0.724467
  6  0.000000 -3.723675  1.396365
  6  0.000000 -4.921414  0.705220
  6  0.000000 -4.921414 -0.705220
  6  0.000000 -3.723675 -1.396365
  6  0.000000 -2.471820 -0.724467
  6  0.000000 -1.238207 -1.400841
  6  0.000000  0.000000 -0.730233
  6  0.000000  1.238207 -1.400841
  6  0.000000  2.471820 -0.724467
  6  0.000000  3.723675 -1.396365
  6  0.000000  4.921414 -0.705220
  6  0.000000  4.921414  0.705220
  1  0.000000  3.723472  2.483684
  1  0.000000  1.239717  2.488480
  1  0.000000 -1.239717  2.488480
  1  0.000000 -3.723472  2.483684
  1  0.000000 -5.862543  1.247484
  1  0.000000 -5.862543 -1.247484
  1  0.000000 -3.723472 -2.483684
  1  0.000000 -1.239717 -2.488480
  1  0.000000  1.239717 -2.488480
  1  0.000000  3.723472 -2.483684
  1  0.000000  5.862543 -1.247484
  1  0.000000  5.862543  1.247484
  SCF Done:  E(UB3LYP) =  -693.359647531     A.U. after    1 cycles             
  
          23          40 "  -693.359647531"
After scan for Atom:   Atom  AN      X      Y      Z        X      Y      Z        X      Y      Z   
After scan for Atom:   Atom  AN      X      Y      Z        X      Y      Z        X      Y      Z   
After scan for Atom:   Atom  AN      X      Y      Z        X      Y      Z        X      Y      Z   
After scan for Atom:   Atom  AN      X      Y      Z        X      Y      Z        X      Y      Z   
After scan for Atom:   Atom  AN      X      Y      Z        X      Y      Z        X      Y      Z   
After scan for Atom:   Atom  AN      X      Y      Z        X      Y      Z        X      Y      Z   
After scan for Atom:   Atom  AN      X      Y      Z        X      Y      Z        X      Y      Z   
After scan for Atom:   Atom  AN      X      Y      Z        X      Y      Z        X      Y      Z   
After scan for Atom:   Atom  AN      X      Y      Z        X      Y      Z        X      Y      Z   
After scan for Atom:   Atom  AN      X      Y      Z        X      Y      Z        X      Y      Z   
After scan for Atom:   Atom  AN      X      Y      Z        X      Y      Z        X      Y      Z   
After scan for Atom:   Atom  AN      X      Y      Z        X      Y      Z        X      Y      Z   
After scan for Atom:   Atom  AN      X      Y      Z        X      Y      Z        X      Y      Z   
After scan for Atom:   Atom  AN      X      Y      Z        X      Y      Z        X      Y      Z   
After scan for Atom:   Atom  AN      X      Y      Z        X      Y      Z        X      Y      Z   
After scan for Atom:   Atom  AN      X      Y      Z        X      Y      Z        X      Y      Z   
After scan for Atom:   Atom  AN      X      Y      Z        X      Y      Z        X      Y      Z   
After scan for Atom:   Atom  AN      X      Y      Z        X      Y      Z        X      Y      Z   
After scan for Atom:   Atom  AN      X      Y      Z        X      Y      Z        X      Y      Z   
After scan for Atom:   Atom  AN      X      Y      Z        X      Y      Z        X      Y      Z   
After scan for Atom:   Atom  AN      X      Y      Z        X      Y      Z        X      Y      Z   
After scan for Atom:   Atom  AN      X      Y      Z        X      Y      Z        X      Y      Z   
After scan for Atom:   Atom  AN      X      Y      Z        X      Y      Z        X      Y      Z   
After scan for Atom:   Atom  AN      X      Y      Z        X      Y      Z        X      Y      Z   
After scan for Atom:   Atom  AN      X      Y      Z        X      Y      Z        X      Y      Z   
After scan for Atom:   Atom  AN      X      Y      Z        X      Y      Z        X      Y      Z   
After scan for Atom:   Atom  AN      X      Y      Z        X      Y      Z        X      Y      Z   
After scan for Atom:   Atom  AN      X      Y      Z        X      Y      Z        X      Y      Z   
 g94    frequencies=
     0.0    0.0    0.0    0.0    0.0    0.0   56.0   85.1  150.1  162.6
   190.3  288.9  297.9  301.8  316.4  347.5  446.7  460.6  466.7  470.0
   507.6  552.2  559.8  570.0  623.8  632.0  635.1  706.0  719.9  720.3
   740.4  751.3  754.6  758.7  770.5  778.6  783.3  805.4  821.0  835.1
   846.3  865.2  884.8  886.0  899.2  916.8  917.0  938.5 1038.0 1038.5
  1125.3 1128.7 1160.0 1167.7 1174.6 1190.4 1215.9 1224.2 1279.2 1284.5
  1291.1 1297.9 1326.1 1366.9 1387.2 1403.8 1409.3 1409.9 1461.6 1467.4
  1501.7 1522.6 1529.7 1556.2 1556.5 1565.7 1608.3 1612.6 3117.6 3118.5
  3119.5 3120.7 3123.3 3125.0 3126.7 3130.3 3140.1 3140.4 3157.1 3157.8
 g94    symmetries=
                                                B3     AU     B1     B1
      B2     B3     AU     B3     AG     B1     B1     B3     B1     B3
      B3     B2     B2     AU     B1     AG     B2     B1     B2     B3
      AU     AG     B2     B2     AU     B1     B3     B2     B3     AU
      B2     AG     B1     B3     B3     AU     B2     B1     AG     B2
      B1     B3     B2     AG     B3     B2     B1     AG     B3     B1
      B2     B1     B3     B2     AG     AG     B2     B1     B3     AG
      B2     B3     AG     B2     B1     AG     B1     B3     B3     B1
      B2     B3     AG     B1     B2     AG     B3     B1     B2     AG
 atomic masses:
 12.0000 12.0000 12.0000 12.0000 12.0000 12.0000 12.0000 12.0000 12.0000 12.0000
 12.0000 12.0000 12.0000 12.0000 12.0000 12.0000 12.0000 12.0000  1.0078  1.0078
  1.0078  1.0078  1.0078  1.0078  1.0078  1.0078  1.0078  1.0078  1.0078  1.0078
 looking for force constants in 
 ./Benzene_Conj_3_C-1S0.fchk                                                    
  
 Cartesian Force Constants                  R   N=        4095                  
  
 n3=          90        4095
 g94-fc frequencies=
    -7.4   -4.6   -3.3   -0.0   -0.0    0.0   56.0   85.1  150.1  162.6
   190.3  289.0  297.9  301.8  316.4  347.5  446.7  460.6  466.8  470.0
   507.6  552.2  559.8  570.1  623.9  632.0  635.1  706.0  719.9  720.3
   740.4  751.3  754.6  758.7  770.5  778.6  783.4  805.4  821.0  835.1
   846.3  865.2  884.9  886.0  899.2  916.9  917.0  938.5 1038.1 1038.5
  1125.4 1128.7 1160.0 1167.7 1174.6 1190.4 1215.9 1224.2 1279.3 1284.5
  1291.1 1298.0 1326.1 1366.9 1387.2 1403.8 1409.3 1409.9 1461.6 1467.4
  1501.8 1522.6 1529.8 1556.2 1556.5 1565.7 1608.4 1612.7 3117.6 3118.5
  3119.6 3120.8 3123.3 3125.1 3126.8 3130.3 3140.2 3140.4 3157.2 3157.9
 at 99999: n3=          90
 symm operator            1 :  T  nop=           1
 symm operator            2 :  T  nop=           2
 symm operator            3 :  T  nop=           3
 symm operator            4 :  T  nop=           4
 symm operator            5 :  T  nop=           5
 symm operator            6 :  T  nop=           6
 symm operator            7 :  T  nop=           7
 The point group of the molecule is D2H
 enforcing symm op           1  jsymt=          -1          -1           1
 enforcing symm op           2  jsymt=          -1           1          -1
 enforcing symm op           3  jsymt=           1          -1          -1
 enforcing symm op           4  jsymt=          -1          -1          -1
 enforcing symm op           5  jsymt=           1           1          -1
 enforcing symm op           6  jsymt=           1          -1           1
 enforcing symm op           7  jsymt=          -1           1           1
 cartesian coord symmetries:
 Ag :   15 Au :    7 B1g:    7 B1u:   15 B2g:    8 B2u:   15 B3g:   15 B3u:    8
 Symmetry rotation matrix:
   1.00000   0.00000   0.00000
   0.00000   1.00000   0.00000
   0.00000   0.00000   1.00000

 Projecting out zero-frequency components
 generating redundant internal coords
         300        3600          30
 search for int coords
   1 str   2   1   1.421
   2 str   3   2   1.407
   3 str   4   3   1.408
   4 str   5   4   1.408
   5 str   6   5   1.407
   6 str   7   6   1.421
   7 str   8   7   1.383
   8 str   9   8   1.410
   9 str  10   9   1.383
  10 str  11   6   1.449
  11 str  11  10   1.421
  12 str  12  11   1.407
  13 str  13   4   1.460
  14 str  13  12   1.408
  15 str  14  13   1.408
  16 str  15   2   1.449
  17 str  15  14   1.407
  18 str  16  15   1.421
  19 str  17  16   1.383
  20 str  18   1   1.383
  21 str  18  17   1.410
  22 str  19   1   1.087
  23 str  20   3   1.088
  24 str  21   5   1.088
  25 str  22   7   1.087
  26 str  23   8   1.086
  27 str  24   9   1.086
  28 str  25  10   1.087
  29 str  26  12   1.088
  30 str  27  14   1.088
  31 str  28  16   1.087
  32 str  29  17   1.086
  33 str  30  18   1.086
 nber stretches=          33
  34 ben   1   2   3
  35 prop tor   1   2   3   4
  36 prop tor   1   2   3  20
  37 ben   1   2  15
  38 prop tor   1   2  15  14
  39 prop tor   1   2  15  16
  40 ben   1  18  17
  41 ben   1  18  30
  42 ben   2   1  18
  43 prop tor   2   1  18  17
  44 prop tor   2   1  18  30
  45 ben   2   1  19
  46 ben   2   3   4
  47 prop tor   2   3   4   5
  48 prop tor   2   3   4  13
  49 ben   2   3  20
  50 ben   2  15  14
  51 ben   2  15  16
  52 prop tor   2  15  16  17
  53 prop tor   2  15  16  28
  54 ben   3   2  15
  55 prop tor   3   2  15  14
  56 prop tor   3   2  15  16
  57 ben   3   4   5
  58 prop tor   3   4   5   6
  59 prop tor   3   4   5  21
  60 ben   3   4  13
  61 prop tor   3   4  13  12
  62 prop tor   3   4  13  14
  63 ben   4   3  20
  64 ben   4   5   6
  65 prop tor   4   5   6   7
  66 prop tor   4   5   6  11
  67 ben   4   5  21
  68 ben   4  13  12
  69 ben   4  13  14
  70 prop tor   4  13  14  15
  71 prop tor   4  13  14  27
  72 ben   5   4  13
  73 prop tor   5   4  13  12
  74 prop tor   5   4  13  14
  75 ben   5   6   7
  76 prop tor   5   6   7   8
  77 prop tor   5   6   7  22
  78 ben   5   6  11
  79 prop tor   5   6  11  10
  80 prop tor   5   6  11  12
  81 ben   6   5  21
  82 ben   6   7   8
  83 prop tor   6   7   8   9
  84 prop tor   6   7   8  23
  85 ben   6   7  22
  86 ben   6  11  10
  87 ben   6  11  12
  88 prop tor   6  11  12  13
  89 prop tor   6  11  12  26
  90 ben   7   6  11
  91 prop tor   7   6  11  10
  92 prop tor   7   6  11  12
  93 ben   7   8   9
  94 prop tor   7   8   9  10
  95 prop tor   7   8   9  24
  96 ben   7   8  23
  97 ben   8   7  22
  98 ben   8   9  10
  99 prop tor   8   9  10  11
 100 prop tor   8   9  10  25
 101 ben   8   9  24
 102 ben   9   8  23
 103 ben   9  10  11
 104 prop tor   9  10  11   6
 105 prop tor   9  10  11  12
 106 ben   9  10  25
 107 ben  10   9  24
 108 ben  10  11  12
 109 prop tor  10  11  12  13
 110 prop tor  10  11  12  26
 111 prop tor  11   6   7   8
 112 prop tor  11   6   7  22
 113 ben  11  10  25
 114 ben  11  12  13
 115 prop tor  11  12  13   4
 116 prop tor  11  12  13  14
 117 ben  11  12  26
 118 ben  12  13  14
 119 prop tor  12  13  14  15
 120 prop tor  12  13  14  27
 121 prop tor  13   4   5   6
 122 prop tor  13   4   5  21
 123 ben  13  12  26
 124 ben  13  14  15
 125 prop tor  13  14  15   2
 126 prop tor  13  14  15  16
 127 ben  13  14  27
 128 ben  14  15  16
 129 prop tor  14  15  16  17
 130 prop tor  14  15  16  28
 131 prop tor  15   2   3   4
 132 prop tor  15   2   3  20
 133 ben  15  14  27
 134 ben  15  16  17
 135 prop tor  15  16  17  18
 136 prop tor  15  16  17  29
 137 ben  15  16  28
 138 ben  16  17  18
 139 prop tor  16  17  18   1
 140 prop tor  16  17  18  30
 141 ben  16  17  29
 142 ben  17  16  28
 143 ben  17  18  30
 144 prop tor  18   1   2   3
 145 prop tor  18   1   2  15
 146 ben  18   1  19
 147 ben  18  17  29
 148 prop tor  19   1   2   3
 149 prop tor  19   1   2  15
 150 prop tor  19   1  18  17
 151 prop tor  19   1  18  30
 152 prop tor  20   3   4   5
 153 prop tor  20   3   4  13
 154 prop tor  21   5   6   7
 155 prop tor  21   5   6  11
 156 prop tor  22   7   8   9
 157 prop tor  22   7   8  23
 158 prop tor  23   8   9  10
 159 prop tor  23   8   9  24
 160 prop tor  24   9  10  11
 161 prop tor  24   9  10  25
 162 prop tor  25  10  11   6
 163 prop tor  25  10  11  12
 164 prop tor  26  12  13   4
 165 prop tor  26  12  13  14
 166 prop tor  27  14  15   2
 167 prop tor  27  14  15  16
 168 prop tor  28  16  17  18
 169 prop tor  28  16  17  29
 170 prop tor  29  17  18   1
 171 prop tor  29  17  18  30
 nber bend=              54
 nber lin bend=           0
 nber prop tor=          84
 nber impr tor=           0
 nber tot redund int=         171
 Eigenvalues of G in red int coords
    Gval -0.00000000 -0.00000000 -0.00000000 -0.00000000 -0.00000000 -0.00000000 -0.00000000 -0.00000000
    Gval -0.00000000 -0.00000000 -0.00000000 -0.00000000 -0.00000000 -0.00000000 -0.00000000 -0.00000000
    Gval -0.00000000 -0.00000000 -0.00000000 -0.00000000 -0.00000000 -0.00000000 -0.00000000 -0.00000000
    Gval -0.00000000 -0.00000000 -0.00000000 -0.00000000 -0.00000000 -0.00000000 -0.00000000 -0.00000000
    Gval -0.00000000 -0.00000000 -0.00000000 -0.00000000 -0.00000000 -0.00000000 -0.00000000 -0.00000000
    Gval -0.00000000 -0.00000000 -0.00000000 -0.00000000  0.00000000  0.00000000  0.00000000  0.00000000
    Gval  0.00000000  0.00000000  0.00000000  0.00000000  0.00000000  0.00000000  0.00000000  0.00000000
    Gval  0.00000000  0.00000000  0.00000000  0.00000000  0.00000000  0.00000000  0.00000000  0.00000000
    Gval  0.00000000  0.00000000  0.00000000  0.00000000  0.00000000  0.00000000  0.00000000  0.00000000
    Gval  0.00000000  0.00000000  0.00000000  0.00000000  0.00000000  0.00000000  0.00000000  0.00000000
    Gval  0.00000000  0.00000000  0.00000000  0.00000000  0.00000000  0.00000000  0.00000000  0.00000372
    Gval  0.00000603  0.00001344  0.00001758  0.00002266  0.00003509  0.00003970  0.00004133  0.00004289
    Gval  0.00004558  0.00004932  0.00006086  0.00006296  0.00006732  0.00007173  0.00008165  0.00009235
    Gval  0.00009921  0.00010257  0.00010284  0.00011868  0.00013059  0.00014027  0.00015736  0.00017109
    Gval  0.00017398  0.00020176  0.00023242  0.00028366  0.00028899  0.00029598  0.00032847  0.00037644
    Gval  0.00038238  0.00038801  0.00039796  0.00040950  0.00041350  0.00043249  0.00048685  0.00059312
    Gval  0.00059313  0.00059684  0.00059690  0.00060820  0.00061324  0.00062133  0.00062673  0.00063612
    Gval  0.00064791  0.00065580  0.00065808  0.00072339  0.00078797  0.00079980  0.00087108  0.00098868
    Gval  0.00104694  0.00104752  0.00110577  0.00110780  0.00110950  0.00111577  0.00112092  0.00112124
    Gval  0.00115381  0.00115388  0.00116651  0.00116651  0.00165441  0.00176868  0.00176945  0.00187488
    Gval  0.00198625  0.00254502  0.00258970  0.00282710  0.00295587  0.00318856  0.00328248  0.00351110
    Gval  0.00355831  0.00399739  0.00399909
  3.719098257722305E-006  3.719098257722305E-006
  6.028198697738024E-006  3.719098257722305E-006
  1.343649573262676E-005  3.719098257722305E-006
  1.758462916811047E-005  3.719098257722305E-006
  2.265797359083162E-005  3.719098257722305E-006
  3.508939870910058E-005  3.719098257722305E-006
  3.970253068835370E-005  3.719098257722305E-006
  4.132715619431339E-005  3.719098257722305E-006
  4.288587652020095E-005  3.719098257722305E-006
  4.557557386549998E-005  3.719098257722305E-006
  4.932167594228770E-005  3.719098257722305E-006
  6.085715037913279E-005  3.719098257722305E-006
  6.295650656486022E-005  3.719098257722305E-006
  6.731633057171568E-005  3.719098257722305E-006
  7.172522788521741E-005  3.719098257722305E-006
  8.165463366641646E-005  3.719098257722305E-006
  9.235234124713707E-005  3.719098257722305E-006
  9.920740470508310E-005  3.719098257722305E-006
  1.025729971141819E-004  3.719098257722305E-006
  1.028365820908862E-004  3.719098257722305E-006
  1.186819828116879E-004  3.719098257722305E-006
  1.305875747253854E-004  3.719098257722305E-006
  1.402691464262569E-004  3.719098257722305E-006
  1.573588141154066E-004  3.719098257722305E-006
  1.710913191766861E-004  3.719098257722305E-006
  1.739790310027331E-004  3.719098257722305E-006
  2.017577185259937E-004  3.719098257722305E-006
  2.324180743715030E-004  3.719098257722305E-006
  2.836626631445951E-004  3.719098257722305E-006
  2.889937428876196E-004  3.719098257722305E-006
  2.959766895085476E-004  3.719098257722305E-006
  3.284722892836939E-004  3.719098257722305E-006
  3.764359150702897E-004  3.719098257722305E-006
  3.823763307828764E-004  3.719098257722305E-006
  3.880130099566430E-004  3.719098257722305E-006
  3.979570550034222E-004  3.719098257722305E-006
  4.095014799158256E-004  3.719098257722305E-006
  4.134987679030301E-004  3.719098257722305E-006
  4.324917201244177E-004  3.719098257722305E-006
  4.868477804139004E-004  3.719098257722305E-006
  5.931188678869766E-004  3.719098257722305E-006
  5.931293043916909E-004  3.719098257722305E-006
  5.968362651651635E-004  3.719098257722305E-006
  5.969046454931126E-004  3.719098257722305E-006
  6.081978729045699E-004  3.719098257722305E-006
  6.132424861383616E-004  3.719098257722305E-006
  6.213339503154651E-004  3.719098257722305E-006
  6.267275407022529E-004  3.719098257722305E-006
  6.361181697561665E-004  3.719098257722305E-006
  6.479052964200345E-004  3.719098257722305E-006
  6.557987072734227E-004  3.719098257722305E-006
  6.580795016420671E-004  3.719098257722305E-006
  7.233851539635111E-004  3.719098257722305E-006
  7.879651017176806E-004  3.719098257722305E-006
  7.998022482325616E-004  3.719098257722305E-006
  8.710821074249990E-004  3.719098257722305E-006
  9.886772478708400E-004  3.719098257722305E-006
  1.046937305665550E-003  3.719098257722305E-006
  1.047515283317377E-003  3.719098257722305E-006
  1.105773673625508E-003  3.719098257722305E-006
  1.107800198358256E-003  3.719098257722305E-006
  1.109504428010963E-003  3.719098257722305E-006
  1.115773955712237E-003  3.719098257722305E-006
  1.120922106886935E-003  3.719098257722305E-006
  1.121244556000152E-003  3.719098257722305E-006
  1.153812485033682E-003  3.719098257722305E-006
  1.153882234558119E-003  3.719098257722305E-006
  1.166505282532631E-003  3.719098257722305E-006
  1.166505342656998E-003  3.719098257722305E-006
  1.654406443577149E-003  3.719098257722305E-006
  1.768680964198135E-003  3.719098257722305E-006
  1.769454961025028E-003  3.719098257722305E-006
  1.874877514455030E-003  3.719098257722305E-006
  1.986252265375715E-003  3.719098257722305E-006
  2.545018100306526E-003  3.719098257722305E-006
  2.589704918328242E-003  3.719098257722305E-006
  2.827096995272869E-003  3.719098257722305E-006
  2.955868127213410E-003  3.719098257722305E-006
  3.188561598136005E-003  3.719098257722305E-006
  3.282483451388924E-003  3.719098257722305E-006
  3.511097573859835E-003  3.719098257722305E-006
  3.558309708545847E-003  3.719098257722305E-006
  3.997387509687102E-003  3.719098257722305E-006
  3.999092671637515E-003  3.719098257722305E-006
 cut=1d-8, nber non-redundant internal coords=          84
 Check on Eigenvals of non-red overlap matrix:
  0.00000372  0.00000603  0.00001344  0.00001758  0.00002266  0.00003509  0.00003970  0.00004133
  0.00004289  0.00004558  0.00004932  0.00006086  0.00006296  0.00006732  0.00007173  0.00008165
  0.00009235  0.00009921  0.00010257  0.00010284  0.00011868  0.00013059  0.00014027  0.00015736
  0.00017109  0.00017398  0.00020176  0.00023242  0.00028366  0.00028899  0.00029598  0.00032847
  0.00037644  0.00038238  0.00038801  0.00039796  0.00040950  0.00041350  0.00043249  0.00048685
  0.00059312  0.00059313  0.00059684  0.00059690  0.00060820  0.00061324  0.00062133  0.00062673
  0.00063612  0.00064791  0.00065580  0.00065808  0.00072339  0.00078797  0.00079980  0.00087108
  0.00098868  0.00104694  0.00104752  0.00110577  0.00110780  0.00110950  0.00111577  0.00112092
  0.00112124  0.00115381  0.00115388  0.00116651  0.00116651  0.00165441  0.00176868  0.00176945
  0.00187488  0.00198625  0.00254502  0.00258970  0.00282710  0.00295587  0.00318856  0.00328248
  0.00351110  0.00355831  0.00399739  0.00399909
 Checking for correct frequencies
 recalc frequencies=
    -0.0   -0.0   -0.0   -0.0    0.0    0.0   56.0   85.1  150.1  162.6
   190.3  289.0  297.9  301.8  316.4  347.5  446.7  460.6  466.8  470.0
   507.6  552.2  559.8  570.1  623.9  632.0  635.1  706.0  719.9  720.3
   740.4  751.3  754.6  758.7  770.5  778.6  783.4  805.4  821.0  835.1
   846.3  865.2  884.9  886.0  899.2  916.9  917.0  938.5 1038.1 1038.5
  1125.4 1128.7 1160.0 1167.7 1174.6 1190.4 1215.9 1224.2 1279.3 1284.5
  1291.1 1298.0 1326.1 1366.9 1387.2 1403.8 1409.3 1409.9 1461.6 1467.4
  1501.8 1522.6 1529.8 1556.2 1556.5 1565.7 1608.4 1612.7 3117.6 3118.5
  3119.6 3120.8 3123.3 3125.1 3126.8 3130.3 3140.2 3140.4 3157.2 3157.9
 recalc symmetries=
     B1u    B2u    B2g    B3u    B1g    B3g    B3u    Au     B1g    B1u
     B2g    B3u    Au     B3g    Ag     B1g    B1u    B3u    B1g    B3u
     B3g    B2g    B2u    Au     B1u    Ag     B2u    B1g    B2g    B3u
     Au     Ag     B2g    B2u    Au     B1g    B3g    B2g    B3u    Au 
     B2g    Ag     B1g    B3u    B3g    Au     B2g    B1u    Ag     B2u
     B1u    B3g    B2u    Ag     B3g    B2u    B1u    Ag     B3g    B1u
     B2u    B1u    B3g    B2u    Ag     Ag     B2u    B1u    B3g    Ag 
     B2u    B3g    Ag     B2u    B1u    Ag     B1u    B3g    B3g    B1u
     B2u    B3g    Ag     B1u    B2u    Ag     B3g    B1u    B2u    Ag 
 recalc freqs check OK
 Zero-point lengths:
 10.0000 10.0000 10.0000 10.0000 10.0000 10.0000 33.1314 26.8661 20.2340 19.4439
 17.9714 14.5841 14.3625 14.2698 13.9364 13.2985 11.7291 11.5512 11.4750 11.4354
 11.0035 10.5499 10.4780 10.3833  9.9255  9.8612  9.8369  9.3304  9.2398  9.2372
  9.1108  9.0445  9.0247  9.0001  8.9309  8.8843  8.8576  8.7354  8.6522  8.5788
  8.5219  8.4280  8.3341  8.3288  8.2673  8.1874  8.1868  8.0925  7.6946  7.6930
  7.3901  7.3790  7.2788  7.2548  7.2334  7.1854  7.1096  7.0854  6.9313  6.9172
  6.8995  6.8812  6.8078  6.7054  6.6561  6.6168  6.6038  6.6023  6.4845  6.4717
  6.3973  6.3534  6.3385  6.2844  6.2837  6.2653  6.1816  6.1734  4.4400  4.4394
  4.4386  4.4378  4.4359  4.4347  4.4335  4.4310  4.4240  4.4239  4.4121  4.4116
 highest evec of mol 2
  0.0000  0.0057 -0.0641
  0.0000  0.0022  0.0003
  0.0000  0.0001 -0.0115
  0.0000  0.0000  0.0001
  0.0000 -0.0001 -0.0115
  0.0000 -0.0022  0.0003
  0.0000 -0.0057 -0.0641
  0.0000  0.1150 -0.0677
  0.0000  0.1150  0.0677
  0.0000 -0.0057  0.0641
  0.0000 -0.0022 -0.0003
  0.0000 -0.0001  0.0115
  0.0000  0.0000 -0.0001
  0.0000  0.0001  0.0115
  0.0000  0.0022 -0.0003
  0.0000  0.0057  0.0641
  0.0000 -0.1150  0.0677
  0.0000 -0.1150 -0.0677
  0.0000 -0.0019  0.2032
  0.0000 -0.0006  0.0383
  0.0000  0.0006  0.0383
  0.0000  0.0019  0.2032
  0.0000 -0.3722  0.2159
  0.0000 -0.3722 -0.2159
  0.0000  0.0019 -0.2032
  0.0000  0.0006 -0.0383
  0.0000 -0.0006 -0.0383
  0.0000 -0.0019 -0.2032
  0.0000  0.3722 -0.2159
  0.0000  0.3722  0.2159
 Enter nber and list of atoms to keep of mol #2
 keep list:          30           1           2           3           4
           5           6           7           8           9          10
          11          12          13          14          15          16
          17          18          19          20          21          22
          23          24          25          26          27          28
          29          30
 reordering atoms
           1  -3.72367500000000     
           2  -2.47182000000000     
           3  -1.23820700000000     
           4 -6.579099405186112E-017
           5   1.23820700000000     
           6   2.47182000000000     
           7   3.72367500000000     
           8   4.92141400000000     
           9   4.92141400000000     
          10   3.72367500000000     
          11   2.47182000000000     
          12   1.23820700000000     
          13 -6.579099405186112E-017
          14  -1.23820700000000     
          15  -2.47182000000000     
          16  -3.72367500000000     
          17  -4.92141400000000     
          18  -4.92141400000000     
          19  -3.72347200000000     
          20  -1.23971700000000     
          21   1.23971700000000     
          22   3.72347200000000     
          23   5.86254300000000     
          24   5.86254300000000     
          25   3.72347200000000     
          26   1.23971700000000     
          27  -1.23971700000000     
          28  -3.72347200000000     
          29  -5.86254300000000     
          30  -5.86254300000000     
           1           1
           2           2
           3           3
           4           4
           5           5
           6           6
           7           7
           8           8
           9           9
          10          10
          11          11
          12          12
          13          13
          14          14
          15          15
          16          16
          17          17
          18          18
          19          19
          20          20
          21          21
          22          22
          23          23
          24          24
          25          25
          26          26
          27          27
          28          28
          29          29
          30          30
 initial cartes coords mol 1
   6   0.00000   1.40713   3.70628
   6   0.00000   0.72486   2.44617
   6   0.00000   1.40443   1.23364
   6   0.00000   0.72501   0.00000
   6   0.00000   1.40443  -1.23364
   6   0.00000   0.72486  -2.44617
   6   0.00000   1.40713  -3.70628
   6   0.00000   0.71462  -4.88078
   6   0.00000  -0.71462  -4.88078
   6   0.00000  -1.40713  -3.70628
   6   0.00000  -0.72486  -2.44617
   6   0.00000  -1.40443  -1.23364
   6   0.00000  -0.72501   0.00000
   6   0.00000  -1.40443   1.23364
   6   0.00000  -0.72486   2.44617
   6   0.00000  -1.40713   3.70628
   6   0.00000  -0.71462   4.88078
   6   0.00000   0.71462   4.88078
   1   0.00000   2.49216   3.70610
   1   0.00000   2.49016   1.23408
   1   0.00000   2.49016  -1.23408
   1   0.00000   2.49216  -3.70610
   1   0.00000   1.24518  -5.82629
   1   0.00000  -1.24518  -5.82629
   1   0.00000  -2.49216  -3.70610
   1   0.00000  -2.49016  -1.23408
   1   0.00000  -2.49016   1.23408
   1   0.00000  -2.49216   3.70610
   1   0.00000  -1.24518   5.82629
   1   0.00000   1.24518   5.82629
 initial cartes coords mol 2
   6   0.00000   1.39637  -3.72368
   6   0.00000   0.72447  -2.47182
   6   0.00000   1.40084  -1.23821
   6   0.00000   0.73023  -0.00000
   6   0.00000   1.40084   1.23821
   6   0.00000   0.72447   2.47182
   6   0.00000   1.39637   3.72368
   6   0.00000   0.70522   4.92141
   6   0.00000  -0.70522   4.92141
   6   0.00000  -1.39637   3.72368
   6   0.00000  -0.72447   2.47182
   6   0.00000  -1.40084   1.23821
   6   0.00000  -0.73023  -0.00000
   6   0.00000  -1.40084  -1.23821
   6   0.00000  -0.72447  -2.47182
   6   0.00000  -1.39637  -3.72368
   6   0.00000  -0.70522  -4.92141
   6   0.00000   0.70522  -4.92141
   1   0.00000   2.48368  -3.72347
   1   0.00000   2.48848  -1.23972
   1   0.00000   2.48848   1.23972
   1   0.00000   2.48368   3.72347
   1   0.00000   1.24748   5.86254
   1   0.00000  -1.24748   5.86254
   1   0.00000  -2.48368   3.72347
   1   0.00000  -2.48848   1.23972
   1   0.00000  -2.48848  -1.23972
   1   0.00000  -2.48368  -3.72347
   1   0.00000  -1.24748  -5.86254
   1   0.00000   1.24748  -5.86254
 loop 1 0
 mod cartes coords mol 2
   6   0.00000   1.39637  -3.72368
   6   0.00000   0.72447  -2.47182
   6   0.00000   1.40084  -1.23821
   6   0.00000   0.73023  -0.00000
   6   0.00000   1.40084   1.23821
   6   0.00000   0.72447   2.47182
   6   0.00000   1.39637   3.72368
   6   0.00000   0.70522   4.92141
   6   0.00000  -0.70522   4.92141
   6   0.00000  -1.39637   3.72368
   6   0.00000  -0.72447   2.47182
   6   0.00000  -1.40084   1.23821
   6   0.00000  -0.73023  -0.00000
   6   0.00000  -1.40084  -1.23821
   6   0.00000  -0.72447  -2.47182
   6   0.00000  -1.39637  -3.72368
   6   0.00000  -0.70522  -4.92141
   6   0.00000   0.70522  -4.92141
   1   0.00000   2.48368  -3.72347
   1   0.00000   2.48848  -1.23972
   1   0.00000   2.48848   1.23972
   1   0.00000   2.48368   3.72347
   1   0.00000   1.24748   5.86254
   1   0.00000  -1.24748   5.86254
   1   0.00000  -2.48368   3.72347
   1   0.00000  -2.48848   1.23972
   1   0.00000  -2.48848  -1.23972
   1   0.00000  -2.48368  -3.72347
   1   0.00000  -1.24748  -5.86254
   1   0.00000   1.24748  -5.86254
 read in order, maxerr= 11.69 for atom  23
 loop 1 1
 mod cartes coords mol 2
   6   0.00000   1.39637  -3.72368
   6   0.00000   0.72447  -2.47182
   6   0.00000   1.40084  -1.23821
   6   0.00000   0.73023  -0.00000
   6   0.00000   1.40084   1.23821
   6   0.00000   0.72447   2.47182
   6   0.00000   1.39637   3.72368
   6   0.00000   0.70522   4.92141
   6   0.00000  -0.70522   4.92141
   6   0.00000  -1.39637   3.72368
   6   0.00000  -0.72447   2.47182
   6   0.00000  -1.40084   1.23821
   6   0.00000  -0.73023  -0.00000
   6   0.00000  -1.40084  -1.23821
   6   0.00000  -0.72447  -2.47182
   6   0.00000  -1.39637  -3.72368
   6   0.00000  -0.70522  -4.92141
   6   0.00000   0.70522  -4.92141
   1   0.00000   2.48368  -3.72347
   1   0.00000   2.48848  -1.23972
   1   0.00000   2.48848   1.23972
   1   0.00000   2.48368   3.72347
   1   0.00000   1.24748   5.86254
   1   0.00000  -1.24748   5.86254
   1   0.00000  -2.48368   3.72347
   1   0.00000  -2.48848   1.23972
   1   0.00000  -2.48848  -1.23972
   1   0.00000  -2.48368  -3.72347
   1   0.00000  -1.24748  -5.86254
   1   0.00000   1.24748  -5.86254
 read in order, maxerr= 11.69 for atom  23
 loop 1 2
 mod cartes coords mol 2
   6   0.00000  -1.39637  -3.72368
   6   0.00000  -0.72447  -2.47182
   6   0.00000  -1.40084  -1.23821
   6   0.00000  -0.73023  -0.00000
   6   0.00000  -1.40084   1.23821
   6   0.00000  -0.72447   2.47182
   6   0.00000  -1.39637   3.72368
   6   0.00000  -0.70522   4.92141
   6   0.00000   0.70522   4.92141
   6   0.00000   1.39637   3.72368
   6   0.00000   0.72447   2.47182
   6   0.00000   1.40084   1.23821
   6   0.00000   0.73023  -0.00000
   6   0.00000   1.40084  -1.23821
   6   0.00000   0.72447  -2.47182
   6   0.00000   1.39637  -3.72368
   6   0.00000   0.70522  -4.92141
   6   0.00000  -0.70522  -4.92141
   1   0.00000  -2.48368  -3.72347
   1   0.00000  -2.48848  -1.23972
   1   0.00000  -2.48848   1.23972
   1   0.00000  -2.48368   3.72347
   1   0.00000  -1.24748   5.86254
   1   0.00000   1.24748   5.86254
   1   0.00000   2.48368   3.72347
   1   0.00000   2.48848   1.23972
   1   0.00000   2.48848  -1.23972
   1   0.00000   2.48368  -3.72347
   1   0.00000   1.24748  -5.86254
   1   0.00000  -1.24748  -5.86254
 read in order, maxerr= 11.95 for atom  23
 loop 1 3
 mod cartes coords mol 2
   6   0.00000  -1.39637  -3.72368
   6   0.00000  -0.72447  -2.47182
   6   0.00000  -1.40084  -1.23821
   6   0.00000  -0.73023  -0.00000
   6   0.00000  -1.40084   1.23821
   6   0.00000  -0.72447   2.47182
   6   0.00000  -1.39637   3.72368
   6   0.00000  -0.70522   4.92141
   6   0.00000   0.70522   4.92141
   6   0.00000   1.39637   3.72368
   6   0.00000   0.72447   2.47182
   6   0.00000   1.40084   1.23821
   6   0.00000   0.73023  -0.00000
   6   0.00000   1.40084  -1.23821
   6   0.00000   0.72447  -2.47182
   6   0.00000   1.39637  -3.72368
   6   0.00000   0.70522  -4.92141
   6   0.00000  -0.70522  -4.92141
   1   0.00000  -2.48368  -3.72347
   1   0.00000  -2.48848  -1.23972
   1   0.00000  -2.48848   1.23972
   1   0.00000  -2.48368   3.72347
   1   0.00000  -1.24748   5.86254
   1   0.00000   1.24748   5.86254
   1   0.00000   2.48368   3.72347
   1   0.00000   2.48848   1.23972
   1   0.00000   2.48848  -1.23972
   1   0.00000   2.48368  -3.72347
   1   0.00000   1.24748  -5.86254
   1   0.00000  -1.24748  -5.86254
 read in order, maxerr= 11.95 for atom  23
 loop 1 4
 mod cartes coords mol 2
   6   0.00000   1.39637   3.72368
   6   0.00000   0.72447   2.47182
   6   0.00000   1.40084   1.23821
   6   0.00000   0.73023   0.00000
   6   0.00000   1.40084  -1.23821
   6   0.00000   0.72447  -2.47182
   6   0.00000   1.39637  -3.72368
   6   0.00000   0.70522  -4.92141
   6   0.00000  -0.70522  -4.92141
   6   0.00000  -1.39637  -3.72368
   6   0.00000  -0.72447  -2.47182
   6   0.00000  -1.40084  -1.23821
   6   0.00000  -0.73023   0.00000
   6   0.00000  -1.40084   1.23821
   6   0.00000  -0.72447   2.47182
   6   0.00000  -1.39637   3.72368
   6   0.00000  -0.70522   4.92141
   6   0.00000   0.70522   4.92141
   1   0.00000   2.48368   3.72347
   1   0.00000   2.48848   1.23972
   1   0.00000   2.48848  -1.23972
   1   0.00000   2.48368  -3.72347
   1   0.00000   1.24748  -5.86254
   1   0.00000  -1.24748  -5.86254
   1   0.00000  -2.48368  -3.72347
   1   0.00000  -2.48848  -1.23972
   1   0.00000  -2.48848   1.23972
   1   0.00000  -2.48368   3.72347
   1   0.00000  -1.24748   5.86254
   1   0.00000   1.24748   5.86254
 read in order, maxerr=  0.04 for atom   8
 final axis swaps:           1           1          -1
 final xyz swap pattern=           1
 reorder list:
   1   2   3   4   5   6   7   8   9  10  11  12  13  14  15  16  17  18  19  20
  21  22  23  24  25  26  27  28  29  30
 axis signs=           1           1          -1
  6     0.000000  1.396365  3.723675     0.000000  1.407130  3.706285
  6     0.000000  0.724467  2.471820     0.000000  0.724861  2.446171
  6     0.000000  1.400841  1.238207     0.000000  1.404427  1.233638
  6     0.000000  0.730233  0.000000     0.000000  0.725013  0.000000
  6     0.000000  1.400841 -1.238207     0.000000  1.404427 -1.233638
  6     0.000000  0.724467 -2.471820     0.000000  0.724861 -2.446171
  6     0.000000  1.396365 -3.723675     0.000000  1.407130 -3.706285
  6     0.000000  0.705220 -4.921414     0.000000  0.714616 -4.880778
  6     0.000000 -0.705220 -4.921414     0.000000 -0.714616 -4.880778
  6     0.000000 -1.396365 -3.723675     0.000000 -1.407130 -3.706285
  6     0.000000 -0.724467 -2.471820     0.000000 -0.724861 -2.446171
  6     0.000000 -1.400841 -1.238207     0.000000 -1.404427 -1.233638
  6     0.000000 -0.730233  0.000000     0.000000 -0.725013  0.000000
  6     0.000000 -1.400841  1.238207     0.000000 -1.404427  1.233638
  6     0.000000 -0.724467  2.471820     0.000000 -0.724861  2.446171
  6     0.000000 -1.396365  3.723675     0.000000 -1.407130  3.706285
  6     0.000000 -0.705220  4.921414     0.000000 -0.714616  4.880778
  6     0.000000  0.705220  4.921414     0.000000  0.714616  4.880778
  1     0.000000  2.483684  3.723472     0.000000  2.492156  3.706104
  1     0.000000  2.488480  1.239717     0.000000  2.490157  1.234076
  1     0.000000  2.488480 -1.239717     0.000000  2.490157 -1.234076
  1     0.000000  2.483684 -3.723472     0.000000  2.492156 -3.706104
  1     0.000000  1.247484 -5.862543     0.000000  1.245181 -5.826294
  1     0.000000 -1.247484 -5.862543     0.000000 -1.245181 -5.826294
  1     0.000000 -2.483684 -3.723472     0.000000 -2.492156 -3.706104
  1     0.000000 -2.488480 -1.239717     0.000000 -2.490157 -1.234076
  1     0.000000 -2.488480  1.239717     0.000000 -2.490157  1.234076
  1     0.000000 -2.483684  3.723472     0.000000 -2.492156  3.706104
  1     0.000000 -1.247484  5.862543     0.000000 -1.245181  5.826294
  1     0.000000  1.247484  5.862543     0.000000  1.245181  5.826294
 generating redundant internal coords
         300        3600          30
 Adding extra bonds for z output only
           6           6           6           6           6           6
           6           6           6           6           6           6
           6           6           6           6           6           6
           1           1           1           1           1           1
           1           1           1           1           1           1
 search for int coords
   1 str   2   1   1.421
   2 str   3   2   1.407
   3 str   4   3   1.408
   4 str   5   4   1.408
   5 str   6   5   1.407
   6 str   7   6   1.421
   7 str   8   7   1.383
   8 str   9   8   1.410
   9 str  10   9   1.383
  10 str  11   6   1.449
  11 str  11  10   1.421
  12 str  12  11   1.407
  13 str  13   4   1.460
  14 str  13  12   1.408
  15 str  14  13   1.408
  16 str  15   2   1.449
  17 str  15  14   1.407
  18 str  16  15   1.421
  19 str  17  16   1.383
  20 str  18   1   1.383
  21 str  18  17   1.410
  22 str  19   1   1.087
  23 str  20   3   1.088
  24 str  21   5   1.088
  25 str  22   7   1.087
  26 str  23   8   1.086
  27 str  24   9   1.086
  28 str  25  10   1.087
  29 str  26  12   1.088
  30 str  27  14   1.088
  31 str  28  16   1.087
  32 str  29  17   1.086
  33 str  30  18   1.086
 nber stretches=          33
  34 ben   1   2   3
  35 prop tor   1   2   3   4
  36 prop tor   1   2   3  20
  37 ben   1   2  15
  38 prop tor   1   2  15  14
  39 prop tor   1   2  15  16
  40 ben   1  18  17
  41 ben   1  18  30
  42 ben   2   1  18
  43 prop tor   2   1  18  17
  44 prop tor   2   1  18  30
  45 ben   2   1  19
  46 ben   2   3   4
  47 prop tor   2   3   4   5
  48 prop tor   2   3   4  13
  49 ben   2   3  20
  50 ben   2  15  14
  51 ben   2  15  16
  52 prop tor   2  15  16  17
  53 prop tor   2  15  16  28
  54 ben   3   2  15
  55 prop tor   3   2  15  14
  56 prop tor   3   2  15  16
  57 ben   3   4   5
  58 prop tor   3   4   5   6
  59 prop tor   3   4   5  21
  60 ben   3   4  13
  61 prop tor   3   4  13  12
  62 prop tor   3   4  13  14
  63 ben   4   3  20
  64 ben   4   5   6
  65 prop tor   4   5   6   7
  66 prop tor   4   5   6  11
  67 ben   4   5  21
  68 ben   4  13  12
  69 ben   4  13  14
  70 prop tor   4  13  14  15
  71 prop tor   4  13  14  27
  72 ben   5   4  13
  73 prop tor   5   4  13  12
  74 prop tor   5   4  13  14
  75 ben   5   6   7
  76 prop tor   5   6   7   8
  77 prop tor   5   6   7  22
  78 ben   5   6  11
  79 prop tor   5   6  11  10
  80 prop tor   5   6  11  12
  81 ben   6   5  21
  82 ben   6   7   8
  83 prop tor   6   7   8   9
  84 prop tor   6   7   8  23
  85 ben   6   7  22
  86 ben   6  11  10
  87 ben   6  11  12
  88 prop tor   6  11  12  13
  89 prop tor   6  11  12  26
  90 ben   7   6  11
  91 prop tor   7   6  11  10
  92 prop tor   7   6  11  12
  93 ben   7   8   9
  94 prop tor   7   8   9  10
  95 prop tor   7   8   9  24
  96 ben   7   8  23
  97 ben   8   7  22
  98 ben   8   9  10
  99 prop tor   8   9  10  11
 100 prop tor   8   9  10  25
 101 ben   8   9  24
 102 ben   9   8  23
 103 ben   9  10  11
 104 prop tor   9  10  11   6
 105 prop tor   9  10  11  12
 106 ben   9  10  25
 107 ben  10   9  24
 108 ben  10  11  12
 109 prop tor  10  11  12  13
 110 prop tor  10  11  12  26
 111 prop tor  11   6   7   8
 112 prop tor  11   6   7  22
 113 ben  11  10  25
 114 ben  11  12  13
 115 prop tor  11  12  13   4
 116 prop tor  11  12  13  14
 117 ben  11  12  26
 118 ben  12  13  14
 119 prop tor  12  13  14  15
 120 prop tor  12  13  14  27
 121 prop tor  13   4   5   6
 122 prop tor  13   4   5  21
 123 ben  13  12  26
 124 ben  13  14  15
 125 prop tor  13  14  15   2
 126 prop tor  13  14  15  16
 127 ben  13  14  27
 128 ben  14  15  16
 129 prop tor  14  15  16  17
 130 prop tor  14  15  16  28
 131 prop tor  15   2   3   4
 132 prop tor  15   2   3  20
 133 ben  15  14  27
 134 ben  15  16  17
 135 prop tor  15  16  17  18
 136 prop tor  15  16  17  29
 137 ben  15  16  28
 138 ben  16  17  18
 139 prop tor  16  17  18   1
 140 prop tor  16  17  18  30
 141 ben  16  17  29
 142 ben  17  16  28
 143 ben  17  18  30
 144 prop tor  18   1   2   3
 145 prop tor  18   1   2  15
 146 ben  18   1  19
 147 ben  18  17  29
 148 prop tor  19   1   2   3
 149 prop tor  19   1   2  15
 150 prop tor  19   1  18  17
 151 prop tor  19   1  18  30
 152 prop tor  20   3   4   5
 153 prop tor  20   3   4  13
 154 prop tor  21   5   6   7
 155 prop tor  21   5   6  11
 156 prop tor  22   7   8   9
 157 prop tor  22   7   8  23
 158 prop tor  23   8   9  10
 159 prop tor  23   8   9  24
 160 prop tor  24   9  10  11
 161 prop tor  24   9  10  25
 162 prop tor  25  10  11   6
 163 prop tor  25  10  11  12
 164 prop tor  26  12  13   4
 165 prop tor  26  12  13  14
 166 prop tor  27  14  15   2
 167 prop tor  27  14  15  16
 168 prop tor  28  16  17  18
 169 prop tor  28  16  17  29
 170 prop tor  29  17  18   1
 171 prop tor  29  17  18  30
 nber bend=              54
 nber lin bend=           0
 nber prop tor=          84
 nber impr tor=           0
 nber tot redund int=         171
 generating redundant internal coords
         300        3600          30
 search for int coords
   1 str   2   1   1.433
   2 str   3   2   1.390
   3 str   4   3   1.408
   4 str   5   4   1.408
   5 str   6   5   1.390
   6 str   7   6   1.433
   7 str   8   7   1.363
   8 str   9   8   1.429
   9 str  10   9   1.363
  10 str  11   6   1.450
  11 str  11  10   1.433
  12 str  12  11   1.390
  13 str  13   4   1.450
  14 str  13  12   1.408
  15 str  14  13   1.408
  16 str  15   2   1.450
  17 str  15  14   1.390
  18 str  16  15   1.433
  19 str  17  16   1.363
  20 str  18   1   1.363
  21 str  18  17   1.429
  22 str  19   1   1.085
  23 str  20   3   1.086
  24 str  21   5   1.086
  25 str  22   7   1.085
  26 str  23   8   1.084
  27 str  24   9   1.084
  28 str  25  10   1.085
  29 str  26  12   1.086
  30 str  27  14   1.086
  31 str  28  16   1.085
  32 str  29  17   1.084
  33 str  30  18   1.084
 nber stretches=          33
  34 ben   1   2   3
  35 prop tor   1   2   3   4
  36 prop tor   1   2   3  20
  37 ben   1   2  15
  38 prop tor   1   2  15  14
  39 prop tor   1   2  15  16
  40 ben   1  18  17
  41 ben   1  18  30
  42 ben   2   1  18
  43 prop tor   2   1  18  17
  44 prop tor   2   1  18  30
  45 ben   2   1  19
  46 ben   2   3   4
  47 prop tor   2   3   4   5
  48 prop tor   2   3   4  13
  49 ben   2   3  20
  50 ben   2  15  14
  51 ben   2  15  16
  52 prop tor   2  15  16  17
  53 prop tor   2  15  16  28
  54 ben   3   2  15
  55 prop tor   3   2  15  14
  56 prop tor   3   2  15  16
  57 ben   3   4   5
  58 prop tor   3   4   5   6
  59 prop tor   3   4   5  21
  60 ben   3   4  13
  61 prop tor   3   4  13  12
  62 prop tor   3   4  13  14
  63 ben   4   3  20
  64 ben   4   5   6
  65 prop tor   4   5   6   7
  66 prop tor   4   5   6  11
  67 ben   4   5  21
  68 ben   4  13  12
  69 ben   4  13  14
  70 prop tor   4  13  14  15
  71 prop tor   4  13  14  27
  72 ben   5   4  13
  73 prop tor   5   4  13  12
  74 prop tor   5   4  13  14
  75 ben   5   6   7
  76 prop tor   5   6   7   8
  77 prop tor   5   6   7  22
  78 ben   5   6  11
  79 prop tor   5   6  11  10
  80 prop tor   5   6  11  12
  81 ben   6   5  21
  82 ben   6   7   8
  83 prop tor   6   7   8   9
  84 prop tor   6   7   8  23
  85 ben   6   7  22
  86 ben   6  11  10
  87 ben   6  11  12
  88 prop tor   6  11  12  13
  89 prop tor   6  11  12  26
  90 ben   7   6  11
  91 prop tor   7   6  11  10
  92 prop tor   7   6  11  12
  93 ben   7   8   9
  94 prop tor   7   8   9  10
  95 prop tor   7   8   9  24
  96 ben   7   8  23
  97 ben   8   7  22
  98 ben   8   9  10
  99 prop tor   8   9  10  11
 100 prop tor   8   9  10  25
 101 ben   8   9  24
 102 ben   9   8  23
 103 ben   9  10  11
 104 prop tor   9  10  11   6
 105 prop tor   9  10  11  12
 106 ben   9  10  25
 107 ben  10   9  24
 108 ben  10  11  12
 109 prop tor  10  11  12  13
 110 prop tor  10  11  12  26
 111 prop tor  11   6   7   8
 112 prop tor  11   6   7  22
 113 ben  11  10  25
 114 ben  11  12  13
 115 prop tor  11  12  13   4
 116 prop tor  11  12  13  14
 117 ben  11  12  26
 118 ben  12  13  14
 119 prop tor  12  13  14  15
 120 prop tor  12  13  14  27
 121 prop tor  13   4   5   6
 122 prop tor  13   4   5  21
 123 ben  13  12  26
 124 ben  13  14  15
 125 prop tor  13  14  15   2
 126 prop tor  13  14  15  16
 127 ben  13  14  27
 128 ben  14  15  16
 129 prop tor  14  15  16  17
 130 prop tor  14  15  16  28
 131 prop tor  15   2   3   4
 132 prop tor  15   2   3  20
 133 ben  15  14  27
 134 ben  15  16  17
 135 prop tor  15  16  17  18
 136 prop tor  15  16  17  29
 137 ben  15  16  28
 138 ben  16  17  18
 139 prop tor  16  17  18   1
 140 prop tor  16  17  18  30
 141 ben  16  17  29
 142 ben  17  16  28
 143 ben  17  18  30
 144 prop tor  18   1   2   3
 145 prop tor  18   1   2  15
 146 ben  18   1  19
 147 ben  18  17  29
 148 prop tor  19   1   2   3
 149 prop tor  19   1   2  15
 150 prop tor  19   1  18  17
 151 prop tor  19   1  18  30
 152 prop tor  20   3   4   5
 153 prop tor  20   3   4  13
 154 prop tor  21   5   6   7
 155 prop tor  21   5   6  11
 156 prop tor  22   7   8   9
 157 prop tor  22   7   8  23
 158 prop tor  23   8   9  10
 159 prop tor  23   8   9  24
 160 prop tor  24   9  10  11
 161 prop tor  24   9  10  25
 162 prop tor  25  10  11   6
 163 prop tor  25  10  11  12
 164 prop tor  26  12  13   4
 165 prop tor  26  12  13  14
 166 prop tor  27  14  15   2
 167 prop tor  27  14  15  16
 168 prop tor  28  16  17  18
 169 prop tor  28  16  17  29
 170 prop tor  29  17  18   1
 171 prop tor  29  17  18  30
 nber bend=              54
 nber lin bend=           0
 nber prop tor=          84
 nber impr tor=           0
 nber tot redund int=         171
 Eigenvalues of G in red int coords
    Gval -0.00000000 -0.00000000 -0.00000000 -0.00000000 -0.00000000 -0.00000000 -0.00000000 -0.00000000
    Gval -0.00000000 -0.00000000 -0.00000000 -0.00000000 -0.00000000 -0.00000000 -0.00000000 -0.00000000
    Gval -0.00000000 -0.00000000 -0.00000000 -0.00000000 -0.00000000 -0.00000000 -0.00000000 -0.00000000
    Gval -0.00000000 -0.00000000 -0.00000000 -0.00000000 -0.00000000 -0.00000000 -0.00000000 -0.00000000
    Gval -0.00000000 -0.00000000 -0.00000000 -0.00000000 -0.00000000 -0.00000000 -0.00000000 -0.00000000
    Gval -0.00000000 -0.00000000 -0.00000000 -0.00000000 -0.00000000 -0.00000000 -0.00000000 -0.00000000
    Gval -0.00000000 -0.00000000  0.00000000  0.00000000  0.00000000  0.00000000  0.00000000  0.00000000
    Gval  0.00000000  0.00000000  0.00000000  0.00000000  0.00000000  0.00000000  0.00000000  0.00000000
    Gval  0.00000000  0.00000000  0.00000000  0.00000000  0.00000000  0.00000000  0.00000000  0.00000000
    Gval  0.00000000  0.00000000  0.00000000  0.00000000  0.00000000  0.00000000  0.00000000  0.00000000
    Gval  0.00000000  0.00000000  0.00000000  0.00000000  0.00000000  0.00000000  0.00000000  0.00000375
    Gval  0.00000606  0.00001330  0.00001763  0.00002275  0.00003491  0.00003954  0.00004139  0.00004287
    Gval  0.00004573  0.00004929  0.00006125  0.00006270  0.00006726  0.00007186  0.00008167  0.00009168
    Gval  0.00009981  0.00010282  0.00010294  0.00011888  0.00013061  0.00013982  0.00015864  0.00017170
    Gval  0.00017316  0.00020376  0.00023244  0.00028382  0.00029100  0.00029531  0.00033056  0.00037679
    Gval  0.00038123  0.00038747  0.00039687  0.00041378  0.00041601  0.00043293  0.00048298  0.00059310
    Gval  0.00059311  0.00059683  0.00059690  0.00060835  0.00061326  0.00062210  0.00062690  0.00063674
    Gval  0.00064832  0.00065596  0.00065826  0.00072031  0.00078675  0.00079180  0.00088722  0.00100133
    Gval  0.00105037  0.00105090  0.00111189  0.00111198  0.00111294  0.00112122  0.00112653  0.00112678
    Gval  0.00116172  0.00116178  0.00117003  0.00117003  0.00165712  0.00177076  0.00177086  0.00188184
    Gval  0.00200410  0.00255825  0.00259519  0.00285901  0.00297542  0.00321678  0.00330012  0.00354792
    Gval  0.00359240  0.00400193  0.00400385
  3.747674412625633E-006  3.747674412625633E-006
  6.057600306710902E-006  3.747674412625633E-006
  1.329834434078353E-005  3.747674412625633E-006
  1.762900189550020E-005  3.747674412625633E-006
  2.274569402763657E-005  3.747674412625633E-006
  3.490728544774420E-005  3.747674412625633E-006
  3.953638590630453E-005  3.747674412625633E-006
  4.138659248603308E-005  3.747674412625633E-006
  4.286511398977406E-005  3.747674412625633E-006
  4.572923477283114E-005  3.747674412625633E-006
  4.929084997457537E-005  3.747674412625633E-006
  6.125243532926156E-005  3.747674412625633E-006
  6.270105003670307E-005  3.747674412625633E-006
  6.726074543949228E-005  3.747674412625633E-006
  7.186065209690446E-005  3.747674412625633E-006
  8.166704532747662E-005  3.747674412625633E-006
  9.168057513039272E-005  3.747674412625633E-006
  9.980585807087146E-005  3.747674412625633E-006
  1.028190072630511E-004  3.747674412625633E-006
  1.029360281867943E-004  3.747674412625633E-006
  1.188835455566111E-004  3.747674412625633E-006
  1.306118772313309E-004  3.747674412625633E-006
  1.398217002544588E-004  3.747674412625633E-006
  1.586394938089029E-004  3.747674412625633E-006
[...]
 nber times 1st assigned=          78           0
 nber times 1st assigned=          79           0
 nber times 1st assigned=          80           0
 nber times 1st assigned=          81           0
 nber times 1st assigned=          82           0
 nber times 1st assigned=          83           0
 nber times 1st assigned=          84           0
 nber times 1st assigned=          85           0
 nber times 1st assigned=          86           0
 nber times 1st assigned=          87           0
 nber times 1st assigned=          88           0
 nber times 1st assigned=          89           0
 nber times 1st assigned=          90           0
 Dushinsky matrix written to .out file
 modes represented=   83.8217088634949     

 Dushinsky matrix, ncs 1 in terms of ncs 2

   mode   freq    coeff     %      %tot     of    at

   7 B3u    55.  0.9998   100.0   101.1   7 B3u    56.
   8 Au     89. -0.9998   100.0   100.2   8 Au     85.
   9 B1g   149.  0.9950    99.0   100.6   9 B1g   150.
  10 B1u   163.  1.0000   100.0    99.9  10 B1u   163.
  11 B2g   191.  0.9993    99.9    99.8  11 B2g   190.
  12 B3u   271. -0.9967    99.3    99.2  12 B3u   289.
  13 B3g   305.  0.9999   100.0    99.3  14 B3g   302.
  14 Au    318.  0.9904    98.1   100.3  13 Au    298.
  15 Ag    318.  0.9999   100.0   100.5  15 Ag    316.
  16 B1g   382.  0.9928    98.6   100.6  16 B1g   348.
  17 B1u   448.  1.0000   100.0    98.8  17 B1u   447.
  18 B3u   472. -0.8687    75.5   100.1  18 B3u   461.
                -0.4922    24.2          20 B3u   470.
  19 B1g   476.  0.9964    99.3   100.3  19 B1g   467.
  20 B3u   482. -0.4932    24.3   101.0  18 B3u   461.
                 0.8677    75.3          20 B3u   470.
  21 B3g   505.  0.9997    99.9   100.6  21 B3g   508.
  22 B2g   519.  0.9946    98.9    98.2  22 B2g   552.
  23 B2u   563.  0.9994    99.9   100.3  23 B2u   560.
  24 Au    567.  0.9892    97.8    98.7  24 Au    570.
  25 B1u   618. -0.9997    99.9   100.9  25 B1u   624.
  26 Ag    635.  0.9993    99.9    99.5  26 Ag    632.
  27 B2u   645.  0.9989    99.8    99.2  27 B2u   635.
  28 B2g   734. -0.9816    96.4    99.6  29 B2g   720.
  29 B1g   744. -0.9886    97.7    99.9  28 B1g   706.
  30 B2u   757. -0.9955    99.1    99.3  34 B2u   759.
  31 B3u   757. -0.9908    98.2   100.2  30 B3u   720.
  32 Ag    763. -0.9982    99.6    99.1  32 Ag    751.
  33 Au    769.  0.9715    94.4    99.6  31 Au    740.
  34 B2g   777.  0.9883    97.7    99.2  33 B2g   755.
  35 B3g   788.  0.9987    99.7    99.7  37 B3g   783.
  36 Au    842.  0.9255    85.6    99.5  35 Au    771.
                 0.3652    13.3          40 Au    835.
  37 B2g   853.  0.9420    88.7   100.0  38 B2g   805.
  38 B1g   862. -0.9927    98.5    99.2  36 B1g   779.
  39 Ag    868. -0.9977    99.5    99.9  42 Ag    865.
  40 Au    890. -0.3425    11.7    99.6  35 Au    771.
                 0.9154    83.8          40 Au    835.
  41 B3g   911.  0.9975    99.5    99.2  45 B3g   899.
  42 B3u   914.  0.9990    99.8    99.3  39 B3u   821.
  43 B2g   915. -0.9516    90.6    99.5  41 B2g   846.
  44 B1u   945. -0.9986    99.7    99.8  48 B1u   938.
  45 B1g   971.  0.9911    98.2    98.9  43 B1g   885.
  46 B3u   972.  0.9916    98.3    99.0  44 B3u   886.
  47 Au    995. -0.9922    98.4    99.6  46 Au    917.
  48 B2g   996. -0.9915    98.3    99.6  47 B2g   917.
  49 B2u  1020.  0.9888    97.8   100.2  50 B2u  1038.
  50 Ag   1022.  0.9936    98.7   100.2  49 Ag   1038.
  51 B2u  1147.  0.6340    40.2   100.1  53 B2u  1160.
                 0.7387    54.6          56 B2u  1190.
  52 B1u  1150. -0.9894    97.9    99.6  51 B1u  1125.
  53 B3g  1152. -0.9940    98.8    99.5  52 B3g  1129.
  54 Ag   1186. -0.9960    99.2    99.5  54 Ag   1168.
  55 B2u  1189.  0.7570    57.3    99.6  53 B2u  1160.
                -0.6438    41.4          56 B2u  1190.
  56 B3g  1204.  0.9850    97.0    99.9  55 B3g  1175.
  57 B1u  1223.  0.9852    97.1    99.8  57 B1u  1216.
  58 Ag   1224. -0.9914    98.3    99.9  58 Ag   1224.
  59 B3g  1291.  0.9787    95.8    99.5  59 B3g  1279.
  60 B1u  1299.  0.9378    88.0    99.7  60 B1u  1284.
                -0.3434    11.8          62 B1u  1298.
  61 B1u  1316.  0.3333    11.1    99.4  60 B1u  1284.
                 0.9316    86.8          62 B1u  1298.
  62 B2u  1318. -0.9611    92.4   100.0  61 B2u  1291.
  63 B3g  1360.  0.9751    95.1    99.4  63 B3g  1326.
  64 B2u  1368.  0.9591    92.0    99.8  67 B2u  1409.
  65 Ag   1412. -0.3259    10.6    99.8  65 Ag   1387.
                 0.9437    89.1          66 Ag   1404.
  66 B1u  1418. -0.9975    99.5    99.5  68 B1u  1410.
  67 Ag   1424.  0.8949    80.1    99.5  65 Ag   1387.
  68 B2u  1432.  0.9423    88.8    99.5  64 B2u  1367.
  69 Ag   1480.  0.9096    82.7    99.3  70 Ag   1467.
                 0.3187    10.2          73 Ag   1530.
  70 B3g  1482. -0.9771    95.5   100.0  69 B3g  1462.
  71 B2u  1501. -0.9491    90.1    99.3  71 B2u  1502.
  72 Ag   1558. -0.3180    10.1    99.6  70 Ag   1467.
                 0.8930    79.8          73 Ag   1530.
  73 Ag   1578.  0.9517    90.6    99.7  76 Ag   1566.
  74 B2u  1584.  0.9228    85.1    99.6  74 B2u  1556.
  75 B1u  1609. -0.9965    99.3   100.4  75 B1u  1557.
  76 B3g  1649. -0.8173    66.8   100.1  72 B3g  1523.
                 0.5445    29.7          78 B3g  1613.
  77 B3g  1663.  0.5516    30.4   100.6  72 B3g  1523.
                 0.8292    68.8          78 B3g  1613.
  78 B1u  1677. -0.9970    99.4   100.5  77 B1u  1608.
  79 B3g  3153.  0.9070    82.3   100.0  79 B3g  3118.
                -0.4210    17.7          82 B3g  3121.
  80 B2u  3155. -0.9856    97.1   100.0  81 B2u  3119.
  81 B1u  3156. -0.9438    89.1   100.0  80 B1u  3118.
                -0.3303    10.9          84 B1u  3125.
  82 B3g  3157.  0.4206    17.7   100.0  79 B3g  3118.
                 0.9055    82.0          82 B3g  3121.
  83 Ag   3159.  0.9310    86.7   100.0  83 Ag   3123.
                -0.3641    13.3          86 Ag   3130.
  84 B1u  3159. -0.3287    10.8   100.0  80 B1u  3118.
                 0.9416    88.7          84 B1u  3125.
  85 B2u  3162.  0.9857    97.2   100.0  85 B2u  3127.
  86 Ag   3163. -0.3647    13.3   100.0  83 Ag   3123.
                -0.9308    86.6          86 Ag   3130.
  87 B3g  3175.  0.9984    99.7   100.0  87 B3g  3140.
  88 B1u  3175.  0.9972    99.4   100.0  88 B1u  3140.
  89 B2u  3187.  0.9998   100.0   100.0  89 B2u  3157.
  90 Ag   3187.  0.9993    99.9   100.0  90 Ag   3158.
 nber times 1st assigned=           1           0
 nber times 1st assigned=           2           0
 nber times 1st assigned=           3           0
 nber times 1st assigned=           4           0
 nber times 1st assigned=           5           0
 nber times 1st assigned=           6           0
 nber times 1st assigned=           7           0
 nber times 1st assigned=           8           0
 nber times 1st assigned=           9           0
 nber times 1st assigned=          10           0
 nber times 1st assigned=          11           0
 nber times 1st assigned=          12           0
 nber times 1st assigned=          13           0
 nber times 1st assigned=          14           0
 nber times 1st assigned=          15           0
 nber times 1st assigned=          16           0
 nber times 1st assigned=          17           0
 nber times 1st assigned=          18           0
 nber times 1st assigned=          19           0
 nber times 1st assigned=          20           0
 nber times 1st assigned=          21           0
 nber times 1st assigned=          22           0
 nber times 1st assigned=          23           0
 nber times 1st assigned=          24           0
 nber times 1st assigned=          25           0
 nber times 1st assigned=          26           0
 nber times 1st assigned=          27           0
 nber times 1st assigned=          28           0
 nber times 1st assigned=          29           0
 nber times 1st assigned=          30           0
 nber times 1st assigned=          31           0
 nber times 1st assigned=          32           0
 nber times 1st assigned=          33           0
 nber times 1st assigned=          34           0
 nber times 1st assigned=          35           0
 nber times 1st assigned=          36           0
 nber times 1st assigned=          37           0
 nber times 1st assigned=          38           0
 nber times 1st assigned=          39           0
 nber times 1st assigned=          40           0
 nber times 1st assigned=          41           0
 nber times 1st assigned=          42           0
 nber times 1st assigned=          43           0
 nber times 1st assigned=          44           0
 nber times 1st assigned=          45           0
 nber times 1st assigned=          46           0
 nber times 1st assigned=          47           0
 nber times 1st assigned=          48           0
 nber times 1st assigned=          49           0
 nber times 1st assigned=          50           0
 nber times 1st assigned=          51           0
 nber times 1st assigned=          52           0
 nber times 1st assigned=          53           0
 nber times 1st assigned=          54           0
 nber times 1st assigned=          55           0
 nber times 1st assigned=          56           0
 nber times 1st assigned=          57           0
 nber times 1st assigned=          58           0
 nber times 1st assigned=          59           0
 nber times 1st assigned=          60           0
 nber times 1st assigned=          61           0
 nber times 1st assigned=          62           0
 nber times 1st assigned=          63           0
 nber times 1st assigned=          64           0
 nber times 1st assigned=          65           0
 nber times 1st assigned=          66           0
 nber times 1st assigned=          67           0
 nber times 1st assigned=          68           0
 nber times 1st assigned=          69           0
 nber times 1st assigned=          70           0
 nber times 1st assigned=          71           0
 nber times 1st assigned=          72           0
 nber times 1st assigned=          73           0
 nber times 1st assigned=          74           0
 nber times 1st assigned=          75           0
 nber times 1st assigned=          76           0
 nber times 1st assigned=          77           0
 nber times 1st assigned=          78           0
 nber times 1st assigned=          79           0
 nber times 1st assigned=          80           0
 nber times 1st assigned=          81           0
 nber times 1st assigned=          82           0
 nber times 1st assigned=          83           0
 nber times 1st assigned=          84           0
 nber times 1st assigned=          85           0
 nber times 1st assigned=          86           0
 nber times 1st assigned=          87           0
 nber times 1st assigned=          88           0
 nber times 1st assigned=          89           0
 nber times 1st assigned=          90           0
 modes represented=   83.8217088634949     
 p1=
   -0.    0.   -0.    0.   -0.    0.   -0.   -0.    0.    0.    0.    0.   -0.   -0.   15.    0.    0.   -0.    0.    0.
    0.    0.   -0.    0.   -0.   -3.    0.    0.    0.    0.    0.   -1.    0.   -0.   -0.   -0.   -0.   -0.   -0.   -0.
    0.    0.   -0.   -0.    0.   -0.    0.   -0.    0.    1.    0.   -0.    0.   -2.    0.    0.   -0.   -2.   -0.   -0.
   -0.    0.    0.    0.    3.   -0.    3.    0.   -1.   -0.   -0.   -0.   -2.   -0.   -0.   -0.    0.   -0.   -0.   -0.
   -0.    0.   -0.   -0.   -0.   -0.   -0.   -0.   -0.    0.
 p2=
    0.    0.    0.    0.   -0.   -0.    0.   -0.    0.    0.   -0.   -0.    0.   -0.  -15.   -0.   -0.    0.    0.   -0.
    0.    0.    0.   -0.    0.    3.   -0.   -0.    0.   -0.   -0.   -1.   -0.   -0.    0.   -0.    0.   -0.    0.    0.
    0.   -0.   -0.   -0.    0.    0.   -0.   -0.   -0.    0.   -0.    0.   -0.   -2.    0.   -0.   -0.   -2.   -0.    0.
   -0.   -0.    0.    0.   -2.   -4.   -0.   -0.   -0.    0.   -0.    0.    1.   -0.    0.    2.   -0.    0.   -0.    0.
   -0.   -0.   -0.    0.   -0.   -0.   -0.   -0.    0.   -0.

 Displacement: in terms of nc of 1 THEN of nc of 2

   1 B3g freq=    -0. Q= -0.000 lam=    -0.0 B1u freq=    -0. Q= -0.000 lam=    -0.0
   2 B2g freq=    -0. Q=  0.000 lam=    -0.0 B2u freq=    -0. Q=  0.000 lam=    -0.0
   3 B2u freq=    -0. Q= -0.000 lam=    -0.0 B2g freq=    -0. Q= -0.000 lam=    -0.0
   4 B3u freq=    -0. Q=  0.000 lam=    -0.0 B3u freq=    -0. Q=  0.000 lam=    -0.0
   5 B1g freq=    -0. Q= -0.000 lam=    -0.0 B1g freq=     0. Q= -0.000 lam=     0.0
   6 B1u freq=     0. Q=  0.000 lam=     0.0 B3g freq=     0. Q=  0.000 lam=     0.0
   7 B3u freq=    55. Q= -0.000 lam=     0.0 B3u freq=    56. Q= -0.000 lam=     0.0
   8 Au  freq=    89. Q= -0.000 lam=     0.0 Au  freq=    85. Q= -0.000 lam=     0.0
   9 B1g freq=   149. Q=  0.000 lam=     0.0 B1g freq=   150. Q=  0.000 lam=     0.0
  10 B1u freq=   163. Q=  0.000 lam=     0.0 B1u freq=   163. Q=  0.000 lam=     0.0
  11 B2g freq=   191. Q=  0.000 lam=     0.0 B2g freq=   190. Q=  0.000 lam=     0.0
  12 B3u freq=   271. Q=  0.000 lam=     0.0 B3u freq=   289. Q=  0.000 lam=     0.0
  13 B3g freq=   305. Q= -0.000 lam=     0.0 Au  freq=   298. Q= -0.000 lam=     0.0
  14 Au  freq=   318. Q= -0.000 lam=     0.0 B3g freq=   302. Q= -0.000 lam=     0.0
  15 Ag  freq=   318. Q=  1.075 lam=   183.7 Ag  freq=   316. Q=  1.074 lam=   182.5
  16 B1g freq=   382. Q=  0.000 lam=     0.0 B1g freq=   348. Q=  0.000 lam=     0.0
  17 B1u freq=   448. Q=  0.000 lam=     0.0 B1u freq=   447. Q=  0.000 lam=     0.0
  18 B3u freq=   472. Q= -0.000 lam=     0.0 B3u freq=   461. Q= -0.000 lam=     0.0
  19 B1g freq=   476. Q=  0.000 lam=     0.0 B1g freq=   467. Q=  0.000 lam=     0.0
  20 B3u freq=   482. Q=  0.000 lam=     0.0 B3u freq=   470. Q=  0.000 lam=     0.0
  21 B3g freq=   505. Q=  0.000 lam=     0.0 B3g freq=   508. Q=  0.000 lam=     0.0
  22 B2g freq=   519. Q=  0.000 lam=     0.0 B2g freq=   552. Q=  0.000 lam=     0.0
  23 B2u freq=   563. Q= -0.000 lam=     0.0 B2u freq=   560. Q= -0.000 lam=     0.0
  24 Au  freq=   567. Q=  0.000 lam=     0.0 Au  freq=   570. Q=  0.000 lam=     0.0
  25 B1u freq=   618. Q= -0.000 lam=     0.0 B1u freq=   624. Q= -0.000 lam=     0.0
  26 Ag  freq=   635. Q= -0.310 lam=    30.6 Ag  freq=   632. Q= -0.303 lam=    29.0
  27 B2u freq=   645. Q=  0.000 lam=     0.0 B2u freq=   635. Q=  0.000 lam=     0.0
  28 B2g freq=   734. Q=  0.000 lam=     0.0 B1g freq=   706. Q=  0.000 lam=     0.0
  29 B1g freq=   744. Q=  0.000 lam=     0.0 B2g freq=   720. Q=  0.000 lam=     0.0
  30 B2u freq=   757. Q=  0.000 lam=     0.0 B3u freq=   720. Q=  0.000 lam=     0.0
  31 B3u freq=   757. Q=  0.000 lam=     0.0 Au  freq=   740. Q=  0.000 lam=     0.0
  32 Ag  freq=   763. Q= -0.125 lam=     5.9 Ag  freq=   751. Q= -0.127 lam=     6.1
  33 Au  freq=   769. Q=  0.000 lam=     0.0 B2g freq=   755. Q=  0.000 lam=     0.0
  34 B2g freq=   777. Q= -0.000 lam=     0.0 B2u freq=   759. Q= -0.000 lam=     0.0
  35 B3g freq=   788. Q= -0.000 lam=     0.0 Au  freq=   771. Q= -0.000 lam=     0.0
  36 Au  freq=   842. Q= -0.000 lam=     0.0 B1g freq=   779. Q= -0.000 lam=     0.0
  37 B2g freq=   853. Q= -0.000 lam=     0.0 B3g freq=   783. Q= -0.000 lam=     0.0
  38 B1g freq=   862. Q= -0.000 lam=     0.0 B2g freq=   805. Q= -0.000 lam=     0.0
  39 Ag  freq=   868. Q= -0.056 lam=     1.4 B3u freq=   821. Q= -0.000 lam=     0.0
  40 Au  freq=   890. Q= -0.000 lam=     0.0 Au  freq=   835. Q= -0.000 lam=     0.0
  41 B3g freq=   911. Q=  0.000 lam=     0.0 B2g freq=   846. Q=  0.000 lam=     0.0
  42 B3u freq=   914. Q=  0.000 lam=     0.0 Ag  freq=   865. Q=  0.032 lam=     0.4
  43 B2g freq=   915. Q= -0.000 lam=     0.0 B1g freq=   885. Q= -0.000 lam=     0.0
  44 B1u freq=   945. Q= -0.000 lam=     0.0 B3u freq=   886. Q= -0.000 lam=     0.0
  45 B1g freq=   971. Q=  0.000 lam=     0.0 B3g freq=   899. Q=  0.000 lam=     0.0
  46 B3u freq=   972. Q= -0.000 lam=     0.0 Au  freq=   917. Q= -0.000 lam=     0.0
  47 Au  freq=   995. Q=  0.000 lam=     0.0 B2g freq=   917. Q=  0.000 lam=     0.0
  48 B2g freq=   996. Q= -0.000 lam=     0.0 B1u freq=   938. Q= -0.000 lam=     0.0
  49 B2u freq=  1020. Q=  0.000 lam=     0.0 Ag  freq=  1038. Q=  0.019 lam=     0.2
  50 Ag  freq=  1022. Q=  0.071 lam=     2.6 B2u freq=  1038. Q=  0.000 lam=     0.0
  51 B2u freq=  1147. Q=  0.000 lam=     0.0 B1u freq=  1125. Q=  0.000 lam=     0.0
  52 B1u freq=  1150. Q= -0.000 lam=     0.0 B3g freq=  1129. Q= -0.000 lam=     0.0
  53 B3g freq=  1152. Q=  0.000 lam=     0.0 B2u freq=  1160. Q=  0.000 lam=     0.0
  54 Ag  freq=  1186. Q= -0.230 lam=    31.3 Ag  freq=  1168. Q= -0.239 lam=    33.4
  55 B2u freq=  1189. Q=  0.000 lam=     0.0 B3g freq=  1175. Q=  0.000 lam=     0.0
  56 B3g freq=  1204. Q=  0.000 lam=     0.0 B2u freq=  1190. Q=  0.000 lam=     0.0
  57 B1u freq=  1223. Q= -0.000 lam=     0.0 B1u freq=  1216. Q= -0.000 lam=     0.0
  58 Ag  freq=  1224. Q= -0.349 lam=    74.7 Ag  freq=  1224. Q= -0.295 lam=    53.1
  59 B3g freq=  1291. Q= -0.000 lam=     0.0 B3g freq=  1279. Q= -0.000 lam=     0.0
  60 B1u freq=  1299. Q= -0.000 lam=     0.0 B1u freq=  1284. Q= -0.000 lam=     0.0
  61 B1u freq=  1316. Q= -0.000 lam=     0.0 B2u freq=  1291. Q= -0.000 lam=     0.0
  62 B2u freq=  1318. Q=  0.000 lam=     0.0 B1u freq=  1298. Q=  0.000 lam=     0.0
  63 B3g freq=  1360. Q=  0.000 lam=     0.0 B3g freq=  1326. Q=  0.000 lam=     0.0
  64 B2u freq=  1368. Q=  0.000 lam=     0.0 B2u freq=  1367. Q=  0.000 lam=     0.0
  65 Ag  freq=  1412. Q=  0.421 lam=   125.3 Ag  freq=  1387. Q=  0.295 lam=    60.2
  66 B1u freq=  1418. Q= -0.000 lam=     0.0 Ag  freq=  1404. Q= -0.543 lam=   206.6
  67 Ag  freq=  1424. Q=  0.404 lam=   116.1 B2u freq=  1409. Q=  0.000 lam=     0.0
  68 B2u freq=  1432. Q=  0.000 lam=     0.0 B1u freq=  1410. Q=  0.000 lam=     0.0
  69 Ag  freq=  1480. Q= -0.162 lam=    19.4 B3g freq=  1462. Q= -0.000 lam=     0.0
  70 B3g freq=  1482. Q= -0.000 lam=     0.0 Ag  freq=  1467. Q= -0.049 lam=     1.7
  71 B2u freq=  1501. Q= -0.000 lam=     0.0 B2u freq=  1502. Q= -0.000 lam=     0.0
  72 Ag  freq=  1558. Q= -0.065 lam=     3.2 B3g freq=  1523. Q= -0.000 lam=     0.0
  73 Ag  freq=  1578. Q= -0.314 lam=    78.0 Ag  freq=  1530. Q= -0.230 lam=    40.5
  74 B2u freq=  1584. Q= -0.000 lam=     0.0 B2u freq=  1556. Q= -0.000 lam=     0.0
  75 B1u freq=  1609. Q= -0.000 lam=     0.0 B1u freq=  1557. Q= -0.000 lam=     0.0
  76 B3g freq=  1649. Q= -0.000 lam=     0.0 Ag  freq=  1566. Q= -0.243 lam=    46.2
  77 B3g freq=  1663. Q=  0.000 lam=     0.0 B1u freq=  1608. Q=  0.000 lam=     0.0
  78 B1u freq=  1677. Q= -0.000 lam=     0.0 B3g freq=  1613. Q= -0.000 lam=     0.0
  79 B3g freq=  3153. Q= -0.000 lam=     0.0 B3g freq=  3118. Q= -0.000 lam=     0.0
  80 B2u freq=  3155. Q= -0.000 lam=     0.0 B1u freq=  3118. Q= -0.000 lam=     0.0
  81 B1u freq=  3156. Q= -0.000 lam=     0.0 B2u freq=  3119. Q= -0.000 lam=     0.0
  82 B3g freq=  3157. Q=  0.000 lam=     0.0 B3g freq=  3121. Q=  0.000 lam=     0.0
  83 Ag  freq=  3159. Q= -0.009 lam=     0.1 Ag  freq=  3123. Q= -0.004 lam=     0.0
  84 B1u freq=  3159. Q= -0.000 lam=     0.0 B1u freq=  3125. Q= -0.000 lam=     0.0
  85 B2u freq=  3162. Q= -0.000 lam=     0.0 B2u freq=  3127. Q= -0.000 lam=     0.0
  86 Ag  freq=  3163. Q= -0.031 lam=     1.6 Ag  freq=  3130. Q= -0.030 lam=     1.4
  87 B3g freq=  3175. Q= -0.000 lam=     0.0 B3g freq=  3140. Q= -0.000 lam=     0.0
  88 B1u freq=  3175. Q= -0.000 lam=     0.0 B1u freq=  3140. Q= -0.000 lam=     0.0
  89 B2u freq=  3187. Q= -0.000 lam=     0.0 B2u freq=  3157. Q= -0.000 lam=     0.0
  90 Ag  freq=  3187. Q=  0.045 lam=     3.2 Ag  freq=  3158. Q=  0.050 lam=     3.9

 total reorg energy (cm**-1, kcal/mol)=      677.      665.      1.94      1.90
 Nber of molecules processed=           2
