 Enter ifcurve (0=recti, 1=orth curvi, 2=apprx curvi, -1 = skip
 And atom ordering flag, 0= never changes, 1= use the first order thenceforth,
  2= deduce it (does read on fail), 3= always read it
 Reading file: 
 ./CDT-A_5_C0S2.log                                                             
                                          
  Entering Gaussian System, Link 0=g16                                          
  
 Gaussian format, type: g94, g98, g03= F F F
  #P Geom=AllCheck Guess=TCheck SCRF=Check GenChk RB3LYP TD(FC,Read)/6-3    
 energy type= TD      
 Original G94 input coords:
  6  1.833250-36.710516  4.196914
  6  0.838652-36.043928  5.152862
  6  0.351529-36.970625  6.271574
  7  1.372040-34.753675  5.695690
  6  0.677879-33.579587  5.347635
  8 -0.314104-33.610540  4.635553
  6  1.198781-32.303670  5.879874
  6  0.537779-31.112029  5.557334
  6  0.998873-29.903667  6.038671
  6  2.149147-29.820785  6.870984
  6  2.642140-28.566396  7.381032
  6  2.009875-27.327219  7.086228
  6  2.491594-26.132986  7.581087
  6  3.629870-26.109143  8.396168
  6  4.114363-24.810239  8.904715
  8  3.557824-23.759279  8.645142
  7  5.267573-24.843915  9.716265
  6  5.765491-23.584763 10.223108
  6  5.088042-22.929564 11.246951
  6  5.568278-21.723481 11.736196
  6  6.730976-21.136984 11.206137
  6  7.212173-19.854035 11.719124
  6  6.484433-18.834857 12.299823
  6  7.281664-17.734176 12.680416
  6  7.068640-16.376915 13.320043
  6  8.479151-15.824033 13.350848
  6  9.122675-14.638183 13.785098
  6 10.473425-14.675175 13.559627
 16 10.986842-16.167907 12.808772
  6  9.356606-16.741993 12.802374
  6  8.622351-17.911700 12.389723
 16  8.930963-19.440691 11.650814
  6  7.398150-21.817691 10.173965
  6  6.923336-23.028889  9.689894
  6  5.970920-26.014057 10.069867
  8  6.959946-25.965025 10.777452
  6  5.442306-27.285831  9.536184
  6  6.101512-28.478403  9.858196
  6  5.638027-29.685696  9.377910
  6  4.486866-29.765525  8.546760
  6  3.993324-31.020017  8.037297
  6  4.623788-32.260524  8.331791
  6  4.140615-33.454566  7.836627
  6  3.002754-33.476032  7.021142
  6  2.512406-34.773119  6.507769
  8  3.082445-35.818769  6.783430
  6  2.344163-32.270143  6.702303
  6  2.832729-31.026952  7.207582
  6  3.803551-28.558322  8.210627
  6  4.293225-27.314329  8.715659
  1  1.346219-37.562844  3.715298
  1  2.719217-37.066468  4.721084
  1  2.140046-36.014997  3.411456
  1 -0.026626-35.727696  4.574548
  1  1.177526-37.336185  6.880276
  1 -0.159696-37.827972  5.825240
  1 -0.364588-36.454841  6.916528
  1 -0.338419-31.166861  4.924383
  1  0.463299-29.004571  5.768758
  1  1.129190-27.307248  6.460151
  1  2.005530-25.193061  7.353205
  1  4.191214-23.369411 11.665572
  1  5.050357-21.240299 12.555618
  1  5.409015-18.882833 12.410731
  1  6.392945-15.746846 12.730823
  1  6.637343-16.459020 14.324016
  1  8.626414-13.791944 14.242168
  1 11.211961-13.921514 13.784190
  1  8.286289-21.383821  9.729678
  1  7.448278-23.540397  8.892648
  1  6.978812-28.423847 10.489865
  1  6.172036-30.585951  9.646810
  1  5.504374-32.282061  8.957997
  1  4.625285-34.395086  8.064569
 nber atoms=          74
  Total Energy, E(TD-HF/TD-DFT) =  -2822.26268730                               
  
          32          49 "  -2822.26268730"
After scan for Atom:   Atom  AN      X      Y      Z        X      Y      Z        X      Y      Z   
After scan for Atom:   Atom  AN      X      Y      Z        X      Y      Z        X      Y      Z   
After scan for Atom:   Atom  AN      X      Y      Z        X      Y      Z        X      Y      Z   
After scan for Atom:   Atom  AN      X      Y      Z        X      Y      Z        X      Y      Z   
After scan for Atom:   Atom  AN      X      Y      Z        X      Y      Z        X      Y      Z   
After scan for Atom:   Atom  AN      X      Y      Z        X      Y      Z        X      Y      Z   
After scan for Atom:   Atom  AN      X      Y      Z        X      Y      Z        X      Y      Z   
After scan for Atom:   Atom  AN      X      Y      Z        X      Y      Z        X      Y      Z   
After scan for Atom:   Atom  AN      X      Y      Z        X      Y      Z        X      Y      Z   
After scan for Atom:   Atom  AN      X      Y      Z        X      Y      Z        X      Y      Z   
After scan for Atom:   Atom  AN      X      Y      Z        X      Y      Z        X      Y      Z   
After scan for Atom:   Atom  AN      X      Y      Z        X      Y      Z        X      Y      Z   
After scan for Atom:   Atom  AN      X      Y      Z        X      Y      Z        X      Y      Z   
After scan for Atom:   Atom  AN      X      Y      Z        X      Y      Z        X      Y      Z   
After scan for Atom:   Atom  AN      X      Y      Z        X      Y      Z        X      Y      Z   
After scan for Atom:   Atom  AN      X      Y      Z        X      Y      Z        X      Y      Z   
After scan for Atom:   Atom  AN      X      Y      Z        X      Y      Z        X      Y      Z   
After scan for Atom:   Atom  AN      X      Y      Z        X      Y      Z        X      Y      Z   
After scan for Atom:   Atom  AN      X      Y      Z        X      Y      Z        X      Y      Z   
After scan for Atom:   Atom  AN      X      Y      Z        X      Y      Z        X      Y      Z   
After scan for Atom:   Atom  AN      X      Y      Z        X      Y      Z        X      Y      Z   
After scan for Atom:   Atom  AN      X      Y      Z        X      Y      Z        X      Y      Z   
After scan for Atom:   Atom  AN      X      Y      Z        X      Y      Z        X      Y      Z   
After scan for Atom:   Atom  AN      X      Y      Z        X      Y      Z        X      Y      Z   
After scan for Atom:   Atom  AN      X      Y      Z        X      Y      Z        X      Y      Z   
After scan for Atom:   Atom  AN      X      Y      Z        X      Y      Z        X      Y      Z   
After scan for Atom:   Atom  AN      X      Y      Z        X      Y      Z        X      Y      Z   
After scan for Atom:   Atom  AN      X      Y      Z        X      Y      Z        X      Y      Z   
After scan for Atom:   Atom  AN      X      Y      Z        X      Y      Z        X      Y      Z   
After scan for Atom:   Atom  AN      X      Y      Z        X      Y      Z        X      Y      Z   
After scan for Atom:   Atom  AN      X      Y      Z        X      Y      Z        X      Y      Z   
After scan for Atom:   Atom  AN      X      Y      Z        X      Y      Z        X      Y      Z   
After scan for Atom:   Atom  AN      X      Y      Z        X      Y      Z        X      Y      Z   
After scan for Atom:   Atom  AN      X      Y      Z        X      Y      Z        X      Y      Z   
After scan for Atom:   Atom  AN      X      Y      Z        X      Y      Z        X      Y      Z   
After scan for Atom:   Atom  AN      X      Y      Z        X      Y      Z        X      Y      Z   
After scan for Atom:   Atom  AN      X      Y      Z        X      Y      Z        X      Y      Z   
After scan for Atom:   Atom  AN      X      Y      Z        X      Y      Z        X      Y      Z   
After scan for Atom:   Atom  AN      X      Y      Z        X      Y      Z        X      Y      Z   
After scan for Atom:   Atom  AN      X      Y      Z        X      Y      Z        X      Y      Z   
After scan for Atom:   Atom  AN      X      Y      Z        X      Y      Z        X      Y      Z   
After scan for Atom:   Atom  AN      X      Y      Z        X      Y      Z        X      Y      Z   
After scan for Atom:   Atom  AN      X      Y      Z        X      Y      Z        X      Y      Z   
After scan for Atom:   Atom  AN      X      Y      Z        X      Y      Z        X      Y      Z   
After scan for Atom:   Atom  AN      X      Y      Z        X      Y      Z        X      Y      Z   
After scan for Atom:   Atom  AN      X      Y      Z        X      Y      Z        X      Y      Z   
After scan for Atom:   Atom  AN      X      Y      Z        X      Y      Z        X      Y      Z   
After scan for Atom:   Atom  AN      X      Y      Z        X      Y      Z        X      Y      Z   
After scan for Atom:   Atom  AN      X      Y      Z        X      Y      Z        X      Y      Z   
After scan for Atom:   Atom  AN      X      Y      Z        X      Y      Z        X      Y      Z   
After scan for Atom:   Atom  AN      X      Y      Z        X      Y      Z        X      Y      Z   
After scan for Atom:   Atom  AN      X      Y      Z        X      Y      Z        X      Y      Z   
After scan for Atom:   Atom  AN      X      Y      Z        X      Y      Z        X      Y      Z   
After scan for Atom:   Atom  AN      X      Y      Z        X      Y      Z        X      Y      Z   
After scan for Atom:   Atom  AN      X      Y      Z        X      Y      Z        X      Y      Z   
After scan for Atom:   Atom  AN      X      Y      Z        X      Y      Z        X      Y      Z   
After scan for Atom:   Atom  AN      X      Y      Z        X      Y      Z        X      Y      Z   
After scan for Atom:   Atom  AN      X      Y      Z        X      Y      Z        X      Y      Z   
After scan for Atom:   Atom  AN      X      Y      Z        X      Y      Z        X      Y      Z   
After scan for Atom:   Atom  AN      X      Y      Z        X      Y      Z        X      Y      Z   
After scan for Atom:   Atom  AN      X      Y      Z        X      Y      Z        X      Y      Z   
After scan for Atom:   Atom  AN      X      Y      Z        X      Y      Z        X      Y      Z   
After scan for Atom:   Atom  AN      X      Y      Z        X      Y      Z        X      Y      Z   
After scan for Atom:   Atom  AN      X      Y      Z        X      Y      Z        X      Y      Z   
After scan for Atom:   Atom  AN      X      Y      Z        X      Y      Z        X      Y      Z   
After scan for Atom:   Atom  AN      X      Y      Z        X      Y      Z        X      Y      Z   
After scan for Atom:   Atom  AN      X      Y      Z        X      Y      Z        X      Y      Z   
After scan for Atom:   Atom  AN      X      Y      Z        X      Y      Z        X      Y      Z   
After scan for Atom:   Atom  AN      X      Y      Z        X      Y      Z        X      Y      Z   
After scan for Atom:   Atom  AN      X      Y      Z        X      Y      Z        X      Y      Z   
After scan for Atom:   Atom  AN      X      Y      Z        X      Y      Z        X      Y      Z   
After scan for Atom:   Atom  AN      X      Y      Z        X      Y      Z        X      Y      Z   
 g94    frequencies=
     0.0    0.0    0.0    0.0    0.0    0.0    7.2    8.6   11.9   27.1
    29.5   39.6   42.4   53.7   56.7   65.1   76.9   89.6   94.2   99.5
   104.2  121.2  137.9  143.8  167.9  175.5  183.4  192.4  203.8  207.7
   213.2  228.2  234.5  235.7  253.1  256.7  263.4  282.9  290.2  302.4
   320.8  333.7  348.6  353.0  381.4  390.0  393.3  417.4  419.0  431.7
   436.7  437.9  439.4  445.8  448.6  464.3  469.5  478.0  486.2  495.5
   500.0  506.5  509.9  517.7  533.3  548.2  560.6  570.5  573.1  574.4
   579.2  584.9  605.2  611.2  615.5  633.1  635.2  648.7  652.5  663.1
   677.9  695.5  696.9  705.4  709.1  710.0  713.8  726.8  744.3  752.9
   759.5  760.8  770.7  799.5  806.9  812.4  815.0  816.4  820.2  828.6
   831.0  832.9  833.9  842.0  853.5  858.2  877.1  904.6  922.5  924.2
   933.5  936.7  944.9  956.7  957.9  964.0  968.2  974.5  976.3  977.8
   987.8  988.3 1001.7 1028.8 1035.2 1061.2 1083.4 1094.8 1109.7 1134.5
  1135.7 1149.1 1155.3 1157.3 1163.1 1164.4 1174.8 1175.9 1185.6 1195.8
  1203.5 1205.6 1212.3 1224.0 1232.6 1235.4 1242.2 1251.5 1263.0 1268.3
  1299.4 1315.8 1316.6 1318.5 1334.5 1350.5 1357.4 1361.2 1366.0 1379.7
  1382.3 1391.6 1400.0 1403.7 1403.7 1415.9 1420.2 1430.5 1438.1 1439.5
  1444.6 1446.6 1458.3 1460.9 1466.2 1469.1 1484.8 1492.1 1497.4 1505.2
  1510.8 1522.4 1526.6 1534.1 1546.6 1554.7 1558.4 1570.4 1580.9 1599.2
  1599.8 1606.9 1622.5 1646.1 1685.4 1705.2 1724.7 1741.3 3027.7 3034.1
  3038.2 3055.3 3092.0 3095.2 3112.3 3132.5 3142.8 3175.7 3180.1 3195.1
  3196.9 3197.7 3198.1 3199.1 3201.3 3204.6 3204.7 3212.6 3212.7 3223.7
  3224.0 3246.2
 g94    symmetries=
                                                 A      A      A      A
       A      A      A      A      A      A      A      A      A      A
       A      A      A      A      A      A      A      A      A      A
       A      A      A      A      A      A      A      A      A      A
       A      A      A      A      A      A      A      A      A      A
       A      A      A      A      A      A      A      A      A      A
       A      A      A      A      A      A      A      A      A      A
       A      A      A      A      A      A      A      A      A      A
       A      A      A      A      A      A      A      A      A      A
       A      A      A      A      A      A      A      A      A      A
       A      A      A      A      A      A      A      A      A      A
       A      A      A      A      A      A      A      A      A      A
       A      A      A      A      A      A      A      A      A      A
       A      A      A      A      A      A      A      A      A      A
       A      A      A      A      A      A      A      A      A      A
       A      A      A      A      A      A      A      A      A      A
       A      A      A      A      A      A      A      A      A      A
       A      A      A      A      A      A      A      A      A      A
       A      A      A      A      A      A      A      A      A      A
       A      A      A      A      A      A      A      A      A      A
       A      A      A      A      A      A      A      A      A      A
       A      A      A      A      A      A      A      A      A      A
       A      A
 atomic masses:
 12.0000 12.0000 12.0000 14.0031 12.0000 15.9949 12.0000 12.0000 12.0000 12.0000
 12.0000 12.0000 12.0000 12.0000 12.0000 15.9949 14.0031 12.0000 12.0000 12.0000
 12.0000 12.0000 12.0000 12.0000 12.0000 12.0000 12.0000 12.0000 31.9721 12.0000
 12.0000 31.9721 12.0000 12.0000 12.0000 15.9949 12.0000 12.0000 12.0000 12.0000
 12.0000 12.0000 12.0000 12.0000 12.0000 15.9949 12.0000 12.0000 12.0000 12.0000
  1.0078  1.0078  1.0078  1.0078  1.0078  1.0078  1.0078  1.0078  1.0078  1.0078
  1.0078  1.0078  1.0078  1.0078  1.0078  1.0078  1.0078  1.0078  1.0078  1.0078
  1.0078  1.0078  1.0078  1.0078
 looking for force constants in 
 ./CDT-A_5_C0S2.fchk                                                            
  
 Cartesian Force Constants                  R   N=       24753                  
  
 n3=         222       24753
 g94-fc frequencies=
    -2.9   -0.0    0.0    0.0    0.4    0.6    7.4    8.7   11.9   27.1
    29.5   39.6   42.4   53.7   56.8   65.1   76.9   89.6   94.2   99.5
   104.2  121.2  137.9  143.8  167.9  175.5  183.4  192.4  203.9  207.7
   213.2  228.2  234.5  235.7  253.1  256.7  263.5  282.9  290.2  302.4
   320.8  333.7  348.6  353.0  381.4  390.0  393.3  417.4  419.1  431.8
   436.7  437.9  439.4  445.9  448.6  464.4  469.5  478.0  486.2  495.5
   500.0  506.5  509.9  517.7  533.3  548.2  560.6  570.5  573.1  574.4
   579.2  584.9  605.2  611.2  615.5  633.1  635.2  648.7  652.6  663.1
   678.0  695.5  696.9  705.4  709.2  710.0  713.8  726.8  744.4  752.9
   759.6  760.9  770.7  799.5  806.9  812.4  815.0  816.4  820.2  828.6
   831.0  832.9  833.9  842.0  853.5  858.2  877.1  904.7  922.5  924.2
   933.5  936.8  944.9  956.7  957.9  964.1  968.3  974.5  976.3  977.9
   987.8  988.4 1001.7 1028.8 1035.3 1061.2 1083.5 1094.8 1109.8 1134.5
  1135.8 1149.1 1155.4 1157.3 1163.1 1164.5 1174.8 1175.9 1185.6 1195.8
  1203.5 1205.6 1212.3 1224.0 1232.7 1235.4 1242.2 1251.5 1263.1 1268.3
  1299.4 1315.9 1316.6 1318.5 1334.5 1350.6 1357.4 1361.2 1366.1 1379.7
  1382.3 1391.6 1400.0 1403.7 1403.7 1415.9 1420.2 1430.5 1438.1 1439.5
  1444.7 1446.7 1458.4 1460.9 1466.3 1469.1 1484.9 1492.2 1497.4 1505.2
  1510.9 1522.5 1526.7 1534.1 1546.6 1554.7 1558.4 1570.4 1580.9 1599.3
  1599.8 1606.9 1622.6 1646.1 1685.4 1705.2 1724.7 1741.3 3027.7 3034.2
  3038.3 3055.3 3092.1 3095.3 3112.4 3132.6 3142.9 3175.7 3180.2 3195.2
  3196.9 3197.8 3198.2 3199.2 3201.4 3204.6 3204.8 3212.7 3212.7 3223.8
  3224.1 3246.2
 at 99999: n3=         222
 symm operator            1 :  F  nop=           0
 symm operator            2 :  F  nop=           0
 symm operator            3 :  F  nop=           0
 symm operator            4 :  F  nop=           0
 symm operator            5 :  F  nop=           0
 symm operator            6 :  F  nop=           0
 symm operator            7 :  F  nop=           0
 The point group of the molecule is  C1
 Symmetry rotation matrix:
   1.00000   0.00000   0.00000
   0.00000   1.00000   0.00000
   0.00000   0.00000   1.00000

 Projecting out zero-frequency components
 generating redundant internal coords
         300        3600          74
 search for int coords
   1 str   2   1   1.532
   2 str   3   2   1.532
   3 str   4   2   1.498
   4 str   5   4   1.408
   5 str   6   5   1.221
   6 str   7   5   1.477
   7 str   8   7   1.400
   8 str   9   8   1.380
   9 str  10   9   1.422
  10 str  11  10   1.441
  11 str  12  11   1.422
  12 str  13  12   1.380
  13 str  14  13   1.400
  14 str  15  14   1.477
  15 str  16  15   1.217
  16 str  17  15   1.411
  17 str  18  17   1.446
  18 str  19  18   1.392
  19 str  20  19   1.387
  20 str  21  20   1.406
  21 str  22  21   1.463
  22 str  23  22   1.380
  23 str  24  23   1.411
  24 str  25  24   1.515
  25 str  26  25   1.515
  26 str  27  26   1.417
  27 str  28  27   1.370
  28 str  29  28   1.748
  29 str  30  26   1.383
  30 str  30  29   1.728
  31 str  31  24   1.383
  32 str  31  30   1.441
  33 str  32  22   1.769
  34 str  32  31   1.726
  35 str  33  21   1.405
  36 str  34  18   1.391
  37 str  34  33   1.388
  38 str  35  17   1.410
  39 str  36  35   1.217
  40 str  37  35   1.477
  41 str  38  37   1.400
  42 str  39  38   1.380
  43 str  40  39   1.422
  44 str  41  40   1.441
  45 str  42  41   1.422
  46 str  43  42   1.380
  47 str  44  43   1.400
  48 str  45   4   1.400
  49 str  45  44   1.479
  50 str  46  45   1.222
  51 str  47   7   1.410
  52 str  47  44   1.411
  53 str  48  10   1.427
  54 str  48  41   1.427
  55 str  48  47   1.428
  56 str  49  11   1.427
  57 str  49  40   1.427
  58 str  50  14   1.412
  59 str  50  37   1.412
  60 str  50  49   1.429
  61 str  51   1   1.093
  62 str  52   1   1.089
  63 str  53   1   1.093
  64 str  54   2   1.088
  65 str  55   3   1.089
  66 str  56   3   1.093
  67 str  57   3   1.093
  68 str  58   8   1.082
  69 str  59   9   1.081
  70 str  60  12   1.081
  71 str  61  13   1.082
  72 str  62  19   1.083
  73 str  63  20   1.083
  74 str  64  23   1.082
  75 str  65  25   1.096
  76 str  66  25   1.096
  77 str  67  27   1.082
  78 str  68  28   1.079
  79 str  69  33   1.084
  80 str  70  34   1.083
  81 str  71  38   1.082
  82 str  72  39   1.081
  83 str  73  42   1.081
  84 str  74  43   1.082
 nber stretches=          84
  85 ben   1   2   3
  86 prop tor   1   2   3  55
  87 prop tor   1   2   3  56
  88 prop tor   1   2   3  57
  89 ben   1   2   4
  90 prop tor   1   2   4   5
  91 prop tor   1   2   4  45
  92 ben   1   2  54
  93 ben   2   1  51
  94 ben   2   1  52
  95 ben   2   1  53
  96 ben   2   3  55
  97 ben   2   3  56
  98 ben   2   3  57
  99 ben   2   4   5
 100 prop tor   2   4   5   6
 101 prop tor   2   4   5   7
 102 ben   2   4  45
 103 prop tor   2   4  45  44
 104 prop tor   2   4  45  46
 105 ben   3   2   4
 106 prop tor   3   2   4   5
 107 prop tor   3   2   4  45
 108 ben   3   2  54
 109 prop tor   4   2   3  55
 110 prop tor   4   2   3  56
 111 prop tor   4   2   3  57
 112 ben   4   2  54
 113 ben   4   5   6
 114 ben   4   5   7
 115 prop tor   4   5   7   8
 116 prop tor   4   5   7  47
 117 ben   4  45  44
 118 ben   4  45  46
 119 ben   5   4  45
 120 prop tor   5   4  45  44
 121 prop tor   5   4  45  46
 122 ben   5   7   8
 123 prop tor   5   7   8   9
 124 prop tor   5   7   8  58
 125 ben   5   7  47
 126 prop tor   5   7  47  44
 127 prop tor   5   7  47  48
 128 ben   6   5   7
 129 prop tor   6   5   7   8
 130 prop tor   6   5   7  47
 131 ben   7   8   9
 132 prop tor   7   8   9  10
 133 prop tor   7   8   9  59
 134 ben   7   8  58
 135 ben   7  47  44
 136 ben   7  47  48
 137 prop tor   7  47  48  10
 138 prop tor   7  47  48  41
 139 ben   8   7  47
 140 prop tor   8   7  47  44
 141 prop tor   8   7  47  48
 142 ben   8   9  10
 143 prop tor   8   9  10  11
 144 prop tor   8   9  10  48
 145 ben   8   9  59
 146 ben   9   8  58
 147 ben   9  10  11
 148 prop tor   9  10  11  12
 149 prop tor   9  10  11  49
 150 ben   9  10  48
 151 prop tor   9  10  48  41
 152 prop tor   9  10  48  47
 153 ben  10   9  59
 154 ben  10  11  12
 155 prop tor  10  11  12  13
 156 prop tor  10  11  12  60
 157 ben  10  11  49
 158 prop tor  10  11  49  40
 159 prop tor  10  11  49  50
 160 ben  10  48  41
 161 ben  10  48  47
 162 ben  11  10  48
 163 prop tor  11  10  48  41
 164 prop tor  11  10  48  47
 165 ben  11  12  13
 166 prop tor  11  12  13  14
 167 prop tor  11  12  13  61
 168 ben  11  12  60
 169 ben  11  49  40
 170 ben  11  49  50
 171 prop tor  11  49  50  14
 172 prop tor  11  49  50  37
 173 ben  12  11  49
 174 prop tor  12  11  49  40
 175 prop tor  12  11  49  50
 176 ben  12  13  14
 177 prop tor  12  13  14  15
 178 prop tor  12  13  14  50
 179 ben  12  13  61
 180 ben  13  12  60
 181 ben  13  14  15
 182 prop tor  13  14  15  16
 183 prop tor  13  14  15  17
 184 ben  13  14  50
 185 prop tor  13  14  50  37
 186 prop tor  13  14  50  49
 187 ben  14  13  61
 188 ben  14  15  16
 189 ben  14  15  17
 190 prop tor  14  15  17  18
 191 prop tor  14  15  17  35
 192 ben  14  50  37
 193 ben  14  50  49
 194 ben  15  14  50
 195 prop tor  15  14  50  37
 196 prop tor  15  14  50  49
 197 ben  15  17  18
 198 prop tor  15  17  18  19
 199 prop tor  15  17  18  34
 200 ben  15  17  35
 201 prop tor  15  17  35  36
 202 prop tor  15  17  35  37
 203 ben  16  15  17
 204 prop tor  16  15  17  18
 205 prop tor  16  15  17  35
 206 ben  17  18  19
 207 prop tor  17  18  19  20
 208 prop tor  17  18  19  62
 209 ben  17  18  34
 210 prop tor  17  18  34  33
 211 prop tor  17  18  34  70
 212 ben  17  35  36
 213 ben  17  35  37
 214 prop tor  17  35  37  38
 215 prop tor  17  35  37  50
 216 ben  18  17  35
 217 prop tor  18  17  35  36
 218 prop tor  18  17  35  37
 219 ben  18  19  20
 220 prop tor  18  19  20  21
 221 prop tor  18  19  20  63
 222 ben  18  19  62
 223 ben  18  34  33
 224 ben  18  34  70
 225 ben  19  18  34
 226 prop tor  19  18  34  33
 227 prop tor  19  18  34  70
 228 ben  19  20  21
 229 prop tor  19  20  21  22
 230 prop tor  19  20  21  33
 231 ben  19  20  63
 232 ben  20  19  62
 233 ben  20  21  22
 234 prop tor  20  21  22  23
 235 prop tor  20  21  22  32
 236 ben  20  21  33
 237 prop tor  20  21  33  34
 238 prop tor  20  21  33  69
 239 ben  21  20  63
 240 ben  21  22  23
 241 prop tor  21  22  23  24
 242 prop tor  21  22  23  64
 243 ben  21  22  32
 244 prop tor  21  22  32  31
 245 ben  21  33  34
 246 prop tor  21  33  34  18
 247 prop tor  21  33  34  70
 248 ben  21  33  69
 249 ben  22  21  33
 250 prop tor  22  21  33  34
 251 prop tor  22  21  33  69
 252 ben  22  23  24
 253 prop tor  22  23  24  25
 254 prop tor  22  23  24  31
 255 ben  22  23  64
 256 ben  22  32  31
 257 ben  23  22  32
 258 prop tor  23  22  32  31
 259 ben  23  24  25
 260 prop tor  23  24  25  26
 261 prop tor  23  24  25  65
 262 prop tor  23  24  25  66
 263 ben  23  24  31
 264 prop tor  23  24  31  30
 265 prop tor  23  24  31  32
 266 ben  24  23  64
 267 ben  24  25  26
 268 prop tor  24  25  26  27
 269 prop tor  24  25  26  30
 270 ben  24  25  65
 271 ben  24  25  66
 272 ben  24  31  30
 273 ben  24  31  32
 274 prop tor  24  31  32  22
 275 ben  25  24  31
 276 prop tor  25  24  31  30
 277 prop tor  25  24  31  32
 278 ben  25  26  27
 279 prop tor  25  26  27  28
 280 prop tor  25  26  27  67
 281 ben  25  26  30
 282 prop tor  25  26  30  29
 283 prop tor  25  26  30  31
 284 ben  26  25  65
 285 ben  26  25  66
 286 ben  26  27  28
 287 prop tor  26  27  28  29
 288 prop tor  26  27  28  68
 289 ben  26  27  67
 290 ben  26  30  29
 291 ben  26  30  31
 292 prop tor  26  30  31  24
 293 prop tor  26  30  31  32
 294 ben  27  26  30
 295 prop tor  27  26  30  29
 296 prop tor  27  26  30  31
 297 ben  27  28  29
 298 prop tor  27  28  29  30
 299 ben  27  28  68
 300 ben  28  27  67
 301 ben  28  29  30
 302 prop tor  28  29  30  26
 303 prop tor  28  29  30  31
 304 ben  29  28  68
 305 ben  29  30  31
 306 prop tor  29  30  31  24
 307 prop tor  29  30  31  32
 308 prop tor  30  26  27  28
 309 prop tor  30  26  27  67
 310 ben  30  31  32
 311 prop tor  30  31  32  22
 312 prop tor  31  24  25  26
 313 prop tor  31  24  25  65
 314 prop tor  31  24  25  66
 315 prop tor  32  22  23  24
 316 prop tor  32  22  23  64
 317 prop tor  33  21  22  23
 318 prop tor  33  21  22  32
 319 ben  33  34  70
 320 prop tor  34  18  19  20
 321 prop tor  34  18  19  62
 322 ben  34  33  69
 323 prop tor  35  17  18  19
 324 prop tor  35  17  18  34
 325 ben  35  37  38
 326 prop tor  35  37  38  39
 327 prop tor  35  37  38  71
 328 ben  35  37  50
 329 prop tor  35  37  50  14
 330 prop tor  35  37  50  49
 331 ben  36  35  37
 332 prop tor  36  35  37  38
 333 prop tor  36  35  37  50
 334 ben  37  38  39
 335 prop tor  37  38  39  40
 336 prop tor  37  38  39  72
 337 ben  37  38  71
 338 ben  37  50  49
 339 ben  38  37  50
 340 prop tor  38  37  50  14
 341 prop tor  38  37  50  49
 342 ben  38  39  40
 343 prop tor  38  39  40  41
 344 prop tor  38  39  40  49
 345 ben  38  39  72
 346 ben  39  38  71
 347 ben  39  40  41
 348 prop tor  39  40  41  42
 349 prop tor  39  40  41  48
 350 ben  39  40  49
 351 prop tor  39  40  49  11
 352 prop tor  39  40  49  50
 353 ben  40  39  72
 354 ben  40  41  42
 355 prop tor  40  41  42  43
 356 prop tor  40  41  42  73
 357 ben  40  41  48
 358 prop tor  40  41  48  10
 359 prop tor  40  41  48  47
 360 ben  40  49  50
 361 prop tor  40  49  50  14
 362 prop tor  40  49  50  37
 363 ben  41  40  49
 364 prop tor  41  40  49  11
 365 prop tor  41  40  49  50
 366 ben  41  42  43
 367 prop tor  41  42  43  44
 368 prop tor  41  42  43  74
 369 ben  41  42  73
 370 ben  41  48  47
 371 ben  42  41  48
 372 prop tor  42  41  48  10
 373 prop tor  42  41  48  47
 374 ben  42  43  44
 375 prop tor  42  43  44  45
 376 prop tor  42  43  44  47
 377 ben  42  43  74
 378 ben  43  42  73
 379 ben  43  44  45
 380 prop tor  43  44  45   4
 381 prop tor  43  44  45  46
 382 ben  43  44  47
 383 prop tor  43  44  47   7
 384 prop tor  43  44  47  48
 385 ben  44  43  74
 386 ben  44  45  46
 387 ben  44  47  48
 388 prop tor  44  47  48  10
 389 prop tor  44  47  48  41
 390 prop tor  45   4   5   6
 391 prop tor  45   4   5   7
 392 ben  45  44  47
 393 prop tor  45  44  47   7
 394 prop tor  45  44  47  48
 395 prop tor  47   7   8   9
 396 prop tor  47   7   8  58
 397 prop tor  47  44  45   4
 398 prop tor  47  44  45  46
 399 prop tor  48  10  11  12
 400 prop tor  48  10  11  49
 401 prop tor  48  41  42  43
 402 prop tor  48  41  42  73
 403 prop tor  49  11  12  13
 404 prop tor  49  11  12  60
 405 prop tor  49  40  41  42
 406 prop tor  49  40  41  48
 407 prop tor  50  14  15  16
 408 prop tor  50  14  15  17
 409 prop tor  50  37  38  39
 410 prop tor  50  37  38  71
 411 prop tor  51   1   2   3
 412 prop tor  51   1   2   4
 413 prop tor  51   1   2  54
 414 ben  51   1  52
 415 ben  51   1  53
 416 prop tor  52   1   2   3
 417 prop tor  52   1   2   4
 418 prop tor  52   1   2  54
 419 ben  52   1  53
 420 prop tor  53   1   2   3
 421 prop tor  53   1   2   4
 422 prop tor  53   1   2  54
 423 prop tor  54   2   3  55
 424 prop tor  54   2   3  56
 425 prop tor  54   2   3  57
 426 prop tor  54   2   4   5
 427 prop tor  54   2   4  45
 428 ben  55   3  56
 429 ben  55   3  57
 430 ben  56   3  57
 431 prop tor  58   8   9  10
 432 prop tor  58   8   9  59
 433 prop tor  59   9  10  11
 434 prop tor  59   9  10  48
 435 prop tor  60  12  13  14
 436 prop tor  60  12  13  61
 437 prop tor  61  13  14  15
 438 prop tor  61  13  14  50
 439 prop tor  62  19  20  21
 440 prop tor  62  19  20  63
 441 prop tor  63  20  21  22
 442 prop tor  63  20  21  33
 443 prop tor  64  23  24  25
 444 prop tor  64  23  24  31
 445 prop tor  65  25  26  27
 446 prop tor  65  25  26  30
 447 ben  65  25  66
 448 prop tor  66  25  26  27
 449 prop tor  66  25  26  30
 450 prop tor  67  27  28  29
 451 prop tor  67  27  28  68
 452 prop tor  68  28  29  30
 453 prop tor  69  33  34  18
 454 prop tor  69  33  34  70
 455 prop tor  71  38  39  40
 456 prop tor  71  38  39  72
 457 prop tor  72  39  40  41
 458 prop tor  72  39  40  49
 459 prop tor  73  42  43  44
 460 prop tor  73  42  43  74
 461 prop tor  74  43  44  45
 462 prop tor  74  43  44  47
 nber bend=             146
 nber lin bend=           0
 nber prop tor=         232
 nber impr tor=           0
 nber tot redund int=         462
 Eigenvalues of G in red int coords
    Gval -0.00000000 -0.00000000 -0.00000000 -0.00000000 -0.00000000 -0.00000000 -0.00000000 -0.00000000
    Gval -0.00000000 -0.00000000 -0.00000000 -0.00000000 -0.00000000 -0.00000000 -0.00000000 -0.00000000
    Gval -0.00000000 -0.00000000 -0.00000000 -0.00000000 -0.00000000 -0.00000000 -0.00000000 -0.00000000
    Gval -0.00000000 -0.00000000 -0.00000000 -0.00000000 -0.00000000 -0.00000000 -0.00000000 -0.00000000
    Gval -0.00000000 -0.00000000 -0.00000000 -0.00000000 -0.00000000 -0.00000000 -0.00000000 -0.00000000
    Gval -0.00000000 -0.00000000 -0.00000000 -0.00000000 -0.00000000 -0.00000000 -0.00000000 -0.00000000
    Gval -0.00000000 -0.00000000 -0.00000000 -0.00000000 -0.00000000 -0.00000000 -0.00000000 -0.00000000
    Gval -0.00000000 -0.00000000 -0.00000000 -0.00000000 -0.00000000 -0.00000000 -0.00000000 -0.00000000
    Gval -0.00000000 -0.00000000 -0.00000000 -0.00000000 -0.00000000 -0.00000000 -0.00000000 -0.00000000
    Gval -0.00000000 -0.00000000 -0.00000000 -0.00000000 -0.00000000 -0.00000000 -0.00000000 -0.00000000
    Gval -0.00000000 -0.00000000 -0.00000000 -0.00000000 -0.00000000 -0.00000000 -0.00000000 -0.00000000
    Gval -0.00000000 -0.00000000 -0.00000000 -0.00000000 -0.00000000 -0.00000000 -0.00000000 -0.00000000
    Gval -0.00000000 -0.00000000 -0.00000000 -0.00000000 -0.00000000 -0.00000000 -0.00000000 -0.00000000
    Gval -0.00000000 -0.00000000 -0.00000000 -0.00000000 -0.00000000 -0.00000000 -0.00000000 -0.00000000
    Gval -0.00000000 -0.00000000 -0.00000000 -0.00000000 -0.00000000 -0.00000000 -0.00000000 -0.00000000
    Gval -0.00000000  0.00000000  0.00000000  0.00000000  0.00000000  0.00000000  0.00000000  0.00000000
    Gval  0.00000000  0.00000000  0.00000000  0.00000000  0.00000000  0.00000000  0.00000000  0.00000000
    Gval  0.00000000  0.00000000  0.00000000  0.00000000  0.00000000  0.00000000  0.00000000  0.00000000
    Gval  0.00000000  0.00000000  0.00000000  0.00000000  0.00000000  0.00000000  0.00000000  0.00000000
    Gval  0.00000000  0.00000000  0.00000000  0.00000000  0.00000000  0.00000000  0.00000000  0.00000000
    Gval  0.00000000  0.00000000  0.00000000  0.00000000  0.00000000  0.00000000  0.00000000  0.00000000
    Gval  0.00000000  0.00000000  0.00000000  0.00000000  0.00000000  0.00000000  0.00000000  0.00000000
    Gval  0.00000000  0.00000000  0.00000000  0.00000000  0.00000000  0.00000000  0.00000000  0.00000000
    Gval  0.00000000  0.00000000  0.00000000  0.00000000  0.00000000  0.00000000  0.00000000  0.00000000
    Gval  0.00000000  0.00000000  0.00000000  0.00000000  0.00000000  0.00000000  0.00000000  0.00000000
    Gval  0.00000000  0.00000000  0.00000000  0.00000000  0.00000000  0.00000000  0.00000000  0.00000000
    Gval  0.00000000  0.00000000  0.00000000  0.00000000  0.00000000  0.00000000  0.00000000  0.00000000
    Gval  0.00000000  0.00000000  0.00000000  0.00000000  0.00000000  0.00000000  0.00000000  0.00000000
    Gval  0.00000000  0.00000000  0.00000000  0.00000000  0.00000000  0.00000000  0.00000000  0.00000000
    Gval  0.00000000  0.00000000  0.00000000  0.00000000  0.00000000  0.00000000  0.00000000  0.00000000
    Gval  0.00000000  0.00000000  0.00000000  0.00000000  0.00000000  0.00000000  0.00000011  0.00000017
    Gval  0.00000076  0.00000108  0.00000164  0.00000281  0.00000327  0.00000341  0.00000498  0.00000644
    Gval  0.00000697  0.00000927  0.00001025  0.00001126  0.00001253  0.00001359  0.00001577  0.00001620
    Gval  0.00001663  0.00001785  0.00001828  0.00001905  0.00002163  0.00002305  0.00002383  0.00002407
    Gval  0.00002536  0.00002641  0.00002769  0.00002939  0.00003002  0.00003446  0.00003608  0.00003899
    Gval  0.00003994  0.00004410  0.00004589  0.00004884  0.00004896  0.00005102  0.00005231  0.00005345
    Gval  0.00005479  0.00005683  0.00005900  0.00006143  0.00006354  0.00006487  0.00006876  0.00007138
    Gval  0.00007370  0.00007830  0.00007947  0.00008143  0.00008251  0.00008578  0.00008775  0.00008854
    Gval  0.00009053  0.00009322  0.00009364  0.00009499  0.00009824  0.00010200  0.00011256  0.00011742
    Gval  0.00011802  0.00012159  0.00012248  0.00013400  0.00013511  0.00013595  0.00013727  0.00014035
    Gval  0.00014940  0.00015423  0.00015858  0.00015896  0.00016434  0.00017349  0.00017980  0.00018131
    Gval  0.00020142  0.00020736  0.00022143  0.00022327  0.00023010  0.00023063  0.00026500  0.00027038
    Gval  0.00028568  0.00028653  0.00028820  0.00029314  0.00029480  0.00030248  0.00030802  0.00033570
    Gval  0.00034141  0.00035971  0.00036943  0.00037338  0.00038003  0.00038101  0.00038278  0.00038879
    Gval  0.00039204  0.00039323  0.00040361  0.00042305  0.00042457  0.00042870  0.00043261  0.00043638
    Gval  0.00044108  0.00044189  0.00046121  0.00046193  0.00046876  0.00047449  0.00048176  0.00049578
    Gval  0.00053381  0.00053717  0.00054396  0.00055408  0.00055478  0.00055595  0.00055601  0.00057473
    Gval  0.00058331  0.00059676  0.00059850  0.00059887  0.00059924  0.00059957  0.00059985  0.00060037
    Gval  0.00060219  0.00060933  0.00062384  0.00062453  0.00062749  0.00063929  0.00064080  0.00064423
    Gval  0.00064502  0.00064682  0.00065054  0.00067050  0.00069395  0.00069770  0.00079748  0.00080022
    Gval  0.00081587  0.00093307  0.00098906  0.00107297  0.00108059  0.00108141  0.00109321  0.00109414
    Gval  0.00109483  0.00109533  0.00110955  0.00114123  0.00114299  0.00115006  0.00116527  0.00116541
    Gval  0.00116554  0.00116585  0.00116607  0.00117111  0.00117170  0.00117211  0.00118430  0.00120711
    Gval  0.00126205  0.00129526  0.00133655  0.00137310  0.00138277  0.00148174  0.00156079  0.00166021
    Gval  0.00171513  0.00175342  0.00179998  0.00191907  0.00195774  0.00208613  0.00228007  0.00233885
    Gval  0.00235153  0.00246995  0.00252132  0.00252699  0.00256047  0.00267261  0.00278952  0.00292190
    Gval  0.00302348  0.00302555  0.00304208  0.00308130  0.00309604  0.00362072  0.00367516  0.00367700
    Gval  0.00372185  0.00372358  0.00372612  0.00375216  0.00394489  0.00407992
  1.137901068147489E-007  1.137901068147489E-007
  1.726368473958960E-007  1.137901068147489E-007
  7.556762896385405E-007  1.137901068147489E-007
  1.076614625058978E-006  1.137901068147489E-007
  1.644908187812515E-006  1.137901068147489E-007
  2.814818104540674E-006  1.137901068147489E-007
  3.268085385495984E-006  1.137901068147489E-007
  3.409980600216059E-006  1.137901068147489E-007
  4.976238132126391E-006  1.137901068147489E-007
  6.443562018262880E-006  1.137901068147489E-007
  6.965428423227339E-006  1.137901068147489E-007
  9.271351091622529E-006  1.137901068147489E-007
  1.025340999411300E-005  1.137901068147489E-007
  1.126079031183093E-005  1.137901068147489E-007
  1.253318823898239E-005  1.137901068147489E-007
  1.359086890550135E-005  1.137901068147489E-007
  1.577222999328642E-005  1.137901068147489E-007
  1.620388857604107E-005  1.137901068147489E-007
  1.663425339986767E-005  1.137901068147489E-007
  1.784651534901392E-005  1.137901068147489E-007
  1.827693302627301E-005  1.137901068147489E-007
  1.904858678849891E-005  1.137901068147489E-007
  2.163094597166373E-005  1.137901068147489E-007
  2.304712583849995E-005  1.137901068147489E-007
  2.383235316684848E-005  1.137901068147489E-007
  2.407490580496017E-005  1.137901068147489E-007
  2.535962337138538E-005  1.137901068147489E-007
  2.640893163583021E-005  1.137901068147489E-007
  2.769071270834469E-005  1.137901068147489E-007
  2.939395849535398E-005  1.137901068147489E-007
  3.002254130202991E-005  1.137901068147489E-007
  3.446460507945919E-005  1.137901068147489E-007
  3.608315283394686E-005  1.137901068147489E-007
  3.898573610314435E-005  1.137901068147489E-007
  3.994119563187612E-005  1.137901068147489E-007
  4.409512831299473E-005  1.137901068147489E-007
  4.589468834606466E-005  1.137901068147489E-007
  4.883836527883185E-005  1.137901068147489E-007
  4.896434883743777E-005  1.137901068147489E-007
  5.101831976340394E-005  1.137901068147489E-007
  5.231461525554834E-005  1.137901068147489E-007
  5.345398360184345E-005  1.137901068147489E-007
  5.479057973859702E-005  1.137901068147489E-007
  5.683109338355692E-005  1.137901068147489E-007
  5.900255469438813E-005  1.137901068147489E-007
  6.143401682749042E-005  1.137901068147489E-007
  6.353837596614952E-005  1.137901068147489E-007
  6.486979628627702E-005  1.137901068147489E-007
  6.875718618826131E-005  1.137901068147489E-007
  7.138456610503834E-005  1.137901068147489E-007
  7.369848895200436E-005  1.137901068147489E-007
  7.830240571154969E-005  1.137901068147489E-007
  7.947113283941861E-005  1.137901068147489E-007
  8.142919893524365E-005  1.137901068147489E-007
  8.251209947914065E-005  1.137901068147489E-007
  8.577985381633653E-005  1.137901068147489E-007
  8.774977455683724E-005  1.137901068147489E-007
  8.854186438044655E-005  1.137901068147489E-007
  9.053444472615995E-005  1.137901068147489E-007
  9.321900127267706E-005  1.137901068147489E-007
  9.363680704006293E-005  1.137901068147489E-007
  9.498930691889169E-005  1.137901068147489E-007
  9.824147033677214E-005  1.137901068147489E-007
  1.020019595271592E-004  1.137901068147489E-007
  1.125594947775032E-004  1.137901068147489E-007
  1.174151516453394E-004  1.137901068147489E-007
  1.180180503690672E-004  1.137901068147489E-007
  1.215931470242596E-004  1.137901068147489E-007
  1.224770365757171E-004  1.137901068147489E-007
  1.339959220681079E-004  1.137901068147489E-007
  1.351092972794971E-004  1.137901068147489E-007
  1.359536899576455E-004  1.137901068147489E-007
  1.372731311249347E-004  1.137901068147489E-007
  1.403510227374088E-004  1.137901068147489E-007
  1.494035793156423E-004  1.137901068147489E-007
  1.542344304563737E-004  1.137901068147489E-007
  1.585849884015258E-004  1.137901068147489E-007
  1.589600425993372E-004  1.137901068147489E-007
  1.643436491811945E-004  1.137901068147489E-007
  1.734910291257939E-004  1.137901068147489E-007
  1.797994833837763E-004  1.137901068147489E-007
  1.813131424689549E-004  1.137901068147489E-007
  2.014212454357982E-004  1.137901068147489E-007
  2.073584257391086E-004  1.137901068147489E-007
  2.214309278912399E-004  1.137901068147489E-007
  2.232664089983790E-004  1.137901068147489E-007
  2.301007314435078E-004  1.137901068147489E-007
  2.306274457462701E-004  1.137901068147489E-007
  2.650041337846105E-004  1.137901068147489E-007
  2.703818291447226E-004  1.137901068147489E-007
  2.856788683076354E-004  1.137901068147489E-007
  2.865270572994655E-004  1.137901068147489E-007
  2.882000411740010E-004  1.137901068147489E-007
  2.931365997363896E-004  1.137901068147489E-007
  2.948046421599498E-004  1.137901068147489E-007
  3.024795813512722E-004  1.137901068147489E-007
  3.080221807230894E-004  1.137901068147489E-007
  3.356964360587084E-004  1.137901068147489E-007
  3.414124867241754E-004  1.137901068147489E-007
  3.597066228886772E-004  1.137901068147489E-007
  3.694331842153175E-004  1.137901068147489E-007
  3.733819458367452E-004  1.137901068147489E-007
  3.800326904689668E-004  1.137901068147489E-007
  3.810118569513408E-004  1.137901068147489E-007
  3.827814165945755E-004  1.137901068147489E-007
  3.887905850973850E-004  1.137901068147489E-007
  3.920369942031911E-004  1.137901068147489E-007
  3.932318808330491E-004  1.137901068147489E-007
  4.036101529242957E-004  1.137901068147489E-007
  4.230477474547217E-004  1.137901068147489E-007
  4.245654935466271E-004  1.137901068147489E-007
  4.286993887398808E-004  1.137901068147489E-007
  4.326131713592154E-004  1.137901068147489E-007
  4.363763732063857E-004  1.137901068147489E-007
  4.410756908282723E-004  1.137901068147489E-007
  4.418945714262383E-004  1.137901068147489E-007
  4.612088046257558E-004  1.137901068147489E-007
  4.619294418628935E-004  1.137901068147489E-007
  4.687642979263260E-004  1.137901068147489E-007
  4.744900319200364E-004  1.137901068147489E-007
  4.817644049915783E-004  1.137901068147489E-007
  4.957789484260847E-004  1.137901068147489E-007
  5.338087261748085E-004  1.137901068147489E-007
  5.371676370257748E-004  1.137901068147489E-007
  5.439572830835958E-004  1.137901068147489E-007
  5.540776555467996E-004  1.137901068147489E-007
  5.547815897692300E-004  1.137901068147489E-007
  5.559488884046870E-004  1.137901068147489E-007
  5.560099934130403E-004  1.137901068147489E-007
  5.747317630293739E-004  1.137901068147489E-007
  5.833099994614840E-004  1.137901068147489E-007
  5.967565769190816E-004  1.137901068147489E-007
  5.984964034058321E-004  1.137901068147489E-007
  5.988724539363491E-004  1.137901068147489E-007
  5.992396898076507E-004  1.137901068147489E-007
  5.995702265919610E-004  1.137901068147489E-007
  5.998502153213412E-004  1.137901068147489E-007
  6.003680158449926E-004  1.137901068147489E-007
  6.021874439990497E-004  1.137901068147489E-007
  6.093330723438478E-004  1.137901068147489E-007
  6.238426454604914E-004  1.137901068147489E-007
  6.245316719459131E-004  1.137901068147489E-007
  6.274856737037395E-004  1.137901068147489E-007
  6.392873026843456E-004  1.137901068147489E-007
  6.408042582126410E-004  1.137901068147489E-007
  6.442285460724942E-004  1.137901068147489E-007
  6.450203657526495E-004  1.137901068147489E-007
  6.468171872996641E-004  1.137901068147489E-007
  6.505381756080260E-004  1.137901068147489E-007
  6.705043988293916E-004  1.137901068147489E-007
  6.939505129493300E-004  1.137901068147489E-007
  6.976993502178775E-004  1.137901068147489E-007
  7.974780049670243E-004  1.137901068147489E-007
  8.002231573810829E-004  1.137901068147489E-007
  8.158652307093974E-004  1.137901068147489E-007
  9.330734205525164E-004  1.137901068147489E-007
  9.890552184516534E-004  1.137901068147489E-007
  1.072967510719194E-003  1.137901068147489E-007
  1.080588787974767E-003  1.137901068147489E-007
  1.081406342018534E-003  1.137901068147489E-007
  1.093207473840070E-003  1.137901068147489E-007
  1.094141418136207E-003  1.137901068147489E-007
  1.094830731816904E-003  1.137901068147489E-007
  1.095332709923700E-003  1.137901068147489E-007
  1.109545061045447E-003  1.137901068147489E-007
  1.141231438509315E-003  1.137901068147489E-007
  1.142988582899622E-003  1.137901068147489E-007
  1.150064209746862E-003  1.137901068147489E-007
  1.165273775392800E-003  1.137901068147489E-007
  1.165406898082865E-003  1.137901068147489E-007
  1.165539275857830E-003  1.137901068147489E-007
  1.165845917542348E-003  1.137901068147489E-007
  1.166068925932812E-003  1.137901068147489E-007
  1.171109405912976E-003  1.137901068147489E-007
  1.171696092345454E-003  1.137901068147489E-007
  1.172112968640528E-003  1.137901068147489E-007
  1.184297080337935E-003  1.137901068147489E-007
  1.207107602471596E-003  1.137901068147489E-007
  1.262048191833166E-003  1.137901068147489E-007
  1.295255272471957E-003  1.137901068147489E-007
  1.336546726634722E-003  1.137901068147489E-007
  1.373102462688573E-003  1.137901068147489E-007
  1.382771781029393E-003  1.137901068147489E-007
  1.481744841222504E-003  1.137901068147489E-007
  1.560787424759311E-003  1.137901068147489E-007
  1.660206917616006E-003  1.137901068147489E-007
  1.715130311054572E-003  1.137901068147489E-007
  1.753421811101461E-003  1.137901068147489E-007
  1.799981000775374E-003  1.137901068147489E-007
  1.919071703943408E-003  1.137901068147489E-007
  1.957738002560376E-003  1.137901068147489E-007
  2.086129410393208E-003  1.137901068147489E-007
  2.280074040196777E-003  1.137901068147489E-007
  2.338851948024460E-003  1.137901068147489E-007
  2.351532952313068E-003  1.137901068147489E-007
  2.469954070388794E-003  1.137901068147489E-007
  2.521319034358886E-003  1.137901068147489E-007
  2.526990738501490E-003  1.137901068147489E-007
  2.560474586226997E-003  1.137901068147489E-007
  2.672606556253277E-003  1.137901068147489E-007
  2.789520442018591E-003  1.137901068147489E-007
  2.921899215882301E-003  1.137901068147489E-007
  3.023481583168686E-003  1.137901068147489E-007
  3.025551584834654E-003  1.137901068147489E-007
  3.042076786758839E-003  1.137901068147489E-007
  3.081295420230059E-003  1.137901068147489E-007
  3.096035552799239E-003  1.137901068147489E-007
  3.620722917612200E-003  1.137901068147489E-007
  3.675158955881592E-003  1.137901068147489E-007
  3.676995284184912E-003  1.137901068147489E-007
  3.721852899559834E-003  1.137901068147489E-007
  3.723584527616969E-003  1.137901068147489E-007
  3.726116502948834E-003  1.137901068147489E-007
  3.752161735091247E-003  1.137901068147489E-007
  3.944887381413426E-003  1.137901068147489E-007
  4.079923613180362E-003  1.137901068147489E-007
 cut=1d-8, nber non-redundant internal coords=         216
 Check on Eigenvals of non-red overlap matrix:
  0.00000011  0.00000017  0.00000076  0.00000108  0.00000164  0.00000281  0.00000327  0.00000341
  0.00000498  0.00000644  0.00000697  0.00000927  0.00001025  0.00001126  0.00001253  0.00001359
  0.00001577  0.00001620  0.00001663  0.00001785  0.00001828  0.00001905  0.00002163  0.00002305
  0.00002383  0.00002407  0.00002536  0.00002641  0.00002769  0.00002939  0.00003002  0.00003446
  0.00003608  0.00003899  0.00003994  0.00004410  0.00004589  0.00004884  0.00004896  0.00005102
  0.00005231  0.00005345  0.00005479  0.00005683  0.00005900  0.00006143  0.00006354  0.00006487
  0.00006876  0.00007138  0.00007370  0.00007830  0.00007947  0.00008143  0.00008251  0.00008578
  0.00008775  0.00008854  0.00009053  0.00009322  0.00009364  0.00009499  0.00009824  0.00010200
  0.00011256  0.00011742  0.00011802  0.00012159  0.00012248  0.00013400  0.00013511  0.00013595
  0.00013727  0.00014035  0.00014940  0.00015423  0.00015858  0.00015896  0.00016434  0.00017349
  0.00017980  0.00018131  0.00020142  0.00020736  0.00022143  0.00022327  0.00023010  0.00023063
  0.00026500  0.00027038  0.00028568  0.00028653  0.00028820  0.00029314  0.00029480  0.00030248
  0.00030802  0.00033570  0.00034141  0.00035971  0.00036943  0.00037338  0.00038003  0.00038101
  0.00038278  0.00038879  0.00039204  0.00039323  0.00040361  0.00042305  0.00042457  0.00042870
  0.00043261  0.00043638  0.00044108  0.00044189  0.00046121  0.00046193  0.00046876  0.00047449
  0.00048176  0.00049578  0.00053381  0.00053717  0.00054396  0.00055408  0.00055478  0.00055595
  0.00055601  0.00057473  0.00058331  0.00059676  0.00059850  0.00059887  0.00059924  0.00059957
  0.00059985  0.00060037  0.00060219  0.00060933  0.00062384  0.00062453  0.00062749  0.00063929
  0.00064080  0.00064423  0.00064502  0.00064682  0.00065054  0.00067050  0.00069395  0.00069770
  0.00079748  0.00080022  0.00081587  0.00093307  0.00098906  0.00107297  0.00108059  0.00108141
  0.00109321  0.00109414  0.00109483  0.00109533  0.00110955  0.00114123  0.00114299  0.00115006
  0.00116527  0.00116541  0.00116554  0.00116585  0.00116607  0.00117111  0.00117170  0.00117211
  0.00118430  0.00120711  0.00126205  0.00129526  0.00133655  0.00137310  0.00138277  0.00148174
  0.00156079  0.00166021  0.00171513  0.00175342  0.00179998  0.00191907  0.00195774  0.00208613
  0.00228007  0.00233885  0.00235153  0.00246995  0.00252132  0.00252699  0.00256047  0.00267261
  0.00278952  0.00292190  0.00302348  0.00302555  0.00304208  0.00308130  0.00309604  0.00362072
  0.00367516  0.00367700  0.00372185  0.00372358  0.00372612  0.00375216  0.00394489  0.00407992
 Checking for correct frequencies
 recalc frequencies=
    -0.0   -0.0   -0.0    0.0    0.0    0.0    7.2    8.6   11.9   27.1
    29.5   39.6   42.4   53.7   56.8   65.1   76.9   89.6   94.2   99.5
   104.2  121.2  137.9  143.8  167.9  175.5  183.4  192.4  203.9  207.7
   213.2  228.2  234.5  235.7  253.1  256.7  263.5  282.9  290.2  302.4
   320.8  333.7  348.6  353.0  381.4  390.0  393.3  417.4  419.1  431.8
   436.7  437.9  439.4  445.9  448.6  464.4  469.5  478.0  486.2  495.5
   500.0  506.5  509.9  517.7  533.3  548.2  560.6  570.5  573.1  574.4
   579.2  584.9  605.2  611.2  615.5  633.1  635.2  648.7  652.6  663.1
   678.0  695.5  696.9  705.4  709.2  710.0  713.8  726.8  744.4  752.9
   759.6  760.9  770.7  799.5  806.9  812.4  815.0  816.4  820.2  828.6
   831.0  832.9  833.9  842.0  853.5  858.2  877.1  904.7  922.5  924.2
   933.5  936.8  944.9  956.7  957.9  964.1  968.3  974.5  976.3  977.9
   987.8  988.4 1001.7 1028.8 1035.3 1061.2 1083.5 1094.8 1109.8 1134.5
  1135.8 1149.1 1155.4 1157.3 1163.1 1164.5 1174.8 1175.9 1185.6 1195.8
  1203.5 1205.6 1212.3 1224.0 1232.7 1235.4 1242.2 1251.5 1263.1 1268.3
  1299.4 1315.9 1316.6 1318.5 1334.5 1350.6 1357.4 1361.2 1366.1 1379.7
  1382.3 1391.6 1400.0 1403.7 1403.7 1415.9 1420.2 1430.5 1438.1 1439.5
  1444.7 1446.7 1458.4 1460.9 1466.3 1469.1 1484.9 1492.2 1497.4 1505.2
  1510.9 1522.5 1526.7 1534.1 1546.6 1554.7 1558.4 1570.4 1580.9 1599.3
  1599.8 1606.9 1622.6 1646.1 1685.4 1705.2 1724.7 1741.3 3027.7 3034.2
  3038.3 3055.3 3092.1 3095.3 3112.4 3132.6 3142.9 3175.7 3180.2 3195.2
  3196.9 3197.8 3198.2 3199.2 3201.4 3204.6 3204.8 3212.7 3212.7 3223.8
  3224.1 3246.2
 recalc symmetries=
                                                                       
                                                                       
                                                                       
                                                                       
                                                                       
                                                                       
                                                                       
                                                                       
                                                                       
                                                                       
                                                                       
                                                                       
                                                                       
                                                                       
                                                                       
                                                                       
                                                                       
                                                                       
                                                                       
                                                                       
                                                                       
                                                                       
               
 recalc freqs check OK
 Zero-point lengths:
 10.0000 10.0000 10.0000 10.0000 10.0000 10.0000 92.2329 84.3045 71.8135 47.6129
 45.6267 39.4018 38.0518 33.8148 32.9088 30.7285 28.2772 26.1898 25.5488 24.8571
 24.2903 22.5209 21.1127 20.6706 19.1338 18.7129 18.3052 17.8708 17.3635 17.2007
 16.9797 16.4103 16.1885 16.1484 15.5834 15.4735 15.2736 14.7394 14.5529 14.2560
 13.8419 13.5709 13.2775 13.1942 12.6935 12.5540 12.5008 12.1339 12.1105 11.9310
 11.8636 11.8468 11.8269 11.7408 11.7050 11.5045 11.4416 11.3392 11.2434 11.1374
 11.0867 11.0159 10.9791 10.8960 10.7349 10.5881 10.4703 10.3790 10.3554 10.3442
 10.3008 10.2508 10.0772 10.0275  9.9924  9.8524  9.8362  9.7333  9.7048  9.6273
  9.5212  9.4006  9.3907  9.3341  9.3095  9.3038  9.2790  9.1957  9.0867  9.0347
  8.9953  8.9876  8.9300  8.7678  8.7274  8.6979  8.6837  8.6763  8.6562  8.6124
  8.5997  8.5903  8.5851  8.5437  8.4856  8.4625  8.3708  8.2424  8.1622  8.1549
  8.1139  8.1000  8.0650  8.0149  8.0101  7.9844  7.9671  7.9415  7.9343  7.9279
  7.8878  7.8857  7.8329  7.7290  7.7049  7.6102  7.5316  7.4924  7.4418  7.3603
  7.3562  7.3133  7.2935  7.2874  7.2692  7.2650  7.2329  7.2294  7.1998  7.1692
  7.1461  7.1400  7.1201  7.0861  7.0611  7.0533  7.0338  7.0078  6.9756  6.9612
  6.8773  6.8342  6.8323  6.8274  6.7864  6.7459  6.7289  6.7195  6.7075  6.6742
  6.6680  6.6457  6.6257  6.6170  6.6169  6.5883  6.5784  6.5547  6.5374  6.5341
  6.5224  6.5180  6.4918  6.4861  6.4743  6.4679  6.4336  6.4178  6.4065  6.3899
  6.3780  6.3536  6.3449  6.3294  6.3038  6.2873  6.2800  6.2559  6.2351  6.1992
  6.1982  6.1844  6.1545  6.1103  6.0387  6.0035  5.9695  5.9409  4.5054  4.5007
  4.4976  4.4851  4.4583  4.4560  4.4437  4.4294  4.4221  4.3992  4.3961  4.3858
  4.3846  4.3840  4.3837  4.3830  4.3815  4.3793  4.3792  4.3738  4.3738  4.3663
  4.3661  4.3512
 highest evec of mol 1
  0.0000  0.0000  0.0000
  0.0000  0.0000  0.0000
  0.0000  0.0000  0.0000
 -0.0000 -0.0000 -0.0000
  0.0000  0.0000  0.0000
 -0.0000 -0.0000 -0.0000
  0.0000 -0.0000 -0.0000
  0.0000  0.0000  0.0000
  0.0000 -0.0000  0.0000
 -0.0000  0.0000  0.0000
  0.0000  0.0000 -0.0000
  0.0000 -0.0000  0.0000
  0.0000 -0.0000  0.0000
 -0.0000 -0.0000 -0.0000
  0.0000  0.0000  0.0000
 -0.0000 -0.0000 -0.0000
 -0.0000 -0.0000 -0.0000
  0.0000  0.0000  0.0000
  0.0001  0.0001 -0.0001
  0.0000 -0.0001 -0.0000
  0.0000  0.0001  0.0000
 -0.0002 -0.0001 -0.0000
  0.0002 -0.0000 -0.0001
  0.0004  0.0001 -0.0000
  0.0001  0.0002  0.0001
 -0.0018 -0.0060 -0.0024
 -0.0428  0.0461  0.0273
  0.2074  0.1942  0.0553
  0.0011 -0.0016 -0.0009
 -0.0027 -0.0021 -0.0005
 -0.0004 -0.0000  0.0001
  0.0000  0.0001  0.0000
 -0.0001 -0.0001  0.0000
 -0.0001  0.0001  0.0001
 -0.0000  0.0000 -0.0000
  0.0000 -0.0000  0.0000
  0.0000 -0.0000 -0.0000
 -0.0000 -0.0000 -0.0000
 -0.0000  0.0000 -0.0000
 -0.0000 -0.0000  0.0000
 -0.0000  0.0000 -0.0000
 -0.0000  0.0000 -0.0000
  0.0000 -0.0000  0.0000
 -0.0000 -0.0000  0.0000
  0.0000  0.0000  0.0000
  0.0000 -0.0000  0.0000
 -0.0000 -0.0000 -0.0000
  0.0000 -0.0000 -0.0000
  0.0000  0.0000 -0.0000
 -0.0000 -0.0000  0.0000
 -0.0000 -0.0000 -0.0000
  0.0000  0.0000  0.0000
 -0.0000 -0.0000  0.0000
 -0.0000  0.0000 -0.0000
  0.0000  0.0000  0.0000
 -0.0000 -0.0000 -0.0000
  0.0000 -0.0000 -0.0000
 -0.0000 -0.0000 -0.0000
 -0.0000  0.0000 -0.0000
 -0.0000 -0.0000 -0.0000
 -0.0000  0.0000 -0.0000
 -0.0003 -0.0002  0.0001
 -0.0001  0.0001  0.0001
 -0.0006 -0.0001  0.0000
  0.0003  0.0001  0.0001
  0.0003  0.0002 -0.0001
  0.0855 -0.1403 -0.0763
 -0.6441 -0.6528 -0.1939
  0.0002  0.0001 -0.0001
  0.0002 -0.0002 -0.0003
  0.0000  0.0000  0.0000
  0.0001 -0.0001  0.0000
  0.0000  0.0000  0.0000
 -0.0000  0.0000 -0.0000
 generating redundant internal coords
         300        3600          74
 Adding extra bonds for z output only
           6           6           6           7           6           8
           6           6           6           6           6           6
           6           6           6           8           7           6
           6           6           6           6           6           6
           6           6           6           6          16           6
           6          16           6           6           6           8
           6           6           6           6           6           6
           6           6           6           8           6           6
           6           6           1           1           1           1
           1           1           1           1           1           1
           1           1           1           1           1           1
           1           1           1           1           1           1
           1           1
 search for int coords
   1 str   2   1   1.532
   2 str   3   2   1.532
   3 str   4   2   1.498
   4 str   5   4   1.408
   5 str   6   5   1.221
   6 str   7   5   1.477
   7 str   8   7   1.400
   8 str   9   8   1.380
   9 str  10   9   1.422
  10 str  11  10   1.441
  11 str  12  11   1.422
  12 str  13  12   1.380
  13 str  14  13   1.400
  14 str  15  14   1.477
  15 str  16  15   1.217
  16 str  17  15   1.411
  17 str  18  17   1.446
  18 str  19  18   1.392
  19 str  20  19   1.387
  20 str  21  20   1.406
  21 str  22  21   1.463
  22 str  23  22   1.380
  23 str  24  23   1.411
  24 str  25  24   1.515
  25 str  26  25   1.515
  26 str  27  26   1.417
  27 str  28  27   1.370
  28 str  29  28   1.748
  29 str  30  26   1.383
  30 str  30  29   1.728
  31 str  31  24   1.383
  32 str  31  30   1.441
  33 str  32  22   1.769
  34 str  32  31   1.726
  35 str  33  21   1.405
  36 str  34  18   1.391
  37 str  34  33   1.388
  38 str  35  17   1.410
  39 str  36  35   1.217
  40 str  37  35   1.477
  41 str  38  37   1.400
  42 str  39  38   1.380
  43 str  40  39   1.422
  44 str  41  40   1.441
  45 str  42  41   1.422
  46 str  43  42   1.380
  47 str  44  43   1.400
  48 str  45   4   1.400
  49 str  45  44   1.479
  50 str  46  45   1.222
  51 str  47   7   1.410
  52 str  47  44   1.411
  53 str  48  10   1.427
  54 str  48  41   1.427
  55 str  48  47   1.428
  56 str  49  11   1.427
  57 str  49  40   1.427
  58 str  50  14   1.412
  59 str  50  37   1.412
  60 str  50  49   1.429
  61 str  51   1   1.093
  62 str  52   1   1.089
  63 str  53   1   1.093
  64 str  54   2   1.088
  65 str  55   3   1.089
  66 str  56   3   1.093
  67 str  57   3   1.093
  68 str  58   8   1.082
  69 str  59   9   1.081
  70 str  60  12   1.081
  71 str  61  13   1.082
  72 str  62  19   1.083
  73 str  63  20   1.083
  74 str  64  23   1.082
  75 str  65  25   1.096
  76 str  66  25   1.096
  77 str  67  27   1.082
  78 str  68  28   1.079
  79 str  69  33   1.084
  80 str  70  34   1.083
  81 str  71  38   1.082
  82 str  72  39   1.081
  83 str  73  42   1.081
  84 str  74  43   1.082
 nber stretches=          84
  85 ben   1   2   3
  86 prop tor   1   2   3  55
  87 prop tor   1   2   3  56
  88 prop tor   1   2   3  57
  89 ben   1   2   4
  90 prop tor   1   2   4   5
  91 prop tor   1   2   4  45
  92 ben   1   2  54
  93 ben   2   1  51
  94 ben   2   1  52
  95 ben   2   1  53
  96 ben   2   3  55
  97 ben   2   3  56
  98 ben   2   3  57
  99 ben   2   4   5
 100 prop tor   2   4   5   6
 101 prop tor   2   4   5   7
 102 ben   2   4  45
 103 prop tor   2   4  45  44
 104 prop tor   2   4  45  46
 105 ben   3   2   4
 106 prop tor   3   2   4   5
 107 prop tor   3   2   4  45
 108 ben   3   2  54
 109 prop tor   4   2   3  55
 110 prop tor   4   2   3  56
 111 prop tor   4   2   3  57
 112 ben   4   2  54
 113 ben   4   5   6
 114 ben   4   5   7
 115 prop tor   4   5   7   8
 116 prop tor   4   5   7  47
 117 ben   4  45  44
 118 ben   4  45  46
 119 ben   5   4  45
 120 prop tor   5   4  45  44
 121 prop tor   5   4  45  46
 122 ben   5   7   8
 123 prop tor   5   7   8   9
 124 prop tor   5   7   8  58
 125 ben   5   7  47
 126 prop tor   5   7  47  44
 127 prop tor   5   7  47  48
 128 ben   6   5   7
 129 prop tor   6   5   7   8
 130 prop tor   6   5   7  47
 131 ben   7   8   9
 132 prop tor   7   8   9  10
 133 prop tor   7   8   9  59
 134 ben   7   8  58
 135 ben   7  47  44
 136 ben   7  47  48
 137 prop tor   7  47  48  10
 138 prop tor   7  47  48  41
 139 ben   8   7  47
 140 prop tor   8   7  47  44
 141 prop tor   8   7  47  48
 142 ben   8   9  10
 143 prop tor   8   9  10  11
 144 prop tor   8   9  10  48
 145 ben   8   9  59
 146 ben   9   8  58
 147 ben   9  10  11
 148 prop tor   9  10  11  12
 149 prop tor   9  10  11  49
 150 ben   9  10  48
 151 prop tor   9  10  48  41
 152 prop tor   9  10  48  47
 153 ben  10   9  59
 154 ben  10  11  12
 155 prop tor  10  11  12  13
 156 prop tor  10  11  12  60
 157 ben  10  11  49
 158 prop tor  10  11  49  40
 159 prop tor  10  11  49  50
 160 ben  10  48  41
 161 ben  10  48  47
 162 ben  11  10  48
 163 prop tor  11  10  48  41
 164 prop tor  11  10  48  47
 165 ben  11  12  13
 166 prop tor  11  12  13  14
 167 prop tor  11  12  13  61
 168 ben  11  12  60
 169 ben  11  49  40
 170 ben  11  49  50
 171 prop tor  11  49  50  14
 172 prop tor  11  49  50  37
 173 ben  12  11  49
 174 prop tor  12  11  49  40
 175 prop tor  12  11  49  50
 176 ben  12  13  14
 177 prop tor  12  13  14  15
 178 prop tor  12  13  14  50
 179 ben  12  13  61
 180 ben  13  12  60
 181 ben  13  14  15
 182 prop tor  13  14  15  16
 183 prop tor  13  14  15  17
 184 ben  13  14  50
 185 prop tor  13  14  50  37
 186 prop tor  13  14  50  49
 187 ben  14  13  61
 188 ben  14  15  16
 189 ben  14  15  17
 190 prop tor  14  15  17  18
 191 prop tor  14  15  17  35
 192 ben  14  50  37
 193 ben  14  50  49
 194 ben  15  14  50
 195 prop tor  15  14  50  37
 196 prop tor  15  14  50  49
 197 ben  15  17  18
 198 prop tor  15  17  18  19
 199 prop tor  15  17  18  34
 200 ben  15  17  35
 201 prop tor  15  17  35  36
 202 prop tor  15  17  35  37
 203 ben  16  15  17
 204 prop tor  16  15  17  18
 205 prop tor  16  15  17  35
 206 ben  17  18  19
 207 prop tor  17  18  19  20
 208 prop tor  17  18  19  62
 209 ben  17  18  34
 210 prop tor  17  18  34  33
 211 prop tor  17  18  34  70
 212 ben  17  35  36
 213 ben  17  35  37
 214 prop tor  17  35  37  38
 215 prop tor  17  35  37  50
 216 ben  18  17  35
 217 prop tor  18  17  35  36
 218 prop tor  18  17  35  37
 219 ben  18  19  20
 220 prop tor  18  19  20  21
 221 prop tor  18  19  20  63
 222 ben  18  19  62
 223 ben  18  34  33
 224 ben  18  34  70
 225 ben  19  18  34
 226 prop tor  19  18  34  33
 227 prop tor  19  18  34  70
 228 ben  19  20  21
 229 prop tor  19  20  21  22
 230 prop tor  19  20  21  33
 231 ben  19  20  63
 232 ben  20  19  62
 233 ben  20  21  22
 234 prop tor  20  21  22  23
 235 prop tor  20  21  22  32
 236 ben  20  21  33
 237 prop tor  20  21  33  34
 238 prop tor  20  21  33  69
 239 ben  21  20  63
 240 ben  21  22  23
 241 prop tor  21  22  23  24
 242 prop tor  21  22  23  64
 243 ben  21  22  32
 244 prop tor  21  22  32  31
 245 ben  21  33  34
 246 prop tor  21  33  34  18
 247 prop tor  21  33  34  70
 248 ben  21  33  69
 249 ben  22  21  33
 250 prop tor  22  21  33  34
 251 prop tor  22  21  33  69
 252 ben  22  23  24
 253 prop tor  22  23  24  25
 254 prop tor  22  23  24  31
 255 ben  22  23  64
 256 ben  22  32  31
 257 ben  23  22  32
 258 prop tor  23  22  32  31
 259 ben  23  24  25
 260 prop tor  23  24  25  26
 261 prop tor  23  24  25  65
 262 prop tor  23  24  25  66
 263 ben  23  24  31
 264 prop tor  23  24  31  30
 265 prop tor  23  24  31  32
 266 ben  24  23  64
 267 ben  24  25  26
 268 prop tor  24  25  26  27
 269 prop tor  24  25  26  30
 270 ben  24  25  65
 271 ben  24  25  66
 272 ben  24  31  30
 273 ben  24  31  32
 274 prop tor  24  31  32  22
 275 ben  25  24  31
 276 prop tor  25  24  31  30
 277 prop tor  25  24  31  32
 278 ben  25  26  27
 279 prop tor  25  26  27  28
 280 prop tor  25  26  27  67
 281 ben  25  26  30
 282 prop tor  25  26  30  29
 283 prop tor  25  26  30  31
 284 ben  26  25  65
 285 ben  26  25  66
 286 ben  26  27  28
 287 prop tor  26  27  28  29
 288 prop tor  26  27  28  68
 289 ben  26  27  67
 290 ben  26  30  29
 291 ben  26  30  31
 292 prop tor  26  30  31  24
 293 prop tor  26  30  31  32
 294 ben  27  26  30
 295 prop tor  27  26  30  29
 296 prop tor  27  26  30  31
 297 ben  27  28  29
 298 prop tor  27  28  29  30
 299 ben  27  28  68
 300 ben  28  27  67
 301 ben  28  29  30
 302 prop tor  28  29  30  26
 303 prop tor  28  29  30  31
 304 ben  29  28  68
 305 ben  29  30  31
 306 prop tor  29  30  31  24
 307 prop tor  29  30  31  32
 308 prop tor  30  26  27  28
 309 prop tor  30  26  27  67
 310 ben  30  31  32
 311 prop tor  30  31  32  22
 312 prop tor  31  24  25  26
 313 prop tor  31  24  25  65
 314 prop tor  31  24  25  66
 315 prop tor  32  22  23  24
 316 prop tor  32  22  23  64
 317 prop tor  33  21  22  23
 318 prop tor  33  21  22  32
 319 ben  33  34  70
 320 prop tor  34  18  19  20
 321 prop tor  34  18  19  62
 322 ben  34  33  69
 323 prop tor  35  17  18  19
 324 prop tor  35  17  18  34
 325 ben  35  37  38
 326 prop tor  35  37  38  39
 327 prop tor  35  37  38  71
 328 ben  35  37  50
 329 prop tor  35  37  50  14
 330 prop tor  35  37  50  49
 331 ben  36  35  37
 332 prop tor  36  35  37  38
 333 prop tor  36  35  37  50
 334 ben  37  38  39
 335 prop tor  37  38  39  40
 336 prop tor  37  38  39  72
 337 ben  37  38  71
 338 ben  37  50  49
 339 ben  38  37  50
 340 prop tor  38  37  50  14
 341 prop tor  38  37  50  49
 342 ben  38  39  40
 343 prop tor  38  39  40  41
 344 prop tor  38  39  40  49
 345 ben  38  39  72
 346 ben  39  38  71
 347 ben  39  40  41
 348 prop tor  39  40  41  42
 349 prop tor  39  40  41  48
 350 ben  39  40  49
 351 prop tor  39  40  49  11
 352 prop tor  39  40  49  50
 353 ben  40  39  72
 354 ben  40  41  42
 355 prop tor  40  41  42  43
 356 prop tor  40  41  42  73
 357 ben  40  41  48
 358 prop tor  40  41  48  10
 359 prop tor  40  41  48  47
 360 ben  40  49  50
 361 prop tor  40  49  50  14
 362 prop tor  40  49  50  37
 363 ben  41  40  49
 364 prop tor  41  40  49  11
 365 prop tor  41  40  49  50
 366 ben  41  42  43
 367 prop tor  41  42  43  44
 368 prop tor  41  42  43  74
 369 ben  41  42  73
 370 ben  41  48  47
 371 ben  42  41  48
 372 prop tor  42  41  48  10
 373 prop tor  42  41  48  47
 374 ben  42  43  44
 375 prop tor  42  43  44  45
 376 prop tor  42  43  44  47
 377 ben  42  43  74
 378 ben  43  42  73
 379 ben  43  44  45
 380 prop tor  43  44  45   4
 381 prop tor  43  44  45  46
 382 ben  43  44  47
 383 prop tor  43  44  47   7
 384 prop tor  43  44  47  48
 385 ben  44  43  74
 386 ben  44  45  46
 387 ben  44  47  48
 388 prop tor  44  47  48  10
 389 prop tor  44  47  48  41
 390 prop tor  45   4   5   6
 391 prop tor  45   4   5   7
 392 ben  45  44  47
 393 prop tor  45  44  47   7
 394 prop tor  45  44  47  48
 395 prop tor  47   7   8   9
 396 prop tor  47   7   8  58
 397 prop tor  47  44  45   4
 398 prop tor  47  44  45  46
 399 prop tor  48  10  11  12
 400 prop tor  48  10  11  49
 401 prop tor  48  41  42  43
 402 prop tor  48  41  42  73
 403 prop tor  49  11  12  13
 404 prop tor  49  11  12  60
 405 prop tor  49  40  41  42
 406 prop tor  49  40  41  48
 407 prop tor  50  14  15  16
 408 prop tor  50  14  15  17
 409 prop tor  50  37  38  39
 410 prop tor  50  37  38  71
 411 prop tor  51   1   2   3
 412 prop tor  51   1   2   4
 413 prop tor  51   1   2  54
 414 ben  51   1  52
 415 ben  51   1  53
 416 prop tor  52   1   2   3
 417 prop tor  52   1   2   4
 418 prop tor  52   1   2  54
 419 ben  52   1  53
 420 prop tor  53   1   2   3
 421 prop tor  53   1   2   4
 422 prop tor  53   1   2  54
 423 prop tor  54   2   3  55
 424 prop tor  54   2   3  56
 425 prop tor  54   2   3  57
 426 prop tor  54   2   4   5
 427 prop tor  54   2   4  45
 428 ben  55   3  56
 429 ben  55   3  57
 430 ben  56   3  57
 431 prop tor  58   8   9  10
 432 prop tor  58   8   9  59
 433 prop tor  59   9  10  11
 434 prop tor  59   9  10  48
 435 prop tor  60  12  13  14
 436 prop tor  60  12  13  61
 437 prop tor  61  13  14  15
 438 prop tor  61  13  14  50
 439 prop tor  62  19  20  21
 440 prop tor  62  19  20  63
 441 prop tor  63  20  21  22
 442 prop tor  63  20  21  33
 443 prop tor  64  23  24  25
 444 prop tor  64  23  24  31
 445 prop tor  65  25  26  27
 446 prop tor  65  25  26  30
 447 ben  65  25  66
 448 prop tor  66  25  26  27
 449 prop tor  66  25  26  30
 450 prop tor  67  27  28  29
 451 prop tor  67  27  28  68
 452 prop tor  68  28  29  30
 453 prop tor  69  33  34  18
 454 prop tor  69  33  34  70
 455 prop tor  71  38  39  40
 456 prop tor  71  38  39  72
 457 prop tor  72  39  40  41
 458 prop tor  72  39  40  49
 459 prop tor  73  42  43  44
 460 prop tor  73  42  43  74
 461 prop tor  74  43  44  45
 462 prop tor  74  43  44  47
 nber bend=             146
 nber lin bend=           0
 nber prop tor=         232
 nber impr tor=           0
 nber tot redund int=         462
 Reading file: 
 ./CDT-A_5_C0S1.log                                                             
                                          
  Entering Gaussian System, Link 0=g16                                          
  
 Gaussian format, type: g94, g98, g03= F F F
  #P Geom=AllCheck Guess=TCheck SCRF=Check GenChk RB3LYP TD(FC,Read)/6-3    
 energy type= TD      
 Original G94 input coords:
  6  2.023385-36.888908  4.546176
  6  0.901772-36.030110  5.141578
  6  0.045877-36.780739  6.168299
  7  1.416340-34.739658  5.683108
  6  0.961314-33.559418  5.053300
  8  0.181733-33.611286  4.108885
  6  1.465051-32.286873  5.583134
  6  1.047691-31.089602  4.998043
  6  1.502726-29.874586  5.472351
  6  2.401811-29.787717  6.559707
  6  2.885433-28.521320  7.065600
  6  2.485693-27.284440  6.501987
  6  2.950834-26.085530  6.987637
  6  3.845617-26.043453  8.068599
  6  4.312529-24.755086  8.537198
  8  3.986585-23.673926  8.065676
  7  5.217848-24.787968  9.654399
  6  5.693439-23.545530 10.150311
  6  5.641161-23.262706 11.523291
  6  6.108545-22.057994 12.008407
  6  6.642238-21.083878 11.136662
  6  7.128118-19.831444 11.655221
  6  7.390787-19.490132 12.995849
  6  7.856321-18.196059 13.139178
  6  8.301726-17.299120 14.272228
  6  8.660446-16.033304 13.528071
  6  9.143446-14.757188 13.844725
  6  9.290203-13.976228 12.715343
 16  8.842088-14.782767 11.242657
  6  8.445093-16.204814 12.147566
  6  7.963606-17.505729 11.907636
 16  7.471104-18.473246 10.568379
  6  6.683820-21.378524  9.757861
  6  6.221701-22.585588  9.273811
  6  5.678540-25.984198 10.306942
  8  6.454343-25.888972 11.248578
  6  5.176654-27.229431  9.763728
  6  5.593209-28.437101 10.345811
  6  5.138244-29.644133  9.870723
  6  4.235672-29.722867  8.781488
  6  3.751027-30.989162  8.275890
  6  4.143696-32.226980  8.834017
  6  3.674222-33.429787  8.342523
  6  2.786245-33.463654  7.265818
  6  2.307409-34.760284  6.769000
  8  2.661126-35.822923  7.269806
  6  2.363062-32.254357  6.672496
  6  2.842884-30.999181  7.173814
  6  3.795549-28.507720  8.168912
  6  4.277073-27.248591  8.671670
  1  1.583900-37.751493  4.036253
  1  2.704914-37.245688  5.317243
  1  2.592072-36.317787  3.807459
  1  0.251868-35.714282  4.328250
  1  0.645394-37.131827  7.007152
  1 -0.423526-37.642493  5.684291
  1 -0.750818-36.135374  6.547850
  1  0.359116-31.141235  4.164222
  1  1.152765-28.973835  4.988112
  1  1.797699-27.270136  5.669043
  1  2.637019-25.147799  6.546861
  1  5.236182-23.998055 12.200307
  1  6.031385-21.858597 13.069506
  1  7.258923-20.192726 13.805050
  1  7.504268-17.136459 15.004062
  1  9.156646-17.716285 14.813632
  1  9.379878-14.402788 14.838089
  1  9.641673-12.956967 12.663008
  1  7.109231-20.666479  9.059749
  1  6.260388-22.796492  8.216956
  1  6.282784-28.391936 11.179212
  1  5.485375-30.549054 10.348166
  1  4.829755-32.249213  9.668987
  1  3.982931-34.371111  8.779305
 nber atoms=          74
  Total Energy, E(TD-HF/TD-DFT) =  -2822.30842335                               
  
          32          49 "  -2822.30842335"
After scan for Atom:   Atom  AN      X      Y      Z        X      Y      Z        X      Y      Z   
After scan for Atom:   Atom  AN      X      Y      Z        X      Y      Z        X      Y      Z   
After scan for Atom:   Atom  AN      X      Y      Z        X      Y      Z        X      Y      Z   
After scan for Atom:   Atom  AN      X      Y      Z        X      Y      Z        X      Y      Z   
After scan for Atom:   Atom  AN      X      Y      Z        X      Y      Z        X      Y      Z   
After scan for Atom:   Atom  AN      X      Y      Z        X      Y      Z        X      Y      Z   
After scan for Atom:   Atom  AN      X      Y      Z        X      Y      Z        X      Y      Z   
After scan for Atom:   Atom  AN      X      Y      Z        X      Y      Z        X      Y      Z   
After scan for Atom:   Atom  AN      X      Y      Z        X      Y      Z        X      Y      Z   
After scan for Atom:   Atom  AN      X      Y      Z        X      Y      Z        X      Y      Z   
After scan for Atom:   Atom  AN      X      Y      Z        X      Y      Z        X      Y      Z   
After scan for Atom:   Atom  AN      X      Y      Z        X      Y      Z        X      Y      Z   
After scan for Atom:   Atom  AN      X      Y      Z        X      Y      Z        X      Y      Z   
After scan for Atom:   Atom  AN      X      Y      Z        X      Y      Z        X      Y      Z   
After scan for Atom:   Atom  AN      X      Y      Z        X      Y      Z        X      Y      Z   
After scan for Atom:   Atom  AN      X      Y      Z        X      Y      Z        X      Y      Z   
After scan for Atom:   Atom  AN      X      Y      Z        X      Y      Z        X      Y      Z   
After scan for Atom:   Atom  AN      X      Y      Z        X      Y      Z        X      Y      Z   
After scan for Atom:   Atom  AN      X      Y      Z        X      Y      Z        X      Y      Z   
After scan for Atom:   Atom  AN      X      Y      Z        X      Y      Z        X      Y      Z   
After scan for Atom:   Atom  AN      X      Y      Z        X      Y      Z        X      Y      Z   
After scan for Atom:   Atom  AN      X      Y      Z        X      Y      Z        X      Y      Z   
After scan for Atom:   Atom  AN      X      Y      Z        X      Y      Z        X      Y      Z   
After scan for Atom:   Atom  AN      X      Y      Z        X      Y      Z        X      Y      Z   
After scan for Atom:   Atom  AN      X      Y      Z        X      Y      Z        X      Y      Z   
After scan for Atom:   Atom  AN      X      Y      Z        X      Y      Z        X      Y      Z   
After scan for Atom:   Atom  AN      X      Y      Z        X      Y      Z        X      Y      Z   
After scan for Atom:   Atom  AN      X      Y      Z        X      Y      Z        X      Y      Z   
After scan for Atom:   Atom  AN      X      Y      Z        X      Y      Z        X      Y      Z   
After scan for Atom:   Atom  AN      X      Y      Z        X      Y      Z        X      Y      Z   
After scan for Atom:   Atom  AN      X      Y      Z        X      Y      Z        X      Y      Z   
After scan for Atom:   Atom  AN      X      Y      Z        X      Y      Z        X      Y      Z   
After scan for Atom:   Atom  AN      X      Y      Z        X      Y      Z        X      Y      Z   
After scan for Atom:   Atom  AN      X      Y      Z        X      Y      Z        X      Y      Z   
After scan for Atom:   Atom  AN      X      Y      Z        X      Y      Z        X      Y      Z   
After scan for Atom:   Atom  AN      X      Y      Z        X      Y      Z        X      Y      Z   
After scan for Atom:   Atom  AN      X      Y      Z        X      Y      Z        X      Y      Z   
After scan for Atom:   Atom  AN      X      Y      Z        X      Y      Z        X      Y      Z   
After scan for Atom:   Atom  AN      X      Y      Z        X      Y      Z        X      Y      Z   
After scan for Atom:   Atom  AN      X      Y      Z        X      Y      Z        X      Y      Z   
After scan for Atom:   Atom  AN      X      Y      Z        X      Y      Z        X      Y      Z   
After scan for Atom:   Atom  AN      X      Y      Z        X      Y      Z        X      Y      Z   
After scan for Atom:   Atom  AN      X      Y      Z        X      Y      Z        X      Y      Z   
After scan for Atom:   Atom  AN      X      Y      Z        X      Y      Z        X      Y      Z   
After scan for Atom:   Atom  AN      X      Y      Z        X      Y      Z        X      Y      Z   
After scan for Atom:   Atom  AN      X      Y      Z        X      Y      Z        X      Y      Z   
After scan for Atom:   Atom  AN      X      Y      Z        X      Y      Z        X      Y      Z   
After scan for Atom:   Atom  AN      X      Y      Z        X      Y      Z        X      Y      Z   
After scan for Atom:   Atom  AN      X      Y      Z        X      Y      Z        X      Y      Z   
After scan for Atom:   Atom  AN      X      Y      Z        X      Y      Z        X      Y      Z   
After scan for Atom:   Atom  AN      X      Y      Z        X      Y      Z        X      Y      Z   
After scan for Atom:   Atom  AN      X      Y      Z        X      Y      Z        X      Y      Z   
After scan for Atom:   Atom  AN      X      Y      Z        X      Y      Z        X      Y      Z   
After scan for Atom:   Atom  AN      X      Y      Z        X      Y      Z        X      Y      Z   
After scan for Atom:   Atom  AN      X      Y      Z        X      Y      Z        X      Y      Z   
After scan for Atom:   Atom  AN      X      Y      Z        X      Y      Z        X      Y      Z   
After scan for Atom:   Atom  AN      X      Y      Z        X      Y      Z        X      Y      Z   
After scan for Atom:   Atom  AN      X      Y      Z        X      Y      Z        X      Y      Z   
After scan for Atom:   Atom  AN      X      Y      Z        X      Y      Z        X      Y      Z   
After scan for Atom:   Atom  AN      X      Y      Z        X      Y      Z        X      Y      Z   
After scan for Atom:   Atom  AN      X      Y      Z        X      Y      Z        X      Y      Z   
After scan for Atom:   Atom  AN      X      Y      Z        X      Y      Z        X      Y      Z   
After scan for Atom:   Atom  AN      X      Y      Z        X      Y      Z        X      Y      Z   
After scan for Atom:   Atom  AN      X      Y      Z        X      Y      Z        X      Y      Z   
After scan for Atom:   Atom  AN      X      Y      Z        X      Y      Z        X      Y      Z   
After scan for Atom:   Atom  AN      X      Y      Z        X      Y      Z        X      Y      Z   
After scan for Atom:   Atom  AN      X      Y      Z        X      Y      Z        X      Y      Z   
After scan for Atom:   Atom  AN      X      Y      Z        X      Y      Z        X      Y      Z   
After scan for Atom:   Atom  AN      X      Y      Z        X      Y      Z        X      Y      Z   
After scan for Atom:   Atom  AN      X      Y      Z        X      Y      Z        X      Y      Z   
After scan for Atom:   Atom  AN      X      Y      Z        X      Y      Z        X      Y      Z   
After scan for Atom:   Atom  AN      X      Y      Z        X      Y      Z        X      Y      Z   
 g94    frequencies=
     0.0    0.0    0.0    0.0    0.0    0.0    7.3   13.7   14.8   25.3
    28.1   40.2   55.0   57.8   65.4   70.6   86.0   92.1   94.0  105.2
   111.4  125.9  140.5  155.1  169.5  181.1  189.4  196.6  204.3  212.5
   223.9  233.0  234.5  236.0  252.1  263.6  276.8  290.6  299.6  310.6
   333.6  343.9  349.3  364.6  372.8  394.0  395.9  409.4  418.2  428.3
   435.3  442.8  443.2  448.2  454.0  464.1  467.1  471.4  499.1  503.6
   504.0  509.5  517.2  525.5  534.1  547.8  559.8  571.8  579.5  582.9
[...]
    2.   -2.    1.    1.    2.    0.   -0.    0.    0.   -0.    0.   -0.    1.    2.   -2.    0.    0.   -2.   -2.    0.
   -0.   -1.   -2.   -0.    1.    4.   -0.    1.    2.    1.    0.   -0.   -0.   -1.   -0.   -0.   -0.    0.   -0.   -0.
   -0.    0.   -1.    1.   -3.    0.   -0.   -0.   -0.    0.   -1.    1.   -0.    2.    1.    0.   -0.    0.    1.    2.
   -0.    0.    1.   -1.   -0.   -0.    0.    0.   -1.   -2.    1.    0.    0.   -0.   -1.    2.    1.   -0.    1.   -3.
    1.   -0.    0.    0.   -0.   -0.    1.    0.   -1.   -0.   -1.    0.   -2.   -1.    0.    0.   -0.    0.   -1.   -0.
   -0.   -0.   -2.    0.   -1.   -1.   -1.    1.    0.    0.    0.   -0.   -0.   -0.    0.   -0.    1.    2.   -0.    0.
    0.   -0.   -0.   -0.   -0.    0.    0.   -0.   -0.    0.   -0.    0.   -0.   -0.   -0.    0.   -0.    0.    0.   -0.
   -0.    0.

 Displacement: in terms of nc of 1 THEN of nc of 2

   1     freq=    -0. Q=  0.000 lam=    -0.0     freq=    -0. Q=  0.000 lam=    -0.0
   2     freq=    -0. Q=  0.000 lam=    -0.0     freq=    -0. Q=  0.000 lam=    -0.0
   3     freq=    -0. Q=  0.000 lam=    -0.0     freq=    -0. Q=  0.000 lam=    -0.0
   4     freq=     0. Q= -0.000 lam=     0.0     freq=     0. Q= -0.000 lam=     0.0
   5     freq=     0. Q=  0.000 lam=     0.0     freq=     0. Q=  0.000 lam=     0.0
   6     freq=     0. Q=  0.000 lam=     0.0     freq=     0. Q=  0.000 lam=     0.0
   7     freq=     7. Q= 11.315 lam=   462.4     freq=     7. Q=  3.635 lam=    48.2
   8     freq=     9. Q=  4.548 lam=    89.4     freq=    14. Q=  8.647 lam=   513.9
   9     freq=    12. Q=  0.471 lam=     1.3     freq=    15. Q= 13.243 lam=  1296.5
  10     freq=    27. Q=  0.035 lam=     0.0     freq=    25. Q=  4.459 lam=   251.6
  11     freq=    30. Q=  1.720 lam=    43.7     freq=    28. Q=  2.243 lam=    70.7
  12     freq=    40. Q= -3.431 lam=   233.0     freq=    40. Q= -0.909 lam=    16.6
  13     freq=    42. Q=  3.683 lam=   287.9     freq=    55. Q=  1.501 lam=    61.9
  14     freq=    54. Q=  0.265 lam=     1.9     freq=    58. Q=  1.589 lam=    73.0
  15     freq=    57. Q=  0.168 lam=     0.8     freq=    65. Q=  5.820 lam=  1107.2
  16     freq=    65. Q= -0.129 lam=     0.5     freq=    71. Q= -2.138 lam=   161.3
  17     freq=    77. Q=  0.221 lam=     1.9     freq=    86. Q=  2.784 lam=   333.2
  18     freq=    90. Q= -0.134 lam=     0.8     freq=    92. Q= -1.346 lam=    83.5
  19     freq=    94. Q= -0.409 lam=     7.9     freq=    94. Q= -1.829 lam=   157.4
  20     freq=    99. Q=  1.039 lam=    53.7     freq=   105. Q=  1.543 lam=   125.1
  21     freq=   104. Q= -0.468 lam=    11.4     freq=   111. Q= -6.176 lam=  2124.9
  22     freq=   121. Q=  0.320 lam=     6.2     freq=   126. Q=  0.246 lam=     3.8
  23     freq=   138. Q= -0.009 lam=     0.0     freq=   141. Q= -0.080 lam=     0.4
  24     freq=   144. Q= -0.652 lam=    30.6     freq=   155. Q= -0.247 lam=     4.7
  25     freq=   168. Q=  0.007 lam=     0.0     freq=   169. Q=  0.018 lam=     0.0
  26     freq=   176. Q=  0.238 lam=     5.0     freq=   181. Q=  0.163 lam=     2.4
  27     freq=   183. Q=  0.009 lam=     0.0     freq=   189. Q=  0.014 lam=     0.0
  28     freq=   192. Q=  0.157 lam=     2.4     freq=   197. Q=  0.080 lam=     0.6
  29     freq=   204. Q=  0.042 lam=     0.2     freq=   204. Q=  1.250 lam=   159.7
  30     freq=   208. Q=  0.464 lam=    22.4     freq=   212. Q=  0.025 lam=     0.1
  31     freq=   213. Q= -0.327 lam=    11.4     freq=   224. Q= -0.817 lam=    74.8
  32     freq=   228. Q= -0.005 lam=     0.0     freq=   233. Q= -0.584 lam=    39.8
  33     freq=   235. Q=  0.016 lam=     0.0     freq=   235. Q=  0.012 lam=     0.0
  34     freq=   236. Q= -0.069 lam=     0.6     freq=   236. Q= -0.406 lam=    19.5
  35     freq=   253. Q= -0.179 lam=     4.1     freq=   252. Q= -0.072 lam=     0.7
  36     freq=   257. Q= -0.003 lam=     0.0     freq=   264. Q= -0.088 lam=     1.0
  37     freq=   263. Q= -0.172 lam=     3.9     freq=   277. Q= -0.245 lam=     8.3
  38     freq=   283. Q=  0.431 lam=    26.3     freq=   291. Q=  0.480 lam=    33.5
  39     freq=   290. Q= -0.279 lam=    11.3     freq=   300. Q= -0.020 lam=     0.1
  40     freq=   302. Q=  0.001 lam=     0.0     freq=   311. Q=  0.101 lam=     1.6
  41     freq=   321. Q=  0.114 lam=     2.1     freq=   334. Q=  0.623 lam=    64.8
  42     freq=   334. Q= -0.454 lam=    34.4     freq=   344. Q= -0.146 lam=     3.7
  43     freq=   349. Q= -0.217 lam=     8.2     freq=   349. Q= -1.400 lam=   342.3
  44     freq=   353. Q=  0.091 lam=     1.5     freq=   365. Q=  0.746 lam=   101.6
  45     freq=   381. Q=  0.027 lam=     0.1     freq=   373. Q=  0.585 lam=    63.8
  46     freq=   390. Q=  0.068 lam=     0.9     freq=   394. Q=  0.393 lam=    30.4
  47     freq=   393. Q= -0.214 lam=     9.0     freq=   396. Q= -0.216 lam=     9.3
  48     freq=   417. Q=  0.106 lam=     2.4     freq=   409. Q=  2.076 lam=   881.9
  49     freq=   419. Q= -0.381 lam=    30.5     freq=   418. Q= -0.060 lam=     0.7
  50     freq=   432. Q= -0.226 lam=    11.0     freq=   428. Q= -0.375 lam=    30.1
  51     freq=   437. Q= -0.021 lam=     0.1     freq=   435. Q= -0.742 lam=   119.7
  52     freq=   438. Q=  0.155 lam=     5.2     freq=   443. Q=  0.397 lam=    35.0
  53     freq=   439. Q= -0.041 lam=     0.4     freq=   443. Q= -0.620 lam=    85.3
  54     freq=   446. Q=  0.084 lam=     1.6     freq=   448. Q=  0.185 lam=     7.7
  55     freq=   449. Q= -0.058 lam=     0.8     freq=   454. Q= -0.023 lam=     0.1
  56     freq=   464. Q=  0.174 lam=     7.0     freq=   464. Q=  0.073 lam=     1.2
  57     freq=   469. Q= -0.044 lam=     0.5     freq=   467. Q= -0.426 lam=    42.4
  58     freq=   478. Q=  0.353 lam=    29.8     freq=   471. Q=  0.334 lam=    26.3
  59     freq=   486. Q= -0.002 lam=     0.0     freq=   499. Q= -0.405 lam=    40.9
  60     freq=   495. Q=  0.225 lam=    12.6     freq=   504. Q=  0.071 lam=     1.3
  61     freq=   500. Q=  0.058 lam=     0.8     freq=   504. Q=  0.382 lam=    36.7
  62     freq=   506. Q=  0.030 lam=     0.2     freq=   509. Q=  0.046 lam=     0.5
  63     freq=   510. Q=  0.228 lam=    13.3     freq=   517. Q=  0.026 lam=     0.2
  64     freq=   518. Q=  0.216 lam=    12.0     freq=   526. Q=  0.137 lam=     5.0
  65     freq=   533. Q= -0.230 lam=    14.1     freq=   534. Q= -0.526 lam=    73.9
  66     freq=   548. Q= -0.159 lam=     6.9     freq=   548. Q= -0.181 lam=     9.0
  67     freq=   561. Q= -0.030 lam=     0.3     freq=   560. Q= -0.034 lam=     0.3
  68     freq=   571. Q=  0.056 lam=     0.9     freq=   572. Q=  0.034 lam=     0.3
  69     freq=   573. Q= -0.010 lam=     0.0     freq=   580. Q= -0.006 lam=     0.0
  70     freq=   574. Q=  0.017 lam=     0.1     freq=   583. Q=  0.148 lam=     6.4
  71     freq=   579. Q= -0.146 lam=     6.2     freq=   592. Q= -0.002 lam=     0.0
  72     freq=   585. Q=  0.141 lam=     5.8     freq=   597. Q=  0.054 lam=     0.9
  73     freq=   605. Q= -0.018 lam=     0.1     freq=   605. Q= -0.699 lam=   148.0
  74     freq=   611. Q= -0.526 lam=    84.4     freq=   624. Q= -0.057 lam=     1.0
  75     freq=   616. Q=  0.027 lam=     0.2     freq=   626. Q=  0.027 lam=     0.2
  76     freq=   633. Q= -0.068 lam=     1.5     freq=   636. Q= -0.096 lam=     2.9
  77     freq=   635. Q= -0.013 lam=     0.1     freq=   647. Q= -0.011 lam=     0.0
  78     freq=   649. Q=  0.043 lam=     0.6     freq=   659. Q=  0.048 lam=     0.7
  79     freq=   653. Q=  0.024 lam=     0.2     freq=   662. Q=  0.238 lam=    18.7
  80     freq=   663. Q=  0.104 lam=     3.6     freq=   667. Q=  0.028 lam=     0.3
  81     freq=   678. Q= -0.004 lam=     0.0     freq=   690. Q= -0.169 lam=     9.9
  82     freq=   695. Q=  0.117 lam=     4.8     freq=   709. Q=  0.259 lam=    23.8
  83     freq=   697. Q= -0.049 lam=     0.8     freq=   713. Q= -0.060 lam=     1.3
  84     freq=   705. Q= -0.039 lam=     0.5     freq=   715. Q= -0.155 lam=     8.6
  85     freq=   709. Q= -0.008 lam=     0.0     freq=   730. Q= -0.249 lam=    22.6
  86     freq=   710. Q= -0.026 lam=     0.2     freq=   740. Q= -0.007 lam=     0.0
  87     freq=   714. Q= -0.145 lam=     7.5     freq=   741. Q= -0.006 lam=     0.0
  88     freq=   727. Q=  0.060 lam=     1.3     freq=   748. Q=  0.004 lam=     0.0
  89     freq=   744. Q= -0.042 lam=     0.7     freq=   758. Q= -0.023 lam=     0.2
  90     freq=   753. Q=  0.069 lam=     1.8     freq=   758. Q=  0.037 lam=     0.5
  91     freq=   760. Q= -0.073 lam=     2.0     freq=   770. Q= -0.033 lam=     0.4
  92     freq=   761. Q=  0.006 lam=     0.0     freq=   786. Q=  0.002 lam=     0.0
  93     freq=   771. Q=  0.002 lam=     0.0     freq=   802. Q=  0.059 lam=     1.4
  94     freq=   799. Q= -0.039 lam=     0.6     freq=   808. Q= -0.193 lam=    15.0
  95     freq=   807. Q=  0.057 lam=     1.3     freq=   810. Q=  0.208 lam=    17.5
  96     freq=   812. Q=  0.023 lam=     0.2     freq=   815. Q=  0.029 lam=     0.3
  97     freq=   815. Q=  0.051 lam=     1.1     freq=   816. Q=  0.045 lam=     0.8
  98     freq=   816. Q= -0.243 lam=    24.1     freq=   820. Q= -0.222 lam=    20.1
  99     freq=   820. Q= -0.090 lam=     3.3     freq=   822. Q= -0.181 lam=    13.4
 100     freq=   829. Q=  0.008 lam=     0.0     freq=   825. Q=  0.041 lam=     0.7
 101     freq=   831. Q=  0.293 lam=    35.7     freq=   831. Q=  0.014 lam=     0.1
 102     freq=   833. Q= -0.023 lam=     0.2     freq=   837. Q= -0.136 lam=     7.8
 103     freq=   834. Q= -0.108 lam=     4.9     freq=   838. Q= -0.177 lam=    13.1
 104     freq=   842. Q= -0.104 lam=     4.6     freq=   849. Q= -0.052 lam=     1.2
 105     freq=   854. Q=  0.004 lam=     0.0     freq=   857. Q=  0.114 lam=     5.5
 106     freq=   858. Q= -0.335 lam=    48.1     freq=   861. Q= -0.416 lam=    74.5
 107     freq=   877. Q=  0.021 lam=     0.2     freq=   903. Q=  0.000 lam=     0.0
 108     freq=   905. Q=  0.069 lam=     2.1     freq=   908. Q=  0.065 lam=     1.9
 109     freq=   922. Q= -0.003 lam=     0.0     freq=   919. Q= -0.185 lam=    15.8
 110     freq=   924. Q=  0.140 lam=     9.0     freq=   930. Q=  0.143 lam=     9.5
 111     freq=   934. Q=  0.037 lam=     0.6     freq=   943. Q=  0.006 lam=     0.0
 112     freq=   937. Q=  0.008 lam=     0.0     freq=   950. Q=  0.002 lam=     0.0
 113     freq=   945. Q=  0.000 lam=     0.0     freq=   955. Q=  0.000 lam=     0.0
 114     freq=   957. Q= -0.002 lam=     0.0     freq=   957. Q= -0.120 lam=     6.9
 115     freq=   958. Q= -0.044 lam=     0.9     freq=   962. Q= -0.039 lam=     0.7
 116     freq=   964. Q=  0.021 lam=     0.2     freq=   970. Q=  0.001 lam=     0.0
 117     freq=   968. Q=  0.137 lam=     9.1     freq=   973. Q=  0.022 lam=     0.2
 118     freq=   974. Q=  0.009 lam=     0.0     freq=   973. Q=  0.007 lam=     0.0
 119     freq=   976. Q= -0.004 lam=     0.0     freq=   975. Q= -0.016 lam=     0.1
 120     freq=   978. Q= -0.032 lam=     0.5     freq=   983. Q= -0.001 lam=     0.0
 121     freq=   988. Q=  0.007 lam=     0.0     freq=   986. Q=  0.002 lam=     0.0
 122     freq=   988. Q=  0.005 lam=     0.0     freq=   987. Q=  0.027 lam=     0.4
 123     freq=  1002. Q=  0.157 lam=    12.3     freq=   997. Q=  0.183 lam=    16.7
 124     freq=  1029. Q= -0.154 lam=    12.2     freq=  1024. Q= -0.136 lam=     9.5
 125     freq=  1035. Q= -0.016 lam=     0.1     freq=  1031. Q= -0.379 lam=    74.0
 126     freq=  1061. Q=  0.023 lam=     0.3     freq=  1066. Q=  0.008 lam=     0.0
 127     freq=  1083. Q= -0.134 lam=     9.8     freq=  1079. Q= -0.027 lam=     0.4
 128     freq=  1095. Q= -0.022 lam=     0.3     freq=  1082. Q= -0.027 lam=     0.4
 129     freq=  1110. Q=  0.016 lam=     0.1     freq=  1094. Q=  0.033 lam=     0.6
 130     freq=  1134. Q=  0.049 lam=     1.4     freq=  1107. Q=  0.042 lam=     1.0
 131     freq=  1136. Q=  0.017 lam=     0.2     freq=  1146. Q=  0.093 lam=     4.9
 132     freq=  1149. Q=  0.002 lam=     0.0     freq=  1152. Q=  0.179 lam=    18.5
 133     freq=  1155. Q=  0.001 lam=     0.0     freq=  1155. Q=  0.006 lam=     0.0
 134     freq=  1157. Q=  0.129 lam=     9.7     freq=  1158. Q=  0.265 lam=    40.6
 135     freq=  1163. Q= -0.003 lam=     0.0     freq=  1164. Q= -0.184 lam=    19.6
 136     freq=  1164. Q=  0.063 lam=     2.3     freq=  1164. Q=  0.016 lam=     0.2
 137     freq=  1175. Q= -0.004 lam=     0.0     freq=  1174. Q= -0.011 lam=     0.1
 138     freq=  1176. Q= -0.036 lam=     0.7     freq=  1188. Q= -0.015 lam=     0.1
 139     freq=  1186. Q= -0.006 lam=     0.0     freq=  1190. Q= -0.129 lam=     9.9
 140     freq=  1196. Q=  0.007 lam=     0.0     freq=  1196. Q=  0.246 lam=    36.3
 141     freq=  1203. Q= -0.006 lam=     0.0     freq=  1199. Q= -0.018 lam=     0.2
 142     freq=  1206. Q=  0.199 lam=    23.9     freq=  1205. Q=  0.011 lam=     0.1
 143     freq=  1212. Q= -0.078 lam=     3.7     freq=  1220. Q= -0.071 lam=     3.1
 144     freq=  1224. Q= -0.093 lam=     5.3     freq=  1226. Q= -0.072 lam=     3.1
 145     freq=  1233. Q= -0.035 lam=     0.7     freq=  1230. Q= -0.052 lam=     1.7
 146     freq=  1235. Q=  0.265 lam=    43.5     freq=  1236. Q=  0.051 lam=     1.6
 147     freq=  1242. Q= -0.005 lam=     0.0     freq=  1247. Q= -0.003 lam=     0.0
 148     freq=  1251. Q=  0.012 lam=     0.1     freq=  1265. Q=  0.005 lam=     0.0
 149     freq=  1263. Q= -0.102 lam=     6.6     freq=  1280. Q= -0.156 lam=    15.6
 150     freq=  1268. Q=  0.113 lam=     8.1     freq=  1280. Q=  0.222 lam=    31.6
 151     freq=  1299. Q=  0.270 lam=    47.2     freq=  1298. Q=  0.107 lam=     7.4
 152     freq=  1316. Q=  0.121 lam=     9.6     freq=  1304. Q=  0.013 lam=     0.1
 153     freq=  1317. Q=  0.155 lam=    15.8     freq=  1318. Q=  0.007 lam=     0.0
 154     freq=  1318. Q=  0.027 lam=     0.5     freq=  1328. Q=  0.023 lam=     0.3
 155     freq=  1334. Q= -0.005 lam=     0.0     freq=  1337. Q= -0.171 lam=    19.5
 156     freq=  1351. Q=  0.225 lam=    34.1     freq=  1341. Q=  0.324 lam=    70.2
 157     freq=  1357. Q= -0.219 lam=    32.6     freq=  1346. Q= -0.107 lam=     7.8
 158     freq=  1361. Q=  0.349 lam=    82.7     freq=  1358. Q=  0.011 lam=     0.1
 159     freq=  1366. Q= -0.034 lam=     0.8     freq=  1363. Q= -0.083 lam=     4.7
 160     freq=  1380. Q=  0.574 lam=   227.2     freq=  1368. Q=  0.468 lam=   149.5
 161     freq=  1382. Q= -0.003 lam=     0.0     freq=  1372. Q= -0.113 lam=     8.8
 162     freq=  1392. Q=  0.102 lam=     7.3     freq=  1384. Q=  0.001 lam=     0.0
 163     freq=  1400. Q= -0.002 lam=     0.0     freq=  1393. Q= -0.041 lam=     1.2
 164     freq=  1404. Q=  0.255 lam=    45.5     freq=  1393. Q=  0.004 lam=     0.0
 165     freq=  1404. Q= -0.198 lam=    27.4     freq=  1397. Q= -0.001 lam=     0.0
 166     freq=  1416. Q=  0.040 lam=     1.1     freq=  1410. Q=  0.042 lam=     1.3
 167     freq=  1420. Q= -0.218 lam=    33.8     freq=  1424. Q= -0.077 lam=     4.2
 168     freq=  1430. Q= -0.121 lam=    10.4     freq=  1430. Q= -0.032 lam=     0.7
 169     freq=  1438. Q=  0.217 lam=    34.0     freq=  1438. Q=  0.147 lam=    15.6
 170     freq=  1439. Q= -0.214 lam=    33.1     freq=  1444. Q= -0.026 lam=     0.5
 171     freq=  1445. Q= -0.024 lam=     0.4     freq=  1458. Q= -0.185 lam=    25.0
 172     freq=  1447. Q= -0.095 lam=     6.5     freq=  1463. Q= -0.036 lam=     0.9
 173     freq=  1458. Q= -0.003 lam=     0.0     freq=  1465. Q= -0.330 lam=    79.8
 174     freq=  1461. Q=  0.143 lam=    15.0     freq=  1470. Q=  0.086 lam=     5.4
 175     freq=  1466. Q= -0.003 lam=     0.0     freq=  1471. Q= -0.030 lam=     0.7
 176     freq=  1469. Q=  0.413 lam=   125.5     freq=  1477. Q=  0.000 lam=     0.0
 177     freq=  1485. Q= -0.000 lam=     0.0     freq=  1483. Q= -0.013 lam=     0.1
 178     freq=  1492. Q= -0.073 lam=     4.0     freq=  1484. Q= -0.001 lam=     0.0
 179     freq=  1497. Q= -0.032 lam=     0.8     freq=  1487. Q= -0.098 lam=     7.1
 180     freq=  1505. Q=  0.000 lam=     0.0     freq=  1495. Q=  0.027 lam=     0.5
 181     freq=  1511. Q= -0.002 lam=     0.0     freq=  1507. Q= -0.000 lam=     0.0
 182     freq=  1522. Q=  0.012 lam=     0.1     freq=  1524. Q=  0.015 lam=     0.2
 183     freq=  1527. Q= -0.141 lam=    15.1     freq=  1535. Q= -0.384 lam=   113.3
 184     freq=  1534. Q= -0.125 lam=    12.0     freq=  1537. Q= -0.011 lam=     0.1
 185     freq=  1547. Q=  0.066 lam=     3.3     freq=  1541. Q=  0.133 lam=    13.5
 186     freq=  1555. Q=  0.217 lam=    36.7     freq=  1561. Q=  0.116 lam=    10.5
 187     freq=  1558. Q= -0.084 lam=     5.5     freq=  1573. Q= -0.083 lam=     5.4
 188     freq=  1570. Q= -0.004 lam=     0.0     freq=  1574. Q= -0.157 lam=    19.5
 189     freq=  1581. Q= -0.004 lam=     0.0     freq=  1581. Q= -0.002 lam=     0.0
 190     freq=  1599. Q= -0.003 lam=     0.0     freq=  1593. Q= -0.005 lam=     0.0
 191     freq=  1600. Q=  0.098 lam=     7.6     freq=  1613. Q=  0.002 lam=     0.0
 192     freq=  1607. Q= -0.003 lam=     0.0     freq=  1620. Q= -0.031 lam=     0.8
 193     freq=  1623. Q= -0.037 lam=     1.1     freq=  1623. Q= -0.025 lam=     0.5
 194     freq=  1646. Q= -0.140 lam=    16.2     freq=  1631. Q= -0.078 lam=     5.0
 195     freq=  1685. Q=  0.001 lam=     0.0     freq=  1679. Q=  0.004 lam=     0.0
 196     freq=  1705. Q=  0.003 lam=     0.0     freq=  1706. Q=  0.000 lam=     0.0
 197     freq=  1725. Q=  0.087 lam=     6.6     freq=  1715. Q=  0.107 lam=     9.9
 198     freq=  1741. Q= -0.261 lam=    59.2     freq=  1737. Q= -0.276 lam=    66.1
 199     freq=  3028. Q= -0.018 lam=     0.5     freq=  3028. Q= -0.000 lam=     0.0
 200     freq=  3034. Q=  0.000 lam=     0.0     freq=  3033. Q=  0.012 lam=     0.2
 201     freq=  3038. Q= -0.009 lam=     0.1     freq=  3045. Q= -0.022 lam=     0.7
 202     freq=  3055. Q=  0.000 lam=     0.0     freq=  3076. Q=  0.000 lam=     0.0
 203     freq=  3092. Q= -0.000 lam=     0.0     freq=  3085. Q= -0.000 lam=     0.0
 204     freq=  3095. Q=  0.007 lam=     0.1     freq=  3088. Q=  0.008 lam=     0.1
 205     freq=  3112. Q= -0.004 lam=     0.0     freq=  3108. Q= -0.006 lam=     0.1
 206     freq=  3132. Q= -0.000 lam=     0.0     freq=  3131. Q= -0.001 lam=     0.0
 207     freq=  3143. Q= -0.005 lam=     0.0     freq=  3141. Q= -0.005 lam=     0.0
 208     freq=  3176. Q= -0.037 lam=     2.2     freq=  3174. Q= -0.007 lam=     0.1
 209     freq=  3180. Q= -0.047 lam=     3.4     freq=  3190. Q= -0.002 lam=     0.0
 210     freq=  3195. Q= -0.021 lam=     0.7     freq=  3190. Q= -0.001 lam=     0.0
 211     freq=  3197. Q= -0.074 lam=     8.9     freq=  3194. Q= -0.034 lam=     1.9
 212     freq=  3198. Q=  0.001 lam=     0.0     freq=  3196. Q=  0.002 lam=     0.0
 213     freq=  3198. Q=  0.000 lam=     0.0     freq=  3197. Q=  0.004 lam=     0.0
 214     freq=  3199. Q=  0.013 lam=     0.3     freq=  3206. Q=  0.003 lam=     0.0
 215     freq=  3201. Q=  0.032 lam=     1.7     freq=  3207. Q=  0.003 lam=     0.0
 216     freq=  3205. Q=  0.000 lam=     0.0     freq=  3220. Q=  0.003 lam=     0.0
 217     freq=  3205. Q= -0.004 lam=     0.0     freq=  3220. Q= -0.008 lam=     0.1
 218     freq=  3213. Q= -0.002 lam=     0.0     freq=  3222. Q= -0.018 lam=     0.5
 219     freq=  3213. Q=  0.002 lam=     0.0     freq=  3234. Q=  0.049 lam=     3.9
 220     freq=  3224. Q=  0.001 lam=     0.0     freq=  3247. Q=  0.064 lam=     6.7
 221     freq=  3224. Q= -0.005 lam=     0.0     freq=  3248. Q= -0.061 lam=     6.1
 222     freq=  3246. Q= -0.003 lam=     0.0     freq=  3250. Q= -0.003 lam=     0.0

 total reorg energy (cm**-1, kcal/mol)=     2915.    10210.      8.34     29.19
 Nber of molecules processed=           2
