 Enter ifcurve (0=recti, 1=orth curvi, 2=apprx curvi, -1 = skip
 And atom ordering flag, 0= never changes, 1= use the first order thenceforth,
  2= deduce it (does read on fail), 3= always read it
 Reading file: 
 ./PDI_4_C0S0.log                                                               
                                          
  Entering Gaussian System, Link 0=g16                                          
  
 Gaussian format, type: g94, g98, g03= F F F
  #P Geom=AllCheck Guess=TCheck SCRF=Check GenChk RB3LYP/6-311G(d,p) Fre    
 energy type= B3LYP   
 Original G94 input coords:
  6  1.106932  0.009064 -0.098008
  6  2.562075  0.026862 -0.067140
  6  3.761309  0.037159 -0.044407
  7  5.123438  0.046141 -0.017015
  6  5.785845 -1.204544  0.159089
  8  5.149268 -2.225691  0.277099
  6  7.264361 -1.155514  0.185091
  6  7.964237 -2.335243  0.354130
  6  9.359540 -2.334502  0.384705
  6 10.098077 -1.160812  0.247871
  6 11.567133 -1.151596  0.279240
  6 12.317705 -2.313856  0.448312
  6 13.714248 -2.294651  0.476761
  6 14.401514 -1.104591  0.335780
  6 15.886928 -1.115586  0.370371
  8 16.507989 -2.152971  0.520642
  7 16.543325  0.113088  0.223597
  6 18.040929  0.150585  0.252576
  6 18.592795 -0.282696  1.614591
  6 18.650447 -0.615806 -0.925760
  6 15.877450  1.340846  0.047092
  8 16.490919  2.385276 -0.076780
  6 14.393285  1.311068  0.018218
  6 13.697673  2.492665 -0.152324
  6 12.301146  2.494379 -0.183019
  6 11.558653  1.322790 -0.045252
  6 10.089555  1.313843 -0.075744
  6  9.343076  2.478404 -0.243792
  6  7.947811  2.461942 -0.271823
  6  7.256085  1.273649 -0.131795
  6  5.777200  1.304594 -0.167790
  8  5.133884  2.317724 -0.314426
  6  7.967992  0.063420  0.041526
  6  9.396474  0.072211  0.071436
  6 12.257403  0.089950  0.131699
  6 13.684338  0.098802  0.161911
  1  0.738741 -1.013991 -0.215455
  1  0.725339  0.602086 -0.934007
  1  0.683942  0.415500  0.825215
  1  7.407500 -3.257541  0.462092
  1  9.862298 -3.281980  0.519275
  1 11.824109 -3.268919  0.562691
  1 14.279762 -3.208292  0.609238
  1 18.262362  1.207048  0.119093
  1 18.420313 -1.341704  1.801765
  1 18.137040  0.299499  2.419648
  1 19.669736 -0.095279  1.636921
  1 18.480661 -1.688320 -0.841015
  1 19.728340 -0.433890 -0.947754
  1 18.234251 -0.263662 -1.873151
  1 14.256266  3.413593 -0.261127
  1 11.801028  3.443230 -0.318606
  1  9.839307  3.432054 -0.357340
  1  7.384742  3.377307 -0.403367
 nber atoms=          54
  SCF Done:  E(RB3LYP) =  -1564.87711847     A.U. after    1 cycles             
  
          23          40 "  -1564.87711847"
After scan for Atom:   Atom  AN      X      Y      Z        X      Y      Z        X      Y      Z   
After scan for Atom:   Atom  AN      X      Y      Z        X      Y      Z        X      Y      Z   
After scan for Atom:   Atom  AN      X      Y      Z        X      Y      Z        X      Y      Z   
After scan for Atom:   Atom  AN      X      Y      Z        X      Y      Z        X      Y      Z   
After scan for Atom:   Atom  AN      X      Y      Z        X      Y      Z        X      Y      Z   
After scan for Atom:   Atom  AN      X      Y      Z        X      Y      Z        X      Y      Z   
After scan for Atom:   Atom  AN      X      Y      Z        X      Y      Z        X      Y      Z   
After scan for Atom:   Atom  AN      X      Y      Z        X      Y      Z        X      Y      Z   
After scan for Atom:   Atom  AN      X      Y      Z        X      Y      Z        X      Y      Z   
After scan for Atom:   Atom  AN      X      Y      Z        X      Y      Z        X      Y      Z   
After scan for Atom:   Atom  AN      X      Y      Z        X      Y      Z        X      Y      Z   
After scan for Atom:   Atom  AN      X      Y      Z        X      Y      Z        X      Y      Z   
After scan for Atom:   Atom  AN      X      Y      Z        X      Y      Z        X      Y      Z   
After scan for Atom:   Atom  AN      X      Y      Z        X      Y      Z        X      Y      Z   
After scan for Atom:   Atom  AN      X      Y      Z        X      Y      Z        X      Y      Z   
After scan for Atom:   Atom  AN      X      Y      Z        X      Y      Z        X      Y      Z   
After scan for Atom:   Atom  AN      X      Y      Z        X      Y      Z        X      Y      Z   
After scan for Atom:   Atom  AN      X      Y      Z        X      Y      Z        X      Y      Z   
After scan for Atom:   Atom  AN      X      Y      Z        X      Y      Z        X      Y      Z   
After scan for Atom:   Atom  AN      X      Y      Z        X      Y      Z        X      Y      Z   
After scan for Atom:   Atom  AN      X      Y      Z        X      Y      Z        X      Y      Z   
After scan for Atom:   Atom  AN      X      Y      Z        X      Y      Z        X      Y      Z   
After scan for Atom:   Atom  AN      X      Y      Z        X      Y      Z        X      Y      Z   
After scan for Atom:   Atom  AN      X      Y      Z        X      Y      Z        X      Y      Z   
After scan for Atom:   Atom  AN      X      Y      Z        X      Y      Z        X      Y      Z   
After scan for Atom:   Atom  AN      X      Y      Z        X      Y      Z        X      Y      Z   
After scan for Atom:   Atom  AN      X      Y      Z        X      Y      Z        X      Y      Z   
After scan for Atom:   Atom  AN      X      Y      Z        X      Y      Z        X      Y      Z   
After scan for Atom:   Atom  AN      X      Y      Z        X      Y      Z        X      Y      Z   
After scan for Atom:   Atom  AN      X      Y      Z        X      Y      Z        X      Y      Z   
After scan for Atom:   Atom  AN      X      Y      Z        X      Y      Z        X      Y      Z   
After scan for Atom:   Atom  AN      X      Y      Z        X      Y      Z        X      Y      Z   
After scan for Atom:   Atom  AN      X      Y      Z        X      Y      Z        X      Y      Z   
After scan for Atom:   Atom  AN      X      Y      Z        X      Y      Z        X      Y      Z   
After scan for Atom:   Atom  AN      X      Y      Z        X      Y      Z        X      Y      Z   
After scan for Atom:   Atom  AN      X      Y      Z        X      Y      Z        X      Y      Z   
After scan for Atom:   Atom  AN      X      Y      Z        X      Y      Z        X      Y      Z   
After scan for Atom:   Atom  AN      X      Y      Z        X      Y      Z        X      Y      Z   
After scan for Atom:   Atom  AN      X      Y      Z        X      Y      Z        X      Y      Z   
After scan for Atom:   Atom  AN      X      Y      Z        X      Y      Z        X      Y      Z   
After scan for Atom:   Atom  AN      X      Y      Z        X      Y      Z        X      Y      Z   
After scan for Atom:   Atom  AN      X      Y      Z        X      Y      Z        X      Y      Z   
After scan for Atom:   Atom  AN      X      Y      Z        X      Y      Z        X      Y      Z   
After scan for Atom:   Atom  AN      X      Y      Z        X      Y      Z        X      Y      Z   
After scan for Atom:   Atom  AN      X      Y      Z        X      Y      Z        X      Y      Z   
After scan for Atom:   Atom  AN      X      Y      Z        X      Y      Z        X      Y      Z   
After scan for Atom:   Atom  AN      X      Y      Z        X      Y      Z        X      Y      Z   
After scan for Atom:   Atom  AN      X      Y      Z        X      Y      Z        X      Y      Z   
After scan for Atom:   Atom  AN      X      Y      Z        X      Y      Z        X      Y      Z   
After scan for Atom:   Atom  AN      X      Y      Z        X      Y      Z        X      Y      Z   
After scan for Atom:   Atom  AN      X      Y      Z        X      Y      Z        X      Y      Z   
After scan for Atom:   Atom  AN      X      Y      Z        X      Y      Z        X      Y      Z   
 g94    frequencies=
     0.0    0.0    0.0    0.0    0.0    0.0    7.8   19.8   22.2   37.8
    52.9   53.3   63.6   74.5   86.2  102.0  113.7  134.3  163.5  180.7
   181.0  187.8  201.6  215.0  234.3  235.2  270.4  271.3  278.5  280.8
   299.2  314.1  337.2  347.2  358.8  389.9  395.0  428.7  433.9  437.0
   444.3  447.4  448.9  470.6  472.6  479.1  479.2  482.6  507.8  526.7
   534.1  554.2  577.7  588.8  595.8  623.6  630.8  655.6  665.9  711.6
   719.4  720.9  740.6  747.3  756.0  769.4  780.1  787.0  797.1  810.5
   817.7  830.3  849.3  864.2  865.1  869.5  871.0  909.9  926.5  945.5
   957.0  975.6  984.9  992.6  996.8 1001.4 1005.9 1052.9 1054.0 1064.0
  1074.7 1100.6 1138.7 1140.0 1155.8 1157.2 1169.8 1182.2 1195.2 1209.2
  1214.6 1221.4 1240.7 1250.6 1267.7 1269.6 1314.7 1316.3 1328.6 1336.0
  1360.3 1368.5 1374.7 1382.1 1382.7 1400.7 1406.0 1417.2 1421.3 1428.8
  1436.8 1454.5 1475.9 1476.8 1481.0 1485.3 1491.3 1498.1 1505.3 1506.2
  1522.6 1542.8 1560.9 1603.9 1614.8 1619.3 1631.0 1631.5 1648.7 1713.6
  1751.3 1751.7 1781.1 2388.3 3024.0 3034.8 3038.9 3080.7 3085.7 3092.7
  3095.9 3113.2 3133.1 3143.5 3194.3 3194.5 3201.5 3201.8 3208.7 3209.0
  3218.9 3219.1
 g94    symmetries=
                                                 A      A      A      A
       A      A      A      A      A      A      A      A      A      A
       A      A      A      A      A      A      A      A      A      A
       A      A      A      A      A      A      A      A      A      A
       A      A      A      A      A      A      A      A      A      A
       A      A      A      A      A      A      A      A      A      A
       A      A      A      A      A      A      A      A      A      A
       A      A      A      A      A      A      A      A      A      A
       A      A      A      A      A      A      A      A      A      A
       A      A      A      A      A      A      A      A      A      A
       A      A      A      A      A      A      A      A      A      A
       A      A      A      A      A      A      A      A      A      A
       A      A      A      A      A      A      A      A      A      A
       A      A      A      A      A      A      A      A      A      A
       A      A      A      A      A      A      A      A      A      A
       A      A      A      A      A      A      A      A      A      A
       A      A
 atomic masses:
 12.0000 12.0000 12.0000 14.0031 12.0000 15.9949 12.0000 12.0000 12.0000 12.0000
 12.0000 12.0000 12.0000 12.0000 12.0000 15.9949 14.0031 12.0000 12.0000 12.0000
 12.0000 15.9949 12.0000 12.0000 12.0000 12.0000 12.0000 12.0000 12.0000 12.0000
 12.0000 15.9949 12.0000 12.0000 12.0000 12.0000  1.0078  1.0078  1.0078  1.0078
  1.0078  1.0078  1.0078  1.0078  1.0078  1.0078  1.0078  1.0078  1.0078  1.0078
  1.0078  1.0078  1.0078  1.0078
 looking for force constants in 
 ./PDI_4_C0S0.fchk                                                              
  
 Cartesian Force Constants                  R   N=       13203                  
  
 n3=         162       13203
 g94-fc frequencies=
    -1.7   -0.9    0.0    0.0    0.0    3.6    7.8   19.9   22.2   37.8
    52.9   53.3   63.6   74.5   86.2  102.0  113.7  134.3  163.5  180.7
   181.0  187.8  201.6  215.0  234.3  235.2  270.4  271.3  278.5  280.8
   299.2  314.2  337.2  347.2  358.8  389.9  395.0  428.7  433.9  437.0
   444.3  447.4  448.9  470.6  472.6  479.1  479.2  482.6  507.8  526.7
   534.1  554.2  577.8  588.8  595.8  623.6  630.8  655.6  665.9  711.7
   719.4  720.9  740.6  747.3  756.0  769.4  780.1  787.0  797.2  810.5
   817.8  830.3  849.4  864.2  865.1  869.5  871.0  909.9  926.5  945.5
   957.0  975.6  984.9  992.6  996.8 1001.4 1005.9 1052.9 1054.0 1064.0
  1074.8 1100.7 1138.7 1140.1 1155.8 1157.3 1169.8 1182.3 1195.3 1209.2
  1214.6 1221.4 1240.7 1250.6 1267.7 1269.7 1314.7 1316.3 1328.6 1336.1
  1360.3 1368.5 1374.7 1382.1 1382.7 1400.7 1406.0 1417.3 1421.3 1428.9
  1436.8 1454.5 1476.0 1476.8 1481.0 1485.3 1491.3 1498.2 1505.3 1506.2
  1522.7 1542.8 1560.9 1603.9 1614.9 1619.3 1631.1 1631.6 1648.8 1713.6
  1751.4 1751.7 1781.2 2388.4 3024.1 3034.9 3039.0 3080.7 3085.8 3092.8
  3096.0 3113.3 3133.2 3143.5 3194.4 3194.6 3201.5 3201.8 3208.8 3209.1
  3218.9 3219.1
 at 99999: n3=         162
 symm operator            1 :  F  nop=           0
 symm operator            2 :  F  nop=           0
 symm operator            3 :  F  nop=           0
 symm operator            4 :  F  nop=           0
 symm operator            5 :  F  nop=           0
 symm operator            6 :  F  nop=           0
 symm operator            7 :  F  nop=           0
 The point group of the molecule is  C1
 Symmetry rotation matrix:
   1.00000   0.00000   0.00000
   0.00000   1.00000   0.00000
   0.00000   0.00000   1.00000

 Projecting out zero-frequency components
 generating redundant internal coords
         300        3600          54
 search for int coords
   1 str   2   1   1.456
   2 str   3   2   1.199
   3 str   4   3   1.362
   4 str   5   4   1.426
   5 str   6   5   1.209
   6 str   7   5   1.480
   7 str   8   7   1.382
   8 str   9   8   1.396
   9 str  10   9   1.393
  10 str  11  10   1.469
  11 str  12  11   1.394
  12 str  13  12   1.397
  13 str  14  13   1.381
  14 str  15  14   1.486
  15 str  16  15   1.218
  16 str  17  15   1.401
  17 str  18  17   1.498
  18 str  19  18   1.532
  19 str  20  18   1.532
  20 str  21  17   1.408
  21 str  22  21   1.218
  22 str  23  21   1.485
  23 str  24  23   1.382
  24 str  25  24   1.397
  25 str  26  25   1.394
  26 str  27  26   1.469
  27 str  28  27   1.393
  28 str  29  28   1.396
  29 str  30  29   1.382
  30 str  31   4   1.426
  31 str  31  30   1.480
  32 str  32  31   1.209
  33 str  33   7   1.415
  34 str  33  30   1.415
  35 str  34  10   1.430
  36 str  34  27   1.430
  37 str  34  33   1.429
  38 str  35  11   1.428
  39 str  35  26   1.428
  40 str  36  14   1.412
  41 str  36  23   1.412
  42 str  36  35   1.427
  43 str  37   1   1.094
  44 str  38   1   1.094
  45 str  39   1   1.094
  46 str  40   8   1.083
  47 str  41   9   1.081
  48 str  42  12   1.081
  49 str  43  13   1.083
  50 str  44  18   1.088
  51 str  45  19   1.089
  52 str  46  19   1.093
  53 str  47  19   1.093
  54 str  48  20   1.089
  55 str  49  20   1.093
  56 str  50  20   1.093
  57 str  51  24   1.083
  58 str  52  25   1.081
  59 str  53  28   1.081
  60 str  54  29   1.083
 nber stretches=          60
  61 lin ben   1   2   3
  63 ben   2   1  37
  64 ben   2   1  38
  65 ben   2   1  39
 Extend lin bond           1           1           2           4
  66 lin ben   2   3   4
  68 ben   3   4   5
  69 prop tor   3   4   5   6
  70 prop tor   3   4   5   7
  71 ben   3   4  31
  72 prop tor   3   4  31  30
  73 prop tor   3   4  31  32
  74 ben   4   5   6
  75 ben   4   5   7
  76 prop tor   4   5   7   8
  77 prop tor   4   5   7  33
  78 ben   4  31  30
  79 ben   4  31  32
  80 ben   5   4  31
  81 prop tor   5   4  31  30
  82 prop tor   5   4  31  32
  83 ben   5   7   8
  84 prop tor   5   7   8   9
  85 prop tor   5   7   8  40
  86 ben   5   7  33
  87 prop tor   5   7  33  30
  88 prop tor   5   7  33  34
  89 ben   6   5   7
  90 prop tor   6   5   7   8
  91 prop tor   6   5   7  33
  92 ben   7   8   9
  93 prop tor   7   8   9  10
  94 prop tor   7   8   9  41
  95 ben   7   8  40
  96 ben   7  33  30
  97 ben   7  33  34
  98 prop tor   7  33  34  10
  99 prop tor   7  33  34  27
 100 ben   8   7  33
 101 prop tor   8   7  33  30
 102 prop tor   8   7  33  34
 103 ben   8   9  10
 104 prop tor   8   9  10  11
 105 prop tor   8   9  10  34
 106 ben   8   9  41
 107 ben   9   8  40
 108 ben   9  10  11
 109 prop tor   9  10  11  12
 110 prop tor   9  10  11  35
 111 ben   9  10  34
 112 prop tor   9  10  34  27
 113 prop tor   9  10  34  33
 114 ben  10   9  41
 115 ben  10  11  12
 116 prop tor  10  11  12  13
 117 prop tor  10  11  12  42
 118 ben  10  11  35
 119 prop tor  10  11  35  26
 120 prop tor  10  11  35  36
 121 ben  10  34  27
 122 ben  10  34  33
 123 ben  11  10  34
 124 prop tor  11  10  34  27
 125 prop tor  11  10  34  33
 126 ben  11  12  13
 127 prop tor  11  12  13  14
 128 prop tor  11  12  13  43
 129 ben  11  12  42
 130 ben  11  35  26
 131 ben  11  35  36
 132 prop tor  11  35  36  14
 133 prop tor  11  35  36  23
 134 ben  12  11  35
 135 prop tor  12  11  35  26
 136 prop tor  12  11  35  36
 137 ben  12  13  14
 138 prop tor  12  13  14  15
 139 prop tor  12  13  14  36
 140 ben  12  13  43
 141 ben  13  12  42
 142 ben  13  14  15
 143 prop tor  13  14  15  16
 144 prop tor  13  14  15  17
 145 ben  13  14  36
 146 prop tor  13  14  36  23
 147 prop tor  13  14  36  35
 148 ben  14  13  43
 149 ben  14  15  16
 150 ben  14  15  17
 151 prop tor  14  15  17  18
 152 prop tor  14  15  17  21
 153 ben  14  36  23
 154 ben  14  36  35
 155 ben  15  14  36
 156 prop tor  15  14  36  23
 157 prop tor  15  14  36  35
 158 ben  15  17  18
 159 prop tor  15  17  18  19
 160 prop tor  15  17  18  20
 161 prop tor  15  17  18  44
 162 ben  15  17  21
 163 prop tor  15  17  21  22
 164 prop tor  15  17  21  23
 165 ben  16  15  17
 166 prop tor  16  15  17  18
 167 prop tor  16  15  17  21
 168 ben  17  18  19
 169 prop tor  17  18  19  45
 170 prop tor  17  18  19  46
 171 prop tor  17  18  19  47
 172 ben  17  18  20
 173 prop tor  17  18  20  48
 174 prop tor  17  18  20  49
 175 prop tor  17  18  20  50
 176 ben  17  18  44
 177 ben  17  21  22
 178 ben  17  21  23
 179 prop tor  17  21  23  24
 180 prop tor  17  21  23  36
 181 ben  18  17  21
 182 prop tor  18  17  21  22
 183 prop tor  18  17  21  23
 184 ben  18  19  45
 185 ben  18  19  46
 186 ben  18  19  47
 187 ben  18  20  48
 188 ben  18  20  49
 189 ben  18  20  50
 190 ben  19  18  20
 191 prop tor  19  18  20  48
 192 prop tor  19  18  20  49
 193 prop tor  19  18  20  50
 194 ben  19  18  44
 195 prop tor  20  18  19  45
 196 prop tor  20  18  19  46
 197 prop tor  20  18  19  47
 198 ben  20  18  44
 199 prop tor  21  17  18  19
 200 prop tor  21  17  18  20
 201 prop tor  21  17  18  44
 202 ben  21  23  24
 203 prop tor  21  23  24  25
 204 prop tor  21  23  24  51
 205 ben  21  23  36
 206 prop tor  21  23  36  14
 207 prop tor  21  23  36  35
 208 ben  22  21  23
 209 prop tor  22  21  23  24
 210 prop tor  22  21  23  36
 211 ben  23  24  25
 212 prop tor  23  24  25  26
 213 prop tor  23  24  25  52
 214 ben  23  24  51
 215 ben  23  36  35
 216 ben  24  23  36
 217 prop tor  24  23  36  14
 218 prop tor  24  23  36  35
 219 ben  24  25  26
 220 prop tor  24  25  26  27
 221 prop tor  24  25  26  35
 222 ben  24  25  52
 223 ben  25  24  51
 224 ben  25  26  27
 225 prop tor  25  26  27  28
 226 prop tor  25  26  27  34
 227 ben  25  26  35
 228 prop tor  25  26  35  11
 229 prop tor  25  26  35  36
 230 ben  26  25  52
 231 ben  26  27  28
 232 prop tor  26  27  28  29
 233 prop tor  26  27  28  53
 234 ben  26  27  34
 235 prop tor  26  27  34  10
 236 prop tor  26  27  34  33
 237 ben  26  35  36
 238 prop tor  26  35  36  14
 239 prop tor  26  35  36  23
 240 ben  27  26  35
 241 prop tor  27  26  35  11
 242 prop tor  27  26  35  36
 243 ben  27  28  29
 244 prop tor  27  28  29  30
 245 prop tor  27  28  29  54
 246 ben  27  28  53
 247 ben  27  34  33
 248 ben  28  27  34
 249 prop tor  28  27  34  10
 250 prop tor  28  27  34  33
 251 ben  28  29  30
 252 prop tor  28  29  30  31
 253 prop tor  28  29  30  33
 254 ben  28  29  54
 255 ben  29  28  53
 256 ben  29  30  31
 257 prop tor  29  30  31   4
 258 prop tor  29  30  31  32
 259 ben  29  30  33
 260 prop tor  29  30  33   7
 261 prop tor  29  30  33  34
 262 ben  30  29  54
 263 ben  30  31  32
 264 ben  30  33  34
 265 prop tor  30  33  34  10
 266 prop tor  30  33  34  27
 267 prop tor  31   4   5   6
 268 prop tor  31   4   5   7
 269 ben  31  30  33
 270 prop tor  31  30  33   7
 271 prop tor  31  30  33  34
 272 prop tor  33   7   8   9
 273 prop tor  33   7   8  40
 274 prop tor  33  30  31   4
 275 prop tor  33  30  31  32
 276 prop tor  34  10  11  12
 277 prop tor  34  10  11  35
 278 prop tor  34  27  28  29
 279 prop tor  34  27  28  53
 280 prop tor  35  11  12  13
 281 prop tor  35  11  12  42
 282 prop tor  35  26  27  28
 283 prop tor  35  26  27  34
 284 prop tor  36  14  15  16
 285 prop tor  36  14  15  17
 286 prop tor  36  23  24  25
 287 prop tor  36  23  24  51
 288 prop tor  37   1   2   3
 289 ben  37   1  38
 290 ben  37   1  39
 291 prop tor  38   1   2   3
 292 ben  38   1  39
 293 prop tor  39   1   2   3
 294 prop tor  40   8   9  10
 295 prop tor  40   8   9  41
 296 prop tor  41   9  10  11
 297 prop tor  41   9  10  34
 298 prop tor  42  12  13  14
 299 prop tor  42  12  13  43
 300 prop tor  43  13  14  15
 301 prop tor  43  13  14  36
 302 prop tor  44  18  19  45
 303 prop tor  44  18  19  46
 304 prop tor  44  18  19  47
 305 prop tor  44  18  20  48
 306 prop tor  44  18  20  49
 307 prop tor  44  18  20  50
 308 ben  45  19  46
 309 ben  45  19  47
 310 ben  46  19  47
 311 ben  48  20  49
 312 ben  48  20  50
 313 ben  49  20  50
 314 prop tor  51  24  25  26
 315 prop tor  51  24  25  52
 316 prop tor  52  25  26  27
 317 prop tor  52  25  26  35
 318 prop tor  53  28  29  30
 319 prop tor  53  28  29  54
 320 prop tor  54  29  30  31
 321 prop tor  54  29  30  33
 322 lin bend prop tor   2   1   4   3
 323 lin bend prop tor   2   1   4   5
 324 lin bend prop tor   2   1   4  31
 325 lin bend prop tor  37   1   4   3
 326 lin bend prop tor  37   1   4   5
 327 lin bend prop tor  37   1   4  31
 328 lin bend prop tor  38   1   4   3
 329 lin bend prop tor  38   1   4   5
 330 lin bend prop tor  38   1   4  31
 331 lin bend prop tor  39   1   4   3
 332 lin bend prop tor  39   1   4   5
 333 lin bend prop tor  39   1   4  31
 nber bend=             106
 nber lin bend=           1
 nber prop tor=         167
 nber impr tor=           0
 nber tot redund int=         333
 Eigenvalues of G in red int coords
    Gval -0.00000000 -0.00000000 -0.00000000 -0.00000000 -0.00000000 -0.00000000 -0.00000000 -0.00000000
    Gval -0.00000000 -0.00000000 -0.00000000 -0.00000000 -0.00000000 -0.00000000 -0.00000000 -0.00000000
    Gval -0.00000000 -0.00000000 -0.00000000 -0.00000000 -0.00000000 -0.00000000 -0.00000000 -0.00000000
    Gval -0.00000000 -0.00000000 -0.00000000 -0.00000000 -0.00000000 -0.00000000 -0.00000000 -0.00000000
    Gval -0.00000000 -0.00000000 -0.00000000 -0.00000000 -0.00000000 -0.00000000 -0.00000000 -0.00000000
    Gval -0.00000000 -0.00000000 -0.00000000 -0.00000000 -0.00000000 -0.00000000 -0.00000000 -0.00000000
    Gval -0.00000000 -0.00000000 -0.00000000 -0.00000000 -0.00000000 -0.00000000 -0.00000000 -0.00000000
    Gval -0.00000000 -0.00000000 -0.00000000 -0.00000000 -0.00000000 -0.00000000 -0.00000000 -0.00000000
    Gval -0.00000000 -0.00000000 -0.00000000 -0.00000000 -0.00000000 -0.00000000 -0.00000000 -0.00000000
    Gval -0.00000000 -0.00000000 -0.00000000 -0.00000000 -0.00000000 -0.00000000 -0.00000000 -0.00000000
    Gval -0.00000000 -0.00000000 -0.00000000 -0.00000000 -0.00000000 -0.00000000  0.00000000  0.00000000
    Gval  0.00000000  0.00000000  0.00000000  0.00000000  0.00000000  0.00000000  0.00000000  0.00000000
    Gval  0.00000000  0.00000000  0.00000000  0.00000000  0.00000000  0.00000000  0.00000000  0.00000000
    Gval  0.00000000  0.00000000  0.00000000  0.00000000  0.00000000  0.00000000  0.00000000  0.00000000
    Gval  0.00000000  0.00000000  0.00000000  0.00000000  0.00000000  0.00000000  0.00000000  0.00000000
    Gval  0.00000000  0.00000000  0.00000000  0.00000000  0.00000000  0.00000000  0.00000000  0.00000000
    Gval  0.00000000  0.00000000  0.00000000  0.00000000  0.00000000  0.00000000  0.00000000  0.00000000
    Gval  0.00000000  0.00000000  0.00000000  0.00000000  0.00000000  0.00000000  0.00000000  0.00000000
    Gval  0.00000000  0.00000000  0.00000000  0.00000000  0.00000000  0.00000000  0.00000000  0.00000000
    Gval  0.00000000  0.00000000  0.00000000  0.00000000  0.00000000  0.00000000  0.00000000  0.00000000
    Gval  0.00000000  0.00000000  0.00000000  0.00000000  0.00000000  0.00000000  0.00000000  0.00000000
    Gval  0.00000000  0.00000000  0.00000000  0.00000000  0.00000000  0.00000000  0.00000000  0.00000000
    Gval  0.00000000  0.00000085  0.00000200  0.00000243  0.00000293  0.00000617  0.00000697  0.00000873
    Gval  0.00000995  0.00001109  0.00001112  0.00001557  0.00001631  0.00001722  0.00001781  0.00001836
    Gval  0.00002045  0.00002165  0.00002386  0.00002405  0.00002538  0.00002985  0.00003444  0.00003584
    Gval  0.00003691  0.00003993  0.00004657  0.00004920  0.00005123  0.00005309  0.00005553  0.00005900
    Gval  0.00006230  0.00006731  0.00006855  0.00007176  0.00007399  0.00008138  0.00008246  0.00008491
    Gval  0.00008741  0.00009167  0.00009385  0.00009441  0.00009597  0.00011340  0.00012149  0.00012271
    Gval  0.00013652  0.00013695  0.00013731  0.00014074  0.00014990  0.00015761  0.00016096  0.00016849
    Gval  0.00017047  0.00018067  0.00020233  0.00022271  0.00022755  0.00023026  0.00024554  0.00027446
    Gval  0.00028273  0.00029199  0.00029984  0.00032767  0.00034272  0.00036136  0.00038220  0.00039191
    Gval  0.00039229  0.00039614  0.00040675  0.00041638  0.00042458  0.00042998  0.00043341  0.00044157
    Gval  0.00044268  0.00046237  0.00046558  0.00046622  0.00049197  0.00052442  0.00053430  0.00053717
    Gval  0.00053917  0.00054904  0.00055386  0.00055414  0.00055603  0.00055657  0.00055662  0.00059275
    Gval  0.00059865  0.00059943  0.00059969  0.00060001  0.00060220  0.00061215  0.00064192  0.00064560
    Gval  0.00064614  0.00064810  0.00066712  0.00068441  0.00069057  0.00069791  0.00075078  0.00081657
    Gval  0.00092141  0.00094605  0.00109550  0.00109646  0.00109720  0.00109771  0.00114382  0.00114920
    Gval  0.00116254  0.00116274  0.00116306  0.00116333  0.00117176  0.00117255  0.00118596  0.00120141
    Gval  0.00129529  0.00131633  0.00134296  0.00151965  0.00152560  0.00173162  0.00175432  0.00190819
    Gval  0.00229297  0.00235500  0.00253222  0.00253669  0.00256307  0.00278598  0.00292293  0.00302365
    Gval  0.00304216  0.00308150  0.00309697  0.00342776  0.00355062  0.00365511  0.00365704  0.00370376
    Gval  0.00370547  0.00394328  0.65021233 17.59593566 36.38674246
  8.477680351924502E-007  8.477680351924502E-007
  1.998210398249695E-006  8.477680351924502E-007
  2.434691497761983E-006  8.477680351924502E-007
  2.930620104740324E-006  8.477680351924502E-007
  6.165649521028903E-006  8.477680351924502E-007
  6.974531408423996E-006  8.477680351924502E-007
  8.730581811744429E-006  8.477680351924502E-007
  9.948487210207466E-006  8.477680351924502E-007
  1.108513773118215E-005  8.477680351924502E-007
  1.112173921691327E-005  8.477680351924502E-007
  1.556810308507383E-005  8.477680351924502E-007
  1.630739148801641E-005  8.477680351924502E-007
  1.721860101388773E-005  8.477680351924502E-007
  1.781302819214028E-005  8.477680351924502E-007
  1.835929700021548E-005  8.477680351924502E-007
  2.045099443110170E-005  8.477680351924502E-007
  2.165225298743489E-005  8.477680351924502E-007
  2.385848324793718E-005  8.477680351924502E-007
  2.404642213002426E-005  8.477680351924502E-007
  2.537536554707926E-005  8.477680351924502E-007
  2.984535761628357E-005  8.477680351924502E-007
  3.443671364201988E-005  8.477680351924502E-007
  3.584267694402410E-005  8.477680351924502E-007
  3.690827808715024E-005  8.477680351924502E-007
  3.993481981153605E-005  8.477680351924502E-007
  4.657268109723314E-005  8.477680351924502E-007
  4.920475162065714E-005  8.477680351924502E-007
  5.122960392378689E-005  8.477680351924502E-007
  5.309036739820851E-005  8.477680351924502E-007
  5.553390174053822E-005  8.477680351924502E-007
  5.899817261844062E-005  8.477680351924502E-007
  6.230168187345280E-005  8.477680351924502E-007
  6.730591402159812E-005  8.477680351924502E-007
  6.854896695069910E-005  8.477680351924502E-007
  7.176118678640892E-005  8.477680351924502E-007
  7.399494097166342E-005  8.477680351924502E-007
  8.137548017640412E-005  8.477680351924502E-007
  8.245732427230886E-005  8.477680351924502E-007
  8.491008889666246E-005  8.477680351924502E-007
  8.741454012011064E-005  8.477680351924502E-007
  9.166991558210703E-005  8.477680351924502E-007
  9.385305533960928E-005  8.477680351924502E-007
  9.441406626121472E-005  8.477680351924502E-007
  9.597345582537594E-005  8.477680351924502E-007
  1.133990892758596E-004  8.477680351924502E-007
  1.214863823361516E-004  8.477680351924502E-007
  1.227087918083920E-004  8.477680351924502E-007
  1.365215278131053E-004  8.477680351924502E-007
  1.369469183080675E-004  8.477680351924502E-007
  1.373056808446026E-004  8.477680351924502E-007
  1.407377935241585E-004  8.477680351924502E-007
  1.498956054705693E-004  8.477680351924502E-007
  1.576083042845631E-004  8.477680351924502E-007
  1.609642967267398E-004  8.477680351924502E-007
  1.684854947474390E-004  8.477680351924502E-007
  1.704672510004656E-004  8.477680351924502E-007
  1.806741022801505E-004  8.477680351924502E-007
  2.023304539370893E-004  8.477680351924502E-007
  2.227145974664580E-004  8.477680351924502E-007
  2.275549002206375E-004  8.477680351924502E-007
  2.302576906847774E-004  8.477680351924502E-007
  2.455442865176689E-004  8.477680351924502E-007
  2.744603637440318E-004  8.477680351924502E-007
  2.827314114497366E-004  8.477680351924502E-007
  2.919912697536736E-004  8.477680351924502E-007
  2.998448584696546E-004  8.477680351924502E-007
  3.276706606306407E-004  8.477680351924502E-007
  3.427204427031148E-004  8.477680351924502E-007
  3.613619004525913E-004  8.477680351924502E-007
  3.822029180814946E-004  8.477680351924502E-007
  3.919075743725395E-004  8.477680351924502E-007
  3.922930160472363E-004  8.477680351924502E-007
  3.961359591927178E-004  8.477680351924502E-007
  4.067453661407837E-004  8.477680351924502E-007
  4.163751218500787E-004  8.477680351924502E-007
  4.245778770525765E-004  8.477680351924502E-007
  4.299797379301327E-004  8.477680351924502E-007
  4.334117650405232E-004  8.477680351924502E-007
  4.415743896325994E-004  8.477680351924502E-007
  4.426797414133030E-004  8.477680351924502E-007
  4.623719353964371E-004  8.477680351924502E-007
  4.655809828638239E-004  8.477680351924502E-007
  4.662234622025538E-004  8.477680351924502E-007
  4.919667947354677E-004  8.477680351924502E-007
  5.244235281352539E-004  8.477680351924502E-007
  5.342986992850353E-004  8.477680351924502E-007
  5.371672352353100E-004  8.477680351924502E-007
  5.391736913429466E-004  8.477680351924502E-007
  5.490429250752327E-004  8.477680351924502E-007
  5.538551939703938E-004  8.477680351924502E-007
  5.541449160250089E-004  8.477680351924502E-007
  5.560322982790524E-004  8.477680351924502E-007
  5.565728347300499E-004  8.477680351924502E-007
  5.566220253643343E-004  8.477680351924502E-007
  5.927540272637911E-004  8.477680351924502E-007
  5.986463077477847E-004  8.477680351924502E-007
  5.994319037795016E-004  8.477680351924502E-007
  5.996894501816626E-004  8.477680351924502E-007
  6.000106628926949E-004  8.477680351924502E-007
  6.021963963380275E-004  8.477680351924502E-007
  6.121540805423552E-004  8.477680351924502E-007
  6.419244586873594E-004  8.477680351924502E-007
  6.456034706922655E-004  8.477680351924502E-007
  6.461391995424330E-004  8.477680351924502E-007
  6.481011052791244E-004  8.477680351924502E-007
  6.671231228311947E-004  8.477680351924502E-007
  6.844082789260383E-004  8.477680351924502E-007
  6.905700008171039E-004  8.477680351924502E-007
  6.979089135216117E-004  8.477680351924502E-007
  7.507808141774536E-004  8.477680351924502E-007
  8.165740869503314E-004  8.477680351924502E-007
  9.214078570954599E-004  8.477680351924502E-007
  9.460501240887821E-004  8.477680351924502E-007
  1.095496480715342E-003  8.477680351924502E-007
  1.096460140234586E-003  8.477680351924502E-007
  1.097196579337077E-003  8.477680351924502E-007
  1.097710374679430E-003  8.477680351924502E-007
  1.143823640168227E-003  8.477680351924502E-007
  1.149202598051418E-003  8.477680351924502E-007
  1.162544167864731E-003  8.477680351924502E-007
  1.162738700665771E-003  8.477680351924502E-007
  1.163055543787362E-003  8.477680351924502E-007
  1.163329613358193E-003  8.477680351924502E-007
  1.171758927279547E-003  8.477680351924502E-007
  1.172552545175662E-003  8.477680351924502E-007
  1.185959107508302E-003  8.477680351924502E-007
  1.201411368222835E-003  8.477680351924502E-007
  1.295286340811708E-003  8.477680351924502E-007
  1.316326786563975E-003  8.477680351924502E-007
  1.342964001486724E-003  8.477680351924502E-007
  1.519654004105554E-003  8.477680351924502E-007
  1.525600938583617E-003  8.477680351924502E-007
  1.731617907727826E-003  8.477680351924502E-007
  1.754318053984729E-003  8.477680351924502E-007
  1.908185669694502E-003  8.477680351924502E-007
  2.292967809465542E-003  8.477680351924502E-007
  2.354995393665960E-003  8.477680351924502E-007
  2.532218579690571E-003  8.477680351924502E-007
  2.536686152454168E-003  8.477680351924502E-007
  2.563065017863977E-003  8.477680351924502E-007
  2.785981928980013E-003  8.477680351924502E-007
  2.922934249770001E-003  8.477680351924502E-007
  3.023646571120371E-003  8.477680351924502E-007
  3.042160076486639E-003  8.477680351924502E-007
  3.081499875620597E-003  8.477680351924502E-007
  3.096966392622178E-003  8.477680351924502E-007
  3.427763515482272E-003  8.477680351924502E-007
  3.550617428447659E-003  8.477680351924502E-007
  3.655106694993911E-003  8.477680351924502E-007
  3.657035306154672E-003  8.477680351924502E-007
  3.703761629617547E-003  8.477680351924502E-007
  3.705471438070321E-003  8.477680351924502E-007
  3.943277359946705E-003  8.477680351924502E-007
  0.650212333556868       8.477680351924502E-007
   17.5959356636399       8.477680351924502E-007
   36.3867424583323       8.477680351924502E-007
 cut=1d-8, nber non-redundant internal coords=         156
 Check on Eigenvals of non-red overlap matrix:
  0.00000085  0.00000200  0.00000243  0.00000293  0.00000617  0.00000697  0.00000873  0.00000995
  0.00001109  0.00001112  0.00001557  0.00001631  0.00001722  0.00001781  0.00001836  0.00002045
  0.00002165  0.00002386  0.00002405  0.00002538  0.00002985  0.00003444  0.00003584  0.00003691
  0.00003993  0.00004657  0.00004920  0.00005123  0.00005309  0.00005553  0.00005900  0.00006230
  0.00006731  0.00006855  0.00007176  0.00007399  0.00008138  0.00008246  0.00008491  0.00008741
  0.00009167  0.00009385  0.00009441  0.00009597  0.00011340  0.00012149  0.00012271  0.00013652
  0.00013695  0.00013731  0.00014074  0.00014990  0.00015761  0.00016096  0.00016849  0.00017047
  0.00018067  0.00020233  0.00022271  0.00022755  0.00023026  0.00024554  0.00027446  0.00028273
  0.00029199  0.00029984  0.00032767  0.00034272  0.00036136  0.00038220  0.00039191  0.00039229
  0.00039614  0.00040675  0.00041638  0.00042458  0.00042998  0.00043341  0.00044157  0.00044268
  0.00046237  0.00046558  0.00046622  0.00049197  0.00052442  0.00053430  0.00053717  0.00053917
  0.00054904  0.00055386  0.00055414  0.00055603  0.00055657  0.00055662  0.00059275  0.00059865
  0.00059943  0.00059969  0.00060001  0.00060220  0.00061215  0.00064192  0.00064560  0.00064614
  0.00064810  0.00066712  0.00068441  0.00069057  0.00069791  0.00075078  0.00081657  0.00092141
  0.00094605  0.00109550  0.00109646  0.00109720  0.00109771  0.00114382  0.00114920  0.00116254
  0.00116274  0.00116306  0.00116333  0.00117176  0.00117255  0.00118596  0.00120141  0.00129529
  0.00131633  0.00134296  0.00151965  0.00152560  0.00173162  0.00175432  0.00190819  0.00229297
  0.00235500  0.00253222  0.00253669  0.00256307  0.00278598  0.00292293  0.00302365  0.00304216
  0.00308150  0.00309697  0.00342776  0.00355062  0.00365511  0.00365704  0.00370376  0.00370547
  0.00394328  0.65021233 17.59593566 36.38674246
 Checking for correct frequencies
 recalc frequencies=
    -0.0   -0.0   -0.0   -0.0   -0.0    0.0    7.8   19.8   22.2   37.8
    52.9   53.3   63.6   74.5   86.2  102.0  113.7  134.3  163.5  180.7
   181.0  187.8  201.6  215.0  234.3  235.2  270.4  271.3  278.5  280.8
   299.2  314.2  337.2  347.2  358.8  389.9  395.0  428.7  433.9  437.0
   444.3  447.4  448.9  470.6  472.6  479.1  479.2  482.6  507.8  526.7
   534.1  554.2  577.8  588.8  595.8  623.6  630.8  655.6  665.9  711.7
   719.4  720.9  740.6  747.3  756.0  769.4  780.1  787.0  797.2  810.5
   817.8  830.3  849.4  864.2  865.1  869.5  871.0  909.9  926.5  945.5
   957.0  975.6  984.9  992.6  996.8 1001.4 1005.9 1052.9 1054.0 1064.0
  1074.8 1100.7 1138.7 1140.1 1155.8 1157.3 1169.8 1182.3 1195.3 1209.2
  1214.6 1221.4 1240.7 1250.6 1267.7 1269.7 1314.7 1316.3 1328.6 1336.1
  1360.3 1368.5 1374.7 1382.1 1382.7 1400.7 1406.0 1417.3 1421.3 1428.9
  1436.8 1454.5 1476.0 1476.8 1481.0 1485.3 1491.3 1498.2 1505.3 1506.2
  1522.7 1542.8 1560.9 1603.9 1614.9 1619.3 1631.1 1631.6 1648.8 1713.6
  1751.4 1751.7 1781.2 2388.4 3024.1 3034.9 3039.0 3080.7 3085.8 3092.8
  3096.0 3113.3 3133.2 3143.5 3194.4 3194.6 3201.5 3201.8 3208.8 3209.1
  3218.9 3219.1
 recalc symmetries=
                                                                       
                                                                       
                                                                       
                                                                       
                                                                       
                                                                       
                                                                       
                                                                       
                                                                       
                                                                       
                                                                       
                                                                       
                                                                       
                                                                       
                                                                       
                                                                       
               
 recalc freqs check OK
 Zero-point lengths:
 10.0000 10.0000 10.0000 10.0000 10.0000 10.0000 88.7479 55.6465 52.6312 40.3237
 34.0864 33.9586 31.0792 28.7239 26.6988 24.5459 23.2472 21.3928 19.3902 18.4421
 18.4268 18.0883 17.4590 16.9066 16.1946 16.1642 15.0760 15.0521 14.8544 14.7950
 14.3326 13.9870 13.5007 13.3051 13.0885 12.5555 12.4733 11.9731 11.9016 11.8585
 11.7607 11.7207 11.7014 11.4282 11.4035 11.3265 11.3251 11.2845 11.0009 10.8022
 10.7271 10.5306 10.3139 10.2166 10.1563  9.9274  9.8710  9.6824  9.6073  9.2930
  9.2430  9.2335  9.1096  9.0687  9.0161  8.9376  8.8762  8.8372  8.7806  8.7079
  8.6692  8.6035  8.5065  8.4329  8.4289  8.4073  8.4000  8.2187  8.1446  8.0623
  8.0138  7.9372  7.8996  7.8686  7.8522  7.8340  7.8167  7.6402  7.6361  7.6001
  7.5620  7.4726  7.3467  7.3423  7.2921  7.2875  7.2482  7.2100  7.1707  7.1293
  7.1133  7.0936  7.0381  7.0104  6.9628  6.9575  6.8372  6.8330  6.8014  6.7824
  6.7216  6.7015  6.6864  6.6684  6.6670  6.6240  6.6115  6.5853  6.5758  6.5584
  6.5403  6.5004  6.4530  6.4511  6.4419  6.4326  6.4197  6.4049  6.3897  6.3878
  6.3532  6.3116  6.2749  6.1902  6.1692  6.1607  6.1385  6.1376  6.1054  5.9888
  5.9239  5.9232  5.8742  5.0728  4.5081  4.5001  4.4971  4.4665  4.4629  4.4578
  4.4555  4.4431  4.4290  4.4217  4.3864  4.3862  4.3814  4.3812  4.3765  4.3763
  4.3696  4.3695
 highest evec of mol 1
  0.0000 -0.0000 -0.0000
 -0.0000  0.0000 -0.0000
  0.0000 -0.0000  0.0000
 -0.0003 -0.0001  0.0000
  0.0002  0.0004 -0.0000
 -0.0001 -0.0002  0.0000
  0.0004 -0.0007  0.0001
  0.0101  0.0153 -0.0018
 -0.0189  0.0345 -0.0049
 -0.0008 -0.0008  0.0001
  0.0007 -0.0007  0.0001
  0.0172  0.0323 -0.0039
 -0.0099  0.0148 -0.0022
 -0.0004 -0.0007  0.0001
 -0.0002  0.0004 -0.0001
  0.0001 -0.0002  0.0000
  0.0004 -0.0001  0.0000
 -0.0002 -0.0003  0.0000
 -0.0000 -0.0000 -0.0000
 -0.0000 -0.0000  0.0000
 -0.0009 -0.0011  0.0001
  0.0001  0.0007 -0.0001
 -0.0020  0.0033 -0.0005
 -0.0460 -0.0698  0.0082
  0.0829 -0.1522  0.0218
  0.0034  0.0029 -0.0003
 -0.0037  0.0033 -0.0005
 -0.0877 -0.1632  0.0194
  0.0459 -0.0678  0.0098
  0.0020  0.0034 -0.0004
  0.0009 -0.0010  0.0001
 -0.0001  0.0006 -0.0001
  0.0000  0.0004 -0.0001
  0.0003  0.0012 -0.0002
 -0.0002  0.0012 -0.0002
 -0.0000  0.0004 -0.0001
 -0.0001 -0.0001 -0.0000
 -0.0001  0.0001 -0.0001
 -0.0001  0.0001  0.0001
 -0.0299 -0.0502  0.0059
  0.0638 -0.1161  0.0165
 -0.0583 -0.1088  0.0130
  0.0295 -0.0484  0.0070
  0.0002  0.0008 -0.0001
 -0.0000  0.0000 -0.0000
 -0.0001  0.0000  0.0001
  0.0003  0.0000  0.0000
 -0.0000  0.0000  0.0000
  0.0003  0.0000 -0.0000
 -0.0000  0.0000 -0.0001
  0.1367  0.2283 -0.0270
 -0.2800  0.5116 -0.0733
  0.2958  0.5480 -0.0650
 -0.1348  0.2215 -0.0318
 generating redundant internal coords
         300        3600          54
 Adding extra bonds for z output only
           6           6           6           7           6           8
           6           6           6           6           6           6
           6           6           6           8           7           6
           6           6           6           8           6           6
           6           6           6           6           6           6
           6           8           6           6           6           6
           1           1           1           1           1           1
           1           1           1           1           1           1
           1           1           1           1           1           1
 search for int coords
   1 str   2   1   1.456
   2 str   3   2   1.199
   3 str   4   3   1.362
   4 str   5   4   1.426
   5 str   6   5   1.209
   6 str   7   5   1.480
   7 str   8   7   1.382
   8 str   9   8   1.396
   9 str  10   9   1.393
  10 str  11  10   1.469
  11 str  12  11   1.394
  12 str  13  12   1.397
  13 str  14  13   1.381
  14 str  15  14   1.486
  15 str  16  15   1.218
  16 str  17  15   1.401
  17 str  18  17   1.498
  18 str  19  18   1.532
  19 str  20  18   1.532
  20 str  21  17   1.408
  21 str  22  21   1.218
  22 str  23  21   1.485
  23 str  24  23   1.382
  24 str  25  24   1.397
  25 str  26  25   1.394
  26 str  27  26   1.469
  27 str  28  27   1.393
  28 str  29  28   1.396
  29 str  30  29   1.382
  30 str  31   4   1.426
  31 str  31  30   1.480
  32 str  32  31   1.209
  33 str  33   7   1.415
  34 str  33  30   1.415
  35 str  34  10   1.430
  36 str  34  27   1.430
  37 str  34  33   1.429
  38 str  35  11   1.428
  39 str  35  26   1.428
  40 str  36  14   1.412
  41 str  36  23   1.412
  42 str  36  35   1.427
  43 str  37   1   1.094
  44 str  38   1   1.094
  45 str  39   1   1.094
  46 str  40   8   1.083
  47 str  41   9   1.081
  48 str  42  12   1.081
  49 str  43  13   1.083
  50 str  44  18   1.088
  51 str  45  19   1.089
  52 str  46  19   1.093
  53 str  47  19   1.093
  54 str  48  20   1.089
  55 str  49  20   1.093
  56 str  50  20   1.093
  57 str  51  24   1.083
  58 str  52  25   1.081
  59 str  53  28   1.081
  60 str  54  29   1.083
 nber stretches=          60
  61 lin ben   1   2   3
  63 ben   2   1  37
  64 ben   2   1  38
  65 ben   2   1  39
 Extend lin bond           1           1           2           4
  66 lin ben   2   3   4
  68 ben   3   4   5
  69 prop tor   3   4   5   6
  70 prop tor   3   4   5   7
  71 ben   3   4  31
  72 prop tor   3   4  31  30
  73 prop tor   3   4  31  32
  74 ben   4   5   6
  75 ben   4   5   7
  76 prop tor   4   5   7   8
  77 prop tor   4   5   7  33
  78 ben   4  31  30
  79 ben   4  31  32
  80 ben   5   4  31
  81 prop tor   5   4  31  30
  82 prop tor   5   4  31  32
  83 ben   5   7   8
  84 prop tor   5   7   8   9
  85 prop tor   5   7   8  40
  86 ben   5   7  33
  87 prop tor   5   7  33  30
  88 prop tor   5   7  33  34
  89 ben   6   5   7
  90 prop tor   6   5   7   8
  91 prop tor   6   5   7  33
  92 ben   7   8   9
  93 prop tor   7   8   9  10
  94 prop tor   7   8   9  41
  95 ben   7   8  40
  96 ben   7  33  30
  97 ben   7  33  34
  98 prop tor   7  33  34  10
  99 prop tor   7  33  34  27
 100 ben   8   7  33
 101 prop tor   8   7  33  30
 102 prop tor   8   7  33  34
 103 ben   8   9  10
 104 prop tor   8   9  10  11
 105 prop tor   8   9  10  34
 106 ben   8   9  41
 107 ben   9   8  40
 108 ben   9  10  11
 109 prop tor   9  10  11  12
 110 prop tor   9  10  11  35
 111 ben   9  10  34
 112 prop tor   9  10  34  27
 113 prop tor   9  10  34  33
 114 ben  10   9  41
 115 ben  10  11  12
 116 prop tor  10  11  12  13
 117 prop tor  10  11  12  42
 118 ben  10  11  35
 119 prop tor  10  11  35  26
 120 prop tor  10  11  35  36
 121 ben  10  34  27
 122 ben  10  34  33
 123 ben  11  10  34
 124 prop tor  11  10  34  27
 125 prop tor  11  10  34  33
 126 ben  11  12  13
 127 prop tor  11  12  13  14
 128 prop tor  11  12  13  43
 129 ben  11  12  42
 130 ben  11  35  26
 131 ben  11  35  36
 132 prop tor  11  35  36  14
 133 prop tor  11  35  36  23
 134 ben  12  11  35
 135 prop tor  12  11  35  26
 136 prop tor  12  11  35  36
 137 ben  12  13  14
 138 prop tor  12  13  14  15
 139 prop tor  12  13  14  36
 140 ben  12  13  43
 141 ben  13  12  42
 142 ben  13  14  15
 143 prop tor  13  14  15  16
 144 prop tor  13  14  15  17
 145 ben  13  14  36
 146 prop tor  13  14  36  23
 147 prop tor  13  14  36  35
 148 ben  14  13  43
 149 ben  14  15  16
 150 ben  14  15  17
 151 prop tor  14  15  17  18
 152 prop tor  14  15  17  21
 153 ben  14  36  23
 154 ben  14  36  35
 155 ben  15  14  36
 156 prop tor  15  14  36  23
 157 prop tor  15  14  36  35
 158 ben  15  17  18
 159 prop tor  15  17  18  19
 160 prop tor  15  17  18  20
 161 prop tor  15  17  18  44
 162 ben  15  17  21
 163 prop tor  15  17  21  22
 164 prop tor  15  17  21  23
 165 ben  16  15  17
 166 prop tor  16  15  17  18
 167 prop tor  16  15  17  21
 168 ben  17  18  19
 169 prop tor  17  18  19  45
 170 prop tor  17  18  19  46
 171 prop tor  17  18  19  47
 172 ben  17  18  20
 173 prop tor  17  18  20  48
 174 prop tor  17  18  20  49
 175 prop tor  17  18  20  50
 176 ben  17  18  44
 177 ben  17  21  22
 178 ben  17  21  23
 179 prop tor  17  21  23  24
 180 prop tor  17  21  23  36
 181 ben  18  17  21
 182 prop tor  18  17  21  22
 183 prop tor  18  17  21  23
 184 ben  18  19  45
 185 ben  18  19  46
 186 ben  18  19  47
 187 ben  18  20  48
 188 ben  18  20  49
 189 ben  18  20  50
 190 ben  19  18  20
 191 prop tor  19  18  20  48
 192 prop tor  19  18  20  49
 193 prop tor  19  18  20  50
 194 ben  19  18  44
 195 prop tor  20  18  19  45
 196 prop tor  20  18  19  46
 197 prop tor  20  18  19  47
 198 ben  20  18  44
 199 prop tor  21  17  18  19
 200 prop tor  21  17  18  20
 201 prop tor  21  17  18  44
 202 ben  21  23  24
 203 prop tor  21  23  24  25
 204 prop tor  21  23  24  51
 205 ben  21  23  36
 206 prop tor  21  23  36  14
 207 prop tor  21  23  36  35
 208 ben  22  21  23
 209 prop tor  22  21  23  24
 210 prop tor  22  21  23  36
 211 ben  23  24  25
 212 prop tor  23  24  25  26
 213 prop tor  23  24  25  52
 214 ben  23  24  51
 215 ben  23  36  35
 216 ben  24  23  36
 217 prop tor  24  23  36  14
 218 prop tor  24  23  36  35
 219 ben  24  25  26
 220 prop tor  24  25  26  27
 221 prop tor  24  25  26  35
 222 ben  24  25  52
 223 ben  25  24  51
 224 ben  25  26  27
 225 prop tor  25  26  27  28
 226 prop tor  25  26  27  34
 227 ben  25  26  35
 228 prop tor  25  26  35  11
 229 prop tor  25  26  35  36
 230 ben  26  25  52
 231 ben  26  27  28
 232 prop tor  26  27  28  29
 233 prop tor  26  27  28  53
 234 ben  26  27  34
 235 prop tor  26  27  34  10
 236 prop tor  26  27  34  33
 237 ben  26  35  36
 238 prop tor  26  35  36  14
 239 prop tor  26  35  36  23
 240 ben  27  26  35
 241 prop tor  27  26  35  11
 242 prop tor  27  26  35  36
 243 ben  27  28  29
 244 prop tor  27  28  29  30
 245 prop tor  27  28  29  54
 246 ben  27  28  53
 247 ben  27  34  33
 248 ben  28  27  34
 249 prop tor  28  27  34  10
 250 prop tor  28  27  34  33
 251 ben  28  29  30
 252 prop tor  28  29  30  31
 253 prop tor  28  29  30  33
 254 ben  28  29  54
 255 ben  29  28  53
 256 ben  29  30  31
 257 prop tor  29  30  31   4
 258 prop tor  29  30  31  32
 259 ben  29  30  33
 260 prop tor  29  30  33   7
 261 prop tor  29  30  33  34
 262 ben  30  29  54
 263 ben  30  31  32
 264 ben  30  33  34
 265 prop tor  30  33  34  10
 266 prop tor  30  33  34  27
 267 prop tor  31   4   5   6
 268 prop tor  31   4   5   7
 269 ben  31  30  33
 270 prop tor  31  30  33   7
 271 prop tor  31  30  33  34
 272 prop tor  33   7   8   9
 273 prop tor  33   7   8  40
 274 prop tor  33  30  31   4
 275 prop tor  33  30  31  32
 276 prop tor  34  10  11  12
 277 prop tor  34  10  11  35
 278 prop tor  34  27  28  29
 279 prop tor  34  27  28  53
 280 prop tor  35  11  12  13
 281 prop tor  35  11  12  42
 282 prop tor  35  26  27  28
 283 prop tor  35  26  27  34
 284 prop tor  36  14  15  16
 285 prop tor  36  14  15  17
 286 prop tor  36  23  24  25
 287 prop tor  36  23  24  51
 288 prop tor  37   1   2   3
 289 ben  37   1  38
 290 ben  37   1  39
 291 prop tor  38   1   2   3
 292 ben  38   1  39
 293 prop tor  39   1   2   3
 294 prop tor  40   8   9  10
 295 prop tor  40   8   9  41
 296 prop tor  41   9  10  11
 297 prop tor  41   9  10  34
 298 prop tor  42  12  13  14
 299 prop tor  42  12  13  43
 300 prop tor  43  13  14  15
 301 prop tor  43  13  14  36
 302 prop tor  44  18  19  45
 303 prop tor  44  18  19  46
 304 prop tor  44  18  19  47
 305 prop tor  44  18  20  48
 306 prop tor  44  18  20  49
 307 prop tor  44  18  20  50
 308 ben  45  19  46
 309 ben  45  19  47
 310 ben  46  19  47
 311 ben  48  20  49
 312 ben  48  20  50
 313 ben  49  20  50
 314 prop tor  51  24  25  26
 315 prop tor  51  24  25  52
 316 prop tor  52  25  26  27
 317 prop tor  52  25  26  35
 318 prop tor  53  28  29  30
 319 prop tor  53  28  29  54
 320 prop tor  54  29  30  31
 321 prop tor  54  29  30  33
 322 lin bend prop tor   2   1   4   3
 323 lin bend prop tor   2   1   4   5
 324 lin bend prop tor   2   1   4  31
 325 lin bend prop tor  37   1   4   3
 326 lin bend prop tor  37   1   4   5
 327 lin bend prop tor  37   1   4  31
 328 lin bend prop tor  38   1   4   3
 329 lin bend prop tor  38   1   4   5
 330 lin bend prop tor  38   1   4  31
 331 lin bend prop tor  39   1   4   3
 332 lin bend prop tor  39   1   4   5
 333 lin bend prop tor  39   1   4  31
 nber bend=             106
 nber lin bend=           1
 nber prop tor=         167
 nber impr tor=           0
 nber tot redund int=         333
 Reading file: 
 ./PDI_4_C0S1.log                                                               
                                          
  Entering Gaussian System, Link 0=g16                                          
  
 Gaussian format, type: g94, g98, g03= F F F
  #P Geom=AllCheck Guess=TCheck SCRF=Check GenChk RB3LYP TD(FC,Read)/6-3    
 energy type= TD      
 Original G94 input coords:
  6  1.128543  0.007095 -0.096629
  6  2.583564  0.025405 -0.066117
  6  3.782973  0.036315 -0.043684
  7  5.144659  0.045736 -0.016529
  6  5.807363 -1.204084  0.158940
  8  5.171521 -2.229881  0.277399
  6  7.279296 -1.154477  0.184642
  6  7.984222 -2.352653  0.355588
  6  9.362825 -2.355702  0.386183
  6 10.114028 -1.156444  0.246835
  6 11.554592 -1.147430  0.277616
  6 12.318468 -2.335122  0.449849
  6 13.697949 -2.311870  0.477478
  6 14.390252 -1.103272  0.334746
  6 15.868758 -1.114791  0.369451
  8 16.489218 -2.157048  0.520041
  7 16.525043  0.113150  0.223386
  6 18.022427  0.150370  0.252656
  6 18.573077 -0.284442  1.614702
  6 18.631193 -0.616511 -0.925792
  6 15.859619  1.340928  0.047287
  8 16.473747  2.389321 -0.076698
  6 14.382639  1.311261  0.018384
  6 13.681676  2.511208 -0.154206
  6 12.302050  2.517416 -0.185188
  6 11.545979  1.320721 -0.045035
  6 10.105391  1.311832 -0.075011
  6  9.345431  2.501094 -0.246234
  6  7.966785  2.480490 -0.273270
  6  7.270401  1.273617 -0.131218
  6  5.798296  1.304113 -0.166849
  8  5.154515  2.321154 -0.313489
  6  7.981247  0.064246  0.041493
  6  9.410236  0.073301  0.071312
  6 12.247244  0.091069  0.131047
  6 13.674733  0.099788  0.161418
  1  0.760536 -1.015816 -0.216384
  1  0.746359  0.602062 -0.931062
  1  0.705499  0.411226  0.827678
  1  7.418072 -3.268979  0.462149
  1  9.872598 -3.299123  0.519752
  1 11.817970 -3.286220  0.563218
  1 14.273089 -3.219250  0.609010
  1 18.244149  1.206912  0.119629
  1 18.396352 -1.342833  1.801752
  1 18.119444  0.299647  2.419605
  1 19.650770 -0.101029  1.636906
  1 18.457203 -1.688501 -0.842222
  1 19.709799 -0.438321 -0.946068
  1 18.217422 -0.261715 -1.873274
  1 14.249835  3.426089 -0.261582
  1 11.795322  3.462410 -0.320030
  1  9.848216  3.450999 -0.358903
  1  7.394185  3.389679 -0.403895
 nber atoms=          54
  Total Energy, E(TD-HF/TD-DFT) =  -1564.79306861                               
  
          32          49 "  -1564.79306861"
After scan for Atom:   Atom  AN      X      Y      Z        X      Y      Z        X      Y      Z   
After scan for Atom:   Atom  AN      X      Y      Z        X      Y      Z        X      Y      Z   
After scan for Atom:   Atom  AN      X      Y      Z        X      Y      Z        X      Y      Z   
After scan for Atom:   Atom  AN      X      Y      Z        X      Y      Z        X      Y      Z   
After scan for Atom:   Atom  AN      X      Y      Z        X      Y      Z        X      Y      Z   
After scan for Atom:   Atom  AN      X      Y      Z        X      Y      Z        X      Y      Z   
After scan for Atom:   Atom  AN      X      Y      Z        X      Y      Z        X      Y      Z   
After scan for Atom:   Atom  AN      X      Y      Z        X      Y      Z        X      Y      Z   
After scan for Atom:   Atom  AN      X      Y      Z        X      Y      Z        X      Y      Z   
After scan for Atom:   Atom  AN      X      Y      Z        X      Y      Z        X      Y      Z   
After scan for Atom:   Atom  AN      X      Y      Z        X      Y      Z        X      Y      Z   
After scan for Atom:   Atom  AN      X      Y      Z        X      Y      Z        X      Y      Z   
After scan for Atom:   Atom  AN      X      Y      Z        X      Y      Z        X      Y      Z   
After scan for Atom:   Atom  AN      X      Y      Z        X      Y      Z        X      Y      Z   
After scan for Atom:   Atom  AN      X      Y      Z        X      Y      Z        X      Y      Z   
After scan for Atom:   Atom  AN      X      Y      Z        X      Y      Z        X      Y      Z   
After scan for Atom:   Atom  AN      X      Y      Z        X      Y      Z        X      Y      Z   
After scan for Atom:   Atom  AN      X      Y      Z        X      Y      Z        X      Y      Z   
After scan for Atom:   Atom  AN      X      Y      Z        X      Y      Z        X      Y      Z   
After scan for Atom:   Atom  AN      X      Y      Z        X      Y      Z        X      Y      Z   
After scan for Atom:   Atom  AN      X      Y      Z        X      Y      Z        X      Y      Z   
After scan for Atom:   Atom  AN      X      Y      Z        X      Y      Z        X      Y      Z   
After scan for Atom:   Atom  AN      X      Y      Z        X      Y      Z        X      Y      Z   
After scan for Atom:   Atom  AN      X      Y      Z        X      Y      Z        X      Y      Z   
After scan for Atom:   Atom  AN      X      Y      Z        X      Y      Z        X      Y      Z   
After scan for Atom:   Atom  AN      X      Y      Z        X      Y      Z        X      Y      Z   
After scan for Atom:   Atom  AN      X      Y      Z        X      Y      Z        X      Y      Z   
After scan for Atom:   Atom  AN      X      Y      Z        X      Y      Z        X      Y      Z   
After scan for Atom:   Atom  AN      X      Y      Z        X      Y      Z        X      Y      Z   
After scan for Atom:   Atom  AN      X      Y      Z        X      Y      Z        X      Y      Z   
After scan for Atom:   Atom  AN      X      Y      Z        X      Y      Z        X      Y      Z   
After scan for Atom:   Atom  AN      X      Y      Z        X      Y      Z        X      Y      Z   
After scan for Atom:   Atom  AN      X      Y      Z        X      Y      Z        X      Y      Z   
After scan for Atom:   Atom  AN      X      Y      Z        X      Y      Z        X      Y      Z   
After scan for Atom:   Atom  AN      X      Y      Z        X      Y      Z        X      Y      Z   
After scan for Atom:   Atom  AN      X      Y      Z        X      Y      Z        X      Y      Z   
After scan for Atom:   Atom  AN      X      Y      Z        X      Y      Z        X      Y      Z   
After scan for Atom:   Atom  AN      X      Y      Z        X      Y      Z        X      Y      Z   
After scan for Atom:   Atom  AN      X      Y      Z        X      Y      Z        X      Y      Z   
After scan for Atom:   Atom  AN      X      Y      Z        X      Y      Z        X      Y      Z   
After scan for Atom:   Atom  AN      X      Y      Z        X      Y      Z        X      Y      Z   
After scan for Atom:   Atom  AN      X      Y      Z        X      Y      Z        X      Y      Z   
After scan for Atom:   Atom  AN      X      Y      Z        X      Y      Z        X      Y      Z   
After scan for Atom:   Atom  AN      X      Y      Z        X      Y      Z        X      Y      Z   
After scan for Atom:   Atom  AN      X      Y      Z        X      Y      Z        X      Y      Z   
After scan for Atom:   Atom  AN      X      Y      Z        X      Y      Z        X      Y      Z   
After scan for Atom:   Atom  AN      X      Y      Z        X      Y      Z        X      Y      Z   
After scan for Atom:   Atom  AN      X      Y      Z        X      Y      Z        X      Y      Z   
After scan for Atom:   Atom  AN      X      Y      Z        X      Y      Z        X      Y      Z   
After scan for Atom:   Atom  AN      X      Y      Z        X      Y      Z        X      Y      Z   
After scan for Atom:   Atom  AN      X      Y      Z        X      Y      Z        X      Y      Z   
After scan for Atom:   Atom  AN      X      Y      Z        X      Y      Z        X      Y      Z   
 g94    frequencies=
     0.0    0.0    0.0    0.0    0.0    0.0    8.3   18.8   28.7   37.5
    52.4   55.1   62.6   76.3   89.3  100.7  109.7  136.9  167.8  180.9
   183.1  191.8  200.5  210.4  234.2  235.5  256.2  269.5  278.0  280.4
   298.5  301.8  326.2  337.0  351.3  382.3  392.2  417.1  429.2  432.8
   438.4  443.3  448.0  467.8  470.0  477.9  484.9  500.8  504.6  505.7
   524.6  549.7  572.3  574.0  580.6  604.3  615.8  634.4  651.7  675.2
   702.5  703.0  714.6  722.9  747.5  757.0  757.4  763.8  793.4  806.8
   808.6  812.5  813.8  826.1  826.9  831.6  850.0  901.3  919.7  925.9
   945.3  956.7  973.7  974.5  976.3  987.7  988.4 1052.6 1053.7 1061.5
  1076.4 1092.6 1121.3 1136.9 1141.0 1155.5 1162.0 1169.2 1185.7 1192.4
  1197.5 1224.1 1230.3 1235.7 1243.8 1273.8 1301.4 1317.4 1322.2 1350.0
  1362.7 1365.4 1378.5 1382.0 1391.6 1400.2 1401.9 1416.3 1419.6 1430.2
  1439.0 1443.5 1459.8 1462.5 1475.6 1480.7 1485.0 1491.7 1497.6 1505.1
  1509.0 1522.4 1546.3 1554.5 1558.0 1576.8 1597.2 1599.0 1621.9 1685.6
  1722.9 1725.3 1755.6 2386.2 3023.2 3034.3 3038.3 3079.6 3084.9 3092.3
  3095.5 3112.4 3132.3 3142.7 3198.3 3198.6 3204.9 3205.1 3213.0 3213.1
  3224.4 3224.8
 g94    symmetries=
                                                 A      A      A      A
       A      A      A      A      A      A      A      A      A      A
       A      A      A      A      A      A      A      A      A      A
       A      A      A      A      A      A      A      A      A      A
       A      A      A      A      A      A      A      A      A      A
       A      A      A      A      A      A      A      A      A      A
       A      A      A      A      A      A      A      A      A      A
       A      A      A      A      A      A      A      A      A      A
       A      A      A      A      A      A      A      A      A      A
       A      A      A      A      A      A      A      A      A      A
       A      A      A      A      A      A      A      A      A      A
       A      A      A      A      A      A      A      A      A      A
       A      A      A      A      A      A      A      A      A      A
       A      A      A      A      A      A      A      A      A      A
       A      A      A      A      A      A      A      A      A      A
       A      A      A      A      A      A      A      A      A      A
       A      A
 atomic masses:
 12.0000 12.0000 12.0000 14.0031 12.0000 15.9949 12.0000 12.0000 12.0000 12.0000
 12.0000 12.0000 12.0000 12.0000 12.0000 15.9949 14.0031 12.0000 12.0000 12.0000
 12.0000 15.9949 12.0000 12.0000 12.0000 12.0000 12.0000 12.0000 12.0000 12.0000
 12.0000 15.9949 12.0000 12.0000 12.0000 12.0000  1.0078  1.0078  1.0078  1.0078
  1.0078  1.0078  1.0078  1.0078  1.0078  1.0078  1.0078  1.0078  1.0078  1.0078
  1.0078  1.0078  1.0078  1.0078
 looking for force constants in 
 ./PDI_4_C0S1.fchk                                                              
  
 Cartesian Force Constants                  R   N=       13203                  
  
 n3=         162       13203
 g94-fc frequencies=
    -1.7   -0.1   -0.0    0.0    0.0    3.6    8.3   18.9   28.7   37.5
    52.4   55.1   62.6   76.3   89.3  100.7  109.7  137.0  167.8  180.9
   183.1  191.8  200.5  210.4  234.2  235.5  256.2  269.5  278.0  280.4
   298.5  301.8  326.2  337.0  351.3  382.3  392.2  417.1  429.2  432.9
   438.5  443.3  448.1  467.8  470.0  477.9  484.9  500.8  504.6  505.7
   524.6  549.7  572.3  574.0  580.6  604.3  615.8  634.4  651.7  675.2
   702.6  703.0  714.7  722.9  747.6  757.0  757.5  763.8  793.4  806.8
   808.6  812.5  813.8  826.1  826.9  831.6  850.0  901.3  919.7  925.9
   945.4  956.7  973.7  974.6  976.3  987.7  988.4 1052.6 1053.7 1061.5
  1076.4 1092.7 1121.4 1136.9 1141.0 1155.5 1162.1 1169.3 1185.8 1192.4
  1197.5 1224.1 1230.4 1235.7 1243.8 1273.8 1301.4 1317.5 1322.3 1350.0
  1362.7 1365.4 1378.5 1382.1 1391.6 1400.3 1401.9 1416.3 1419.6 1430.3
  1439.1 1443.5 1459.8 1462.6 1475.7 1480.7 1485.0 1491.7 1497.6 1505.2
  1509.1 1522.4 1546.4 1554.5 1558.0 1576.8 1597.2 1599.0 1621.9 1685.7
  1722.9 1725.3 1755.7 2386.2 3023.3 3034.3 3038.4 3079.6 3085.0 3092.3
  3095.5 3112.5 3132.4 3142.8 3198.3 3198.7 3205.0 3205.2 3213.1 3213.1
  3224.5 3224.8
 at 99999: n3=         162
 symm operator            1 :  F  nop=           0
 symm operator            2 :  F  nop=           0
 symm operator            3 :  F  nop=           0
 symm operator            4 :  F  nop=           0
 symm operator            5 :  F  nop=           0
 symm operator            6 :  F  nop=           0
 symm operator            7 :  F  nop=           0
 The point group of the molecule is  C1
 Symmetry rotation matrix:
   1.00000   0.00000   0.00000
   0.00000   1.00000   0.00000
   0.00000   0.00000   1.00000

 Projecting out zero-frequency components
 generating redundant internal coords
         300        3600          54
 search for int coords
   1 str   2   1   1.455
   2 str   3   2   1.200
   3 str   4   3   1.362
   4 str   5   4   1.425
   5 str   6   5   1.213
   6 str   7   5   1.473
   7 str   8   7   1.401
   8 str   9   8   1.379
   9 str  10   9   1.422
  10 str  11  10   1.441
  11 str  12  11   1.423
  12 str  13  12   1.380
  13 str  14  13   1.400
  14 str  15  14   1.479
  15 str  16  15   1.222
  16 str  17  15   1.400
  17 str  18  17   1.498
  18 str  19  18   1.532
  19 str  20  18   1.532
  20 str  21  17   1.408
  21 str  22  21   1.221
  22 str  23  21   1.478
  23 str  24  23   1.400
  24 str  25  24   1.380
  25 str  26  25   1.422
  26 str  27  26   1.441
  27 str  28  27   1.422
  28 str  29  28   1.379
  29 str  30  29   1.401
  30 str  31   4   1.426
  31 str  31  30   1.473
  32 str  32  31   1.213
  33 str  33   7   1.414
  34 str  33  30   1.413
  35 str  34  10   1.428
  36 str  34  27   1.428
  37 str  34  33   1.429
  38 str  35  11   1.427
  39 str  35  26   1.426
  40 str  36  14   1.410
  41 str  36  23   1.410
  42 str  36  35   1.428
  43 str  37   1   1.094
  44 str  38   1   1.094
  45 str  39   1   1.094
  46 str  40   8   1.082
  47 str  41   9   1.081
  48 str  42  12   1.081
  49 str  43  13   1.082
  50 str  44  18   1.088
  51 str  45  19   1.089
  52 str  46  19   1.093
  53 str  47  19   1.093
  54 str  48  20   1.089
  55 str  49  20   1.093
  56 str  50  20   1.093
  57 str  51  24   1.082
  58 str  52  25   1.081
  59 str  53  28   1.081
  60 str  54  29   1.082
 nber stretches=          60
  61 lin ben   1   2   3
  63 ben   2   1  37
  64 ben   2   1  38
  65 ben   2   1  39
 Extend lin bond           1           1           2           4
  66 lin ben   2   3   4
  68 ben   3   4   5
  69 prop tor   3   4   5   6
  70 prop tor   3   4   5   7
  71 ben   3   4  31
  72 prop tor   3   4  31  30
  73 prop tor   3   4  31  32
  74 ben   4   5   6
  75 ben   4   5   7
  76 prop tor   4   5   7   8
  77 prop tor   4   5   7  33
  78 ben   4  31  30
  79 ben   4  31  32
  80 ben   5   4  31
  81 prop tor   5   4  31  30
  82 prop tor   5   4  31  32
  83 ben   5   7   8
  84 prop tor   5   7   8   9
  85 prop tor   5   7   8  40
  86 ben   5   7  33
  87 prop tor   5   7  33  30
  88 prop tor   5   7  33  34
  89 ben   6   5   7
  90 prop tor   6   5   7   8
  91 prop tor   6   5   7  33
  92 ben   7   8   9
  93 prop tor   7   8   9  10
  94 prop tor   7   8   9  41
  95 ben   7   8  40
  96 ben   7  33  30
  97 ben   7  33  34
  98 prop tor   7  33  34  10
  99 prop tor   7  33  34  27
 100 ben   8   7  33
 101 prop tor   8   7  33  30
 102 prop tor   8   7  33  34
 103 ben   8   9  10
 104 prop tor   8   9  10  11
 105 prop tor   8   9  10  34
 106 ben   8   9  41
 107 ben   9   8  40
 108 ben   9  10  11
 109 prop tor   9  10  11  12
 110 prop tor   9  10  11  35
 111 ben   9  10  34
 112 prop tor   9  10  34  27
 113 prop tor   9  10  34  33
 114 ben  10   9  41
 115 ben  10  11  12
 116 prop tor  10  11  12  13
 117 prop tor  10  11  12  42
 118 ben  10  11  35
 119 prop tor  10  11  35  26
 120 prop tor  10  11  35  36
 121 ben  10  34  27
 122 ben  10  34  33
 123 ben  11  10  34
 124 prop tor  11  10  34  27
 125 prop tor  11  10  34  33
 126 ben  11  12  13
 127 prop tor  11  12  13  14
 128 prop tor  11  12  13  43
 129 ben  11  12  42
 130 ben  11  35  26
 131 ben  11  35  36
 132 prop tor  11  35  36  14
 133 prop tor  11  35  36  23
 134 ben  12  11  35
 135 prop tor  12  11  35  26
 136 prop tor  12  11  35  36
 137 ben  12  13  14
 138 prop tor  12  13  14  15
 139 prop tor  12  13  14  36
 140 ben  12  13  43
 141 ben  13  12  42
 142 ben  13  14  15
 143 prop tor  13  14  15  16
 144 prop tor  13  14  15  17
 145 ben  13  14  36
 146 prop tor  13  14  36  23
 147 prop tor  13  14  36  35
 148 ben  14  13  43
 149 ben  14  15  16
 150 ben  14  15  17
 151 prop tor  14  15  17  18
 152 prop tor  14  15  17  21
 153 ben  14  36  23
 154 ben  14  36  35
 155 ben  15  14  36
 156 prop tor  15  14  36  23
 157 prop tor  15  14  36  35
 158 ben  15  17  18
 159 prop tor  15  17  18  19
 160 prop tor  15  17  18  20
 161 prop tor  15  17  18  44
 162 ben  15  17  21
 163 prop tor  15  17  21  22
 164 prop tor  15  17  21  23
 165 ben  16  15  17
 166 prop tor  16  15  17  18
 167 prop tor  16  15  17  21
 168 ben  17  18  19
 169 prop tor  17  18  19  45
 170 prop tor  17  18  19  46
 171 prop tor  17  18  19  47
 172 ben  17  18  20
 173 prop tor  17  18  20  48
 174 prop tor  17  18  20  49
 175 prop tor  17  18  20  50
 176 ben  17  18  44
 177 ben  17  21  22
 178 ben  17  21  23
 179 prop tor  17  21  23  24
 180 prop tor  17  21  23  36
 181 ben  18  17  21
 182 prop tor  18  17  21  22
 183 prop tor  18  17  21  23
 184 ben  18  19  45
 185 ben  18  19  46
 186 ben  18  19  47
 187 ben  18  20  48
 188 ben  18  20  49
 189 ben  18  20  50
 190 ben  19  18  20
 191 prop tor  19  18  20  48
 192 prop tor  19  18  20  49
 193 prop tor  19  18  20  50
 194 ben  19  18  44
 195 prop tor  20  18  19  45
 196 prop tor  20  18  19  46
 197 prop tor  20  18  19  47
 198 ben  20  18  44
 199 prop tor  21  17  18  19
 200 prop tor  21  17  18  20
 201 prop tor  21  17  18  44
 202 ben  21  23  24
 203 prop tor  21  23  24  25
 204 prop tor  21  23  24  51
 205 ben  21  23  36
 206 prop tor  21  23  36  14
 207 prop tor  21  23  36  35
 208 ben  22  21  23
 209 prop tor  22  21  23  24
 210 prop tor  22  21  23  36
 211 ben  23  24  25
 212 prop tor  23  24  25  26
 213 prop tor  23  24  25  52
 214 ben  23  24  51
 215 ben  23  36  35
 216 ben  24  23  36
 217 prop tor  24  23  36  14
 218 prop tor  24  23  36  35
 219 ben  24  25  26
 220 prop tor  24  25  26  27
 221 prop tor  24  25  26  35
 222 ben  24  25  52
 223 ben  25  24  51
 224 ben  25  26  27
 225 prop tor  25  26  27  28
 226 prop tor  25  26  27  34
 227 ben  25  26  35
 228 prop tor  25  26  35  11
 229 prop tor  25  26  35  36
 230 ben  26  25  52
 231 ben  26  27  28
 232 prop tor  26  27  28  29
 233 prop tor  26  27  28  53
 234 ben  26  27  34
 235 prop tor  26  27  34  10
 236 prop tor  26  27  34  33
 237 ben  26  35  36
 238 prop tor  26  35  36  14
 239 prop tor  26  35  36  23
 240 ben  27  26  35
 241 prop tor  27  26  35  11
 242 prop tor  27  26  35  36
 243 ben  27  28  29
 244 prop tor  27  28  29  30
 245 prop tor  27  28  29  54
 246 ben  27  28  53
 247 ben  27  34  33
 248 ben  28  27  34
 249 prop tor  28  27  34  10
 250 prop tor  28  27  34  33
 251 ben  28  29  30
 252 prop tor  28  29  30  31
 253 prop tor  28  29  30  33
 254 ben  28  29  54
 255 ben  29  28  53
 256 ben  29  30  31
 257 prop tor  29  30  31   4
 258 prop tor  29  30  31  32
 259 ben  29  30  33
 260 prop tor  29  30  33   7
 261 prop tor  29  30  33  34
 262 ben  30  29  54
 263 ben  30  31  32
 264 ben  30  33  34
 265 prop tor  30  33  34  10
 266 prop tor  30  33  34  27
 267 prop tor  31   4   5   6
 268 prop tor  31   4   5   7
 269 ben  31  30  33
 270 prop tor  31  30  33   7
 271 prop tor  31  30  33  34
 272 prop tor  33   7   8   9
 273 prop tor  33   7   8  40
 274 prop tor  33  30  31   4
 275 prop tor  33  30  31  32
 276 prop tor  34  10  11  12
 277 prop tor  34  10  11  35
 278 prop tor  34  27  28  29
 279 prop tor  34  27  28  53
 280 prop tor  35  11  12  13
 281 prop tor  35  11  12  42
 282 prop tor  35  26  27  28
 283 prop tor  35  26  27  34
 284 prop tor  36  14  15  16
 285 prop tor  36  14  15  17
 286 prop tor  36  23  24  25
 287 prop tor  36  23  24  51
 288 prop tor  37   1   2   3
 289 ben  37   1  38
 290 ben  37   1  39
 291 prop tor  38   1   2   3
 292 ben  38   1  39
 293 prop tor  39   1   2   3
 294 prop tor  40   8   9  10
 295 prop tor  40   8   9  41
 296 prop tor  41   9  10  11
 297 prop tor  41   9  10  34
 298 prop tor  42  12  13  14
 299 prop tor  42  12  13  43
 300 prop tor  43  13  14  15
 301 prop tor  43  13  14  36
 302 prop tor  44  18  19  45
 303 prop tor  44  18  19  46
 304 prop tor  44  18  19  47
 305 prop tor  44  18  20  48
 306 prop tor  44  18  20  49
 307 prop tor  44  18  20  50
 308 ben  45  19  46
 309 ben  45  19  47
 310 ben  46  19  47
 311 ben  48  20  49
 312 ben  48  20  50
 313 ben  49  20  50
 314 prop tor  51  24  25  26
 315 prop tor  51  24  25  52
 316 prop tor  52  25  26  27
 317 prop tor  52  25  26  35
 318 prop tor  53  28  29  30
 319 prop tor  53  28  29  54
 320 prop tor  54  29  30  31
 321 prop tor  54  29  30  33
 322 lin bend prop tor   2   1   4   3
 323 lin bend prop tor   2   1   4   5
 324 lin bend prop tor   2   1   4  31
 325 lin bend prop tor  37   1   4   3
 326 lin bend prop tor  37   1   4   5
 327 lin bend prop tor  37   1   4  31
 328 lin bend prop tor  38   1   4   3
 329 lin bend prop tor  38   1   4   5
 330 lin bend prop tor  38   1   4  31
 331 lin bend prop tor  39   1   4   3
 332 lin bend prop tor  39   1   4   5
 333 lin bend prop tor  39   1   4  31
 nber bend=             106
 nber lin bend=           1
 nber prop tor=         167
 nber impr tor=           0
 nber tot redund int=         333
 Eigenvalues of G in red int coords
    Gval -0.00000000 -0.00000000 -0.00000000 -0.00000000 -0.00000000 -0.00000000 -0.00000000 -0.00000000
    Gval -0.00000000 -0.00000000 -0.00000000 -0.00000000 -0.00000000 -0.00000000 -0.00000000 -0.00000000
    Gval -0.00000000 -0.00000000 -0.00000000 -0.00000000 -0.00000000 -0.00000000 -0.00000000 -0.00000000
    Gval -0.00000000 -0.00000000 -0.00000000 -0.00000000 -0.00000000 -0.00000000 -0.00000000 -0.00000000
    Gval -0.00000000 -0.00000000 -0.00000000 -0.00000000 -0.00000000 -0.00000000 -0.00000000 -0.00000000
    Gval -0.00000000 -0.00000000 -0.00000000 -0.00000000 -0.00000000 -0.00000000 -0.00000000 -0.00000000
    Gval -0.00000000 -0.00000000 -0.00000000 -0.00000000 -0.00000000 -0.00000000 -0.00000000 -0.00000000
    Gval -0.00000000 -0.00000000 -0.00000000 -0.00000000 -0.00000000 -0.00000000 -0.00000000 -0.00000000
    Gval -0.00000000 -0.00000000 -0.00000000 -0.00000000 -0.00000000 -0.00000000 -0.00000000 -0.00000000
    Gval -0.00000000 -0.00000000 -0.00000000 -0.00000000 -0.00000000 -0.00000000 -0.00000000 -0.00000000
    Gval -0.00000000 -0.00000000 -0.00000000 -0.00000000 -0.00000000 -0.00000000  0.00000000  0.00000000
    Gval  0.00000000  0.00000000  0.00000000  0.00000000  0.00000000  0.00000000  0.00000000  0.00000000
    Gval  0.00000000  0.00000000  0.00000000  0.00000000  0.00000000  0.00000000  0.00000000  0.00000000
    Gval  0.00000000  0.00000000  0.00000000  0.00000000  0.00000000  0.00000000  0.00000000  0.00000000
    Gval  0.00000000  0.00000000  0.00000000  0.00000000  0.00000000  0.00000000  0.00000000  0.00000000
    Gval  0.00000000  0.00000000  0.00000000  0.00000000  0.00000000  0.00000000  0.00000000  0.00000000
    Gval  0.00000000  0.00000000  0.00000000  0.00000000  0.00000000  0.00000000  0.00000000  0.00000000
    Gval  0.00000000  0.00000000  0.00000000  0.00000000  0.00000000  0.00000000  0.00000000  0.00000000
    Gval  0.00000000  0.00000000  0.00000000  0.00000000  0.00000000  0.00000000  0.00000000  0.00000000
    Gval  0.00000000  0.00000000  0.00000000  0.00000000  0.00000000  0.00000000  0.00000000  0.00000000
    Gval  0.00000000  0.00000000  0.00000000  0.00000000  0.00000000  0.00000000  0.00000000  0.00000000
    Gval  0.00000000  0.00000000  0.00000000  0.00000000  0.00000000  0.00000000  0.00000000  0.00000000
    Gval  0.00000000  0.00000085  0.00000200  0.00000243  0.00000291  0.00000614  0.00000696  0.00000875
    Gval  0.00000993  0.00001107  0.00001114  0.00001554  0.00001626  0.00001718  0.00001779  0.00001835
    Gval  0.00002051  0.00002155  0.00002372  0.00002398  0.00002542  0.00002981  0.00003451  0.00003579
    Gval  0.00003667  0.00003994  0.00004648  0.00004884  0.00005132  0.00005299  0.00005541  0.00005899
    Gval  0.00006233  0.00006751  0.00006847  0.00007170  0.00007405  0.00008137  0.00008245  0.00008503
    Gval  0.00008666  0.00009194  0.00009405  0.00009479  0.00009596  0.00011402  0.00012197  0.00012249
    Gval  0.00013452  0.00013648  0.00013747  0.00014062  0.00014981  0.00015609  0.00015948  0.00016847
    Gval  0.00016936  0.00018147  0.00020041  0.00022211  0.00022756  0.00023024  0.00024550  0.00027279
    Gval  0.00028477  0.00029033  0.00029860  0.00032562  0.00034169  0.00036044  0.00038133  0.00038954
    Gval  0.00039095  0.00039702  0.00040872  0.00041832  0.00042475  0.00043174  0.00043520  0.00044064
    Gval  0.00044200  0.00046210  0.00046630  0.00046889  0.00049509  0.00052749  0.00053435  0.00053716
    Gval  0.00053940  0.00054887  0.00055410  0.00055485  0.00055601  0.00055658  0.00055719  0.00058930
    Gval  0.00059849  0.00059923  0.00059956  0.00059984  0.00060219  0.00061245  0.00064074  0.00064422
    Gval  0.00064500  0.00064681  0.00066725  0.00068265  0.00069070  0.00069774  0.00075117  0.00080679
    Gval  0.00091204  0.00094109  0.00109330  0.00109422  0.00109492  0.00109541  0.00114299  0.00115059
    Gval  0.00116544  0.00116562  0.00116591  0.00116618  0.00117125  0.00117204  0.00118609  0.00119971
    Gval  0.00129535  0.00131647  0.00134202  0.00151387  0.00152217  0.00172359  0.00175768  0.00191420
    Gval  0.00228026  0.00234039  0.00252161  0.00252264  0.00255878  0.00278896  0.00292192  0.00302350
    Gval  0.00304206  0.00308127  0.00309622  0.00342747  0.00354797  0.00367472  0.00367656  0.00372144
    Gval  0.00372320  0.00394502  0.79435494 17.00874137 37.75368712
  8.471186650271756E-007  8.471186650271756E-007
  2.004139803110382E-006  8.471186650271756E-007
  2.428651562987870E-006  8.471186650271756E-007
  2.913794796004527E-006  8.471186650271756E-007
  6.141913062540187E-006  8.471186650271756E-007
  6.963369554739017E-006  8.471186650271756E-007
  8.754174653221743E-006  8.471186650271756E-007
  9.932311117999731E-006  8.471186650271756E-007
  1.106938636510796E-005  8.471186650271756E-007
  1.113596815273314E-005  8.471186650271756E-007
  1.553853529140081E-005  8.471186650271756E-007
  1.626214870979139E-005  8.471186650271756E-007
  1.718313997926333E-005  8.471186650271756E-007
  1.779439975654843E-005  8.471186650271756E-007
  1.834571875046170E-005  8.471186650271756E-007
  2.050949086443338E-005  8.471186650271756E-007
  2.155477352245699E-005  8.471186650271756E-007
  2.372191599135993E-005  8.471186650271756E-007
  2.397534693847724E-005  8.471186650271756E-007
  2.542288555579478E-005  8.471186650271756E-007
  2.980726952335330E-005  8.471186650271756E-007
  3.450545518401625E-005  8.471186650271756E-007
  3.579446793240718E-005  8.471186650271756E-007
  3.666503730799272E-005  8.471186650271756E-007
  3.994015714569368E-005  8.471186650271756E-007
  4.648486995428648E-005  8.471186650271756E-007
  4.883785009747374E-005  8.471186650271756E-007
  5.132130323674122E-005  8.471186650271756E-007
  5.299084540209891E-005  8.471186650271756E-007
  5.541374433665699E-005  8.471186650271756E-007
  5.898658613769302E-005  8.471186650271756E-007
  6.232822608013576E-005  8.471186650271756E-007
  6.751133305234145E-005  8.471186650271756E-007
  6.847139772082542E-005  8.471186650271756E-007
  7.170336466431071E-005  8.471186650271756E-007
  7.405144219944305E-005  8.471186650271756E-007
  8.136897330749012E-005  8.471186650271756E-007
  8.244614503153638E-005  8.471186650271756E-007
  8.502778515624330E-005  8.471186650271756E-007
  8.665879910897131E-005  8.471186650271756E-007
  9.193902742511101E-005  8.471186650271756E-007
  9.404901291889498E-005  8.471186650271756E-007
  9.479231207358362E-005  8.471186650271756E-007
  9.595950444862378E-005  8.471186650271756E-007
  1.140183965675961E-004  8.471186650271756E-007
  1.219723078828704E-004  8.471186650271756E-007
  1.224913698896474E-004  8.471186650271756E-007
  1.345225465626943E-004  8.471186650271756E-007
  1.364758498510644E-004  8.471186650271756E-007
  1.374730171492235E-004  8.471186650271756E-007
  1.406231584456586E-004  8.471186650271756E-007
  1.498138896755956E-004  8.471186650271756E-007
  1.560902090396161E-004  8.471186650271756E-007
  1.594790676829973E-004  8.471186650271756E-007
  1.684671494728385E-004  8.471186650271756E-007
  1.693599290939101E-004  8.471186650271756E-007
  1.814668571448744E-004  8.471186650271756E-007
  2.004141350475871E-004  8.471186650271756E-007
  2.221135641295235E-004  8.471186650271756E-007
  2.275562851762877E-004  8.471186650271756E-007
  2.302429038640417E-004  8.471186650271756E-007
[...]
 nber times 1st assigned=          83           0
 nber times 1st assigned=          84           0
 nber times 1st assigned=          85           0
 nber times 1st assigned=          86           0
 nber times 1st assigned=          87           0
 nber times 1st assigned=          88           0
 nber times 1st assigned=          89           0
 nber times 1st assigned=          90           0
 nber times 1st assigned=          91           0
 nber times 1st assigned=          92           0
 nber times 1st assigned=          93           0
 nber times 1st assigned=          94           0
 nber times 1st assigned=          95           0
 nber times 1st assigned=          96           0
 nber times 1st assigned=          97           0
 nber times 1st assigned=          98           0
 nber times 1st assigned=          99           0
 nber times 1st assigned=         100           0
 nber times 1st assigned=         101           0
 nber times 1st assigned=         102           0
 nber times 1st assigned=         103           0
 nber times 1st assigned=         104           0
 nber times 1st assigned=         105           0
 nber times 1st assigned=         106           0
 nber times 1st assigned=         107           0
 nber times 1st assigned=         108           0
 nber times 1st assigned=         109           0
 nber times 1st assigned=         110           0
 nber times 1st assigned=         111           0
 nber times 1st assigned=         112           0
 nber times 1st assigned=         113           0
 nber times 1st assigned=         114           0
 nber times 1st assigned=         115           0
 nber times 1st assigned=         116           0
 nber times 1st assigned=         117           0
 nber times 1st assigned=         118           0
 nber times 1st assigned=         119           0
 nber times 1st assigned=         120           0
 nber times 1st assigned=         121           0
 nber times 1st assigned=         122           0
 nber times 1st assigned=         123           0
 nber times 1st assigned=         124           0
 nber times 1st assigned=         125           0
 nber times 1st assigned=         126           0
 nber times 1st assigned=         127           0
 nber times 1st assigned=         128           0
 nber times 1st assigned=         129           0
 nber times 1st assigned=         130           0
 nber times 1st assigned=         131           0
 nber times 1st assigned=         132           0
 nber times 1st assigned=         133           0
 nber times 1st assigned=         134           0
 nber times 1st assigned=         135           0
 nber times 1st assigned=         136           0
 nber times 1st assigned=         137           0
 nber times 1st assigned=         138           0
 nber times 1st assigned=         139           0
 nber times 1st assigned=         140           0
 nber times 1st assigned=         141           0
 nber times 1st assigned=         142           0
 nber times 1st assigned=         143           0
 nber times 1st assigned=         144           0
 nber times 1st assigned=         145           0
 nber times 1st assigned=         146           0
 nber times 1st assigned=         147           0
 nber times 1st assigned=         148           0
 nber times 1st assigned=         149           0
 nber times 1st assigned=         150           0
 nber times 1st assigned=         151           0
 nber times 1st assigned=         152           0
 nber times 1st assigned=         153           0
 nber times 1st assigned=         154           0
 nber times 1st assigned=         155           0
 nber times 1st assigned=         156           0
 nber times 1st assigned=         157           0
 nber times 1st assigned=         158           0
 nber times 1st assigned=         159           0
 nber times 1st assigned=         160           0
 nber times 1st assigned=         161           0
 nber times 1st assigned=         162           0
 modes represented=   156.531814270414     
 p1=
   -0.   -0.   -0.   -0.    0.    0.    0.    0.    0.    0.    1.   -0.    0.    0.   -0.    0.    2.    0.    0.   -2.
  -13.    0.    6.   -0.   -0.   -0.    2.   -0.   -0.   -2.    0.   -0.   -3.   -0.   -0.   -0.    0.    0.    0.   -0.
   -0.   -0.    0.    0.   -0.   -0.   -1.   -0.    1.   -1.   -0.    5.    0.    1.   -0.    0.   -0.    0.   -0.   -0.
    0.    0.   -0.    0.    0.    0.    0.    0.   -0.    1.   -0.   -0.   -0.   -0.   -0.   -0.   -0.    0.   -0.    0.
    0.   -0.    0.   -0.    0.   -0.    0.    0.   -0.    0.   -1.    0.    0.   -0.    0.   -0.    0.    0.    0.    0.
   -0.   -1.    0.   -0.   -0.    0.    3.    0.    4.    0.    1.    0.    0.   -0.    2.    0.   -3.    0.    0.   -0.
    0.   -0.   -0.    1.    0.   -0.   -0.   -0.    0.   -0.   -0.   -0.    0.    3.    0.   -2.    0.    0.    0.   -0.
   -0.   -0.    0.   -0.    0.   -0.   -0.   -0.    0.    0.   -0.   -0.    0.   -0.    0.    0.   -0.   -0.    0.    0.
   -0.   -0.
 p2=
    0.    0.    0.   -0.    0.    0.   -0.    0.   -0.    0.    1.    0.    0.    0.    0.   -0.    1.   -0.   -0.   13.
   -0.   -0.   -6.   -0.   -0.    0.   -0.   -2.    0.    2.   -0.    0.   -0.   -3.   -0.   -0.   -0.    0.    0.    0.
   -0.   -0.   -0.    0.    0.    2.   -0.    0.   -1.    0.   -0.   -5.    0.   -0.   -1.   -0.   -0.    0.   -0.   -0.
    0.    0.    0.    1.   -0.   -0.   -0.    0.   -0.   -1.   -0.    1.    0.   -0.   -0.    0.   -0.    0.   -0.   -0.
   -0.    0.   -0.    0.   -0.    0.    0.   -0.   -0.   -0.   -1.    0.    0.    0.    1.   -0.   -0.    0.    0.   -0.
    0.    1.    0.    0.    0.    1.    5.    0.    0.   -0.    1.   -0.   -2.   -0.    0.    0.    0.    0.   -1.   -2.
    1.    0.   -0.   -0.   -0.    0.    0.    1.   -0.   -0.   -0.    0.    0.   -1.    0.    0.   -0.    0.    4.    0.
   -0.    0.    0.   -0.    0.   -0.    0.   -0.   -0.    0.    0.   -0.    0.   -0.   -0.    0.    0.   -0.    0.   -0.
    0.    0.

 Displacement: in terms of nc of 1 THEN of nc of 2

   1     freq=    -0. Q= -0.000 lam=    -0.0     freq=    -0. Q= -0.000 lam=    -0.0
   2     freq=    -0. Q= -0.000 lam=    -0.0     freq=    -0. Q= -0.000 lam=    -0.0
   3     freq=    -0. Q= -0.000 lam=    -0.0     freq=    -0. Q= -0.000 lam=    -0.0
   4     freq=    -0. Q= -0.000 lam=    -0.0     freq=     0. Q= -0.000 lam=     0.0
   5     freq=    -0. Q=  0.000 lam=    -0.0     freq=     0. Q=  0.000 lam=     0.0
   6     freq=     0. Q=  0.000 lam=     0.0     freq=     0. Q=  0.000 lam=     0.0
   7     freq=     8. Q=  0.001 lam=     0.0     freq=     8. Q=  0.001 lam=     0.0
   8     freq=    20. Q=  0.005 lam=     0.0     freq=    19. Q=  0.005 lam=     0.0
   9     freq=    22. Q=  0.000 lam=     0.0     freq=    29. Q=  0.000 lam=     0.0
  10     freq=    38. Q=  0.001 lam=     0.0     freq=    38. Q=  0.000 lam=     0.0
  11     freq=    53. Q=  0.020 lam=     0.0     freq=    52. Q=  0.022 lam=     0.0
  12     freq=    53. Q= -0.007 lam=     0.0     freq=    55. Q= -0.002 lam=     0.0
  13     freq=    64. Q=  0.000 lam=     0.0     freq=    63. Q=  0.000 lam=     0.0
  14     freq=    74. Q=  0.001 lam=     0.0     freq=    76. Q=  0.001 lam=     0.0
  15     freq=    86. Q= -0.001 lam=     0.0     freq=    89. Q= -0.001 lam=     0.0
  16     freq=   102. Q=  0.002 lam=     0.0     freq=   101. Q=  0.002 lam=     0.0
  17     freq=   114. Q=  0.067 lam=     0.3     freq=   110. Q=  0.063 lam=     0.2
  18     freq=   134. Q=  0.000 lam=     0.0     freq=   137. Q=  0.000 lam=     0.0
  19     freq=   163. Q=  0.001 lam=     0.0     freq=   168. Q=  0.002 lam=     0.0
  20     freq=   181. Q= -0.083 lam=     0.6     freq=   181. Q= -0.714 lam=    46.1
  21     freq=   181. Q= -0.720 lam=    46.9     freq=   183. Q= -0.007 lam=     0.0
  22     freq=   188. Q=  0.000 lam=     0.0     freq=   192. Q=  0.003 lam=     0.0
  23     freq=   202. Q=  0.324 lam=    10.6     freq=   201. Q=  0.357 lam=    12.8
  24     freq=   215. Q= -0.002 lam=     0.0     freq=   210. Q= -0.002 lam=     0.0
  25     freq=   234. Q= -0.009 lam=     0.0     freq=   234. Q= -0.006 lam=     0.0
  26     freq=   235. Q= -0.025 lam=     0.1     freq=   235. Q= -0.030 lam=     0.1
  27     freq=   270. Q=  0.139 lam=     2.6     freq=   256. Q=  0.000 lam=     0.0
  28     freq=   271. Q= -0.005 lam=     0.0     freq=   269. Q= -0.130 lam=     2.3
  29     freq=   279. Q= -0.005 lam=     0.0     freq=   278. Q= -0.006 lam=     0.0
  30     freq=   281. Q= -0.156 lam=     3.4     freq=   280. Q= -0.165 lam=     3.8
  31     freq=   299. Q=  0.001 lam=     0.0     freq=   298. Q=  0.003 lam=     0.0
  32     freq=   314. Q= -0.000 lam=     0.0     freq=   302. Q= -0.000 lam=     0.0
  33     freq=   337. Q= -0.187 lam=     5.9     freq=   326. Q= -0.001 lam=     0.0
  34     freq=   347. Q= -0.000 lam=     0.0     freq=   337. Q= -0.187 lam=     5.9
  35     freq=   359. Q= -0.012 lam=     0.0     freq=   351. Q= -0.015 lam=     0.0
  36     freq=   390. Q= -0.003 lam=     0.0     freq=   382. Q= -0.007 lam=     0.0
  37     freq=   395. Q=  0.022 lam=     0.1     freq=   392. Q=  0.022 lam=     0.1
  38     freq=   429. Q=  0.011 lam=     0.0     freq=   417. Q=  0.000 lam=     0.0
  39     freq=   434. Q=  0.028 lam=     0.2     freq=   429. Q=  0.017 lam=     0.1
  40     freq=   437. Q= -0.031 lam=     0.2     freq=   433. Q= -0.038 lam=     0.3
  41     freq=   444. Q= -0.001 lam=     0.0     freq=   438. Q= -0.021 lam=     0.1
  42     freq=   447. Q= -0.000 lam=     0.0     freq=   443. Q= -0.000 lam=     0.0
  43     freq=   449. Q=  0.000 lam=     0.0     freq=   448. Q=  0.001 lam=     0.0
  44     freq=   471. Q=  0.029 lam=     0.2     freq=   468. Q=  0.041 lam=     0.4
  45     freq=   473. Q= -0.018 lam=     0.1     freq=   470. Q= -0.016 lam=     0.1
  46     freq=   479. Q= -0.007 lam=     0.0     freq=   478. Q= -0.138 lam=     4.6
  47     freq=   479. Q= -0.131 lam=     4.1     freq=   485. Q= -0.000 lam=     0.0
  48     freq=   483. Q= -0.002 lam=     0.0     freq=   501. Q= -0.001 lam=     0.0
  49     freq=   508. Q=  0.091 lam=     2.1     freq=   505. Q=  0.100 lam=     2.5
  50     freq=   527. Q= -0.048 lam=     0.6     freq=   506. Q= -0.002 lam=     0.0
  51     freq=   534. Q= -0.000 lam=     0.0     freq=   525. Q= -0.030 lam=     0.2
  52     freq=   554. Q=  0.481 lam=    64.1     freq=   550. Q=  0.479 lam=    63.1
  53     freq=   578. Q=  0.001 lam=     0.0     freq=   572. Q=  0.001 lam=     0.0
  54     freq=   589. Q=  0.105 lam=     3.3     freq=   574. Q=  0.001 lam=     0.0
  55     freq=   596. Q= -0.000 lam=     0.0     freq=   581. Q= -0.123 lam=     4.4
  56     freq=   624. Q=  0.013 lam=     0.1     freq=   604. Q=  0.000 lam=     0.0
  57     freq=   631. Q= -0.000 lam=     0.0     freq=   616. Q= -0.014 lam=     0.1
  58     freq=   656. Q=  0.000 lam=     0.0     freq=   634. Q=  0.000 lam=     0.0
  59     freq=   666. Q= -0.000 lam=     0.0     freq=   652. Q= -0.000 lam=     0.0
  60     freq=   712. Q= -0.016 lam=     0.1     freq=   675. Q= -0.000 lam=     0.0
  61     freq=   719. Q=  0.041 lam=     0.6     freq=   703. Q=  0.000 lam=     0.0
  62     freq=   721. Q=  0.050 lam=     0.9     freq=   703. Q=  0.005 lam=     0.0
  63     freq=   741. Q= -0.000 lam=     0.0     freq=   715. Q= -0.007 lam=     0.0
  64     freq=   747. Q=  0.000 lam=     0.0     freq=   723. Q=  0.067 lam=     1.6
  65     freq=   756. Q=  0.001 lam=     0.0     freq=   748. Q=  0.001 lam=     0.0
  66     freq=   769. Q=  0.000 lam=     0.0     freq=   757. Q=  0.000 lam=     0.0
  67     freq=   780. Q=  0.000 lam=     0.0     freq=   757. Q=  0.000 lam=     0.0
  68     freq=   787. Q=  0.000 lam=     0.0     freq=   764. Q=  0.000 lam=     0.0
  69     freq=   797. Q= -0.056 lam=     1.2     freq=   793. Q= -0.055 lam=     1.2
  70     freq=   811. Q=  0.120 lam=     5.8     freq=   807. Q=  0.112 lam=     5.1
  71     freq=   818. Q= -0.044 lam=     0.8     freq=   809. Q= -0.001 lam=     0.0
  72     freq=   830. Q= -0.021 lam=     0.2     freq=   813. Q= -0.068 lam=     1.9
  73     freq=   849. Q= -0.057 lam=     1.4     freq=   814. Q= -0.001 lam=     0.0
  74     freq=   864. Q= -0.000 lam=     0.0     freq=   826. Q= -0.000 lam=     0.0
  75     freq=   865. Q= -0.000 lam=     0.0     freq=   827. Q= -0.030 lam=     0.4
  76     freq=   869. Q= -0.000 lam=     0.0     freq=   832. Q= -0.000 lam=     0.0
  77     freq=   871. Q= -0.000 lam=     0.0     freq=   850. Q= -0.046 lam=     0.9
  78     freq=   910. Q=  0.031 lam=     0.4     freq=   901. Q=  0.028 lam=     0.4
  79     freq=   926. Q= -0.056 lam=     1.4     freq=   920. Q= -0.036 lam=     0.6
  80     freq=   946. Q=  0.000 lam=     0.0     freq=   926. Q=  0.038 lam=     0.7
  81     freq=   957. Q=  0.000 lam=     0.0     freq=   945. Q=  0.000 lam=     0.0
  82     freq=   976. Q= -0.046 lam=     1.0     freq=   957. Q= -0.000 lam=     0.0
  83     freq=   985. Q=  0.018 lam=     0.2     freq=   974. Q=  0.047 lam=     1.1
  84     freq=   993. Q= -0.000 lam=     0.0     freq=   975. Q= -0.000 lam=     0.0
  85     freq=   997. Q=  0.000 lam=     0.0     freq=   976. Q=  0.000 lam=     0.0
  86     freq=  1001. Q= -0.000 lam=     0.0     freq=   988. Q= -0.000 lam=     0.0
  87     freq=  1006. Q=  0.000 lam=     0.0     freq=   988. Q=  0.000 lam=     0.0
  88     freq=  1053. Q=  0.011 lam=     0.1     freq=  1053. Q=  0.007 lam=     0.0
  89     freq=  1054. Q= -0.006 lam=     0.0     freq=  1054. Q= -0.005 lam=     0.0
  90     freq=  1064. Q=  0.024 lam=     0.3     freq=  1061. Q=  0.016 lam=     0.1
  91     freq=  1075. Q= -0.138 lam=    10.2     freq=  1076. Q= -0.073 lam=     2.9
  92     freq=  1101. Q=  0.011 lam=     0.1     freq=  1093. Q=  0.008 lam=     0.0
  93     freq=  1139. Q=  0.002 lam=     0.0     freq=  1121. Q=  0.004 lam=     0.0
  94     freq=  1140. Q= -0.018 lam=     0.2     freq=  1137. Q= -0.003 lam=     0.0
  95     freq=  1156. Q=  0.000 lam=     0.0     freq=  1141. Q=  0.079 lam=     3.6
  96     freq=  1157. Q= -0.022 lam=     0.3     freq=  1156. Q= -0.000 lam=     0.0
  97     freq=  1170. Q=  0.009 lam=     0.1     freq=  1162. Q=  0.022 lam=     0.3
  98     freq=  1182. Q=  0.006 lam=     0.0     freq=  1169. Q=  0.011 lam=     0.1
  99     freq=  1195. Q=  0.024 lam=     0.3     freq=  1186. Q=  0.040 lam=     1.0
 100     freq=  1209. Q=  0.003 lam=     0.0     freq=  1192. Q=  0.015 lam=     0.1
 101     freq=  1215. Q= -0.009 lam=     0.1     freq=  1198. Q= -0.024 lam=     0.3
 102     freq=  1221. Q= -0.075 lam=     3.4     freq=  1224. Q= -0.097 lam=     5.8
 103     freq=  1241. Q=  0.006 lam=     0.0     freq=  1230. Q=  0.006 lam=     0.0
 104     freq=  1251. Q= -0.008 lam=     0.0     freq=  1236. Q= -0.020 lam=     0.2
 105     freq=  1268. Q= -0.037 lam=     0.9     freq=  1244. Q= -0.009 lam=     0.1
 106     freq=  1270. Q=  0.038 lam=     0.9     freq=  1274. Q=  0.081 lam=     4.2
 107     freq=  1315. Q=  0.371 lam=    90.6     freq=  1301. Q=  0.683 lam=   303.1
 108     freq=  1316. Q=  0.015 lam=     0.2     freq=  1317. Q=  0.012 lam=     0.1
 109     freq=  1329. Q=  0.541 lam=   194.1     freq=  1322. Q=  0.055 lam=     2.0
 110     freq=  1336. Q=  0.004 lam=     0.0     freq=  1350. Q=  0.002 lam=     0.0
 111     freq=  1360. Q=  0.080 lam=     4.3     freq=  1363. Q=  0.077 lam=     4.0
 112     freq=  1368. Q=  0.002 lam=     0.0     freq=  1365. Q=  0.008 lam=     0.0
 113     freq=  1375. Q=  0.050 lam=     1.7     freq=  1378. Q=  0.242 lam=    40.2
 114     freq=  1382. Q= -0.016 lam=     0.2     freq=  1382. Q= -0.003 lam=     0.0
 115     freq=  1383. Q=  0.281 lam=    54.7     freq=  1392. Q=  0.012 lam=     0.1
 116     freq=  1401. Q=  0.002 lam=     0.0     freq=  1400. Q=  0.001 lam=     0.0
 117     freq=  1406. Q= -0.386 lam=   104.7     freq=  1402. Q= -0.002 lam=     0.0
 118     freq=  1417. Q=  0.003 lam=     0.0     freq=  1416. Q=  0.023 lam=     0.4
 119     freq=  1421. Q=  0.029 lam=     0.6     freq=  1420. Q=  0.107 lam=     8.1
 120     freq=  1429. Q= -0.029 lam=     0.6     freq=  1430. Q= -0.248 lam=    44.1
 121     freq=  1437. Q=  0.013 lam=     0.1     freq=  1439. Q=  0.156 lam=    17.5
 122     freq=  1454. Q= -0.017 lam=     0.2     freq=  1443. Q= -0.017 lam=     0.2
 123     freq=  1476. Q= -0.005 lam=     0.0     freq=  1460. Q= -0.012 lam=     0.1
 124     freq=  1477. Q=  0.232 lam=    39.6     freq=  1463. Q=  0.000 lam=     0.0
 125     freq=  1481. Q=  0.000 lam=     0.0     freq=  1476. Q=  0.002 lam=     0.0
 126     freq=  1485. Q= -0.000 lam=     0.0     freq=  1481. Q= -0.002 lam=     0.0
 127     freq=  1491. Q= -0.001 lam=     0.0     freq=  1485. Q= -0.000 lam=     0.0
 128     freq=  1498. Q= -0.009 lam=     0.1     freq=  1492. Q= -0.205 lam=    31.3
 129     freq=  1505. Q=  0.000 lam=     0.0     freq=  1498. Q=  0.030 lam=     0.7
 130     freq=  1506. Q= -0.002 lam=     0.0     freq=  1505. Q= -0.000 lam=     0.0
 131     freq=  1523. Q= -0.001 lam=     0.0     freq=  1509. Q= -0.003 lam=     0.0
 132     freq=  1543. Q= -0.001 lam=     0.0     freq=  1522. Q= -0.000 lam=     0.0
 133     freq=  1561. Q=  0.000 lam=     0.0     freq=  1546. Q=  0.005 lam=     0.0
 134     freq=  1604. Q=  0.505 lam=   204.6     freq=  1554. Q=  0.099 lam=     7.6
 135     freq=  1615. Q=  0.033 lam=     0.9     freq=  1558. Q=  0.025 lam=     0.5
 136     freq=  1619. Q= -0.323 lam=    84.7     freq=  1577. Q= -0.005 lam=     0.0
 137     freq=  1631. Q=  0.002 lam=     0.0     freq=  1597. Q=  0.006 lam=     0.0
 138     freq=  1632. Q=  0.013 lam=     0.1     freq=  1599. Q=  0.036 lam=     1.0
 139     freq=  1649. Q=  0.001 lam=     0.0     freq=  1622. Q=  0.621 lam=   313.0
 140     freq=  1714. Q= -0.000 lam=     0.0     freq=  1686. Q= -0.000 lam=     0.0
 141     freq=  1751. Q= -0.000 lam=     0.0     freq=  1723. Q= -0.000 lam=     0.0
 142     freq=  1752. Q= -0.030 lam=     0.8     freq=  1725. Q= -0.048 lam=     2.0
 143     freq=  1781. Q=  0.039 lam=     1.3     freq=  1756. Q=  0.065 lam=     3.7
 144     freq=  2388. Q= -0.004 lam=     0.0     freq=  2386. Q= -0.003 lam=     0.0
 145     freq=  3024. Q=  0.001 lam=     0.0     freq=  3023. Q=  0.001 lam=     0.0
 146     freq=  3035. Q= -0.000 lam=     0.0     freq=  3034. Q= -0.000 lam=     0.0
 147     freq=  3039. Q= -0.001 lam=     0.0     freq=  3038. Q= -0.001 lam=     0.0
 148     freq=  3081. Q= -0.000 lam=     0.0     freq=  3080. Q= -0.000 lam=     0.0
 149     freq=  3086. Q=  0.000 lam=     0.0     freq=  3085. Q=  0.000 lam=     0.0
 150     freq=  3093. Q=  0.000 lam=     0.0     freq=  3092. Q=  0.000 lam=     0.0
 151     freq=  3096. Q= -0.001 lam=     0.0     freq=  3095. Q= -0.001 lam=     0.0
 152     freq=  3113. Q= -0.001 lam=     0.0     freq=  3112. Q= -0.001 lam=     0.0
 153     freq=  3133. Q=  0.000 lam=     0.0     freq=  3132. Q=  0.000 lam=     0.0
 154     freq=  3143. Q= -0.000 lam=     0.0     freq=  3143. Q= -0.000 lam=     0.0
 155     freq=  3194. Q=  0.001 lam=     0.0     freq=  3198. Q=  0.001 lam=     0.0
 156     freq=  3195. Q=  0.000 lam=     0.0     freq=  3199. Q=  0.000 lam=     0.0
 157     freq=  3201. Q= -0.004 lam=     0.0     freq=  3205. Q= -0.001 lam=     0.0
 158     freq=  3202. Q= -0.002 lam=     0.0     freq=  3205. Q= -0.004 lam=     0.0
 159     freq=  3209. Q=  0.000 lam=     0.0     freq=  3213. Q=  0.000 lam=     0.0
 160     freq=  3209. Q=  0.000 lam=     0.0     freq=  3213. Q=  0.000 lam=     0.0
 161     freq=  3219. Q= -0.008 lam=     0.1     freq=  3224. Q= -0.003 lam=     0.0
 162     freq=  3219. Q= -0.011 lam=     0.2     freq=  3225. Q= -0.009 lam=     0.1

 total reorg energy (cm**-1, kcal/mol)=      961.      960.      2.75      2.74
 Nber of molecules processed=           2
