 Enter ifcurve (0=recti, 1=orth curvi, 2=apprx curvi, -1 = skip
 And atom ordering flag, 0= never changes, 1= use the first order thenceforth,
  2= deduce it (does read on fail), 3= always read it
 Reading file: 
 ./Benzene_Conj_1_C0S0.log                                                      
                                          
  Entering Gaussian System, Link 0=g16                                          
  
 Gaussian format, type: g94, g98, g03= F F F
  #P Geom=AllCheck Guess=TCheck SCRF=Check GenChk RB3LYP/6-311G(d,p) Fre    
 energy type= B3LYP   
 Original G94 input coords:
  6  1.243597 -1.400320  0.000000
  6  0.000000 -0.715707  0.000000
  6 -1.243597 -1.400320  0.000000
  6 -2.429721 -0.707429  0.000000
  6 -2.429721  0.707429  0.000000
  6 -1.243597  1.400320  0.000000
  6  0.000000  0.715707  0.000000
  6  1.243597  1.400320  0.000000
  6  2.429721  0.707429  0.000000
  6  2.429721 -0.707429  0.000000
  1  1.242140 -2.485561  0.000000
  1 -1.242140 -2.485561  0.000000
  1 -3.372589 -1.243049  0.000000
  1 -3.372589  1.243049  0.000000
  1 -1.242140  2.485561  0.000000
  1  1.242140  2.485561  0.000000
  1  3.372589  1.243049  0.000000
  1  3.372589 -1.243049  0.000000
 nber atoms=          18
 Original standard coords:
  6  0.000000  1.243597  1.400320
  6  0.000000  0.000000  0.715707
  6  0.000000 -1.243597  1.400320
  6  0.000000 -2.429721  0.707429
  6  0.000000 -2.429721 -0.707429
  6  0.000000 -1.243597 -1.400320
  6  0.000000  0.000000 -0.715707
  6  0.000000  1.243597 -1.400320
  6  0.000000  2.429721 -0.707429
  6  0.000000  2.429721  0.707429
  1  0.000000  1.242140  2.485561
  1  0.000000 -1.242140  2.485561
  1  0.000000 -3.372589  1.243049
  1  0.000000 -3.372589 -1.243049
  1  0.000000 -1.242140 -2.485561
  1  0.000000  1.242140 -2.485561
  1  0.000000  3.372589 -1.243049
  1  0.000000  3.372589  1.243049
  SCF Done:  E(RB3LYP) =  -385.984908995     A.U. after    1 cycles             
  
          23          40 "  -385.984908995"
After scan for Atom:   Atom  AN      X      Y      Z        X      Y      Z        X      Y      Z   
After scan for Atom:   Atom  AN      X      Y      Z        X      Y      Z        X      Y      Z   
After scan for Atom:   Atom  AN      X      Y      Z        X      Y      Z        X      Y      Z   
After scan for Atom:   Atom  AN      X      Y      Z        X      Y      Z        X      Y      Z   
After scan for Atom:   Atom  AN      X      Y      Z        X      Y      Z        X      Y      Z   
After scan for Atom:   Atom  AN      X      Y      Z        X      Y      Z        X      Y      Z   
After scan for Atom:   Atom  AN      X      Y      Z        X      Y      Z        X      Y      Z   
After scan for Atom:   Atom  AN      X      Y      Z        X      Y      Z        X      Y      Z   
After scan for Atom:   Atom  AN      X      Y      Z        X      Y      Z        X      Y      Z   
After scan for Atom:   Atom  AN      X      Y      Z        X      Y      Z        X      Y      Z   
After scan for Atom:   Atom  AN      X      Y      Z        X      Y      Z        X      Y      Z   
After scan for Atom:   Atom  AN      X      Y      Z        X      Y      Z        X      Y      Z   
After scan for Atom:   Atom  AN      X      Y      Z        X      Y      Z        X      Y      Z   
After scan for Atom:   Atom  AN      X      Y      Z        X      Y      Z        X      Y      Z   
After scan for Atom:   Atom  AN      X      Y      Z        X      Y      Z        X      Y      Z   
After scan for Atom:   Atom  AN      X      Y      Z        X      Y      Z        X      Y      Z   
 g94    frequencies=
     0.0    0.0    0.0    0.0    0.0    0.0  173.3  186.5  365.9  395.3
   480.4  487.1  518.5  519.8  635.2  636.1  729.1  773.1  786.5  799.1
   808.6  848.1  896.3  950.9  956.4  973.5  992.7  999.9 1035.4 1046.1
  1150.7 1169.0 1171.5 1185.0 1232.1 1269.8 1287.0 1390.7 1397.8 1417.8
  1490.5 1491.0 1548.4 1613.3 1640.6 1670.4 3154.0 3155.7 3158.2 3161.6
  3171.9 3173.3 3184.6 3185.8
 g94    symmetries=
                                                B3     AU     B1     B1
      B2     B3     B3     AG     AU     B2     B1     AG     B2     B3
      B1     AU     B2     B3     B1     B3     AU     B2     B2     AG
      B1     B2     B3     AG     B2     B3     B1     B2     AG     B1
      AG     B3     B2     AG     B1     B3     B3     B1     B2     AG
      B3     B1     B2     AG
 atomic masses:
 12.0000 12.0000 12.0000 12.0000 12.0000 12.0000 12.0000 12.0000 12.0000 12.0000
  1.0078  1.0078  1.0078  1.0078  1.0078  1.0078  1.0078  1.0078
 looking for force constants in 
 ./Benzene_Conj_1_C0S0.fchk                                                     
  
 Cartesian Force Constants                  R   N=        1485                  
  
 n3=          54        1485
 g94-fc frequencies=
    -0.0   -0.0    0.0    5.7    6.2    7.7  173.3  186.5  365.9  395.3
   480.4  487.1  518.6  519.8  635.2  636.1  729.1  773.1  786.5  799.1
   808.6  848.1  896.3  951.0  956.5  973.5  992.7  999.9 1035.4 1046.1
  1150.7 1169.0 1171.6 1185.1 1232.1 1269.9 1287.0 1390.8 1397.9 1417.8
  1490.5 1491.1 1548.4 1613.4 1640.6 1670.5 3154.0 3155.7 3158.3 3161.7
  3171.9 3173.3 3184.7 3185.9
 at 99999: n3=          54
 symm operator            1 :  T  nop=           1
 symm operator            2 :  T  nop=           2
 symm operator            3 :  T  nop=           3
 symm operator            4 :  T  nop=           4
 symm operator            5 :  T  nop=           5
 symm operator            6 :  T  nop=           6
 symm operator            7 :  T  nop=           7
 The point group of the molecule is D2H
 enforcing symm op           1  jsymt=          -1          -1           1
 enforcing symm op           2  jsymt=          -1           1          -1
 enforcing symm op           3  jsymt=           1          -1          -1
 enforcing symm op           4  jsymt=          -1          -1          -1
 enforcing symm op           5  jsymt=           1           1          -1
 enforcing symm op           6  jsymt=           1          -1           1
 enforcing symm op           7  jsymt=          -1           1           1
 cartesian coord symmetries:
 Ag :    9 Au :    4 B1g:    4 B1u:    9 B2g:    5 B2u:    9 B3g:    9 B3u:    5
 Symmetry rotation matrix:
   1.00000   0.00000   0.00000
   0.00000   1.00000   0.00000
   0.00000   0.00000   1.00000

 Projecting out zero-frequency components
 generating redundant internal coords
         300        3600          18
 search for int coords
   1 str   2   1   1.420
   2 str   3   2   1.420
   3 str   4   3   1.374
   4 str   5   4   1.415
   5 str   6   5   1.374
   6 str   7   2   1.431
   7 str   7   6   1.420
   8 str   8   7   1.420
   9 str   9   8   1.374
  10 str  10   1   1.374
  11 str  10   9   1.415
  12 str  11   1   1.085
  13 str  12   3   1.085
  14 str  13   4   1.084
  15 str  14   5   1.084
  16 str  15   6   1.085
  17 str  16   8   1.085
  18 str  17   9   1.084
  19 str  18  10   1.084
 nber stretches=          19
  20 ben   1   2   3
  21 prop tor   1   2   3   4
  22 prop tor   1   2   3  12
  23 ben   1   2   7
  24 prop tor   1   2   7   6
  25 prop tor   1   2   7   8
  26 ben   1  10   9
  27 ben   1  10  18
  28 ben   2   1  10
  29 prop tor   2   1  10   9
  30 prop tor   2   1  10  18
  31 ben   2   1  11
  32 ben   2   3   4
  33 prop tor   2   3   4   5
  34 prop tor   2   3   4  13
  35 ben   2   3  12
  36 ben   2   7   6
  37 ben   2   7   8
  38 prop tor   2   7   8   9
  39 prop tor   2   7   8  16
  40 ben   3   2   7
  41 prop tor   3   2   7   6
  42 prop tor   3   2   7   8
  43 ben   3   4   5
  44 prop tor   3   4   5   6
  45 prop tor   3   4   5  14
  46 ben   3   4  13
  47 ben   4   3  12
  48 ben   4   5   6
  49 prop tor   4   5   6   7
  50 prop tor   4   5   6  15
  51 ben   4   5  14
  52 ben   5   4  13
  53 ben   5   6   7
  54 prop tor   5   6   7   2
  55 prop tor   5   6   7   8
  56 ben   5   6  15
  57 ben   6   5  14
  58 ben   6   7   8
  59 prop tor   6   7   8   9
  60 prop tor   6   7   8  16
  61 prop tor   7   2   3   4
  62 prop tor   7   2   3  12
  63 ben   7   6  15
  64 ben   7   8   9
  65 prop tor   7   8   9  10
  66 prop tor   7   8   9  17
  67 ben   7   8  16
  68 ben   8   9  10
  69 prop tor   8   9  10   1
  70 prop tor   8   9  10  18
  71 ben   8   9  17
  72 ben   9   8  16
  73 ben   9  10  18
  74 prop tor  10   1   2   3
  75 prop tor  10   1   2   7
  76 ben  10   1  11
  77 ben  10   9  17
  78 prop tor  11   1   2   3
  79 prop tor  11   1   2   7
  80 prop tor  11   1  10   9
  81 prop tor  11   1  10  18
  82 prop tor  12   3   4   5
  83 prop tor  12   3   4  13
  84 prop tor  13   4   5   6
  85 prop tor  13   4   5  14
  86 prop tor  14   5   6   7
  87 prop tor  14   5   6  15
  88 prop tor  15   6   7   2
  89 prop tor  15   6   7   8
  90 prop tor  16   8   9  10
  91 prop tor  16   8   9  17
  92 prop tor  17   9  10   1
  93 prop tor  17   9  10  18
 nber bend=              30
 nber lin bend=           0
 nber prop tor=          44
 nber impr tor=           0
 nber tot redund int=          93
 Eigenvalues of G in red int coords
    Gval -0.00000000 -0.00000000 -0.00000000 -0.00000000 -0.00000000 -0.00000000 -0.00000000 -0.00000000
    Gval -0.00000000 -0.00000000 -0.00000000 -0.00000000 -0.00000000 -0.00000000 -0.00000000 -0.00000000
    Gval -0.00000000 -0.00000000 -0.00000000 -0.00000000 -0.00000000 -0.00000000 -0.00000000 -0.00000000
    Gval -0.00000000  0.00000000  0.00000000  0.00000000  0.00000000  0.00000000  0.00000000  0.00000000
    Gval  0.00000000  0.00000000  0.00000000  0.00000000  0.00000000  0.00000000  0.00000000  0.00000000
    Gval  0.00000000  0.00000000  0.00000000  0.00000000  0.00000000  0.00001847  0.00002367  0.00003746
    Gval  0.00004521  0.00005531  0.00007222  0.00007782  0.00010236  0.00010312  0.00012748  0.00013128
    Gval  0.00013414  0.00014903  0.00021066  0.00022371  0.00028992  0.00037328  0.00037993  0.00039920
    Gval  0.00049097  0.00059298  0.00059327  0.00059579  0.00059847  0.00060931  0.00062769  0.00064837
    Gval  0.00066173  0.00072154  0.00072433  0.00104422  0.00105901  0.00111173  0.00111660  0.00111866
    Gval  0.00115772  0.00116186  0.00117016  0.00117040  0.00166078  0.00189900  0.00190223  0.00248570
    Gval  0.00283428  0.00339129  0.00363498  0.00398142  0.00403599
  1.847055247904104E-005  1.847055247904104E-005
  2.367128731539249E-005  1.847055247904104E-005
  3.746228758553109E-005  1.847055247904104E-005
  4.520540210127695E-005  1.847055247904104E-005
  5.530870340831339E-005  1.847055247904104E-005
  7.222080013474406E-005  1.847055247904104E-005
  7.781886335509222E-005  1.847055247904104E-005
  1.023591627643543E-004  1.847055247904104E-005
  1.031183254448261E-004  1.847055247904104E-005
  1.274842283876596E-004  1.847055247904104E-005
  1.312841412458949E-004  1.847055247904104E-005
  1.341410875899076E-004  1.847055247904104E-005
  1.490312071895207E-004  1.847055247904104E-005
  2.106613923810087E-004  1.847055247904104E-005
  2.237122815536818E-004  1.847055247904104E-005
  2.899196843429508E-004  1.847055247904104E-005
  3.732830857438017E-004  1.847055247904104E-005
  3.799290027072721E-004  1.847055247904104E-005
  3.992026814420195E-004  1.847055247904104E-005
  4.909695417957580E-004  1.847055247904104E-005
  5.929759350378915E-004  1.847055247904104E-005
  5.932668051525441E-004  1.847055247904104E-005
  5.957926563088725E-004  1.847055247904104E-005
  5.984695069258424E-004  1.847055247904104E-005
  6.093140603300513E-004  1.847055247904104E-005
  6.276887898105678E-004  1.847055247904104E-005
  6.483737743557967E-004  1.847055247904104E-005
  6.617283415797722E-004  1.847055247904104E-005
  7.215394164990661E-004  1.847055247904104E-005
  7.243313564671127E-004  1.847055247904104E-005
  1.044216673026875E-003  1.847055247904104E-005
  1.059007381150029E-003  1.847055247904104E-005
  1.111730745057021E-003  1.847055247904104E-005
  1.116604588592494E-003  1.847055247904104E-005
  1.118655445544897E-003  1.847055247904104E-005
  1.157715988692479E-003  1.847055247904104E-005
  1.161855835152580E-003  1.847055247904104E-005
  1.170156761657870E-003  1.847055247904104E-005
  1.170396233363654E-003  1.847055247904104E-005
  1.660784663314054E-003  1.847055247904104E-005
  1.898997904782266E-003  1.847055247904104E-005
  1.902225932689062E-003  1.847055247904104E-005
  2.485703675079937E-003  1.847055247904104E-005
  2.834277496238637E-003  1.847055247904104E-005
  3.391287180290528E-003  1.847055247904104E-005
  3.634983845505131E-003  1.847055247904104E-005
  3.981420056080045E-003  1.847055247904104E-005
  4.035987883272600E-003  1.847055247904104E-005
 cut=1d-8, nber non-redundant internal coords=          48
 Check on Eigenvals of non-red overlap matrix:
  0.00001847  0.00002367  0.00003746  0.00004521  0.00005531  0.00007222  0.00007782  0.00010236
  0.00010312  0.00012748  0.00013128  0.00013414  0.00014903  0.00021066  0.00022371  0.00028992
  0.00037328  0.00037993  0.00039920  0.00049097  0.00059298  0.00059327  0.00059579  0.00059847
  0.00060931  0.00062769  0.00064837  0.00066173  0.00072154  0.00072433  0.00104422  0.00105901
  0.00111173  0.00111660  0.00111866  0.00115772  0.00116186  0.00117016  0.00117040  0.00166078
  0.00189900  0.00190223  0.00248570  0.00283428  0.00339129  0.00363498  0.00398142  0.00403599
 Checking for correct frequencies
 recalc frequencies=
    -0.0   -0.0   -0.0    0.0    0.0    0.0  173.3  186.5  365.9  395.3
   480.4  487.1  518.6  519.8  635.2  636.1  729.1  773.1  786.5  799.1
   808.6  848.1  896.3  951.0  956.5  973.5  992.7  999.9 1035.4 1046.1
  1150.7 1169.0 1171.6 1185.1 1232.1 1269.9 1287.0 1390.8 1397.9 1417.8
  1490.5 1491.1 1548.4 1613.4 1640.6 1670.5 3154.0 3155.7 3158.3 3161.7
  3171.9 3173.3 3184.7 3185.9
 recalc symmetries=
     B3u    B2g    B1g    B2u    B1u    B3g    B3u    Au     B1u    B1g
     B2g    B3u    B3g    Ag     Au     B2u    B1g    Ag     B2g    B3u
     B1u    Au     B2g    B3g    B1g    B3u    Au     B2g    B2u    Ag 
     B1u    B2u    B3g    Ag     B2u    B3g    B1u    B2u    Ag     B1u
     Ag     B3g    B2u    Ag     B1u    B3g    B3g    B1u    B2u    Ag 
     B3g    B1u    B2u    Ag 
 recalc freqs check OK
 Zero-point lengths:
 10.0000 10.0000 10.0000 10.0000 10.0000 10.0000 18.8300 18.1549 12.9595 12.4686
 11.3108 11.2327 10.8867 10.8739  9.8366  9.8295  9.1814  8.9160  8.8399  8.7699
  8.7181  8.5128  8.2807  8.0392  8.0161  7.9457  7.8685  7.8400  7.7044  7.6648
  7.3083  7.2507  7.2429  7.2015  7.0627  6.9569  6.9104  6.6476  6.6308  6.5839
  6.4214  6.4202  6.3001  6.1721  6.1206  6.0656  4.4143  4.4131  4.4114  4.4090
  4.4018  4.4009  4.3930  4.3922
 highest evec of mol 1
  0.0000  0.0061 -0.0656
  0.0000  0.0000  0.0009
  0.0000 -0.0061 -0.0656
  0.0000  0.1160 -0.0666
  0.0000  0.1160  0.0666
  0.0000 -0.0061  0.0656
  0.0000  0.0000 -0.0009
  0.0000  0.0061  0.0656
  0.0000 -0.1160  0.0666
  0.0000 -0.1160 -0.0666
  0.0000 -0.0014  0.2061
  0.0000  0.0014  0.2061
  0.0000 -0.3739  0.2134
  0.0000 -0.3739 -0.2134
  0.0000  0.0014 -0.2061
  0.0000 -0.0014 -0.2061
  0.0000  0.3739 -0.2134
  0.0000  0.3739  0.2134
 generating redundant internal coords
         300        3600          18
 Adding extra bonds for z output only
           6           6           6           6           6           6
           6           6           6           6           1           1
           1           1           1           1           1           1
 search for int coords
   1 str   2   1   1.420
   2 str   3   2   1.420
   3 str   4   3   1.374
   4 str   5   4   1.415
   5 str   6   5   1.374
   6 str   7   2   1.431
   7 str   7   6   1.420
   8 str   8   7   1.420
   9 str   9   8   1.374
  10 str  10   1   1.374
  11 str  10   9   1.415
  12 str  11   1   1.085
  13 str  12   3   1.085
  14 str  13   4   1.084
  15 str  14   5   1.084
  16 str  15   6   1.085
  17 str  16   8   1.085
  18 str  17   9   1.084
  19 str  18  10   1.084
 nber stretches=          19
  20 ben   1   2   3
  21 prop tor   1   2   3   4
  22 prop tor   1   2   3  12
  23 ben   1   2   7
  24 prop tor   1   2   7   6
  25 prop tor   1   2   7   8
  26 ben   1  10   9
  27 ben   1  10  18
  28 ben   2   1  10
  29 prop tor   2   1  10   9
  30 prop tor   2   1  10  18
  31 ben   2   1  11
  32 ben   2   3   4
  33 prop tor   2   3   4   5
  34 prop tor   2   3   4  13
  35 ben   2   3  12
  36 ben   2   7   6
  37 ben   2   7   8
  38 prop tor   2   7   8   9
  39 prop tor   2   7   8  16
  40 ben   3   2   7
  41 prop tor   3   2   7   6
  42 prop tor   3   2   7   8
  43 ben   3   4   5
  44 prop tor   3   4   5   6
  45 prop tor   3   4   5  14
  46 ben   3   4  13
  47 ben   4   3  12
  48 ben   4   5   6
  49 prop tor   4   5   6   7
  50 prop tor   4   5   6  15
  51 ben   4   5  14
  52 ben   5   4  13
  53 ben   5   6   7
  54 prop tor   5   6   7   2
  55 prop tor   5   6   7   8
  56 ben   5   6  15
  57 ben   6   5  14
  58 ben   6   7   8
  59 prop tor   6   7   8   9
  60 prop tor   6   7   8  16
  61 prop tor   7   2   3   4
  62 prop tor   7   2   3  12
  63 ben   7   6  15
  64 ben   7   8   9
  65 prop tor   7   8   9  10
  66 prop tor   7   8   9  17
  67 ben   7   8  16
  68 ben   8   9  10
  69 prop tor   8   9  10   1
  70 prop tor   8   9  10  18
  71 ben   8   9  17
  72 ben   9   8  16
  73 ben   9  10  18
  74 prop tor  10   1   2   3
  75 prop tor  10   1   2   7
  76 ben  10   1  11
  77 ben  10   9  17
  78 prop tor  11   1   2   3
  79 prop tor  11   1   2   7
  80 prop tor  11   1  10   9
  81 prop tor  11   1  10  18
  82 prop tor  12   3   4   5
  83 prop tor  12   3   4  13
  84 prop tor  13   4   5   6
  85 prop tor  13   4   5  14
  86 prop tor  14   5   6   7
  87 prop tor  14   5   6  15
  88 prop tor  15   6   7   2
  89 prop tor  15   6   7   8
  90 prop tor  16   8   9  10
  91 prop tor  16   8   9  17
  92 prop tor  17   9  10   1
  93 prop tor  17   9  10  18
 nber bend=              30
 nber lin bend=           0
 nber prop tor=          44
 nber impr tor=           0
 nber tot redund int=          93
 Reading file: 
 ./Benzene_Conj_1_C0S1.log                                                      
                                          
  Entering Gaussian System, Link 0=g16                                          
  
 Gaussian format, type: g94, g98, g03= F F F
  #P Geom=AllCheck Guess=TCheck SCRF=Check GenChk RB3LYP TD(FC,Read)/6-3    
 energy type= TD      
 Original G94 input coords:
  6  1.240789 -1.395280  0.000000
  6  0.000000 -0.719158  0.000000
  6 -1.240789 -1.395280  0.000000
  6 -2.480939 -0.687299  0.000000
  6 -2.480939  0.687299  0.000000
  6 -1.240789  1.395280  0.000000
  6  0.000000  0.719158  0.000000
  6  1.240789  1.395280  0.000000
  6  2.480939  0.687299  0.000000
  6  2.480939 -0.687299  0.000000
  1  1.247291 -2.479975  0.000000
  1 -1.247291 -2.479975  0.000000
  1 -3.411252 -1.243436  0.000000
  1 -3.411252  1.243436  0.000000
  1 -1.247291  2.479975  0.000000
  1  1.247291  2.479975  0.000000
  1  3.411252  1.243436  0.000000
  1  3.411252 -1.243436  0.000000
 nber atoms=          18
 Original standard coords:
  6  0.000000  1.240789  1.395280
  6  0.000000  0.000000  0.719158
  6  0.000000 -1.240789  1.395280
  6  0.000000 -2.480939  0.687299
  6  0.000000 -2.480939 -0.687299
  6  0.000000 -1.240789 -1.395280
  6  0.000000  0.000000 -0.719158
  6  0.000000  1.240789 -1.395280
  6  0.000000  2.480939 -0.687299
  6  0.000000  2.480939  0.687299
  1  0.000000  1.247291  2.479975
  1  0.000000 -1.247291  2.479975
  1  0.000000 -3.411252  1.243436
  1  0.000000 -3.411252 -1.243436
  1  0.000000 -1.247291 -2.479975
  1  0.000000  1.247291 -2.479975
  1  0.000000  3.411252 -1.243436
  1  0.000000  3.411252  1.243436
  Total Energy, E(TD-HF/TD-DFT) =  -385.833408612                               
  
          32          49 "  -385.833408612"
After scan for Atom:   Atom  AN      X      Y      Z        X      Y      Z        X      Y      Z   
After scan for Atom:   Atom  AN      X      Y      Z        X      Y      Z        X      Y      Z   
After scan for Atom:   Atom  AN      X      Y      Z        X      Y      Z        X      Y      Z   
After scan for Atom:   Atom  AN      X      Y      Z        X      Y      Z        X      Y      Z   
After scan for Atom:   Atom  AN      X      Y      Z        X      Y      Z        X      Y      Z   
After scan for Atom:   Atom  AN      X      Y      Z        X      Y      Z        X      Y      Z   
After scan for Atom:   Atom  AN      X      Y      Z        X      Y      Z        X      Y      Z   
After scan for Atom:   Atom  AN      X      Y      Z        X      Y      Z        X      Y      Z   
After scan for Atom:   Atom  AN      X      Y      Z        X      Y      Z        X      Y      Z   
After scan for Atom:   Atom  AN      X      Y      Z        X      Y      Z        X      Y      Z   
After scan for Atom:   Atom  AN      X      Y      Z        X      Y      Z        X      Y      Z   
After scan for Atom:   Atom  AN      X      Y      Z        X      Y      Z        X      Y      Z   
After scan for Atom:   Atom  AN      X      Y      Z        X      Y      Z        X      Y      Z   
After scan for Atom:   Atom  AN      X      Y      Z        X      Y      Z        X      Y      Z   
After scan for Atom:   Atom  AN      X      Y      Z        X      Y      Z        X      Y      Z   
After scan for Atom:   Atom  AN      X      Y      Z        X      Y      Z        X      Y      Z   
 g94    frequencies=
     0.0    0.0    0.0    0.0    0.0    0.0  152.7  162.6  272.1  357.7
   379.5  469.1  475.8  480.5  505.0  562.6  685.1  689.8  705.9  736.0
   756.9  796.3  827.8  841.7  847.6  918.4  920.6  921.7 1010.4 1044.9
  1057.3 1083.6 1178.4 1179.7 1229.2 1248.0 1285.4 1397.1 1409.5 1421.5
  1438.3 1478.3 1489.0 1491.3 1576.4 1609.0 3160.1 3163.5 3164.4 3169.0
  3175.3 3177.5 3191.4 3192.7
 g94    symmetries=
                                                AU     B3     B1     B1
      B3     B2     B3     AU     AG     B2     B1     B3     B2     AU
      AG     B1     B1     B2     B3     B3     AU     B2     B2     B3
      AG     B1     AG     B2     B2     B3     B1     AG     B1     B3
      B2     AG     B1     B3     B2     AG     B3     B1     B2     AG
      B3     B1     B2     AG
 atomic masses:
 12.0000 12.0000 12.0000 12.0000 12.0000 12.0000 12.0000 12.0000 12.0000 12.0000
  1.0078  1.0078  1.0078  1.0078  1.0078  1.0078  1.0078  1.0078
 looking for force constants in 
 ./Benzene_Conj_1_C0S1.fchk                                                     
  
 Cartesian Force Constants                  R   N=        1485                  
  
 n3=          54        1485
 g94-fc frequencies=
    -3.7   -2.9   -1.1   -0.0   -0.0    0.0  152.7  162.6  272.1  357.7
   379.5  469.1  475.8  480.6  505.0  562.6  685.1  689.9  705.9  736.0
   756.9  796.3  827.8  841.8  847.6  918.4  920.7  921.7 1010.4 1044.9
  1057.3 1083.7 1178.4 1179.7 1229.2 1248.0 1285.4 1397.2 1409.5 1421.5
  1438.3 1478.4 1489.0 1491.3 1576.5 1609.0 3160.2 3163.5 3164.4 3169.1
  3175.3 3177.6 3191.5 3192.8
 at 99999: n3=          54
 symm operator            1 :  T  nop=           1
 symm operator            2 :  T  nop=           2
 symm operator            3 :  T  nop=           3
 symm operator            4 :  T  nop=           4
 symm operator            5 :  T  nop=           5
 symm operator            6 :  T  nop=           6
 symm operator            7 :  T  nop=           7
 The point group of the molecule is D2H
 enforcing symm op           1  jsymt=          -1          -1           1
 enforcing symm op           2  jsymt=          -1           1          -1
 enforcing symm op           3  jsymt=           1          -1          -1
 enforcing symm op           4  jsymt=          -1          -1          -1
 enforcing symm op           5  jsymt=           1           1          -1
 enforcing symm op           6  jsymt=           1          -1           1
 enforcing symm op           7  jsymt=          -1           1           1
 cartesian coord symmetries:
 Ag :    9 Au :    4 B1g:    4 B1u:    9 B2g:    5 B2u:    9 B3g:    9 B3u:    5
 Symmetry rotation matrix:
   1.00000   0.00000   0.00000
   0.00000   1.00000   0.00000
   0.00000   0.00000   1.00000

 Projecting out zero-frequency components
 generating redundant internal coords
         300        3600          18
 search for int coords
   1 str   2   1   1.413
   2 str   3   2   1.413
   3 str   4   3   1.428
   4 str   5   4   1.375
   5 str   6   5   1.428
   6 str   7   2   1.438
   7 str   7   6   1.413
   8 str   8   7   1.413
   9 str   9   8   1.428
  10 str  10   1   1.428
  11 str  10   9   1.375
  12 str  11   1   1.085
  13 str  12   3   1.085
  14 str  13   4   1.084
  15 str  14   5   1.084
  16 str  15   6   1.085
  17 str  16   8   1.085
  18 str  17   9   1.084
  19 str  18  10   1.084
 nber stretches=          19
  20 ben   1   2   3
  21 prop tor   1   2   3   4
  22 prop tor   1   2   3  12
  23 ben   1   2   7
  24 prop tor   1   2   7   6
  25 prop tor   1   2   7   8
  26 ben   1  10   9
  27 ben   1  10  18
  28 ben   2   1  10
  29 prop tor   2   1  10   9
  30 prop tor   2   1  10  18
  31 ben   2   1  11
  32 ben   2   3   4
  33 prop tor   2   3   4   5
  34 prop tor   2   3   4  13
  35 ben   2   3  12
  36 ben   2   7   6
  37 ben   2   7   8
  38 prop tor   2   7   8   9
  39 prop tor   2   7   8  16
  40 ben   3   2   7
  41 prop tor   3   2   7   6
  42 prop tor   3   2   7   8
  43 ben   3   4   5
  44 prop tor   3   4   5   6
  45 prop tor   3   4   5  14
  46 ben   3   4  13
  47 ben   4   3  12
  48 ben   4   5   6
  49 prop tor   4   5   6   7
  50 prop tor   4   5   6  15
  51 ben   4   5  14
  52 ben   5   4  13
  53 ben   5   6   7
  54 prop tor   5   6   7   2
  55 prop tor   5   6   7   8
  56 ben   5   6  15
  57 ben   6   5  14
  58 ben   6   7   8
  59 prop tor   6   7   8   9
  60 prop tor   6   7   8  16
  61 prop tor   7   2   3   4
  62 prop tor   7   2   3  12
  63 ben   7   6  15
  64 ben   7   8   9
  65 prop tor   7   8   9  10
  66 prop tor   7   8   9  17
  67 ben   7   8  16
  68 ben   8   9  10
  69 prop tor   8   9  10   1
  70 prop tor   8   9  10  18
  71 ben   8   9  17
  72 ben   9   8  16
  73 ben   9  10  18
  74 prop tor  10   1   2   3
  75 prop tor  10   1   2   7
  76 ben  10   1  11
  77 ben  10   9  17
  78 prop tor  11   1   2   3
  79 prop tor  11   1   2   7
  80 prop tor  11   1  10   9
  81 prop tor  11   1  10  18
  82 prop tor  12   3   4   5
  83 prop tor  12   3   4  13
  84 prop tor  13   4   5   6
  85 prop tor  13   4   5  14
  86 prop tor  14   5   6   7
  87 prop tor  14   5   6  15
  88 prop tor  15   6   7   2
  89 prop tor  15   6   7   8
  90 prop tor  16   8   9  10
  91 prop tor  16   8   9  17
  92 prop tor  17   9  10   1
  93 prop tor  17   9  10  18
 nber bend=              30
 nber lin bend=           0
 nber prop tor=          44
 nber impr tor=           0
 nber tot redund int=          93
 Eigenvalues of G in red int coords
    Gval -0.00000000 -0.00000000 -0.00000000 -0.00000000 -0.00000000 -0.00000000 -0.00000000 -0.00000000
    Gval -0.00000000 -0.00000000 -0.00000000 -0.00000000 -0.00000000 -0.00000000 -0.00000000 -0.00000000
    Gval -0.00000000 -0.00000000 -0.00000000 -0.00000000 -0.00000000  0.00000000  0.00000000  0.00000000
    Gval  0.00000000  0.00000000  0.00000000  0.00000000  0.00000000  0.00000000  0.00000000  0.00000000
    Gval  0.00000000  0.00000000  0.00000000  0.00000000  0.00000000  0.00000000  0.00000000  0.00000000
    Gval  0.00000000  0.00000000  0.00000000  0.00000000  0.00000000  0.00001841  0.00002325  0.00003811
    Gval  0.00004487  0.00005539  0.00007227  0.00007748  0.00010146  0.00010204  0.00012169  0.00013070
    Gval  0.00013252  0.00015143  0.00021358  0.00021777  0.00028739  0.00036984  0.00037856  0.00039640
    Gval  0.00048271  0.00059303  0.00059332  0.00059573  0.00059847  0.00060867  0.00062675  0.00064629
    Gval  0.00065940  0.00070323  0.00072324  0.00104511  0.00105965  0.00109009  0.00111312  0.00112090
    Gval  0.00114864  0.00115397  0.00117168  0.00117188  0.00166190  0.00189769  0.00191291  0.00249744
    Gval  0.00286040  0.00333858  0.00358992  0.00399860  0.00404553
  1.841278464241564E-005  1.841278464241564E-005
  2.325238950583300E-005  1.841278464241564E-005
  3.811363493350403E-005  1.841278464241564E-005
  4.487304281989587E-005  1.841278464241564E-005
  5.538591578533994E-005  1.841278464241564E-005
  7.226581348336140E-005  1.841278464241564E-005
  7.748377662539109E-005  1.841278464241564E-005
  1.014612013038873E-004  1.841278464241564E-005
  1.020427171935045E-004  1.841278464241564E-005
  1.216910684528609E-004  1.841278464241564E-005
  1.307006900389784E-004  1.841278464241564E-005
  1.325211821736000E-004  1.841278464241564E-005
  1.514292558506025E-004  1.841278464241564E-005
  2.135821643169945E-004  1.841278464241564E-005
  2.177656018623031E-004  1.841278464241564E-005
  2.873871249074976E-004  1.841278464241564E-005
  3.698366441234220E-004  1.841278464241564E-005
  3.785594579380937E-004  1.841278464241564E-005
  3.963990062950522E-004  1.841278464241564E-005
  4.827068536226279E-004  1.841278464241564E-005
  5.930286216610983E-004  1.841278464241564E-005
  5.933241109918206E-004  1.841278464241564E-005
  5.957282155052162E-004  1.841278464241564E-005
  5.984682420549306E-004  1.841278464241564E-005
  6.086666972924317E-004  1.841278464241564E-005
  6.267527695113863E-004  1.841278464241564E-005
  6.462882926254069E-004  1.841278464241564E-005
  6.593960533370257E-004  1.841278464241564E-005
  7.032258895735234E-004  1.841278464241564E-005
  7.232437992053288E-004  1.841278464241564E-005
  1.045112038167033E-003  1.841278464241564E-005
  1.059654303187006E-003  1.841278464241564E-005
  1.090085150140654E-003  1.841278464241564E-005
  1.113121102735133E-003  1.841278464241564E-005
  1.120896843172872E-003  1.841278464241564E-005
  1.148638024926587E-003  1.841278464241564E-005
  1.153967621970334E-003  1.841278464241564E-005
  1.171683715671844E-003  1.841278464241564E-005
  1.171878658700160E-003  1.841278464241564E-005
  1.661900053129996E-003  1.841278464241564E-005
  1.897688720788283E-003  1.841278464241564E-005
  1.912905566574672E-003  1.841278464241564E-005
  2.497439630956238E-003  1.841278464241564E-005
  2.860396422550102E-003  1.841278464241564E-005
  3.338577536300368E-003  1.841278464241564E-005
  3.589919792694186E-003  1.841278464241564E-005
  3.998601066542568E-003  1.841278464241564E-005
  4.045528676717317E-003  1.841278464241564E-005
 cut=1d-8, nber non-redundant internal coords=          48
 Check on Eigenvals of non-red overlap matrix:
  0.00001841  0.00002325  0.00003811  0.00004487  0.00005539  0.00007227  0.00007748  0.00010146
  0.00010204  0.00012169  0.00013070  0.00013252  0.00015143  0.00021358  0.00021777  0.00028739
  0.00036984  0.00037856  0.00039640  0.00048271  0.00059303  0.00059332  0.00059573  0.00059847
  0.00060867  0.00062675  0.00064629  0.00065940  0.00070323  0.00072324  0.00104511  0.00105965
  0.00109009  0.00111312  0.00112090  0.00114864  0.00115397  0.00117168  0.00117188  0.00166190
  0.00189769  0.00191291  0.00249744  0.00286040  0.00333858  0.00358992  0.00399860  0.00404553
 Checking for correct frequencies
 recalc frequencies=
    -0.0   -0.0   -0.0   -0.0    0.0    0.0  152.7  162.6  272.1  357.7
   379.5  469.1  475.8  480.6  505.0  562.6  685.1  689.9  705.9  736.0
   756.9  796.3  827.8  841.8  847.6  918.4  920.7  921.7 1010.4 1044.9
  1057.3 1083.7 1178.4 1179.7 1229.2 1248.0 1285.4 1397.2 1409.5 1421.5
  1438.3 1478.4 1489.0 1491.3 1576.5 1609.0 3160.2 3163.5 3164.4 3169.1
  3175.3 3177.6 3191.5 3192.8
 recalc symmetries=
     B2u    B2g    B3u    B1g    B3g    B1u    Au     B3u    B1g    B1u
     B3u    B2g    B3g    Au     Ag     B2u    B1g    B3u    B2g    Au 
     Ag     B1u    B1g    B2g    B3u    B3g    Au     B2g    B2u    B3g
     Ag     B1u    Ag     B2u    B2u    B3g    B1u    Ag     B1u    B3g
     B2u    Ag     B1u    B3g    B2u    Ag     B3g    B1u    B2u    Ag 
     B3g    B1u    B2u    Ag 
 recalc freqs check OK
 Zero-point lengths:
 10.0000 10.0000 10.0000 10.0000 10.0000 10.0000 20.0623 19.4407 15.0278 13.1079
 12.7257 11.4458 11.3655 11.3090 11.0314 10.4518  9.4713  9.4388  9.3309  9.1380
  9.0113  8.7854  8.6165  8.5448  8.5153  8.1804  8.1705  8.1659  7.7991  7.6693
  7.6241  7.5309  7.2218  7.2180  7.0711  7.0176  6.9147  6.6324  6.6032  6.5754
  6.5368  6.4477  6.4246  6.4196  6.2439  6.1804  4.4100  4.4077  4.4070  4.4038
  4.3995  4.3979  4.3883  4.3874
 highest evec of mol 2
  0.0000  0.0043 -0.0573
  0.0000  0.0000  0.0004
  0.0000 -0.0043 -0.0573
  0.0000  0.1155 -0.0749
  0.0000  0.1155  0.0749
  0.0000 -0.0043  0.0573
  0.0000  0.0000 -0.0004
  0.0000  0.0043  0.0573
  0.0000 -0.1155  0.0749
  0.0000 -0.1155 -0.0749
  0.0000 -0.0004  0.1829
  0.0000  0.0004  0.1829
  0.0000 -0.3778  0.2270
  0.0000 -0.3778 -0.2270
  0.0000  0.0004 -0.1829
  0.0000 -0.0004 -0.1829
  0.0000  0.3778 -0.2270
  0.0000  0.3778  0.2270
 Enter nber and list of atoms to keep of mol #2
 keep list:          18           1           2           3           4
           5           6           7           8           9          10
          11          12          13          14          15          16
          17          18
 reordering atoms
           1   1.24078900000000     
           2 -5.921189464667501E-017
           3  -1.24078900000000     
           4  -2.48093900000000     
           5  -2.48093900000000     
           6  -1.24078900000000     
           7 -5.921189464667501E-017
           8   1.24078900000000     
           9   2.48093900000000     
          10   2.48093900000000     
          11   1.24729100000000     
          12  -1.24729100000000     
          13  -3.41125200000000     
          14  -3.41125200000000     
          15  -1.24729100000000     
          16   1.24729100000000     
          17   3.41125200000000     
          18   3.41125200000000     
           1           1
           2           2
           3           3
           4           4
           5           5
           6           6
           7           7
           8           8
           9           9
          10          10
          11          11
          12          12
          13          13
          14          14
          15          15
          16          16
          17          17
          18          18
 initial cartes coords mol 1
   6   0.00000   1.40032   1.24360
   6   0.00000   0.71571   0.00000
   6   0.00000   1.40032  -1.24360
   6   0.00000   0.70743  -2.42972
   6   0.00000  -0.70743  -2.42972
   6   0.00000  -1.40032  -1.24360
   6   0.00000  -0.71571   0.00000
   6   0.00000  -1.40032   1.24360
   6   0.00000  -0.70743   2.42972
   6   0.00000   0.70743   2.42972
   1   0.00000   2.48556   1.24214
   1   0.00000   2.48556  -1.24214
   1   0.00000   1.24305  -3.37259
   1   0.00000  -1.24305  -3.37259
   1   0.00000  -2.48556  -1.24214
   1   0.00000  -2.48556   1.24214
   1   0.00000  -1.24305   3.37259
   1   0.00000   1.24305   3.37259
 initial cartes coords mol 2
   6   0.00000   1.39528   1.24079
   6   0.00000   0.71916  -0.00000
   6   0.00000   1.39528  -1.24079
   6   0.00000   0.68730  -2.48094
   6   0.00000  -0.68730  -2.48094
   6   0.00000  -1.39528  -1.24079
   6   0.00000  -0.71916  -0.00000
   6   0.00000  -1.39528   1.24079
   6   0.00000  -0.68730   2.48094
   6   0.00000   0.68730   2.48094
   1   0.00000   2.47998   1.24729
   1   0.00000   2.47998  -1.24729
   1   0.00000   1.24344  -3.41125
   1   0.00000  -1.24344  -3.41125
   1   0.00000  -2.47998  -1.24729
   1   0.00000  -2.47998   1.24729
   1   0.00000  -1.24344   3.41125
   1   0.00000   1.24344   3.41125
 loop 1 0
 mod cartes coords mol 2
   6   0.00000   1.39528   1.24079
   6   0.00000   0.71916  -0.00000
   6   0.00000   1.39528  -1.24079
   6   0.00000   0.68730  -2.48094
   6   0.00000  -0.68730  -2.48094
   6   0.00000  -1.39528  -1.24079
   6   0.00000  -0.71916  -0.00000
   6   0.00000  -1.39528   1.24079
   6   0.00000  -0.68730   2.48094
   6   0.00000   0.68730   2.48094
   1   0.00000   2.47998   1.24729
   1   0.00000   2.47998  -1.24729
   1   0.00000   1.24344  -3.41125
   1   0.00000  -1.24344  -3.41125
   1   0.00000  -2.47998  -1.24729
   1   0.00000  -2.47998   1.24729
   1   0.00000  -1.24344   3.41125
   1   0.00000   1.24344   3.41125
 read in order, maxerr=  0.06 for atom   4
 final axis swaps:           1           1           1
 final xyz swap pattern=           1
 reorder list:
   1   2   3   4   5   6   7   8   9  10  11  12  13  14  15  16  17  18
 axis signs=           1           1           1
  6     0.000000  1.395280  1.240789     0.000000  1.400320  1.243597
  6     0.000000  0.719158 -0.000000     0.000000  0.715707  0.000000
  6     0.000000  1.395280 -1.240789     0.000000  1.400320 -1.243597
  6     0.000000  0.687299 -2.480939     0.000000  0.707429 -2.429721
  6     0.000000 -0.687299 -2.480939     0.000000 -0.707429 -2.429721
  6     0.000000 -1.395280 -1.240789     0.000000 -1.400320 -1.243597
  6     0.000000 -0.719158 -0.000000     0.000000 -0.715707  0.000000
  6     0.000000 -1.395280  1.240789     0.000000 -1.400320  1.243597
  6     0.000000 -0.687299  2.480939     0.000000 -0.707429  2.429721
  6     0.000000  0.687299  2.480939     0.000000  0.707429  2.429721
  1     0.000000  2.479975  1.247291     0.000000  2.485561  1.242140
  1     0.000000  2.479975 -1.247291     0.000000  2.485561 -1.242140
  1     0.000000  1.243436 -3.411252     0.000000  1.243049 -3.372589
  1     0.000000 -1.243436 -3.411252     0.000000 -1.243049 -3.372589
  1     0.000000 -2.479975 -1.247291     0.000000 -2.485561 -1.242140
  1     0.000000 -2.479975  1.247291     0.000000 -2.485561  1.242140
  1     0.000000 -1.243436  3.411252     0.000000 -1.243049  3.372589
  1     0.000000  1.243436  3.411252     0.000000  1.243049  3.372589
 generating redundant internal coords
         300        3600          18
 Adding extra bonds for z output only
           6           6           6           6           6           6
           6           6           6           6           1           1
           1           1           1           1           1           1
 search for int coords
   1 str   2   1   1.413
   2 str   3   2   1.413
   3 str   4   3   1.428
   4 str   5   4   1.375
   5 str   6   5   1.428
   6 str   7   2   1.438
   7 str   7   6   1.413
   8 str   8   7   1.413
   9 str   9   8   1.428
  10 str  10   1   1.428
  11 str  10   9   1.375
  12 str  11   1   1.085
  13 str  12   3   1.085
  14 str  13   4   1.084
  15 str  14   5   1.084
  16 str  15   6   1.085
  17 str  16   8   1.085
  18 str  17   9   1.084
  19 str  18  10   1.084
 nber stretches=          19
  20 ben   1   2   3
  21 prop tor   1   2   3   4
  22 prop tor   1   2   3  12
  23 ben   1   2   7
  24 prop tor   1   2   7   6
  25 prop tor   1   2   7   8
  26 ben   1  10   9
  27 ben   1  10  18
  28 ben   2   1  10
  29 prop tor   2   1  10   9
  30 prop tor   2   1  10  18
  31 ben   2   1  11
  32 ben   2   3   4
  33 prop tor   2   3   4   5
  34 prop tor   2   3   4  13
  35 ben   2   3  12
  36 ben   2   7   6
  37 ben   2   7   8
  38 prop tor   2   7   8   9
  39 prop tor   2   7   8  16
  40 ben   3   2   7
  41 prop tor   3   2   7   6
  42 prop tor   3   2   7   8
  43 ben   3   4   5
  44 prop tor   3   4   5   6
  45 prop tor   3   4   5  14
  46 ben   3   4  13
  47 ben   4   3  12
  48 ben   4   5   6
  49 prop tor   4   5   6   7
  50 prop tor   4   5   6  15
  51 ben   4   5  14
  52 ben   5   4  13
  53 ben   5   6   7
  54 prop tor   5   6   7   2
  55 prop tor   5   6   7   8
  56 ben   5   6  15
  57 ben   6   5  14
  58 ben   6   7   8
  59 prop tor   6   7   8   9
  60 prop tor   6   7   8  16
  61 prop tor   7   2   3   4
  62 prop tor   7   2   3  12
  63 ben   7   6  15
  64 ben   7   8   9
  65 prop tor   7   8   9  10
  66 prop tor   7   8   9  17
  67 ben   7   8  16
  68 ben   8   9  10
  69 prop tor   8   9  10   1
  70 prop tor   8   9  10  18
  71 ben   8   9  17
  72 ben   9   8  16
  73 ben   9  10  18
  74 prop tor  10   1   2   3
  75 prop tor  10   1   2   7
  76 ben  10   1  11
  77 ben  10   9  17
  78 prop tor  11   1   2   3
  79 prop tor  11   1   2   7
  80 prop tor  11   1  10   9
  81 prop tor  11   1  10  18
  82 prop tor  12   3   4   5
  83 prop tor  12   3   4  13
  84 prop tor  13   4   5   6
  85 prop tor  13   4   5  14
  86 prop tor  14   5   6   7
  87 prop tor  14   5   6  15
  88 prop tor  15   6   7   2
  89 prop tor  15   6   7   8
  90 prop tor  16   8   9  10
  91 prop tor  16   8   9  17
  92 prop tor  17   9  10   1
  93 prop tor  17   9  10  18
 nber bend=              30
 nber lin bend=           0
 nber prop tor=          44
 nber impr tor=           0
 nber tot redund int=          93
 generating redundant internal coords
         300        3600          18
 search for int coords
   1 str   2   1   1.420
   2 str   3   2   1.420
   3 str   4   3   1.374
   4 str   5   4   1.415
   5 str   6   5   1.374
   6 str   7   2   1.431
   7 str   7   6   1.420
   8 str   8   7   1.420
   9 str   9   8   1.374
  10 str  10   1   1.374
  11 str  10   9   1.415
  12 str  11   1   1.085
  13 str  12   3   1.085
  14 str  13   4   1.084
  15 str  14   5   1.084
  16 str  15   6   1.085
  17 str  16   8   1.085
  18 str  17   9   1.084
  19 str  18  10   1.084
 nber stretches=          19
  20 ben   1   2   3
  21 prop tor   1   2   3   4
  22 prop tor   1   2   3  12
  23 ben   1   2   7
  24 prop tor   1   2   7   6
  25 prop tor   1   2   7   8
  26 ben   1  10   9
  27 ben   1  10  18
  28 ben   2   1  10
  29 prop tor   2   1  10   9
  30 prop tor   2   1  10  18
  31 ben   2   1  11
  32 ben   2   3   4
  33 prop tor   2   3   4   5
  34 prop tor   2   3   4  13
  35 ben   2   3  12
  36 ben   2   7   6
  37 ben   2   7   8
  38 prop tor   2   7   8   9
  39 prop tor   2   7   8  16
  40 ben   3   2   7
  41 prop tor   3   2   7   6
  42 prop tor   3   2   7   8
  43 ben   3   4   5
  44 prop tor   3   4   5   6
  45 prop tor   3   4   5  14
  46 ben   3   4  13
  47 ben   4   3  12
  48 ben   4   5   6
  49 prop tor   4   5   6   7
  50 prop tor   4   5   6  15
  51 ben   4   5  14
  52 ben   5   4  13
  53 ben   5   6   7
  54 prop tor   5   6   7   2
  55 prop tor   5   6   7   8
  56 ben   5   6  15
  57 ben   6   5  14
  58 ben   6   7   8
  59 prop tor   6   7   8   9
  60 prop tor   6   7   8  16
  61 prop tor   7   2   3   4
  62 prop tor   7   2   3  12
  63 ben   7   6  15
  64 ben   7   8   9
  65 prop tor   7   8   9  10
  66 prop tor   7   8   9  17
  67 ben   7   8  16
  68 ben   8   9  10
  69 prop tor   8   9  10   1
  70 prop tor   8   9  10  18
  71 ben   8   9  17
  72 ben   9   8  16
  73 ben   9  10  18
  74 prop tor  10   1   2   3
  75 prop tor  10   1   2   7
  76 ben  10   1  11
  77 ben  10   9  17
  78 prop tor  11   1   2   3
  79 prop tor  11   1   2   7
  80 prop tor  11   1  10   9
  81 prop tor  11   1  10  18
  82 prop tor  12   3   4   5
  83 prop tor  12   3   4  13
  84 prop tor  13   4   5   6
  85 prop tor  13   4   5  14
  86 prop tor  14   5   6   7
  87 prop tor  14   5   6  15
  88 prop tor  15   6   7   2
  89 prop tor  15   6   7   8
  90 prop tor  16   8   9  10
  91 prop tor  16   8   9  17
  92 prop tor  17   9  10   1
  93 prop tor  17   9  10  18
 nber bend=              30
 nber lin bend=           0
 nber prop tor=          44
 nber impr tor=           0
 nber tot redund int=          93
 Eigenvalues of G in red int coords
    Gval -0.00000000 -0.00000000 -0.00000000 -0.00000000 -0.00000000 -0.00000000 -0.00000000 -0.00000000
    Gval -0.00000000 -0.00000000 -0.00000000 -0.00000000 -0.00000000 -0.00000000 -0.00000000 -0.00000000
    Gval -0.00000000 -0.00000000 -0.00000000 -0.00000000 -0.00000000 -0.00000000 -0.00000000  0.00000000
    Gval  0.00000000  0.00000000  0.00000000  0.00000000  0.00000000  0.00000000  0.00000000  0.00000000
    Gval  0.00000000  0.00000000  0.00000000  0.00000000  0.00000000  0.00000000  0.00000000  0.00000000
    Gval  0.00000000  0.00000000  0.00000000  0.00000000  0.00000000  0.00001847  0.00002367  0.00003746
    Gval  0.00004521  0.00005531  0.00007222  0.00007782  0.00010236  0.00010312  0.00012748  0.00013128
    Gval  0.00013414  0.00014903  0.00021066  0.00022371  0.00028992  0.00037328  0.00037993  0.00039920
    Gval  0.00049097  0.00059298  0.00059327  0.00059579  0.00059847  0.00060931  0.00062769  0.00064837
    Gval  0.00066173  0.00072154  0.00072433  0.00104422  0.00105901  0.00111173  0.00111660  0.00111866
    Gval  0.00115772  0.00116186  0.00117016  0.00117040  0.00166078  0.00189900  0.00190223  0.00248570
    Gval  0.00283428  0.00339129  0.00363498  0.00398142  0.00403599
  1.847055247904099E-005  1.847055247904099E-005
  2.367128731539249E-005  1.847055247904099E-005
  3.746228758553105E-005  1.847055247904099E-005
  4.520540210127677E-005  1.847055247904099E-005
  5.530870340831327E-005  1.847055247904099E-005
  7.222080013474412E-005  1.847055247904099E-005
  7.781886335509207E-005  1.847055247904099E-005
  1.023591627643542E-004  1.847055247904099E-005
  1.031183254448260E-004  1.847055247904099E-005
  1.274842283876596E-004  1.847055247904099E-005
  1.312841412458951E-004  1.847055247904099E-005
  1.341410875899075E-004  1.847055247904099E-005
  1.490312071895223E-004  1.847055247904099E-005
  2.106613923810081E-004  1.847055247904099E-005
  2.237122815536810E-004  1.847055247904099E-005
  2.899196843429496E-004  1.847055247904099E-005
  3.732830857438012E-004  1.847055247904099E-005
  3.799290027072714E-004  1.847055247904099E-005
  3.992026814420193E-004  1.847055247904099E-005
  4.909695417957574E-004  1.847055247904099E-005
  5.929759350378910E-004  1.847055247904099E-005
  5.932668051525435E-004  1.847055247904099E-005
  5.957926563088720E-004  1.847055247904099E-005
  5.984695069258417E-004  1.847055247904099E-005
  6.093140603300500E-004  1.847055247904099E-005
  6.276887898105669E-004  1.847055247904099E-005
  6.483737743557960E-004  1.847055247904099E-005
  6.617283415797715E-004  1.847055247904099E-005
  7.215394164990663E-004  1.847055247904099E-005
  7.243313564671117E-004  1.847055247904099E-005
  1.044216673026874E-003  1.847055247904099E-005
  1.059007381150029E-003  1.847055247904099E-005
  1.111730745057020E-003  1.847055247904099E-005
  1.116604588592495E-003  1.847055247904099E-005
  1.118655445544896E-003  1.847055247904099E-005
  1.157715988692480E-003  1.847055247904099E-005
  1.161855835152581E-003  1.847055247904099E-005
  1.170156761657873E-003  1.847055247904099E-005
  1.170396233363656E-003  1.847055247904099E-005
  1.660784663314053E-003  1.847055247904099E-005
  1.898997904782266E-003  1.847055247904099E-005
  1.902225932689062E-003  1.847055247904099E-005
  2.485703675079928E-003  1.847055247904099E-005
  2.834277496238640E-003  1.847055247904099E-005
  3.391287180290531E-003  1.847055247904099E-005
  3.634983845505136E-003  1.847055247904099E-005
  3.981420056080045E-003  1.847055247904099E-005
  4.035987883272601E-003  1.847055247904099E-005
 cut=1d-8, nber non-redundant internal coords=          48
 Check on Eigenvals of non-red overlap matrix:
  0.00001847  0.00002367  0.00003746  0.00004521  0.00005531  0.00007222  0.00007782  0.00010236
  0.00010312  0.00012748  0.00013128  0.00013414  0.00014903  0.00021066  0.00022371  0.00028992
  0.00037328  0.00037993  0.00039920  0.00049097  0.00059298  0.00059327  0.00059579  0.00059847
  0.00060931  0.00062769  0.00064837  0.00066173  0.00072154  0.00072433  0.00104422  0.00105901
  0.00111173  0.00111660  0.00111866  0.00115772  0.00116186  0.00117016  0.00117040  0.00166078
  0.00189900  0.00190223  0.00248570  0.00283428  0.00339129  0.00363498  0.00398142  0.00403599
 generating redundant internal coords
         300        3600          18
 search for int coords
   1 str   2   1   1.413
   2 str   3   2   1.413
   3 str   4   3   1.428
   4 str   5   4   1.375
   5 str   6   5   1.428
   6 str   7   2   1.438
   7 str   7   6   1.413
   8 str   8   7   1.413
   9 str   9   8   1.428
  10 str  10   1   1.428
  11 str  10   9   1.375
  12 str  11   1   1.085
  13 str  12   3   1.085
  14 str  13   4   1.084
  15 str  14   5   1.084
  16 str  15   6   1.085
  17 str  16   8   1.085
  18 str  17   9   1.084
  19 str  18  10   1.084
 nber stretches=          19
  20 ben   1   2   3
  21 prop tor   1   2   3   4
  22 prop tor   1   2   3  12
  23 ben   1   2   7
  24 prop tor   1   2   7   6
  25 prop tor   1   2   7   8
  26 ben   1  10   9
  27 ben   1  10  18
  28 ben   2   1  10
  29 prop tor   2   1  10   9
  30 prop tor   2   1  10  18
  31 ben   2   1  11
  32 ben   2   3   4
  33 prop tor   2   3   4   5
  34 prop tor   2   3   4  13
  35 ben   2   3  12
  36 ben   2   7   6
  37 ben   2   7   8
  38 prop tor   2   7   8   9
  39 prop tor   2   7   8  16
  40 ben   3   2   7
  41 prop tor   3   2   7   6
  42 prop tor   3   2   7   8
  43 ben   3   4   5
  44 prop tor   3   4   5   6
  45 prop tor   3   4   5  14
  46 ben   3   4  13
  47 ben   4   3  12
  48 ben   4   5   6
  49 prop tor   4   5   6   7
  50 prop tor   4   5   6  15
  51 ben   4   5  14
  52 ben   5   4  13
  53 ben   5   6   7
  54 prop tor   5   6   7   2
  55 prop tor   5   6   7   8
  56 ben   5   6  15
  57 ben   6   5  14
  58 ben   6   7   8
  59 prop tor   6   7   8   9
  60 prop tor   6   7   8  16
  61 prop tor   7   2   3   4
  62 prop tor   7   2   3  12
  63 ben   7   6  15
  64 ben   7   8   9
  65 prop tor   7   8   9  10
  66 prop tor   7   8   9  17
  67 ben   7   8  16
  68 ben   8   9  10
  69 prop tor   8   9  10   1
  70 prop tor   8   9  10  18
  71 ben   8   9  17
  72 ben   9   8  16
  73 ben   9  10  18
  74 prop tor  10   1   2   3
  75 prop tor  10   1   2   7
  76 ben  10   1  11
  77 ben  10   9  17
  78 prop tor  11   1   2   3
  79 prop tor  11   1   2   7
  80 prop tor  11   1  10   9
  81 prop tor  11   1  10  18
  82 prop tor  12   3   4   5
  83 prop tor  12   3   4  13
  84 prop tor  13   4   5   6
  85 prop tor  13   4   5  14
  86 prop tor  14   5   6   7
  87 prop tor  14   5   6  15
  88 prop tor  15   6   7   2
  89 prop tor  15   6   7   8
  90 prop tor  16   8   9  10
  91 prop tor  16   8   9  17
  92 prop tor  17   9  10   1
  93 prop tor  17   9  10  18
 nber bend=              30
 nber lin bend=           0
 nber prop tor=          44
 nber impr tor=           0
 nber tot redund int=          93
 Eigenvalues of G in red int coords
    Gval -0.00000000 -0.00000000 -0.00000000 -0.00000000 -0.00000000 -0.00000000 -0.00000000 -0.00000000
    Gval -0.00000000 -0.00000000 -0.00000000 -0.00000000 -0.00000000 -0.00000000 -0.00000000 -0.00000000
    Gval -0.00000000 -0.00000000 -0.00000000  0.00000000  0.00000000  0.00000000  0.00000000  0.00000000
    Gval  0.00000000  0.00000000  0.00000000  0.00000000  0.00000000  0.00000000  0.00000000  0.00000000
    Gval  0.00000000  0.00000000  0.00000000  0.00000000  0.00000000  0.00000000  0.00000000  0.00000000
    Gval  0.00000000  0.00000000  0.00000000  0.00000000  0.00000000  0.00001841  0.00002325  0.00003811
    Gval  0.00004487  0.00005539  0.00007227  0.00007748  0.00010146  0.00010204  0.00012169  0.00013070
    Gval  0.00013252  0.00015143  0.00021358  0.00021777  0.00028739  0.00036984  0.00037856  0.00039640
    Gval  0.00048271  0.00059303  0.00059332  0.00059573  0.00059847  0.00060867  0.00062675  0.00064629
    Gval  0.00065940  0.00070323  0.00072324  0.00104511  0.00105965  0.00109009  0.00111312  0.00112090
    Gval  0.00114864  0.00115397  0.00117168  0.00117188  0.00166190  0.00189769  0.00191291  0.00249744
    Gval  0.00286040  0.00333858  0.00358992  0.00399860  0.00404553
  1.841278464241561E-005  1.841278464241561E-005
  2.325238950583302E-005  1.841278464241561E-005
  3.811363493350403E-005  1.841278464241561E-005
  4.487304281989591E-005  1.841278464241561E-005
  5.538591578533993E-005  1.841278464241561E-005
  7.226581348336148E-005  1.841278464241561E-005
  7.748377662539106E-005  1.841278464241561E-005
  1.014612013038876E-004  1.841278464241561E-005
  1.020427171935045E-004  1.841278464241561E-005
  1.216910684528609E-004  1.841278464241561E-005
  1.307006900389786E-004  1.841278464241561E-005
  1.325211821736003E-004  1.841278464241561E-005
  1.514292558506027E-004  1.841278464241561E-005
  2.135821643169950E-004  1.841278464241561E-005
  2.177656018623036E-004  1.841278464241561E-005
  2.873871249074979E-004  1.841278464241561E-005
  3.698366441234219E-004  1.841278464241561E-005
  3.785594579380937E-004  1.841278464241561E-005
  3.963990062950520E-004  1.841278464241561E-005
  4.827068536226283E-004  1.841278464241561E-005
  5.930286216610986E-004  1.841278464241561E-005
  5.933241109918207E-004  1.841278464241561E-005
  5.957282155052170E-004  1.841278464241561E-005
  5.984682420549314E-004  1.841278464241561E-005
  6.086666972924316E-004  1.841278464241561E-005
  6.267527695113861E-004  1.841278464241561E-005
  6.462882926254066E-004  1.841278464241561E-005
  6.593960533370257E-004  1.841278464241561E-005
  7.032258895735245E-004  1.841278464241561E-005
  7.232437992053283E-004  1.841278464241561E-005
  1.045112038167033E-003  1.841278464241561E-005
  1.059654303187006E-003  1.841278464241561E-005
  1.090085150140654E-003  1.841278464241561E-005
  1.113121102735134E-003  1.841278464241561E-005
  1.120896843172873E-003  1.841278464241561E-005
  1.148638024926588E-003  1.841278464241561E-005
  1.153967621970335E-003  1.841278464241561E-005
  1.171683715671845E-003  1.841278464241561E-005
  1.171878658700161E-003  1.841278464241561E-005
  1.661900053129995E-003  1.841278464241561E-005
  1.897688720788280E-003  1.841278464241561E-005
  1.912905566574674E-003  1.841278464241561E-005
  2.497439630956239E-003  1.841278464241561E-005
  2.860396422550097E-003  1.841278464241561E-005
  3.338577536300367E-003  1.841278464241561E-005
  3.589919792694190E-003  1.841278464241561E-005
  3.998601066542572E-003  1.841278464241561E-005
  4.045528676717321E-003  1.841278464241561E-005
 cut=1d-8, nber non-redundant internal coords=          48
 Check on Eigenvals of non-red overlap matrix:
  0.00001841  0.00002325  0.00003811  0.00004487  0.00005539  0.00007227  0.00007748  0.00010146
  0.00010204  0.00012169  0.00013070  0.00013252  0.00015143  0.00021358  0.00021777  0.00028739
  0.00036984  0.00037856  0.00039640  0.00048271  0.00059303  0.00059332  0.00059573  0.00059847
  0.00060867  0.00062675  0.00064629  0.00065940  0.00070323  0.00072324  0.00104511  0.00105965
  0.00109009  0.00111312  0.00112090  0.00114864  0.00115397  0.00117168  0.00117188  0.00166190
  0.00189769  0.00191291  0.00249744  0.00286040  0.00333858  0.00358992  0.00399860  0.00404553
 d1=
  12.0   0.0   0.0  -5.5  -0.0   0.0  -0.0   0.0   8.0  -0.0   0.0   5.9  -0.0   0.0   0.0   0.0   0.0  -1.6   0.0   0.0
   0.0   0.2  -0.0   0.0   0.0  -0.7   0.0   0.0  -0.0   0.0   0.0   1.9  -0.0   0.0  -0.0   0.0   0.1   0.0   0.0   0.0
   0.0   0.0  -0.0   0.0   0.0   0.0  -0.0  -0.0
 d2=
  12.0  -0.0   0.0   5.7  -0.0  -0.0   0.0   7.6   0.0  -0.0  -0.0  -6.3  -0.0  -0.0   0.0   0.0   0.0  -1.6  -0.0   0.0
   0.0  -0.2   0.0   0.0  -0.0  -0.7   0.0  -0.0   0.0  -0.0  -0.0  -1.9   0.0   0.0   0.0  -0.0   0.0   0.0  -0.0  -0.0
   0.0   0.0   0.0  -0.0   0.0  -0.0   0.0   0.0
 curvilinear- renormalizn of Dush matrix done
  mol 1 sym            1  -> mol 2 sym            1
  mol 1 sym            2  -> mol 2 sym            2
  mol 1 sym            3  -> mol 2 sym            3
  mol 1 sym            4  -> mol 2 sym            4
  mol 1 sym            5  -> mol 2 sym            5
  mol 1 sym            6  -> mol 2 sym            6
  mol 1 sym            7  -> mol 2 sym            7
  mol 1 sym            8  -> mol 2 sym            8

 Dushinsky matrix, ncs 2 in terms of ncs 1

   mode   freq    coeff     %      %tot     of    at

   1 B2u    -0. -0.0000     0.0     0.0  35 B2u  1232.
   2 B2g    -0. -0.0000     0.0     0.0  11 B2g   480.
   3 B3u    -0.  0.0000     0.0     0.0   7 B3u   173.
   4 B1g    -0. -0.0000     0.0     0.0  10 B1g   395.
   5 B3g     0. -0.0000     0.0     0.0  33 B3g  1172.
   6 B1u     0.  0.0000     0.0     0.0   9 B1u   366.
   7 Au    153.  0.9952    99.0   101.6   8 Au    186.
   8 B3u   163. -0.9929    98.6    95.3   7 B3u   173.
   9 B1g   272.  0.9867    97.4    98.6  10 B1g   395.
  10 B1u   358. -0.9994    99.9    98.0   9 B1u   366.
  11 B3u   380.  0.9691    93.9   100.6  12 B3u   487.
  12 B2g   469. -0.9650    93.1    97.3  11 B2g   480.
  13 B3g   476.  0.9984    99.7   101.8  13 B3g   519.
  14 Au    481. -0.8924    79.6    98.6  15 Au    635.
                -0.4063    16.5          22 Au    848.
  15 Ag    505.  0.9987    99.7    99.0  14 Ag    520.
  16 B2u   563. -0.9986    99.7    97.3  16 B2u   636.
  17 B1g   685.  0.9829    96.6   100.0  17 B1g   729.
  18 B3u   690.  0.9763    95.3   100.2  20 B3u   799.
  19 B2g   706. -0.9633    92.8    99.9  19 B2g   786.
  20 Au    736.  0.4308    18.6    98.4  15 Au    635.
                -0.8178    66.9          22 Au    848.
                 0.3814    14.5          27 Au    993.
  21 Ag    757. -0.9977    99.6    97.6  18 Ag    773.
  22 B1u   796.  0.9978    99.6   101.2  21 B1u   809.
  23 B1g   828.  0.9921    98.4    98.2  25 B1g   956.
  24 B2g   842. -0.9358    87.6    99.8  23 B2g   896.
                -0.3393    11.5          28 B2g  1000.
  25 B3u   848.  0.9796    96.0    98.9  26 B3u   973.
  26 B3g   918.  0.9965    99.3    97.1  24 B3g   951.
  27 Au    921. -0.4286    18.4   101.5  22 Au    848.
                -0.9031    81.6          27 Au    993.
  28 B2g   922. -0.3447    11.9   101.1  23 B2g   896.
                 0.9298    86.5          28 B2g  1000.
  29 B2u  1010. -0.8911    79.4   100.0  29 B2u  1035.
  30 B3g  1045. -0.9322    86.9   100.3  33 B3g  1172.
  31 Ag   1057.  0.9575    91.7   100.1  30 Ag   1046.
  32 B1u  1084.  0.9729    94.6    99.3  31 B1u  1151.
  33 Ag   1178.  0.9801    96.1   100.2  34 Ag   1185.
  34 B2u  1180.  0.3381    11.4   100.1  29 B2u  1035.
                -0.7214    52.0          32 B2u  1169.
                 0.6028    36.3          35 B2u  1232.
  35 B2u  1229. -0.5965    35.6   100.2  32 B2u  1169.
                -0.6669    44.5          35 B2u  1232.
                -0.4308    18.6          38 B2u  1391.
  36 B3g  1248. -0.9866    97.3    99.8  36 B3g  1270.
  37 B1u  1285.  0.9940    98.8   100.2  37 B1u  1287.
  38 Ag   1397. -0.8984    80.7    99.8  39 Ag   1398.
                -0.3991    15.9          41 Ag   1490.
  39 B1u  1410.  0.9934    98.7    99.4  40 B1u  1418.
  40 B3g  1421. -0.8001    64.0   101.3  42 B3g  1491.
                 0.5198    27.0          46 B3g  1670.
  41 B2u  1438.  0.3901    15.2   100.1  35 B2u  1232.
                -0.8545    73.0          38 B2u  1391.
  42 Ag   1478.  0.4003    16.0    99.8  39 Ag   1398.
                -0.8099    65.6          41 Ag   1490.
                 0.4233    17.9          44 Ag   1613.
  43 B1u  1489.  0.9716    94.4   100.9  45 B1u  1641.
  44 B3g  1491. -0.5698    32.5    99.7  42 B3g  1491.
                -0.8012    64.2          46 B3g  1670.
  45 B2u  1576. -0.9895    97.9    98.2  43 B2u  1548.
  46 Ag   1609. -0.4132    17.1    98.8  41 Ag   1490.
                -0.8935    79.8          44 Ag   1613.
  47 B3g  3160.  0.9951    99.0   100.0  47 B3g  3154.
  48 B1u  3163. -0.9995    99.9   100.0  48 B1u  3156.
  49 B2u  3164.  0.9987    99.7   100.0  49 B2u  3158.
  50 Ag   3169.  0.9985    99.7   100.0  50 Ag   3162.
  51 B3g  3175.  0.9950    99.0   100.0  51 B3g  3172.
  52 B1u  3177.  0.9994    99.9   100.0  52 B1u  3173.
  53 B2u  3191.  0.9986    99.7   100.0  53 B2u  3185.
  54 Ag   3193.  0.9984    99.7   100.0  54 Ag   3186.
 nber times 1st assigned=           1           0
 nber times 1st assigned=           2           0
 nber times 1st assigned=           3           0
 nber times 1st assigned=           4           0
 nber times 1st assigned=           5           0
 nber times 1st assigned=           6           0
 nber times 1st assigned=           8           0
 nber times 1st assigned=          12           0
 nber times 1st assigned=          13           0
 nber times 1st assigned=          14           0
 nber times 1st assigned=          15           0
 nber times 1st assigned=          16           0
 nber times 1st assigned=          17           0
 nber times 1st assigned=          18           0
 nber times 1st assigned=          19           0
 nber times 1st assigned=          20           0
 nber times 1st assigned=          21           0
 nber times 1st assigned=          22           0
 nber times 1st assigned=          23           0
 nber times 1st assigned=          24           0
 nber times 1st assigned=          25           0
 nber times 1st assigned=          26           0
 nber times 1st assigned=          27           0
 nber times 1st assigned=          28           0
 nber times 1st assigned=          29           0
 nber times 1st assigned=          30           0
 nber times 1st assigned=          31           0
 nber times 1st assigned=          32           0
 nber times 1st assigned=          34           0
 nber times 1st assigned=          36           0
 nber times 1st assigned=          37           0
 nber times 1st assigned=          38           0
 nber times 1st assigned=          39           0
 nber times 1st assigned=          40           0
 nber times 1st assigned=          41           0
 nber times 1st assigned=          42           0
 nber times 1st assigned=          43           0
 nber times 1st assigned=          44           0
 nber times 1st assigned=          45           0
 nber times 1st assigned=          46           0
 nber times 1st assigned=          47           0
 nber times 1st assigned=          48           0
 nber times 1st assigned=          49           0
 nber times 1st assigned=          50           0
 nber times 1st assigned=          51           0
 nber times 1st assigned=          52           0
 nber times 1st assigned=          53           0
 nber times 1st assigned=          54           0
 Dushinsky matrix written to .out file
 modes represented=   47.8019136693835     

 Dushinsky matrix, ncs 1 in terms of ncs 2

   mode   freq    coeff     %      %tot     of    at

   7 B3u   173. -0.9929    98.6    95.8   8 B3u   163.
   8 Au    186.  0.9952    99.0   101.6   7 Au    153.
   9 B1u   366. -0.9994    99.9    98.2  10 B1u   358.
  10 B1g   395.  0.9867    97.4    98.3   9 B1g   272.
  11 B2g   480. -0.9650    93.1    97.3  12 B2g   469.
  12 B3u   487.  0.9691    93.9   100.2  11 B3u   380.
  13 B3g   519.  0.9984    99.7   101.9  13 B3g   476.
  14 Ag    520.  0.9987    99.7    99.3  15 Ag    505.
  15 Au    635. -0.8924    79.6    97.7  14 Au    481.
                 0.4308    18.6          20 Au    736.
  16 B2u   636. -0.9986    99.7    97.4  16 B2u   563.
  17 B1g   729.  0.9829    96.6   100.3  17 B1g   685.
  18 Ag    773. -0.9977    99.6    97.4  21 Ag    757.
  19 B2g   786. -0.9633    92.8    99.9  19 B2g   706.
  20 B3u   799.  0.9763    95.3   100.7  18 B3u   690.
  21 B1u   809.  0.9978    99.6   101.2  22 B1u   796.
  22 Au    848. -0.4063    16.5   100.8  14 Au    481.
                -0.8178    66.9          20 Au    736.
                -0.4286    18.4          27 Au    921.
  23 B2g   896. -0.9358    87.6   101.0  24 B2g   842.
                -0.3447    11.9          28 B2g   922.
  24 B3g   951.  0.9965    99.3    97.2  26 B3g   918.
  25 B1g   956.  0.9921    98.4    98.2  23 B1g   828.
  26 B3u   973.  0.9796    96.0    98.5  25 B3u   848.
  27 Au    993.  0.3814    14.5   100.0  20 Au    736.
                -0.9031    81.6          27 Au    921.
  28 B2g  1000. -0.3393    11.5    99.9  24 B2g   842.
                 0.9298    86.5          28 B2g   922.
  29 B2u  1035. -0.8911    79.4   100.1  29 B2u  1010.
                 0.3381    11.4          34 B2u  1180.
  30 Ag   1046.  0.9575    91.7   100.1  31 Ag   1057.
  31 B1u  1151.  0.9729    94.6    99.1  32 B1u  1084.
  32 B2u  1169. -0.7214    52.0   100.1  34 B2u  1180.
                -0.5965    35.6          35 B2u  1229.
  33 B3g  1172. -0.9322    86.9    99.9  30 B3g  1045.
  34 Ag   1185.  0.9801    96.1   100.0  33 Ag   1178.
  35 B2u  1232.  0.6028    36.3   100.0  34 B2u  1180.
                -0.6669    44.5          35 B2u  1229.
                 0.3901    15.2          41 B2u  1438.
  36 B3g  1270. -0.9866    97.3    99.7  36 B3g  1248.
  37 B1u  1287.  0.9940    98.8   100.2  37 B1u  1285.
  38 B2u  1391. -0.4308    18.6   100.0  35 B2u  1229.
                -0.8545    73.0          41 B2u  1438.
  39 Ag   1398. -0.8984    80.7   100.1  38 Ag   1397.
                 0.4003    16.0          42 Ag   1478.
  40 B1u  1418.  0.9934    98.7    99.1  39 B1u  1410.
  41 Ag   1490. -0.3991    15.9    98.6  38 Ag   1397.
                -0.8099    65.6          42 Ag   1478.
                -0.4132    17.1          46 Ag   1609.
  42 B3g  1491. -0.8001    64.0   100.6  40 B3g  1421.
                -0.5698    32.5          44 B3g  1491.
  43 B2u  1548. -0.9895    97.9    98.3  45 B2u  1576.
  44 Ag   1613.  0.4233    17.9    99.7  42 Ag   1478.
                -0.8935    79.8          46 Ag   1609.
  45 B1u  1641.  0.9716    94.4   101.2  43 B1u  1489.
  46 B3g  1670.  0.5198    27.0   100.6  40 B3g  1421.
                -0.8012    64.2          44 B3g  1491.
  47 B3g  3154.  0.9951    99.0   100.0  47 B3g  3160.
  48 B1u  3156. -0.9995    99.9   100.0  48 B1u  3163.
  49 B2u  3158.  0.9987    99.7   100.0  49 B2u  3164.
  50 Ag   3162.  0.9985    99.7   100.0  50 Ag   3169.
  51 B3g  3172.  0.9950    99.0   100.0  51 B3g  3175.
  52 B1u  3173.  0.9994    99.9   100.0  52 B1u  3177.
  53 B2u  3185.  0.9986    99.7   100.0  53 B2u  3191.
  54 Ag   3186.  0.9984    99.7   100.0  54 Ag   3193.
 nber times 1st assigned=           1           0
 nber times 1st assigned=           2           0
 nber times 1st assigned=           3           0
 nber times 1st assigned=           4           0
 nber times 1st assigned=           5           0
 nber times 1st assigned=           6           0
 nber times 1st assigned=           7           0
 nber times 1st assigned=           8           0
 nber times 1st assigned=           9           0
 nber times 1st assigned=          10           0
 nber times 1st assigned=          11           0
 nber times 1st assigned=          12           0
 nber times 1st assigned=          13           0
 nber times 1st assigned=          14           0
 nber times 1st assigned=          15           0
 nber times 1st assigned=          16           0
 nber times 1st assigned=          17           0
 nber times 1st assigned=          18           0
 nber times 1st assigned=          19           0
 nber times 1st assigned=          20           0
 nber times 1st assigned=          21           0
 nber times 1st assigned=          22           0
 nber times 1st assigned=          23           0
 nber times 1st assigned=          24           0
 nber times 1st assigned=          25           0
 nber times 1st assigned=          26           0
 nber times 1st assigned=          27           0
 nber times 1st assigned=          28           0
 nber times 1st assigned=          29           0
 nber times 1st assigned=          30           0
 nber times 1st assigned=          31           0
 nber times 1st assigned=          32           0
 nber times 1st assigned=          33           0
 nber times 1st assigned=          34           0
 nber times 1st assigned=          35           0
 nber times 1st assigned=          36           0
 nber times 1st assigned=          37           0
 nber times 1st assigned=          38           0
 nber times 1st assigned=          39           0
 nber times 1st assigned=          40           0
 nber times 1st assigned=          41           0
 nber times 1st assigned=          42           0
 nber times 1st assigned=          43           0
 nber times 1st assigned=          44           0
 nber times 1st assigned=          45           0
 nber times 1st assigned=          46           0
 nber times 1st assigned=          47           0
 nber times 1st assigned=          48           0
 nber times 1st assigned=          49           0
 nber times 1st assigned=          50           0
 nber times 1st assigned=          51           0
 nber times 1st assigned=          52           0
 nber times 1st assigned=          53           0
 nber times 1st assigned=          54           0
 modes represented=   47.8019136693835     
 p1=
    0.   -0.   -0.    0.   -0.    0.   -0.    0.    0.   -0.    0.    0.   -0.   13.   -0.   -0.    0.    0.    0.    0.
   -0.    0.    0.    0.   -0.   -0.    0.    0.    0.   -1.    0.    0.    0.    3.    0.   -0.   -0.   -0.   -7.   -0.
   -2.    0.   -0.    7.   -0.    0.    0.   -0.   -0.    0.   -0.   -0.    0.   -0.
 p2=
    0.    0.    0.    0.   -0.    0.   -0.   -0.    0.   -0.   -0.   -0.   -0.    0.  -13.   -0.    0.   -0.   -0.    0.
    1.    0.    0.   -0.   -0.    0.    0.   -0.   -0.    0.    4.    0.   -3.    0.   -0.   -0.   -0.   -7.   -0.   -0.
   -0.   -1.    0.    0.    0.    6.   -0.    0.    0.   -0.   -0.   -0.   -0.    0.

 Displacement: in terms of nc of 1 THEN of nc of 2

   1 B3u freq=    -0. Q=  0.000 lam=    -0.0 B2u freq=    -0. Q=  0.000 lam=    -0.0
   2 B2g freq=    -0. Q= -0.000 lam=    -0.0 B2g freq=    -0. Q= -0.000 lam=    -0.0
   3 B1g freq=    -0. Q= -0.000 lam=    -0.0 B3u freq=    -0. Q= -0.000 lam=    -0.0
   4 B2u freq=     0. Q=  0.000 lam=     0.0 B1g freq=    -0. Q=  0.000 lam=    -0.0
   5 B1u freq=     0. Q= -0.000 lam=     0.0 B3g freq=     0. Q= -0.000 lam=     0.0
   6 B3g freq=     0. Q=  0.000 lam=     0.0 B1u freq=     0. Q=  0.000 lam=     0.0
   7 B3u freq=   173. Q= -0.000 lam=     0.0 Au  freq=   153. Q= -0.000 lam=     0.0
   8 Au  freq=   186. Q=  0.000 lam=     0.0 B3u freq=   163. Q=  0.000 lam=     0.0
   9 B1u freq=   366. Q=  0.000 lam=     0.0 B1g freq=   272. Q=  0.000 lam=     0.0
  10 B1g freq=   395. Q= -0.000 lam=     0.0 B1u freq=   358. Q= -0.000 lam=     0.0
  11 B2g freq=   480. Q=  0.000 lam=     0.0 B3u freq=   380. Q=  0.000 lam=     0.0
  12 B3u freq=   487. Q=  0.000 lam=     0.0 B2g freq=   469. Q=  0.000 lam=     0.0
  13 B3g freq=   519. Q= -0.000 lam=     0.0 B3g freq=   476. Q= -0.000 lam=     0.0
  14 Ag  freq=   520. Q=  1.158 lam=   348.7 Au  freq=   481. Q=  0.000 lam=     0.0
  15 Au  freq=   635. Q= -0.000 lam=     0.0 Ag  freq=   505. Q= -1.179 lam=   351.2
  16 B2u freq=   636. Q= -0.000 lam=     0.0 B2u freq=   563. Q= -0.000 lam=     0.0
  17 B1g freq=   729. Q=  0.000 lam=     0.0 B1g freq=   685. Q=  0.000 lam=     0.0
  18 Ag  freq=   773. Q=  0.021 lam=     0.2 B3u freq=   690. Q=  0.000 lam=     0.0
  19 B2g freq=   786. Q=  0.000 lam=     0.0 B2g freq=   706. Q=  0.000 lam=     0.0
  20 B3u freq=   799. Q=  0.000 lam=     0.0 Au  freq=   736. Q=  0.000 lam=     0.0
  21 B1u freq=   809. Q= -0.000 lam=     0.0 Ag  freq=   757. Q= -0.112 lam=     4.8
  22 Au  freq=   848. Q=  0.000 lam=     0.0 B1u freq=   796. Q=  0.000 lam=     0.0
  23 B2g freq=   896. Q=  0.000 lam=     0.0 B1g freq=   828. Q=  0.000 lam=     0.0
  24 B3g freq=   951. Q=  0.000 lam=     0.0 B2g freq=   842. Q=  0.000 lam=     0.0
  25 B1g freq=   956. Q= -0.000 lam=     0.0 B3u freq=   848. Q= -0.000 lam=     0.0
  26 B3u freq=   973. Q= -0.000 lam=     0.0 B3g freq=   918. Q= -0.000 lam=     0.0
  27 Au  freq=   993. Q=  0.000 lam=     0.0 Au  freq=   921. Q=  0.000 lam=     0.0
  28 B2g freq=  1000. Q=  0.000 lam=     0.0 B2g freq=   922. Q=  0.000 lam=     0.0
  29 B2u freq=  1035. Q=  0.000 lam=     0.0 B2u freq=  1010. Q=  0.000 lam=     0.0
  30 Ag  freq=  1046. Q= -0.165 lam=    14.2 B3g freq=  1045. Q= -0.000 lam=     0.0
  31 B1u freq=  1151. Q=  0.000 lam=     0.0 Ag  freq=  1057. Q=  0.495 lam=   129.8
  32 B2u freq=  1169. Q=  0.000 lam=     0.0 B1u freq=  1084. Q=  0.000 lam=     0.0
  33 B3g freq=  1172. Q=  0.000 lam=     0.0 Ag  freq=  1178. Q=  0.361 lam=    76.8
  34 Ag  freq=  1185. Q=  0.453 lam=   121.5 B2u freq=  1180. Q=  0.000 lam=     0.0
  35 B2u freq=  1232. Q=  0.000 lam=     0.0 B2u freq=  1229. Q=  0.000 lam=     0.0
  36 B3g freq=  1270. Q= -0.000 lam=     0.0 B3g freq=  1248. Q= -0.000 lam=     0.0
  37 B1u freq=  1287. Q= -0.000 lam=     0.0 B1u freq=  1285. Q= -0.000 lam=     0.0
  38 B2u freq=  1391. Q= -0.000 lam=     0.0 Ag  freq=  1397. Q= -1.117 lam=   872.0
  39 Ag  freq=  1398. Q= -1.124 lam=   883.7 B1u freq=  1410. Q= -0.000 lam=     0.0
  40 B1u freq=  1418. Q= -0.000 lam=     0.0 B3g freq=  1421. Q= -0.000 lam=     0.0
  41 Ag  freq=  1490. Q= -0.298 lam=    66.2 B2u freq=  1438. Q= -0.000 lam=     0.0
  42 B3g freq=  1491. Q=  0.000 lam=     0.0 Ag  freq=  1478. Q=  0.191 lam=    26.9
  43 B2u freq=  1548. Q= -0.000 lam=     0.0 B1u freq=  1489. Q= -0.000 lam=     0.0
  44 Ag  freq=  1613. Q=  1.124 lam=  1019.3 B3g freq=  1491. Q=  0.000 lam=     0.0
  45 B1u freq=  1641. Q= -0.000 lam=     0.0 B2u freq=  1576. Q= -0.000 lam=     0.0
  46 B3g freq=  1670. Q=  0.000 lam=     0.0 Ag  freq=  1609. Q=  0.936 lam=   704.5
  47 B3g freq=  3154. Q=  0.000 lam=     0.0 B3g freq=  3160. Q=  0.000 lam=     0.0
  48 B1u freq=  3156. Q= -0.000 lam=     0.0 B1u freq=  3163. Q= -0.000 lam=     0.0
  49 B2u freq=  3158. Q= -0.000 lam=     0.0 B2u freq=  3164. Q= -0.000 lam=     0.0
  50 Ag  freq=  3162. Q=  0.020 lam=     0.6 Ag  freq=  3169. Q=  0.025 lam=     1.0
  51 B3g freq=  3172. Q= -0.000 lam=     0.0 B3g freq=  3175. Q= -0.000 lam=     0.0
  52 B1u freq=  3173. Q= -0.000 lam=     0.0 B1u freq=  3177. Q= -0.000 lam=     0.0
  53 B2u freq=  3185. Q=  0.000 lam=     0.0 B2u freq=  3191. Q=  0.000 lam=     0.0
  54 Ag  freq=  3186. Q= -0.050 lam=     4.0 Ag  freq=  3193. Q= -0.028 lam=     1.2

 total reorg energy (cm**-1, kcal/mol)=     2458.     2168.      7.03      6.20
 Nber of molecules processed=           2
