 Enter ifcurve (0=recti, 1=orth curvi, 2=apprx curvi, -1 = skip
 And atom ordering flag, 0= never changes, 1= use the first order thenceforth,
  2= deduce it (does read on fail), 3= always read it
 Reading file: 
 ./IDT-PDI_2_C0S1.log                                                           
                                          
  Entering Gaussian System, Link 0=g16                                          
  
 Gaussian format, type: g94, g98, g03= F F F
  #P Geom=AllCheck Guess=TCheck SCRF=Check GenChk RB3LYP TD(FC,Read)/6-3    
 energy type= TD      
 Original G94 input coords:
  6  1.086550  0.677672  0.027127
  6  2.503348  0.093446  0.060683
  6  2.819499 -0.653440  1.361452
  7  2.790042 -0.739927 -1.143149
  6  2.049742 -1.914623 -1.353680
  8  1.177623 -2.257802 -0.563242
  6  2.369090 -2.701488 -2.553782
  6  1.661752 -3.877291 -2.808064
  6  1.937359 -4.639608 -3.927218
  6  2.936757 -4.267770 -4.855043
  6  3.234525 -5.057254 -6.030663
  6  2.536043 -6.255888 -6.319755
  6  2.820550 -7.001711 -7.435724
  6  3.821031 -6.601454 -8.337369
  6  4.068064 -7.433302 -9.491910
  8  3.508784 -8.464161 -9.796377
  7  5.129962 -6.935211-10.374646
  6  5.402090 -7.658585-11.454792
  6  5.655306 -8.314092-12.442838
  6  5.943830 -9.060622-13.569608
  6  6.912920 -8.796735-14.552292
  6  6.925001 -9.764783-15.547360
  6  5.975965-10.781124-15.352073
 16  5.042326-10.547623-13.911641
  6  6.032460-11.739430-16.395485
  6  5.286329-12.916403-16.625586
  6  5.576605-13.654060-17.747587
  6  6.606830-13.231492-18.647954
  6  7.351781-12.059182-18.421037
  6  7.063215-11.318093-17.298198
  6  7.715056-10.015353-16.819232
  6  7.513868 -8.873640-17.839873
  6  9.217059-10.212421-16.517733
  6  6.658312-14.202584-19.698105
 16  7.585020-14.449000-21.142645
  6  6.692467-15.906840-21.469061
  6  5.738293-16.183106-20.518718
  6  5.719312-15.204231-19.502365
  6  4.926914-14.957298-18.230856
  6  5.126899-16.098826-17.209784
  6  3.424605-14.759979-18.531072
  6  5.919868 -5.713154-10.177868
  8  6.764638 -5.439603-11.001959
  6  5.574241 -4.971491 -8.987298
  6  6.278954 -3.786130 -8.718845
  6  5.999252 -3.035096 -7.605079
  6  4.994016 -3.420950 -6.683885
  6  4.696030 -2.631443 -5.508196
  6  5.383956 -1.433942 -5.206944
  6  5.090655 -0.688128 -4.081314
  6  4.093810 -1.097133 -3.194003
  6  3.808176 -0.279854 -2.007079
  8  4.418168  0.754947 -1.767079
  6  3.377487 -2.286378 -3.449985
  6  3.672821 -3.068922 -4.614952
  6  4.259241 -4.623627 -6.930006
  6  4.556095 -5.410918 -8.102890
  1  0.972823  1.391335  0.848546
  1  0.331053 -0.100075  0.130335
  1  0.915699  1.215719 -0.909107
  1  3.209014  0.915849 -0.035346
  1  2.135856 -1.486326  1.520384
  1  2.733088  0.039608  2.203592
  1  3.844221 -1.034112  1.345730
  1  0.893396 -4.173546 -2.105259
  1  1.363707 -5.542218 -4.082777
  1  1.759044 -6.600937 -5.653637
  1  2.279683 -7.915747 -7.646014
  1  7.548599 -7.925182-14.490061
  1  4.510557-13.218571-15.931219
  1  8.127627-11.756770-19.115277
  1  6.455845 -8.722890-18.062949
  1  8.034242 -9.099283-18.773834
  1  7.918376 -7.938013-17.446961
  1  9.374746-11.017777-15.797691
  1  9.644791 -9.295432-16.105929
  1  9.762140-10.456640-17.432735
  1  6.930230-16.477573-22.353946
  1  5.095390-17.051199-20.569425
  1  6.184767-16.247685-16.984446
  1  4.724646-17.035373-17.603856
  1  4.604242-15.876304-16.276364
  1  3.267082-13.952258-19.248551
  1  2.877636-14.519306-17.616286
  1  2.997039-15.676118-18.945885
  1  7.049491 -3.481069 -9.415588
  1  6.565485 -2.130734 -7.437742
  1  6.163779 -1.077833 -5.864965
  1  5.625694  0.227292 -3.862932
 nber atoms=          89
  Total Energy, E(TD-HF/TD-DFT) =  -3093.90416045                               
  
          32          49 "  -3093.90416045"
After scan for Atom:   Atom  AN      X      Y      Z        X      Y      Z        X      Y      Z   
After scan for Atom:   Atom  AN      X      Y      Z        X      Y      Z        X      Y      Z   
After scan for Atom:   Atom  AN      X      Y      Z        X      Y      Z        X      Y      Z   
After scan for Atom:   Atom  AN      X      Y      Z        X      Y      Z        X      Y      Z   
After scan for Atom:   Atom  AN      X      Y      Z        X      Y      Z        X      Y      Z   
After scan for Atom:   Atom  AN      X      Y      Z        X      Y      Z        X      Y      Z   
After scan for Atom:   Atom  AN      X      Y      Z        X      Y      Z        X      Y      Z   
After scan for Atom:   Atom  AN      X      Y      Z        X      Y      Z        X      Y      Z   
After scan for Atom:   Atom  AN      X      Y      Z        X      Y      Z        X      Y      Z   
After scan for Atom:   Atom  AN      X      Y      Z        X      Y      Z        X      Y      Z   
After scan for Atom:   Atom  AN      X      Y      Z        X      Y      Z        X      Y      Z   
After scan for Atom:   Atom  AN      X      Y      Z        X      Y      Z        X      Y      Z   
After scan for Atom:   Atom  AN      X      Y      Z        X      Y      Z        X      Y      Z   
After scan for Atom:   Atom  AN      X      Y      Z        X      Y      Z        X      Y      Z   
After scan for Atom:   Atom  AN      X      Y      Z        X      Y      Z        X      Y      Z   
After scan for Atom:   Atom  AN      X      Y      Z        X      Y      Z        X      Y      Z   
After scan for Atom:   Atom  AN      X      Y      Z        X      Y      Z        X      Y      Z   
After scan for Atom:   Atom  AN      X      Y      Z        X      Y      Z        X      Y      Z   
After scan for Atom:   Atom  AN      X      Y      Z        X      Y      Z        X      Y      Z   
After scan for Atom:   Atom  AN      X      Y      Z        X      Y      Z        X      Y      Z   
After scan for Atom:   Atom  AN      X      Y      Z        X      Y      Z        X      Y      Z   
After scan for Atom:   Atom  AN      X      Y      Z        X      Y      Z        X      Y      Z   
After scan for Atom:   Atom  AN      X      Y      Z        X      Y      Z        X      Y      Z   
After scan for Atom:   Atom  AN      X      Y      Z        X      Y      Z        X      Y      Z   
After scan for Atom:   Atom  AN      X      Y      Z        X      Y      Z        X      Y      Z   
After scan for Atom:   Atom  AN      X      Y      Z        X      Y      Z        X      Y      Z   
After scan for Atom:   Atom  AN      X      Y      Z        X      Y      Z        X      Y      Z   
After scan for Atom:   Atom  AN      X      Y      Z        X      Y      Z        X      Y      Z   
After scan for Atom:   Atom  AN      X      Y      Z        X      Y      Z        X      Y      Z   
After scan for Atom:   Atom  AN      X      Y      Z        X      Y      Z        X      Y      Z   
After scan for Atom:   Atom  AN      X      Y      Z        X      Y      Z        X      Y      Z   
After scan for Atom:   Atom  AN      X      Y      Z        X      Y      Z        X      Y      Z   
After scan for Atom:   Atom  AN      X      Y      Z        X      Y      Z        X      Y      Z   
After scan for Atom:   Atom  AN      X      Y      Z        X      Y      Z        X      Y      Z   
After scan for Atom:   Atom  AN      X      Y      Z        X      Y      Z        X      Y      Z   
After scan for Atom:   Atom  AN      X      Y      Z        X      Y      Z        X      Y      Z   
After scan for Atom:   Atom  AN      X      Y      Z        X      Y      Z        X      Y      Z   
After scan for Atom:   Atom  AN      X      Y      Z        X      Y      Z        X      Y      Z   
After scan for Atom:   Atom  AN      X      Y      Z        X      Y      Z        X      Y      Z   
After scan for Atom:   Atom  AN      X      Y      Z        X      Y      Z        X      Y      Z   
After scan for Atom:   Atom  AN      X      Y      Z        X      Y      Z        X      Y      Z   
After scan for Atom:   Atom  AN      X      Y      Z        X      Y      Z        X      Y      Z   
After scan for Atom:   Atom  AN      X      Y      Z        X      Y      Z        X      Y      Z   
After scan for Atom:   Atom  AN      X      Y      Z        X      Y      Z        X      Y      Z   
After scan for Atom:   Atom  AN      X      Y      Z        X      Y      Z        X      Y      Z   
After scan for Atom:   Atom  AN      X      Y      Z        X      Y      Z        X      Y      Z   
After scan for Atom:   Atom  AN      X      Y      Z        X      Y      Z        X      Y      Z   
After scan for Atom:   Atom  AN      X      Y      Z        X      Y      Z        X      Y      Z   
After scan for Atom:   Atom  AN      X      Y      Z        X      Y      Z        X      Y      Z   
After scan for Atom:   Atom  AN      X      Y      Z        X      Y      Z        X      Y      Z   
After scan for Atom:   Atom  AN      X      Y      Z        X      Y      Z        X      Y      Z   
After scan for Atom:   Atom  AN      X      Y      Z        X      Y      Z        X      Y      Z   
After scan for Atom:   Atom  AN      X      Y      Z        X      Y      Z        X      Y      Z   
After scan for Atom:   Atom  AN      X      Y      Z        X      Y      Z        X      Y      Z   
After scan for Atom:   Atom  AN      X      Y      Z        X      Y      Z        X      Y      Z   
After scan for Atom:   Atom  AN      X      Y      Z        X      Y      Z        X      Y      Z   
After scan for Atom:   Atom  AN      X      Y      Z        X      Y      Z        X      Y      Z   
After scan for Atom:   Atom  AN      X      Y      Z        X      Y      Z        X      Y      Z   
After scan for Atom:   Atom  AN      X      Y      Z        X      Y      Z        X      Y      Z   
After scan for Atom:   Atom  AN      X      Y      Z        X      Y      Z        X      Y      Z   
After scan for Atom:   Atom  AN      X      Y      Z        X      Y      Z        X      Y      Z   
After scan for Atom:   Atom  AN      X      Y      Z        X      Y      Z        X      Y      Z   
After scan for Atom:   Atom  AN      X      Y      Z        X      Y      Z        X      Y      Z   
After scan for Atom:   Atom  AN      X      Y      Z        X      Y      Z        X      Y      Z   
After scan for Atom:   Atom  AN      X      Y      Z        X      Y      Z        X      Y      Z   
After scan for Atom:   Atom  AN      X      Y      Z        X      Y      Z        X      Y      Z   
After scan for Atom:   Atom  AN      X      Y      Z        X      Y      Z        X      Y      Z   
After scan for Atom:   Atom  AN      X      Y      Z        X      Y      Z        X      Y      Z   
After scan for Atom:   Atom  AN      X      Y      Z        X      Y      Z        X      Y      Z   
After scan for Atom:   Atom  AN      X      Y      Z        X      Y      Z        X      Y      Z   
After scan for Atom:   Atom  AN      X      Y      Z        X      Y      Z        X      Y      Z   
After scan for Atom:   Atom  AN      X      Y      Z        X      Y      Z        X      Y      Z   
After scan for Atom:   Atom  AN      X      Y      Z        X      Y      Z        X      Y      Z   
After scan for Atom:   Atom  AN      X      Y      Z        X      Y      Z        X      Y      Z   
After scan for Atom:   Atom  AN      X      Y      Z        X      Y      Z        X      Y      Z   
After scan for Atom:   Atom  AN      X      Y      Z        X      Y      Z        X      Y      Z   
After scan for Atom:   Atom  AN      X      Y      Z        X      Y      Z        X      Y      Z   
After scan for Atom:   Atom  AN      X      Y      Z        X      Y      Z        X      Y      Z   
After scan for Atom:   Atom  AN      X      Y      Z        X      Y      Z        X      Y      Z   
After scan for Atom:   Atom  AN      X      Y      Z        X      Y      Z        X      Y      Z   
After scan for Atom:   Atom  AN      X      Y      Z        X      Y      Z        X      Y      Z   
After scan for Atom:   Atom  AN      X      Y      Z        X      Y      Z        X      Y      Z   
After scan for Atom:   Atom  AN      X      Y      Z        X      Y      Z        X      Y      Z   
After scan for Atom:   Atom  AN      X      Y      Z        X      Y      Z        X      Y      Z   
After scan for Atom:   Atom  AN      X      Y      Z        X      Y      Z        X      Y      Z   
After scan for Atom:   Atom  AN      X      Y      Z        X      Y      Z        X      Y      Z   
After scan for Atom:   Atom  AN      X      Y      Z        X      Y      Z        X      Y      Z   
 g94    frequencies=
     0.0    0.0    0.0    0.0    0.0    0.0    5.6    6.3   10.6   17.7
    25.0   30.9   44.0   52.8   55.8   58.5   67.1   79.8   86.6   90.0
    93.0  101.3  105.3  110.4  122.8  129.8  148.1  154.2  168.1  172.0
   176.3  195.8  204.5  208.3  209.4  218.1  219.0  231.7  235.7  236.1
   243.2  244.1  245.1  260.2  271.6  275.8  281.7  281.8  292.0  296.6
   308.0  309.2  316.2  343.2  356.5  362.0  378.4  389.6  394.8  412.5
   417.6  418.5  430.5  434.6  441.6  450.1  451.0  451.7  453.8  456.0
   476.1  484.9  489.5  495.4  501.7  503.4  504.0  509.7  516.8  534.5
   534.5  552.3  557.8  572.5  573.5  578.9  588.4  593.3  621.0  623.7
   625.8  642.9  661.8  662.9  667.5  677.6  685.3  696.7  710.0  715.9
   723.3  724.1  727.6  733.1  748.3  753.6  756.9  760.8  770.0  784.0
   786.4  798.8  802.6  808.1  815.5  821.6  823.2  829.5  831.9  834.0
   844.7  845.7  865.3  872.3  899.3  900.5  901.8  902.0  903.8  916.6
   943.4  946.4  952.3  953.6  955.6  972.4  972.8  975.8  977.6  984.4
   984.9  988.1  999.3  999.9 1017.8 1032.1 1032.7 1068.3 1070.8 1081.5
  1094.5 1099.0 1108.3 1132.5 1150.0 1153.8 1154.5 1155.2 1159.9 1164.3
  1165.3 1174.6 1189.6 1200.3 1211.0 1214.6 1227.2 1234.6 1236.2 1241.4
  1249.3 1249.9 1262.6 1275.2 1282.9 1290.3 1293.7 1298.4 1323.7 1342.0
  1356.5 1361.7 1362.3 1370.0 1370.6 1378.5 1384.2 1391.8 1393.6 1397.5
  1402.7 1403.7 1409.9 1411.0 1424.1 1425.0 1429.9 1437.0 1452.5 1458.8
  1470.1 1483.3 1484.0 1485.0 1485.1 1485.1 1486.9 1489.4 1489.8 1496.0
  1498.4 1505.2 1506.1 1507.0 1507.5 1513.3 1518.5 1523.9 1524.2 1531.8
  1551.7 1555.8 1560.3 1574.1 1588.3 1609.5 1615.0 1621.2 1628.4 1634.6
  1681.7 1718.3 1781.5 1847.0 2278.0 3028.8 3032.2 3033.5 3033.8 3035.6
  3037.0 3086.1 3089.2 3098.5 3101.3 3103.3 3105.9 3108.8 3109.6 3111.0
  3111.3 3112.7 3131.4 3141.1 3177.5 3179.2 3191.7 3192.1 3197.1 3197.3
  3207.8 3208.2 3211.5 3223.6 3223.8 3226.8 3245.2
 g94    symmetries=
                                                 A      A      A      A
       A      A      A      A      A      A      A      A      A      A
       A      A      A      A      A      A      A      A      A      A
       A      A      A      A      A      A      A      A      A      A
       A      A      A      A      A      A      A      A      A      A
       A      A      A      A      A      A      A      A      A      A
       A      A      A      A      A      A      A      A      A      A
       A      A      A      A      A      A      A      A      A      A
       A      A      A      A      A      A      A      A      A      A
       A      A      A      A      A      A      A      A      A      A
       A      A      A      A      A      A      A      A      A      A
       A      A      A      A      A      A      A      A      A      A
       A      A      A      A      A      A      A      A      A      A
       A      A      A      A      A      A      A      A      A      A
       A      A      A      A      A      A      A      A      A      A
       A      A      A      A      A      A      A      A      A      A
       A      A      A      A      A      A      A      A      A      A
       A      A      A      A      A      A      A      A      A      A
       A      A      A      A      A      A      A      A      A      A
       A      A      A      A      A      A      A      A      A      A
       A      A      A      A      A      A      A      A      A      A
       A      A      A      A      A      A      A      A      A      A
       A      A      A      A      A      A      A      A      A      A
       A      A      A      A      A      A      A      A      A      A
       A      A      A      A      A      A      A      A      A      A
       A      A      A      A      A      A      A      A      A      A
       A      A      A      A      A      A      A
 atomic masses:
 12.0000 12.0000 12.0000 14.0031 12.0000 15.9949 12.0000 12.0000 12.0000 12.0000
 12.0000 12.0000 12.0000 12.0000 12.0000 15.9949 14.0031 12.0000 12.0000 12.0000
 12.0000 12.0000 12.0000 31.9721 12.0000 12.0000 12.0000 12.0000 12.0000 12.0000
 12.0000 12.0000 12.0000 12.0000 31.9721 12.0000 12.0000 12.0000 12.0000 12.0000
 12.0000 12.0000 15.9949 12.0000 12.0000 12.0000 12.0000 12.0000 12.0000 12.0000
 12.0000 12.0000 15.9949 12.0000 12.0000 12.0000 12.0000  1.0078  1.0078  1.0078
  1.0078  1.0078  1.0078  1.0078  1.0078  1.0078  1.0078  1.0078  1.0078  1.0078
  1.0078  1.0078  1.0078  1.0078  1.0078  1.0078  1.0078  1.0078  1.0078  1.0078
  1.0078  1.0078  1.0078  1.0078  1.0078  1.0078  1.0078  1.0078  1.0078
 looking for force constants in 
 ./IDT-PDI_2_C0S1.fchk                                                          
  
 cant find forces in .fchk file
 NO FORCES: 
 ./IDT-PDI_2_C0S1.log                                                           
                                          
 g94-fc frequencies=

 at 99999: n3=           0
 symm operator            1 :  F  nop=           0
 symm operator            2 :  F  nop=           0
 symm operator            3 :  F  nop=           0
 symm operator            4 :  F  nop=           0
 symm operator            5 :  F  nop=           0
 symm operator            6 :  F  nop=           0
 symm operator            7 :  F  nop=           0
 The point group of the molecule is  C1
 Symmetry rotation matrix:
   1.00000   0.00000   0.00000
   0.00000   1.00000   0.00000
   0.00000   0.00000   1.00000

 highest evec of mol 1

 generating redundant internal coords
         300        3600          89
 Adding extra bonds for z output only
           6           6           6           7           6           8
           6           6           6           6           6           6
           6           6           6           8           7           6
           6           6           6           6           6          16
           6           6           6           6           6           6
           6           6           6           6          16           6
           6           6           6           6           6           6
           8           6           6           6           6           6
           6           6           6           6           8           6
           6           6           6           1           1           1
           1           1           1           1           1           1
           1           1           1           1           1           1
           1           1           1           1           1           1
           1           1           1           1           1           1
           1           1           1           1           1
 search for int coords
   1 str   2   1   1.533
   2 str   3   2   1.533
   3 str   4   2   1.492
   4 str   5   4   1.404
   5 str   6   5   1.226
   6 str   7   5   1.470
   7 str   8   7   1.396
   8 str   9   8   1.382
   9 str  10   9   1.413
  10 str  11  10   1.447
  11 str  12  11   1.417
  12 str  13  12   1.372
  13 str  14  13   1.405
  14 str  15  14   1.444
  15 str  16  15   1.212
  16 str  17  15   1.468
  17 str  18  17   1.328
  18 str  19  18   1.212
  19 str  20  19   1.382
  20 str  21  20   1.405
  21 str  22  21   1.388
  22 str  23  22   1.404
  23 str  24  20   1.772
  24 str  24  23   1.732
  25 str  25  23   1.418
  26 str  26  25   1.412
  27 str  27  26   1.374
  28 str  28  27   1.432
  29 str  29  28   1.407
  30 str  30  25   1.433
  31 str  30  29   1.376
  32 str  31  22   1.518
  33 str  31  30   1.533
  34 str  32  31   1.545
  35 str  33  31   1.545
  36 str  34  28   1.431
  37 str  35  34   1.734
  38 str  36  35   1.740
  39 str  37  36   1.375
  40 str  38  34   1.387
  41 str  38  37   1.411
  42 str  39  27   1.534
  43 str  39  38   1.518
  44 str  40  39   1.545
  45 str  41  39   1.545
  46 str  42  17   1.468
  47 str  43  42   1.211
  48 str  44  42   1.445
  49 str  45  44   1.405
  50 str  46  45   1.372
  51 str  47  46   1.417
  52 str  48  47   1.447
  53 str  49  48   1.414
  54 str  50  49   1.382
  55 str  51  50   1.396
  56 str  52   4   1.412
  57 str  52  51   1.469
  58 str  53  52   1.225
  59 str  54   7   1.412
  60 str  54  51   1.412
  61 str  55  10   1.427
  62 str  55  48   1.427
  63 str  55  54   1.434
  64 str  56  11   1.431
  65 str  56  47   1.431
  66 str  57  14   1.419
  67 str  57  44   1.418
  68 str  57  56   1.443
  69 str  58   1   1.094
  70 str  59   1   1.089
  71 str  60   1   1.093
  72 str  61   2   1.088
  73 str  62   3   1.089
  74 str  63   3   1.094
  75 str  64   3   1.093
  76 str  65   8   1.083
  77 str  66   9   1.081
  78 str  67  12   1.080
  79 str  68  13   1.083
  80 str  69  21   1.081
  81 str  70  26   1.084
  82 str  71  29   1.084
  83 str  72  32   1.092
  84 str  73  32   1.093
  85 str  74  32   1.092
  86 str  75  33   1.092
  87 str  76  33   1.092
  88 str  77  33   1.093
  89 str  78  36   1.079
  90 str  79  37   1.081
  91 str  80  40   1.092
  92 str  81  40   1.093
  93 str  82  40   1.093
  94 str  83  41   1.092
  95 str  84  41   1.093
  96 str  85  41   1.093
  97 str  86  45   1.083
  98 str  87  46   1.080
  99 str  88  49   1.081
 100 str  89  50   1.083
 nber stretches=         100
 101 ben   1   2   3
 102 prop tor   1   2   3  62
 103 prop tor   1   2   3  63
 104 prop tor   1   2   3  64
 105 ben   1   2   4
 106 prop tor   1   2   4   5
 107 prop tor   1   2   4  52
 108 ben   1   2  61
 109 ben   2   1  58
 110 ben   2   1  59
 111 ben   2   1  60
 112 ben   2   3  62
 113 ben   2   3  63
 114 ben   2   3  64
 115 ben   2   4   5
 116 prop tor   2   4   5   6
 117 prop tor   2   4   5   7
 118 ben   2   4  52
 119 prop tor   2   4  52  51
 120 prop tor   2   4  52  53
 121 ben   3   2   4
 122 prop tor   3   2   4   5
 123 prop tor   3   2   4  52
 124 ben   3   2  61
 125 prop tor   4   2   3  62
 126 prop tor   4   2   3  63
 127 prop tor   4   2   3  64
 128 ben   4   2  61
 129 ben   4   5   6
 130 ben   4   5   7
 131 prop tor   4   5   7   8
 132 prop tor   4   5   7  54
 133 ben   4  52  51
 134 ben   4  52  53
 135 ben   5   4  52
 136 prop tor   5   4  52  51
 137 prop tor   5   4  52  53
 138 ben   5   7   8
 139 prop tor   5   7   8   9
 140 prop tor   5   7   8  65
 141 ben   5   7  54
 142 prop tor   5   7  54  51
 143 prop tor   5   7  54  55
 144 ben   6   5   7
 145 prop tor   6   5   7   8
 146 prop tor   6   5   7  54
 147 ben   7   8   9
 148 prop tor   7   8   9  10
 149 prop tor   7   8   9  66
 150 ben   7   8  65
 151 ben   7  54  51
 152 ben   7  54  55
 153 prop tor   7  54  55  10
 154 prop tor   7  54  55  48
 155 ben   8   7  54
 156 prop tor   8   7  54  51
 157 prop tor   8   7  54  55
 158 ben   8   9  10
 159 prop tor   8   9  10  11
 160 prop tor   8   9  10  55
 161 ben   8   9  66
 162 ben   9   8  65
 163 ben   9  10  11
 164 prop tor   9  10  11  12
 165 prop tor   9  10  11  56
 166 ben   9  10  55
 167 prop tor   9  10  55  48
 168 prop tor   9  10  55  54
 169 ben  10   9  66
 170 ben  10  11  12
 171 prop tor  10  11  12  13
 172 prop tor  10  11  12  67
 173 ben  10  11  56
 174 prop tor  10  11  56  47
 175 prop tor  10  11  56  57
 176 ben  10  55  48
 177 ben  10  55  54
 178 ben  11  10  55
 179 prop tor  11  10  55  48
 180 prop tor  11  10  55  54
 181 ben  11  12  13
 182 prop tor  11  12  13  14
 183 prop tor  11  12  13  68
 184 ben  11  12  67
 185 ben  11  56  47
 186 ben  11  56  57
 187 prop tor  11  56  57  14
 188 prop tor  11  56  57  44
 189 ben  12  11  56
 190 prop tor  12  11  56  47
 191 prop tor  12  11  56  57
 192 ben  12  13  14
 193 prop tor  12  13  14  15
 194 prop tor  12  13  14  57
 195 ben  12  13  68
 196 ben  13  12  67
 197 ben  13  14  15
 198 prop tor  13  14  15  16
 199 prop tor  13  14  15  17
 200 ben  13  14  57
 201 prop tor  13  14  57  44
 202 prop tor  13  14  57  56
 203 ben  14  13  68
 204 ben  14  15  16
 205 ben  14  15  17
 206 prop tor  14  15  17  18
 207 prop tor  14  15  17  42
 208 ben  14  57  44
 209 ben  14  57  56
 210 ben  15  14  57
 211 prop tor  15  14  57  44
 212 prop tor  15  14  57  56
 213 ben  15  17  18
 214 prop tor  15  17  18  19
 215 ben  15  17  42
 216 prop tor  15  17  42  43
 217 prop tor  15  17  42  44
 218 ben  16  15  17
 219 prop tor  16  15  17  18
 220 prop tor  16  15  17  42
 221 lin ben  17  18  19
 223 ben  17  42  43
 224 ben  17  42  44
 225 prop tor  17  42  44  45
 226 prop tor  17  42  44  57
 227 ben  18  17  42
 228 prop tor  18  17  42  43
 229 prop tor  18  17  42  44
 Extend lin bond           1          17          18          20
 230 lin ben  18  19  20
 232 ben  19  20  21
 233 prop tor  19  20  21  22
 234 prop tor  19  20  21  69
 235 ben  19  20  24
 236 prop tor  19  20  24  23
 237 ben  20  21  22
 238 prop tor  20  21  22  23
 239 prop tor  20  21  22  31
 240 ben  20  21  69
 241 ben  20  24  23
 242 ben  21  20  24
 243 prop tor  21  20  24  23
 244 ben  21  22  23
 245 prop tor  21  22  23  24
 246 prop tor  21  22  23  25
 247 ben  21  22  31
 248 prop tor  21  22  31  30
 249 prop tor  21  22  31  32
 250 prop tor  21  22  31  33
 251 ben  22  21  69
 252 ben  22  23  24
 253 prop tor  22  23  24  20
 254 ben  22  23  25
 255 prop tor  22  23  25  26
 256 prop tor  22  23  25  30
 257 ben  22  31  30
 258 ben  22  31  32
 259 prop tor  22  31  32  72
 260 prop tor  22  31  32  73
 261 prop tor  22  31  32  74
 262 ben  22  31  33
 263 prop tor  22  31  33  75
 264 prop tor  22  31  33  76
 265 prop tor  22  31  33  77
 266 ben  23  22  31
 267 prop tor  23  22  31  30
 268 prop tor  23  22  31  32
 269 prop tor  23  22  31  33
 270 ben  23  25  26
 271 prop tor  23  25  26  27
 272 prop tor  23  25  26  70
 273 ben  23  25  30
 274 prop tor  23  25  30  29
 275 prop tor  23  25  30  31
 276 prop tor  24  20  21  22
 277 prop tor  24  20  21  69
 278 ben  24  23  25
 279 prop tor  24  23  25  26
 280 prop tor  24  23  25  30
 281 prop tor  25  23  24  20
 282 ben  25  26  27
 283 prop tor  25  26  27  28
 284 prop tor  25  26  27  39
 285 ben  25  26  70
 286 ben  25  30  29
 287 ben  25  30  31
 288 prop tor  25  30  31  22
 289 prop tor  25  30  31  32
 290 prop tor  25  30  31  33
 291 ben  26  25  30
 292 prop tor  26  25  30  29
 293 prop tor  26  25  30  31
 294 ben  26  27  28
 295 prop tor  26  27  28  29
 296 prop tor  26  27  28  34
 297 ben  26  27  39
 298 prop tor  26  27  39  38
 299 prop tor  26  27  39  40
 300 prop tor  26  27  39  41
 301 ben  27  26  70
 302 ben  27  28  29
 303 prop tor  27  28  29  30
 304 prop tor  27  28  29  71
 305 ben  27  28  34
 306 prop tor  27  28  34  35
 307 prop tor  27  28  34  38
 308 ben  27  39  38
 309 ben  27  39  40
 310 prop tor  27  39  40  80
 311 prop tor  27  39  40  81
 312 prop tor  27  39  40  82
 313 ben  27  39  41
 314 prop tor  27  39  41  83
 315 prop tor  27  39  41  84
 316 prop tor  27  39  41  85
 317 ben  28  27  39
 318 prop tor  28  27  39  38
 319 prop tor  28  27  39  40
 320 prop tor  28  27  39  41
 321 ben  28  29  30
 322 prop tor  28  29  30  25
 323 prop tor  28  29  30  31
 324 ben  28  29  71
 325 ben  28  34  35
 326 prop tor  28  34  35  36
 327 ben  28  34  38
 328 prop tor  28  34  38  37
 329 prop tor  28  34  38  39
 330 ben  29  28  34
 331 prop tor  29  28  34  35
 332 prop tor  29  28  34  38
 333 ben  29  30  31
 334 prop tor  29  30  31  22
 335 prop tor  29  30  31  32
 336 prop tor  29  30  31  33
 337 prop tor  30  25  26  27
 338 prop tor  30  25  26  70
 339 ben  30  29  71
 340 ben  30  31  32
 341 prop tor  30  31  32  72
 342 prop tor  30  31  32  73
 343 prop tor  30  31  32  74
 344 ben  30  31  33
 345 prop tor  30  31  33  75
 346 prop tor  30  31  33  76
 347 prop tor  30  31  33  77
 348 prop tor  31  22  23  24
 349 prop tor  31  22  23  25
 350 ben  31  32  72
 351 ben  31  32  73
 352 ben  31  32  74
 353 ben  31  33  75
 354 ben  31  33  76
 355 ben  31  33  77
 356 ben  32  31  33
 357 prop tor  32  31  33  75
 358 prop tor  32  31  33  76
 359 prop tor  32  31  33  77
 360 prop tor  33  31  32  72
 361 prop tor  33  31  32  73
 362 prop tor  33  31  32  74
 363 prop tor  34  28  29  30
 364 prop tor  34  28  29  71
 365 ben  34  35  36
 366 prop tor  34  35  36  37
 367 prop tor  34  35  36  78
 368 ben  34  38  37
 369 ben  34  38  39
 370 prop tor  34  38  39  27
 371 prop tor  34  38  39  40
 372 prop tor  34  38  39  41
 373 ben  35  34  38
 374 prop tor  35  34  38  37
 375 prop tor  35  34  38  39
 376 ben  35  36  37
 377 prop tor  35  36  37  38
 378 prop tor  35  36  37  79
 379 ben  35  36  78
 380 ben  36  37  38
 381 prop tor  36  37  38  34
 382 prop tor  36  37  38  39
 383 ben  36  37  79
 384 ben  37  36  78
 385 ben  37  38  39
 386 prop tor  37  38  39  27
 387 prop tor  37  38  39  40
 388 prop tor  37  38  39  41
 389 prop tor  38  34  35  36
 390 ben  38  37  79
 391 ben  38  39  40
 392 prop tor  38  39  40  80
 393 prop tor  38  39  40  81
 394 prop tor  38  39  40  82
 395 ben  38  39  41
 396 prop tor  38  39  41  83
 397 prop tor  38  39  41  84
 398 prop tor  38  39  41  85
 399 prop tor  39  27  28  29
 400 prop tor  39  27  28  34
 401 ben  39  40  80
 402 ben  39  40  81
 403 ben  39  40  82
 404 ben  39  41  83
 405 ben  39  41  84
 406 ben  39  41  85
 407 ben  40  39  41
 408 prop tor  40  39  41  83
 409 prop tor  40  39  41  84
 410 prop tor  40  39  41  85
 411 prop tor  41  39  40  80
 412 prop tor  41  39  40  81
 413 prop tor  41  39  40  82
 414 prop tor  42  17  18  19
 415 ben  42  44  45
 416 prop tor  42  44  45  46
 417 prop tor  42  44  45  86
 418 ben  42  44  57
 419 prop tor  42  44  57  14
 420 prop tor  42  44  57  56
 421 ben  43  42  44
 422 prop tor  43  42  44  45
 423 prop tor  43  42  44  57
 424 ben  44  45  46
 425 prop tor  44  45  46  47
 426 prop tor  44  45  46  87
 427 ben  44  45  86
 428 ben  44  57  56
 429 ben  45  44  57
 430 prop tor  45  44  57  14
 431 prop tor  45  44  57  56
 432 ben  45  46  47
 433 prop tor  45  46  47  48
 434 prop tor  45  46  47  56
 435 ben  45  46  87
 436 ben  46  45  86
 437 ben  46  47  48
 438 prop tor  46  47  48  49
 439 prop tor  46  47  48  55
 440 ben  46  47  56
 441 prop tor  46  47  56  11
 442 prop tor  46  47  56  57
 443 ben  47  46  87
 444 ben  47  48  49
 445 prop tor  47  48  49  50
 446 prop tor  47  48  49  88
 447 ben  47  48  55
 448 prop tor  47  48  55  10
 449 prop tor  47  48  55  54
 450 ben  47  56  57
 451 prop tor  47  56  57  14
 452 prop tor  47  56  57  44
 453 ben  48  47  56
 454 prop tor  48  47  56  11
 455 prop tor  48  47  56  57
 456 ben  48  49  50
 457 prop tor  48  49  50  51
 458 prop tor  48  49  50  89
 459 ben  48  49  88
 460 ben  48  55  54
 461 ben  49  48  55
 462 prop tor  49  48  55  10
 463 prop tor  49  48  55  54
 464 ben  49  50  51
 465 prop tor  49  50  51  52
 466 prop tor  49  50  51  54
 467 ben  49  50  89
 468 ben  50  49  88
 469 ben  50  51  52
 470 prop tor  50  51  52   4
 471 prop tor  50  51  52  53
 472 ben  50  51  54
 473 prop tor  50  51  54   7
 474 prop tor  50  51  54  55
 475 ben  51  50  89
 476 ben  51  52  53
 477 ben  51  54  55
 478 prop tor  51  54  55  10
 479 prop tor  51  54  55  48
 480 prop tor  52   4   5   6
 481 prop tor  52   4   5   7
 482 ben  52  51  54
 483 prop tor  52  51  54   7
 484 prop tor  52  51  54  55
 485 prop tor  54   7   8   9
 486 prop tor  54   7   8  65
 487 prop tor  54  51  52   4
 488 prop tor  54  51  52  53
 489 prop tor  55  10  11  12
 490 prop tor  55  10  11  56
 491 prop tor  55  48  49  50
 492 prop tor  55  48  49  88
 493 prop tor  56  11  12  13
 494 prop tor  56  11  12  67
 495 prop tor  56  47  48  49
 496 prop tor  56  47  48  55
 497 prop tor  57  14  15  16
 498 prop tor  57  14  15  17
 499 prop tor  57  44  45  46
 500 prop tor  57  44  45  86
 501 prop tor  58   1   2   3
 502 prop tor  58   1   2   4
 503 prop tor  58   1   2  61
 504 ben  58   1  59
 505 ben  58   1  60
 506 prop tor  59   1   2   3
 507 prop tor  59   1   2   4
 508 prop tor  59   1   2  61
 509 ben  59   1  60
 510 prop tor  60   1   2   3
 511 prop tor  60   1   2   4
 512 prop tor  60   1   2  61
 513 prop tor  61   2   3  62
 514 prop tor  61   2   3  63
 515 prop tor  61   2   3  64
 516 prop tor  61   2   4   5
 517 prop tor  61   2   4  52
 518 ben  62   3  63
 519 ben  62   3  64
 520 ben  63   3  64
 521 prop tor  65   8   9  10
 522 prop tor  65   8   9  66
 523 prop tor  66   9  10  11
 524 prop tor  66   9  10  55
 525 prop tor  67  12  13  14
 526 prop tor  67  12  13  68
 527 prop tor  68  13  14  15
 528 prop tor  68  13  14  57
 529 prop tor  69  21  22  23
 530 prop tor  69  21  22  31
 531 prop tor  70  26  27  28
 532 prop tor  70  26  27  39
 533 prop tor  71  29  30  25
 534 prop tor  71  29  30  31
 535 ben  72  32  73
 536 ben  72  32  74
 537 ben  73  32  74
 538 ben  75  33  76
 539 ben  75  33  77
 540 ben  76  33  77
 541 prop tor  78  36  37  38
 542 prop tor  78  36  37  79
 543 prop tor  79  37  38  34
 544 prop tor  79  37  38  39
 545 ben  80  40  81
 546 ben  80  40  82
 547 ben  81  40  82
 548 ben  83  41  84
 549 ben  83  41  85
 550 ben  84  41  85
 551 prop tor  86  45  46  47
 552 prop tor  86  45  46  87
 553 prop tor  87  46  47  48
 554 prop tor  87  46  47  56
 555 prop tor  88  49  50  51
 556 prop tor  88  49  50  89
 557 prop tor  89  50  51  52
 558 prop tor  89  50  51  54
 559 lin bend prop tor  15  17  20  19
 560 lin bend prop tor  15  17  20  21
 561 lin bend prop tor  15  17  20  24
 562 lin bend prop tor  18  17  20  19
 563 lin bend prop tor  18  17  20  21
 564 lin bend prop tor  18  17  20  24
 565 lin bend prop tor  42  17  20  19
 566 lin bend prop tor  42  17  20  21
 567 lin bend prop tor  42  17  20  24
 nber bend=             180
 nber lin bend=           1
 nber prop tor=         287
 nber impr tor=           0
 nber tot redund int=         567
 Reading file: 
 ./IDT-PDI_2_C0S2.log                                                           
                                          
  Entering Gaussian System, Link 0=g16                                          
  
 Gaussian format, type: g94, g98, g03= F F F
  #P Geom=AllCheck Guess=TCheck SCRF=Check GenChk RB3LYP TD(FC,Read)/6-3    
 energy type= TD      
 Original G94 input coords:
  6  1.037124  0.631381  0.046486
  6  2.459721  0.061328  0.080351
  6  2.779739 -0.690257  1.377510
  7  2.758366 -0.761258 -1.127635
  6  2.030907 -1.942354 -1.347731
  8  1.159850 -2.299037 -0.561745
  6  2.361892 -2.717923 -2.551525
  6  1.667798 -3.899622 -2.815445
  6  1.954573 -4.651862 -3.938489
  6  2.952548 -4.263666 -4.861175
  6  3.261959 -5.042556 -6.040764
  6  2.577909 -6.246865 -6.339601
  6  2.873554 -6.982615 -7.459766
  6  3.871710 -6.565722 -8.356266
  6  4.131088 -7.387004 -9.515297
  8  3.583102 -8.422633 -9.827588
  7  5.188818 -6.873265-10.393221
  6  5.470461 -7.588034-11.477260
  6  5.730178 -8.238759-12.469166
  6  6.014470 -8.995732-13.600078
  6  6.961622 -8.758182-14.587841
  6  6.951014 -9.759129-15.583878
  6  6.012388-10.738831-15.356509
 16  5.098905-10.486629-13.918440
  6  6.049036-11.746602-16.421171
  6  5.299835-12.903269-16.618272
  6  5.575561-13.669339-17.748961
  6  6.590208-13.263845-18.653803
  6  7.343270-12.093578-18.447980
  6  7.066758-11.337231-17.326324
  6  7.726748-10.031275-16.863101
  6  7.522366 -8.902218-17.897102
  6  9.231081-10.233896-16.577515
  6  6.625691-14.251065-19.696457
 16  7.534776-14.517574-21.142520
  6  6.625964-15.980499-21.442170
  6  5.674582-16.238883-20.471290
  6  5.670749-15.256037-19.474409
  6  4.902554-14.974361-18.195752
  6  5.107296-16.098321-17.156680
  6  3.398651-14.764414-18.477499
  6  5.963766 -5.643942-10.185527
  8  6.807843 -5.355867-11.006500
  6  5.607663 -4.913566 -8.991585
  6  6.298680 -3.722292 -8.713958
  6  6.008223 -2.981166 -7.595938
  6  5.005394 -3.383019 -6.679202
  6  4.696132 -2.604450 -5.499374
  6  5.370524 -1.401658 -5.188442
  6  5.066339 -0.666271 -4.058987
  6  4.071401 -1.091211 -3.176779
  6  3.774045 -0.284741 -1.985960
  8  4.371902  0.755288 -1.737146
  6  3.368382 -2.286442 -3.442328
  6  3.675131 -3.058353 -4.611321
  6  4.284299 -4.592267 -6.934998
  6  4.592306 -5.368208 -8.111013
  1  0.913575  1.338442  0.872227
  1  0.289433 -0.154832  0.142143
  1  0.863633  1.173738 -0.886778
  1  3.157194  0.891516 -0.008439
  1  2.104297 -1.531166  1.529074
  1  2.683782 -0.003405  2.223726
  1  3.808369 -1.060288  1.362348
  1  0.900644 -4.208390 -2.116714
  1  1.391030 -5.559517 -4.101562
  1  1.803070 -6.604947 -5.677755
  1  2.343455 -7.901249 -7.677274
  1  7.608692 -7.893073-14.553287
  1  4.529329-13.194027-15.913677
  1  8.114595-11.801015-19.151862
  1  6.462812 -8.751591-18.113275
  1  8.036642 -9.136009-18.833118
  1  7.929821 -7.962675-17.516310
  1  9.391176-11.034169-15.852240
  1  9.666283 -9.316253-16.174655
  1  9.769429-10.485785-17.495116
  1  6.848989-16.565550-22.321438
  1  5.027541-17.104397-20.507084
  1  6.167184-16.261465-16.951999
  1  4.676325-17.035909-17.516595
  1  4.612974-15.841420-16.216903
  1  3.239417-13.975470-19.215117
  1  2.875639-14.485429-17.559812
  1  2.947140-15.685795-18.853698
  1  7.067396 -3.404618 -9.407061
  1  6.564373 -2.071727 -7.421970
  1  6.148350 -1.033341 -5.842118
  1  5.591141  0.253316 -3.833351
 nber atoms=          89
  Total Energy, E(TD-HF/TD-DFT) =  -3093.86295828                               
  
          32          49 "  -3093.86295828"
After scan for Atom:   Atom  AN      X      Y      Z        X      Y      Z        X      Y      Z   
After scan for Atom:   Atom  AN      X      Y      Z        X      Y      Z        X      Y      Z   
After scan for Atom:   Atom  AN      X      Y      Z        X      Y      Z        X      Y      Z   
After scan for Atom:   Atom  AN      X      Y      Z        X      Y      Z        X      Y      Z   
After scan for Atom:   Atom  AN      X      Y      Z        X      Y      Z        X      Y      Z   
After scan for Atom:   Atom  AN      X      Y      Z        X      Y      Z        X      Y      Z   
After scan for Atom:   Atom  AN      X      Y      Z        X      Y      Z        X      Y      Z   
After scan for Atom:   Atom  AN      X      Y      Z        X      Y      Z        X      Y      Z   
After scan for Atom:   Atom  AN      X      Y      Z        X      Y      Z        X      Y      Z   
After scan for Atom:   Atom  AN      X      Y      Z        X      Y      Z        X      Y      Z   
After scan for Atom:   Atom  AN      X      Y      Z        X      Y      Z        X      Y      Z   
After scan for Atom:   Atom  AN      X      Y      Z        X      Y      Z        X      Y      Z   
After scan for Atom:   Atom  AN      X      Y      Z        X      Y      Z        X      Y      Z   
After scan for Atom:   Atom  AN      X      Y      Z        X      Y      Z        X      Y      Z   
After scan for Atom:   Atom  AN      X      Y      Z        X      Y      Z        X      Y      Z   
After scan for Atom:   Atom  AN      X      Y      Z        X      Y      Z        X      Y      Z   
After scan for Atom:   Atom  AN      X      Y      Z        X      Y      Z        X      Y      Z   
After scan for Atom:   Atom  AN      X      Y      Z        X      Y      Z        X      Y      Z   
After scan for Atom:   Atom  AN      X      Y      Z        X      Y      Z        X      Y      Z   
After scan for Atom:   Atom  AN      X      Y      Z        X      Y      Z        X      Y      Z   
After scan for Atom:   Atom  AN      X      Y      Z        X      Y      Z        X      Y      Z   
After scan for Atom:   Atom  AN      X      Y      Z        X      Y      Z        X      Y      Z   
After scan for Atom:   Atom  AN      X      Y      Z        X      Y      Z        X      Y      Z   
After scan for Atom:   Atom  AN      X      Y      Z        X      Y      Z        X      Y      Z   
After scan for Atom:   Atom  AN      X      Y      Z        X      Y      Z        X      Y      Z   
After scan for Atom:   Atom  AN      X      Y      Z        X      Y      Z        X      Y      Z   
After scan for Atom:   Atom  AN      X      Y      Z        X      Y      Z        X      Y      Z   
After scan for Atom:   Atom  AN      X      Y      Z        X      Y      Z        X      Y      Z   
After scan for Atom:   Atom  AN      X      Y      Z        X      Y      Z        X      Y      Z   
After scan for Atom:   Atom  AN      X      Y      Z        X      Y      Z        X      Y      Z   
After scan for Atom:   Atom  AN      X      Y      Z        X      Y      Z        X      Y      Z   
After scan for Atom:   Atom  AN      X      Y      Z        X      Y      Z        X      Y      Z   
After scan for Atom:   Atom  AN      X      Y      Z        X      Y      Z        X      Y      Z   
After scan for Atom:   Atom  AN      X      Y      Z        X      Y      Z        X      Y      Z   
After scan for Atom:   Atom  AN      X      Y      Z        X      Y      Z        X      Y      Z   
After scan for Atom:   Atom  AN      X      Y      Z        X      Y      Z        X      Y      Z   
After scan for Atom:   Atom  AN      X      Y      Z        X      Y      Z        X      Y      Z   
After scan for Atom:   Atom  AN      X      Y      Z        X      Y      Z        X      Y      Z   
After scan for Atom:   Atom  AN      X      Y      Z        X      Y      Z        X      Y      Z   
After scan for Atom:   Atom  AN      X      Y      Z        X      Y      Z        X      Y      Z   
After scan for Atom:   Atom  AN      X      Y      Z        X      Y      Z        X      Y      Z   
After scan for Atom:   Atom  AN      X      Y      Z        X      Y      Z        X      Y      Z   
After scan for Atom:   Atom  AN      X      Y      Z        X      Y      Z        X      Y      Z   
After scan for Atom:   Atom  AN      X      Y      Z        X      Y      Z        X      Y      Z   
After scan for Atom:   Atom  AN      X      Y      Z        X      Y      Z        X      Y      Z   
After scan for Atom:   Atom  AN      X      Y      Z        X      Y      Z        X      Y      Z   
After scan for Atom:   Atom  AN      X      Y      Z        X      Y      Z        X      Y      Z   
After scan for Atom:   Atom  AN      X      Y      Z        X      Y      Z        X      Y      Z   
After scan for Atom:   Atom  AN      X      Y      Z        X      Y      Z        X      Y      Z   
After scan for Atom:   Atom  AN      X      Y      Z        X      Y      Z        X      Y      Z   
After scan for Atom:   Atom  AN      X      Y      Z        X      Y      Z        X      Y      Z   
After scan for Atom:   Atom  AN      X      Y      Z        X      Y      Z        X      Y      Z   
After scan for Atom:   Atom  AN      X      Y      Z        X      Y      Z        X      Y      Z   
After scan for Atom:   Atom  AN      X      Y      Z        X      Y      Z        X      Y      Z   
After scan for Atom:   Atom  AN      X      Y      Z        X      Y      Z        X      Y      Z   
After scan for Atom:   Atom  AN      X      Y      Z        X      Y      Z        X      Y      Z   
After scan for Atom:   Atom  AN      X      Y      Z        X      Y      Z        X      Y      Z   
After scan for Atom:   Atom  AN      X      Y      Z        X      Y      Z        X      Y      Z   
After scan for Atom:   Atom  AN      X      Y      Z        X      Y      Z        X      Y      Z   
After scan for Atom:   Atom  AN      X      Y      Z        X      Y      Z        X      Y      Z   
After scan for Atom:   Atom  AN      X      Y      Z        X      Y      Z        X      Y      Z   
After scan for Atom:   Atom  AN      X      Y      Z        X      Y      Z        X      Y      Z   
After scan for Atom:   Atom  AN      X      Y      Z        X      Y      Z        X      Y      Z   
After scan for Atom:   Atom  AN      X      Y      Z        X      Y      Z        X      Y      Z   
After scan for Atom:   Atom  AN      X      Y      Z        X      Y      Z        X      Y      Z   
After scan for Atom:   Atom  AN      X      Y      Z        X      Y      Z        X      Y      Z   
After scan for Atom:   Atom  AN      X      Y      Z        X      Y      Z        X      Y      Z   
After scan for Atom:   Atom  AN      X      Y      Z        X      Y      Z        X      Y      Z   
After scan for Atom:   Atom  AN      X      Y      Z        X      Y      Z        X      Y      Z   
After scan for Atom:   Atom  AN      X      Y      Z        X      Y      Z        X      Y      Z   
After scan for Atom:   Atom  AN      X      Y      Z        X      Y      Z        X      Y      Z   
After scan for Atom:   Atom  AN      X      Y      Z        X      Y      Z        X      Y      Z   
After scan for Atom:   Atom  AN      X      Y      Z        X      Y      Z        X      Y      Z   
After scan for Atom:   Atom  AN      X      Y      Z        X      Y      Z        X      Y      Z   
After scan for Atom:   Atom  AN      X      Y      Z        X      Y      Z        X      Y      Z   
After scan for Atom:   Atom  AN      X      Y      Z        X      Y      Z        X      Y      Z   
After scan for Atom:   Atom  AN      X      Y      Z        X      Y      Z        X      Y      Z   
After scan for Atom:   Atom  AN      X      Y      Z        X      Y      Z        X      Y      Z   
After scan for Atom:   Atom  AN      X      Y      Z        X      Y      Z        X      Y      Z   
After scan for Atom:   Atom  AN      X      Y      Z        X      Y      Z        X      Y      Z   
After scan for Atom:   Atom  AN      X      Y      Z        X      Y      Z        X      Y      Z   
After scan for Atom:   Atom  AN      X      Y      Z        X      Y      Z        X      Y      Z   
After scan for Atom:   Atom  AN      X      Y      Z        X      Y      Z        X      Y      Z   
After scan for Atom:   Atom  AN      X      Y      Z        X      Y      Z        X      Y      Z   
After scan for Atom:   Atom  AN      X      Y      Z        X      Y      Z        X      Y      Z   
After scan for Atom:   Atom  AN      X      Y      Z        X      Y      Z        X      Y      Z   
After scan for Atom:   Atom  AN      X      Y      Z        X      Y      Z        X      Y      Z   
 g94    frequencies=
     0.0    0.0    0.0    0.0    0.0    0.0    5.8    6.4    9.7   18.1
    24.7   31.2   44.7   52.0   55.7   58.4   67.4   79.7   87.8   90.1
    93.5  100.9  103.3  109.3  120.0  129.3  143.2  155.3  167.6  171.1
   175.4  195.8  204.0  207.7  208.6  216.8  218.5  232.2  235.7  236.2
   241.4  244.7  246.7  260.7  272.2  281.4  282.0  286.4  291.4  296.9
   308.0  315.7  322.9  344.8  356.3  362.4  371.3  389.5  392.7  407.7
   410.0  417.4  428.5  434.3  441.6  443.4  446.6  452.8  453.8  455.9
   459.3  482.7  484.9  487.9  495.7  496.0  503.2  506.6  516.4  523.7
   534.3  548.4  553.3  571.5  574.3  578.8  586.8  592.5  617.5  623.3
   625.5  640.2  659.0  660.3  666.2  672.9  677.9  688.5  707.7  710.7
   715.8  720.8  726.7  730.0  741.2  748.2  753.4  758.0  768.2  779.9
   781.6  785.7  802.4  807.7  814.9  818.5  823.0  828.4  831.5  834.3
   841.5  844.5  851.5  874.2  895.2  898.0  900.6  901.3  903.1  915.9
   943.2  945.1  951.6  953.1  955.5  970.2  971.8  975.3  977.3  983.0
   984.4  987.7  996.7 1005.4 1017.7 1030.5 1032.4 1068.4 1075.0 1085.1
  1092.9 1094.9 1103.0 1141.7 1148.3 1152.8 1154.2 1154.9 1155.1 1164.0
  1166.6 1174.6 1189.0 1199.9 1209.1 1211.2 1227.0 1229.1 1236.0 1241.2
  1248.7 1251.2 1254.9 1275.7 1276.0 1281.0 1296.5 1303.4 1320.5 1321.5
  1327.9 1340.6 1358.4 1362.0 1369.6 1379.7 1384.2 1391.8 1392.8 1397.4
  1401.9 1403.5 1410.8 1414.9 1422.0 1423.5 1430.6 1435.1 1448.3 1452.4
  1458.8 1468.9 1474.8 1478.0 1479.5 1482.8 1483.9 1484.4 1484.9 1488.6
  1490.1 1495.8 1504.9 1505.5 1507.0 1508.2 1513.0 1523.9 1526.4 1542.0
  1548.4 1561.7 1570.3 1573.9 1584.0 1590.4 1613.6 1620.2 1631.7 1658.2
  1680.9 1717.6 1769.3 1777.2 2361.4 3028.5 3029.9 3033.1 3033.3 3033.6
  3036.4 3085.8 3088.9 3095.6 3100.1 3100.4 3104.6 3108.5 3108.8 3110.7
  3111.0 3112.6 3131.4 3141.0 3175.2 3181.4 3191.4 3191.7 3196.9 3197.2
  3207.5 3207.9 3216.7 3221.9 3223.0 3223.2 3248.8
 g94    symmetries=
                                                 A      A      A      A
       A      A      A      A      A      A      A      A      A      A
       A      A      A      A      A      A      A      A      A      A
       A      A      A      A      A      A      A      A      A      A
       A      A      A      A      A      A      A      A      A      A
       A      A      A      A      A      A      A      A      A      A
       A      A      A      A      A      A      A      A      A      A
       A      A      A      A      A      A      A      A      A      A
       A      A      A      A      A      A      A      A      A      A
       A      A      A      A      A      A      A      A      A      A
       A      A      A      A      A      A      A      A      A      A
       A      A      A      A      A      A      A      A      A      A
       A      A      A      A      A      A      A      A      A      A
       A      A      A      A      A      A      A      A      A      A
       A      A      A      A      A      A      A      A      A      A
       A      A      A      A      A      A      A      A      A      A
       A      A      A      A      A      A      A      A      A      A
       A      A      A      A      A      A      A      A      A      A
       A      A      A      A      A      A      A      A      A      A
       A      A      A      A      A      A      A      A      A      A
       A      A      A      A      A      A      A      A      A      A
       A      A      A      A      A      A      A      A      A      A
       A      A      A      A      A      A      A      A      A      A
       A      A      A      A      A      A      A      A      A      A
       A      A      A      A      A      A      A      A      A      A
       A      A      A      A      A      A      A      A      A      A
       A      A      A      A      A      A      A
 atomic masses:
 12.0000 12.0000 12.0000 14.0031 12.0000 15.9949 12.0000 12.0000 12.0000 12.0000
 12.0000 12.0000 12.0000 12.0000 12.0000 15.9949 14.0031 12.0000 12.0000 12.0000
 12.0000 12.0000 12.0000 31.9721 12.0000 12.0000 12.0000 12.0000 12.0000 12.0000
 12.0000 12.0000 12.0000 12.0000 31.9721 12.0000 12.0000 12.0000 12.0000 12.0000
 12.0000 12.0000 15.9949 12.0000 12.0000 12.0000 12.0000 12.0000 12.0000 12.0000
 12.0000 12.0000 15.9949 12.0000 12.0000 12.0000 12.0000  1.0078  1.0078  1.0078
  1.0078  1.0078  1.0078  1.0078  1.0078  1.0078  1.0078  1.0078  1.0078  1.0078
  1.0078  1.0078  1.0078  1.0078  1.0078  1.0078  1.0078  1.0078  1.0078  1.0078
  1.0078  1.0078  1.0078  1.0078  1.0078  1.0078  1.0078  1.0078  1.0078
 looking for force constants in 
 ./IDT-PDI_2_C0S2.fchk                                                          
  
 cant find forces in .fchk file
 NO FORCES: 
 ./IDT-PDI_2_C0S2.log                                                           
                                          
 g94-fc frequencies=

 at 99999: n3=           0
 symm operator            1 :  F  nop=           0
 symm operator            2 :  F  nop=           0
 symm operator            3 :  F  nop=           0
 symm operator            4 :  F  nop=           0
 symm operator            5 :  F  nop=           0
 symm operator            6 :  F  nop=           0
 symm operator            7 :  F  nop=           0
 The point group of the molecule is  C1
 Symmetry rotation matrix:
   1.00000   0.00000   0.00000
   0.00000   1.00000   0.00000
   0.00000   0.00000   1.00000

 highest evec of mol 2

 Enter nber and list of atoms to keep of mol #2
 keep list:          89           1           2           3           4
           5           6           7           8           9          10
          11          12          13          14          15          16
          17          18          19          20          21          22
          23          24          25          26          27          28
          29          30          31          32          33          34
          35          36          37          38          39          40
          41          42          43          44          45          46
          47          48          49          50          51          52
          53          54          55          56          57          58
          59          60          61          62          63          64
          65          66          67          68          69          70
          71          72          73          74          75          76
          77          78          79          80          81          82
          83          84          85          86          87          88
          89
 reordering atoms
           1   13.6308937755000     
           2   13.0950760203340     
           3   13.6375514136968     
           4   11.6053964011914     
           5   10.8591840384504     
           6   11.4178882542100     
           7   9.39502453572134     
           8   8.60817247505064     
           9   7.22905666841325     
          10   6.55936136456408     
          11   5.11602646610122     
          12   4.28656700159465     
          13   2.91792346881933     
          14   2.28577956516522     
          15  0.842188557036696     
          16  7.835936857881487E-002
          17  0.271664793369716     
          18  -1.05371807166196     
          19  -2.26485977671224     
          20  -3.65259702670555     
          21  -4.45372123703736     
          22  -5.82862470960282     
          23  -6.06699587265908     
          24  -4.62724638079588     
          25  -7.50815881644444     
          26  -8.21829939895179     
          27  -9.60977737550782     
          28  -10.2578796034199     
          29  -9.53348982797842     
          30  -8.15474550824496     
          31  -7.13125345101032     
          32  -7.26283242814169     
          33  -7.26564550169052     
          34  -11.6693496614841     
          35  -13.1230941860825     
          36  -14.0676286639129     
          37  -13.2914091383068     
          38  -11.9240517584952     
          39  -10.6175365359060     
          40  -10.4790066416845     
          41  -10.4758857260783     
          42   1.02844055671168     
          43  0.406242767483528     
          44   2.46246872447051     
          45   3.26631430853380     
          46   4.63554549691393     
          47   5.29332578186875     
          48   6.73663961038151     
          49   7.57640629572027     
          50   8.95361611325554     
          51   9.56916907354772     
          52   11.0355757806442     
          53   11.7433657339102     
          54   8.77457374149763     
          55   7.34417474598972     
          56   4.50124656992666     
          57   3.06270385231909     
          58   14.7205674683793     
          59   13.3695980143968     
          60   13.2323539080033     
          61   13.3956143027186     
          62   13.3771647862700     
          63   14.7272712570395     
          64   13.2431417830704     
          65   9.10853772754654     
          66   6.66116225746148     
          67   4.73005555904998     
          68   2.29487867551186     
          69  -4.02646958664133     
          70  -7.70222037562410     
          71  -10.0480812393069     
          72  -7.17552064221092     
          73  -8.22755219510746     
          74  -6.47775512183843     
          75  -7.18091632144842     
          76  -6.48026519466908     
          77  -8.23015795792525     
          78  -15.1448649455422     
          79  -13.7198887675765     
          80  -10.5828202994175     
          81  -11.2425173055103     
          82  -9.50104646676429     
          83  -10.5771867241810     
          84  -9.49798607847691     
          85  -11.2395819854377     
          86   2.77537007904494     
          87   5.21435021739861     
          88   7.14490662989067     
          89   9.58454457287200     
           1           1
           2           2
           3           3
           4           4
           5           5
           6           6
           7           7
           8           8
           9           9
          10          10
          11          11
          12          12
          13          13
          14          14
          15          15
          16          16
          17          17
          18          18
          19          19
          20          20
          21          21
          22          22
          23          23
          24          24
          25          25
          26          26
          27          27
          28          28
          29          29
          30          30
          31          31
          32          32
          33          33
          34          34
          35          35
          36          36
          37          37
          38          38
          39          39
          40          40
          41          41
          42          42
          43          43
          44          44
          45          45
          46          46
          47          47
          48          48
          49          49
          50          50
          51          51
          52          52
          53          53
          54          54
          55          55
          56          56
          57          57
          58          58
          59          59
          60          60
          61          61
          62          62
          63          63
          64          64
          65          65
          66          66
          67          67
          68          68
          69          69
          70          70
          71          71
          72          72
          73          73
          74          74
          75          75
          76          76
          77          77
          78          78
          79          79
          80          80
          81          81
          82          82
          83          83
          84          84
          85          85
          86          86
          87          87
          88          88
          89          89
 initial cartes coords mol 1
   6  -1.28961  -1.00311  13.63555
   6  -0.01117  -0.35493  13.09222
   6   1.27070  -0.99115  13.64160
   7  -0.00799  -0.29532  11.60146
   6  -0.00073  -1.49369  10.86924
   8   0.00305  -2.57873  11.44004
   6   0.00202  -1.38281   9.40326
   6   0.00929  -2.54463   8.63021
   6   0.01184  -2.47495   7.25009
   6   0.00727  -1.23808   6.56595
   6   0.00959  -1.15192   5.12145
   6   0.01667  -2.31083   4.30593
   6   0.01824  -2.22547   2.93652
   6   0.01313  -0.97822   2.28962
   6   0.01445  -0.96143   0.84543
   8   0.01938  -1.91107   0.09288
   7   0.00929   0.38503   0.26065
   6   0.00940   0.46438  -1.06515
   6   0.00914   0.54390  -2.27500
   6   0.00816   0.63504  -3.65407
   6   0.01118   1.79991  -4.43989
   6   0.00861   1.51367  -5.79838
   6   0.00352   0.13829  -6.08133
  16   0.00202  -0.83301  -4.64689
   6   0.00059  -0.09500  -7.47983
   6  -0.00508  -1.29295  -8.22803
   6  -0.00704  -1.19651  -9.59842
   6  -0.00314   0.08564 -10.23612
   6   0.00252   1.28083  -9.49299
   6   0.00427   1.18749  -8.12021
   6   0.01007   2.31900  -7.08527
   6  -1.25543   3.19708  -7.20012
   6   1.28251   3.18657  -7.20342
   6  -0.00625  -0.15713 -11.64663
  16  -0.00480   0.80242 -13.09075
   6  -0.01206  -0.64587 -14.05558
   6  -0.01538  -1.79772 -13.30515
   6  -0.01205  -1.51629 -11.92229
   6  -0.01337  -2.32545 -10.63743
   6   1.25145  -3.20441 -10.52193
   6  -1.28548  -3.19348 -10.51806
   6   0.00347   1.65279   1.00148
   8   0.00023   2.68524   0.36773
   6   0.00174   1.49783   2.43778
   6  -0.00493   2.65934   3.22811
   6  -0.00713   2.58136   4.59803
   6  -0.00260   1.33361   5.26966
   6  -0.00505   1.24729   6.71428
   6  -0.01231   2.39414   7.54052
   6  -0.01477   2.29946   8.91905
   6  -0.01009   1.05382   9.54885
   6  -0.01292   0.99019  11.01659
   8  -0.01932   1.99867  11.71188
   6  -0.00271  -0.12231   8.76807
   6  -0.00012  -0.03687   7.33648
   6   0.00452   0.13281   4.49190
   6   0.00651   0.21883   3.05099
   1  -1.31261  -0.89468  14.72398
   1  -1.33730  -2.06247  13.38694
   1  -2.17429  -0.50401  13.23122
   1  -0.01673   0.69403  13.38064
   1   1.32935  -2.05011  13.39359
   1   1.28770  -0.88222  14.73009
   1   2.15258  -0.48403  13.24118
   1   0.01277  -3.49877   9.14176
   1   0.01740  -3.40114   6.69319
   1   0.02080  -3.29021   4.76123
   1   0.02338  -3.11827   2.32406
   1   0.01510   2.78024  -3.98546
   1  -0.00789  -2.25351  -7.72544
   1   0.00532   2.24156  -9.99534
   1  -2.16357   2.59666  -7.11846
   1  -1.27281   3.71949  -8.15969
   1  -1.26868   3.94879  -6.40755
   1   2.18585   2.57852  -7.12489
   1   1.30451   3.93763  -6.41044
   1   1.30138   3.70942  -8.16272
   1  -0.01344  -0.55659 -15.13137
   1  -0.01998  -2.78465 -13.74722
   1   2.15967  -2.60363 -10.60066
   1   1.26610  -3.95471 -11.31632
   1   1.26865  -3.73024  -9.56424
   1  -2.18862  -2.58463 -10.59319
   1  -1.30388  -3.71982  -9.56069
   1  -1.30938  -3.94297 -11.31297
   1  -0.00840   3.61865   2.72617
   1  -0.01248   3.49966   5.16653
   1  -0.01612   3.37993   7.09766
   1  -0.02035   3.18643   9.53970
 initial cartes coords mol 2
   6  -1.28953  -1.08314  13.63089
   6  -0.01147  -0.42790  13.09508
   6   1.27071  -1.06951  13.63755
   7  -0.00811  -0.35102  11.60540
   6   0.00030  -1.54086  10.85918
   8   0.00453  -2.63245  11.41789
   6   0.00324  -1.41278   9.39502
   6   0.01180  -2.56543   8.60817
   6   0.01459  -2.47962   7.22906
   6   0.00889  -1.23484   6.55936
   6   0.01152  -1.13182   5.11603
   6   0.02052  -2.28052   4.28657
   6   0.02222  -2.17895   2.91792
   6   0.01529  -0.92429   2.28578
   6   0.01681  -0.88999   0.84219
   8   0.02308  -1.83173   0.07836
   7   0.00941   0.46202   0.27166
   6   0.00946   0.55539  -1.05372
   6   0.00915   0.64432  -2.26486
   6   0.00864   0.72785  -3.65260
   6   0.01321   1.86248  -4.45372
   6   0.01016   1.54041  -5.82862
   6   0.00307   0.18554  -6.06700
  16   0.00003  -0.75955  -4.62725
   6  -0.00007  -0.08555  -7.50816
   6  -0.00717  -1.28291  -8.21830
   6  -0.00862  -1.21127  -9.60978
   6  -0.00278   0.05072 -10.25788
   6   0.00438   1.25662  -9.53349
   6   0.00568   1.18116  -8.15475
   6   0.01281   2.32488  -7.13125
   6  -1.25103   3.20299  -7.26283
   6   1.28554   3.18959  -7.26565
   6  -0.00598  -0.21524 -11.66935
  16  -0.00262   0.72027 -13.12309
   6  -0.01151  -0.75067 -14.06763
   6  -0.01686  -1.89607 -13.29141
   6  -0.01372  -1.59591 -11.92405
   6  -0.01652  -2.36885 -10.61754
   6   1.24754  -3.24511 -10.47901
   6  -1.29078  -3.22989 -10.47589
   6   0.00159   1.71985   1.02844
   8  -0.00334   2.76018   0.40624
   6   0.00007   1.54863   2.46247
   6  -0.00844   2.70079   3.26631
   6  -0.01054   2.60696   4.63555
   6  -0.00410   1.35204   5.29333
   6  -0.00634   1.24885   6.73664
   6  -0.01481   2.38592   7.57641
   6  -0.01728   2.27511   8.95362
   6  -0.01140   1.02218   9.56917
   6  -0.01441   0.94152  11.03558
   8  -0.02217   1.94150  11.74337
   6  -0.00269  -0.14481   8.77457
   6   0.00001  -0.04265   7.34417
   6   0.00474   0.16031   4.50125
   6   0.00674   0.26304   3.06270
   1  -1.31268  -0.98762  14.72057
   1  -1.33655  -2.13947  13.36960
   1  -2.17442  -0.57979  13.23235
   1  -0.01780   0.61766  13.39561
   1   1.33016  -2.12544  13.37716
   1   1.28742  -0.97314  14.72727
   1   2.15227  -0.55714  13.24314
   1   0.01610  -3.52549   9.10854
   1   0.02116  -3.39911   6.66116
   1   0.02615  -3.26537   4.73006
   1   0.02888  -3.06438   2.29488
   1   0.01861   2.85532  -4.02647
   1  -0.01147  -2.23597  -7.70222
   1   0.00867   2.21117 -10.04808
   1  -2.15939   2.60354  -7.17552
   1  -1.26715   3.71711  -8.22755
   1  -1.26683   3.96271  -6.47776
   1   2.18770   2.58048  -7.18092
   1   1.31141   3.94872  -6.48027
   1   1.30472   3.70399  -8.23016
   1  -0.01238  -0.68212 -15.14486
   1  -0.02268  -2.88876 -13.71989
   1   2.15668  -2.64965 -10.58282
   1   1.25724  -4.02697 -11.24252
   1   1.26709  -3.73167  -9.50105
   1  -2.19287  -2.62338 -10.57719
   1  -1.31365  -3.71642  -9.49799
   1  -1.31190  -4.01133 -11.23958
   1  -0.01340   3.66577   2.77537
   1  -0.01739   3.51888   5.21435
   1  -0.01951   3.37675   7.14491
   1  -0.02380   3.15480   9.58454
 loop 1 0
 mod cartes coords mol 2
   6  -1.28953  -1.08314  13.63089
   6  -0.01147  -0.42790  13.09508
   6   1.27071  -1.06951  13.63755
   7  -0.00811  -0.35102  11.60540
   6   0.00030  -1.54086  10.85918
   8   0.00453  -2.63245  11.41789
   6   0.00324  -1.41278   9.39502
   6   0.01180  -2.56543   8.60817
   6   0.01459  -2.47962   7.22906
   6   0.00889  -1.23484   6.55936
   6   0.01152  -1.13182   5.11603
   6   0.02052  -2.28052   4.28657
   6   0.02222  -2.17895   2.91792
   6   0.01529  -0.92429   2.28578
   6   0.01681  -0.88999   0.84219
   8   0.02308  -1.83173   0.07836
   7   0.00941   0.46202   0.27166
   6   0.00946   0.55539  -1.05372
   6   0.00915   0.64432  -2.26486
   6   0.00864   0.72785  -3.65260
   6   0.01321   1.86248  -4.45372
   6   0.01016   1.54041  -5.82862
   6   0.00307   0.18554  -6.06700
  16   0.00003  -0.75955  -4.62725
   6  -0.00007  -0.08555  -7.50816
   6  -0.00717  -1.28291  -8.21830
   6  -0.00862  -1.21127  -9.60978
   6  -0.00278   0.05072 -10.25788
   6   0.00438   1.25662  -9.53349
   6   0.00568   1.18116  -8.15475
   6   0.01281   2.32488  -7.13125
   6  -1.25103   3.20299  -7.26283
   6   1.28554   3.18959  -7.26565
   6  -0.00598  -0.21524 -11.66935
  16  -0.00262   0.72027 -13.12309
   6  -0.01151  -0.75067 -14.06763
   6  -0.01686  -1.89607 -13.29141
   6  -0.01372  -1.59591 -11.92405
   6  -0.01652  -2.36885 -10.61754
   6   1.24754  -3.24511 -10.47901
   6  -1.29078  -3.22989 -10.47589
   6   0.00159   1.71985   1.02844
   8  -0.00334   2.76018   0.40624
   6   0.00007   1.54863   2.46247
   6  -0.00844   2.70079   3.26631
   6  -0.01054   2.60696   4.63555
   6  -0.00410   1.35204   5.29333
   6  -0.00634   1.24885   6.73664
   6  -0.01481   2.38592   7.57641
   6  -0.01728   2.27511   8.95362
   6  -0.01140   1.02218   9.56917
   6  -0.01441   0.94152  11.03558
   8  -0.02217   1.94150  11.74337
   6  -0.00269  -0.14481   8.77457
   6   0.00001  -0.04265   7.34417
   6   0.00474   0.16031   4.50125
   6   0.00674   0.26304   3.06270
   1  -1.31268  -0.98762  14.72057
   1  -1.33655  -2.13947  13.36960
   1  -2.17442  -0.57979  13.23235
   1  -0.01780   0.61766  13.39561
   1   1.33016  -2.12544  13.37716
   1   1.28742  -0.97314  14.72727
   1   2.15227  -0.55714  13.24314
   1   0.01610  -3.52549   9.10854
   1   0.02116  -3.39911   6.66116
   1   0.02615  -3.26537   4.73006
   1   0.02888  -3.06438   2.29488
   1   0.01861   2.85532  -4.02647
   1  -0.01147  -2.23597  -7.70222
   1   0.00867   2.21117 -10.04808
   1  -2.15939   2.60354  -7.17552
   1  -1.26715   3.71711  -8.22755
   1  -1.26683   3.96271  -6.47776
   1   2.18770   2.58048  -7.18092
   1   1.31141   3.94872  -6.48027
   1   1.30472   3.70399  -8.23016
   1  -0.01238  -0.68212 -15.14486
   1  -0.02268  -2.88876 -13.71989
   1   2.15668  -2.64965 -10.58282
   1   1.25724  -4.02697 -11.24252
   1   1.26709  -3.73167  -9.50105
   1  -2.19287  -2.62338 -10.57719
   1  -1.31365  -3.71642  -9.49799
   1  -1.31190  -4.01133 -11.23958
   1  -0.01340   3.66577   2.77537
   1  -0.01739   3.51888   5.21435
   1  -0.01951   3.37675   7.14491
   1  -0.02380   3.15480   9.58454
 read in order, maxerr=  0.13 for atom  78
 final axis swaps:           1           1           1
 final xyz swap pattern=           1
 reorder list:
   1   2   3   4   5   6   7   8   9  10  11  12  13  14  15  16  17  18  19  20
  21  22  23  24  25  26  27  28  29  30  31  32  33  34  35  36  37  38  39  40
  41  42  43  44  45  46  47  48  49  50  51  52  53  54  55  56  57  58  59  60
  61  62  63  64  65  66  67  68  69  70  71  72  73  74  75  76  77  78  79  80
  81  82  83  84  85  86  87  88  89
  6    -1.289532 -1.083140 13.630894    -1.289614 -1.003107 13.635547
  6    -0.011468 -0.427900 13.095076    -0.011169 -0.354929 13.092218
  6     1.270708 -1.069506 13.637551     1.270701 -0.991154 13.641596
  7    -0.008110 -0.351022 11.605396    -0.007990 -0.295325 11.601462
  6     0.000302 -1.540864 10.859184    -0.000730 -1.493687 10.869237
  8     0.004527 -2.632454 11.417888     0.003054 -2.578733 11.440040
  6     0.003240 -1.412775  9.395025     0.002018 -1.382810  9.403262
  6     0.011798 -2.565435  8.608172     0.009287 -2.544634  8.630210
  6     0.014587 -2.479618  7.229057     0.011843 -2.474954  7.250090
  6     0.008885 -1.234838  6.559361     0.007266 -1.238081  6.565955
  6     0.011517 -1.131822  5.116026     0.009593 -1.151920  5.121446
  6     0.020520 -2.280518  4.286567     0.016672 -2.310826  4.305934
  6     0.022219 -2.178952  2.917923     0.018237 -2.225468  2.936520
  6     0.015290 -0.924292  2.285780     0.013126 -0.978222  2.289618
  6     0.016805 -0.889990  0.842189     0.014446 -0.961430  0.845430
  8     0.023076 -1.831726  0.078359     0.019379 -1.911069  0.092885
  7     0.009410  0.462016  0.271665     0.009286  0.385027  0.260645
  6     0.009461  0.555388 -1.053718     0.009395  0.464378 -1.065154
  6     0.009152  0.644321 -2.264860     0.009144  0.543899 -2.274996
  6     0.008639  0.727850 -3.652597     0.008163  0.635038 -3.654074
  6     0.013206  1.862479 -4.453721     0.011182  1.799908 -4.439891
  6     0.010160  1.540410 -5.828625     0.008609  1.513674 -5.798378
  6     0.003066  0.185544 -6.066996     0.003516  0.138295 -6.081329
 16     0.000034 -0.759554 -4.627246     0.002021 -0.833006 -4.646888
  6    -0.000069 -0.085546 -7.508159     0.000591 -0.094995 -7.479835
  6    -0.007165 -1.282910 -8.218299    -0.005076 -1.292952 -8.228026
  6    -0.008624 -1.211268 -9.609777    -0.007044 -1.196508 -9.598420
  6    -0.002779  0.050716-10.257880    -0.003141  0.085642-10.236123
  6     0.004376  1.256617 -9.533490     0.002517  1.280832 -9.492993
  6     0.005677  1.181157 -8.154746     0.004275  1.187494 -8.120209
  6     0.012810  2.324877 -7.131253     0.010066  2.318997 -7.085267
  6    -1.251033  3.202994 -7.262832    -1.255428  3.197079 -7.200118
  6     1.285539  3.189592 -7.265646     1.282509  3.186567 -7.203419
  6    -0.005979 -0.215239-11.669350    -0.006251 -0.157128-11.646633
 16    -0.002623  0.720270-13.123094    -0.004796  0.802419-13.090749
  6    -0.011509 -0.750667-14.067629    -0.012060 -0.645868-14.055583
  6    -0.016856 -1.896072-13.291409    -0.015379 -1.797721-13.305151
  6    -0.013719 -1.595911-11.924052    -0.012047 -1.516288-11.922287
  6    -0.016523 -2.368852-10.617537    -0.013365 -2.325447-10.637426
  6     1.247541 -3.245109-10.479007     1.251445 -3.204413-10.521930
  6    -1.290784 -3.229885-10.475886    -1.285479 -3.193476-10.518057
  6     0.001588  1.719850  1.028441     0.003467  1.652792  1.001478
  8    -0.003335  2.760184  0.406243     0.000227  2.685240  0.367733
  6     0.000069  1.548628  2.462469     0.001741  1.497834  2.437781
  6    -0.008441  2.700789  3.266314    -0.004928  2.659340  3.228113
  6    -0.010543  2.606963  4.635545    -0.007135  2.581360  4.598031
  6    -0.004103  1.352037  5.293326    -0.002598  1.333614  5.269664
  6    -0.006343  1.248853  6.736640    -0.005048  1.247290  6.714276
  6    -0.014813  2.385915  7.576406    -0.012314  2.394141  7.540522
  6    -0.017281  2.275109  8.953616    -0.014770  2.299465  8.919050
  6    -0.011404  1.022181  9.569169    -0.010087  1.053818  9.548850
  6    -0.014409  0.941517 11.035576    -0.012921  0.990187 11.016591
  8    -0.022172  1.941505 11.743366    -0.019316  1.998670 11.711878
  6    -0.002686 -0.144811  8.774574    -0.002711 -0.122308  8.768066
  6     0.000011 -0.042646  7.344175    -0.000115 -0.036870  7.336480
  6     0.004743  0.160306  4.501247     0.004519  0.132811  4.491896
  6     0.006744  0.263043  3.062704     0.006505  0.218833  3.050993
  1    -1.312676 -0.987623 14.720567    -1.312615 -0.894682 14.723983
  1    -1.336553 -2.139472 13.369598    -1.337300 -2.062466 13.386944
  1    -2.174423 -0.579786 13.232354    -2.174285 -0.504015 13.231217
  1    -0.017802  0.617663 13.395614    -0.016732  0.694031 13.380636
  1     1.330158 -2.125435 13.377165     1.329354 -2.050107 13.393592
  1     1.287417 -0.973140 14.727271     1.287704 -0.882217 14.730093
  1     2.152271 -0.557139 13.243142     2.152581 -0.484035 13.241182
  1     0.016099 -3.525489  9.108538     0.012766 -3.498773  9.141756
  1     0.021155 -3.399109  6.661162     0.017404 -3.401136  6.693190
  1     0.026151 -3.265366  4.730056     0.020800 -3.290207  4.761232
  1     0.028881 -3.064375  2.294879     0.023381 -3.118269  2.324064
  1     0.018614  2.855320 -4.026470     0.015102  2.780236 -3.985462
  1    -0.011473 -2.235967 -7.702220    -0.007888 -2.253512 -7.725442
  1     0.008668  2.211166-10.048081     0.005318  2.241558 -9.995345
  1    -2.159389  2.603544 -7.175521    -2.163574  2.596658 -7.118456
  1    -1.267154  3.717115 -8.227552    -1.272813  3.719489 -8.159687
  1    -1.266828  3.962709 -6.477755    -1.268684  3.948791 -6.407554
  1     2.187702  2.580483 -7.180916     2.185853  2.578516 -7.124889
  1     1.311410  3.948719 -6.480265     1.304510  3.937632 -6.410435
  1     1.304716  3.703991 -8.230158     1.301383  3.709418 -8.162719
  1    -0.012375 -0.682123-15.144865    -0.013444 -0.556588-15.131369
  1    -0.022677 -2.888760-13.719889    -0.019980 -2.784654-13.747217
  1     2.156676 -2.649651-10.582820     2.159673 -2.603626-10.600664
  1     1.257237 -4.026968-11.242517     1.266099 -3.954714-11.316319
  1     1.267088 -3.731674 -9.501046     1.268646 -3.730241 -9.564241
  1    -2.192873 -2.623385-10.577187    -2.188617 -2.584627-10.593195
  1    -1.313649 -3.716417 -9.497986    -1.303879 -3.719824 -9.560690
  1    -1.311903 -4.011328-11.239582    -1.309380 -3.942968-11.312969
  1    -0.013401  3.665767  2.775370    -0.008397  3.618654  2.726172
  1    -0.017388  3.518876  5.214350    -0.012480  3.499657  5.166533
  1    -0.019510  3.376748  7.144907    -0.016121  3.379934  7.097660
  1    -0.023804  3.154799  9.584545    -0.020354  3.186433  9.539700
 generating redundant internal coords
         300        3600          89
 Adding extra bonds for z output only
           6           6           6           7           6           8
           6           6           6           6           6           6
           6           6           6           8           7           6
           6           6           6           6           6          16
           6           6           6           6           6           6
           6           6           6           6          16           6
           6           6           6           6           6           6
           8           6           6           6           6           6
           6           6           6           6           8           6
           6           6           6           1           1           1
           1           1           1           1           1           1
           1           1           1           1           1           1
           1           1           1           1           1           1
           1           1           1           1           1           1
           1           1           1           1           1
 search for int coords
   1 str   2   1   1.533
   2 str   3   2   1.533
   3 str   4   2   1.492
   4 str   5   4   1.405
   5 str   6   5   1.226
   6 str   7   5   1.470
   7 str   8   7   1.396
   8 str   9   8   1.382
   9 str  10   9   1.414
  10 str  11  10   1.447
  11 str  12  11   1.417
  12 str  13  12   1.372
  13 str  14  13   1.405
  14 str  15  14   1.444
  15 str  16  15   1.213
  16 str  17  15   1.467
  17 str  18  17   1.329
  18 str  19  18   1.214
  19 str  20  19   1.390
  20 str  21  20   1.389
  21 str  22  21   1.412
  22 str  23  22   1.376
  23 str  24  20   1.778
  24 str  24  23   1.722
  25 str  25  23   1.466
  26 str  26  25   1.392
  27 str  27  26   1.393
  28 str  28  27   1.419
  29 str  29  28   1.407
  30 str  30  25   1.422
  31 str  30  29   1.381
  32 str  31  22   1.521
  33 str  31  30   1.535
  34 str  32  31   1.545
  35 str  33  31   1.545
  36 str  34  28   1.436
  37 str  35  34   1.729
  38 str  36  35   1.748
  39 str  37  36   1.384
  40 str  38  34   1.404
  41 str  38  37   1.400
  42 str  39  27   1.535
  43 str  39  38   1.518
  44 str  40  39   1.544
  45 str  41  39   1.544
  46 str  42  17   1.468
  47 str  43  42   1.212
  48 str  44  42   1.444
  49 str  45  44   1.405
  50 str  46  45   1.372
  51 str  47  46   1.417
  52 str  48  47   1.447
  53 str  49  48   1.414
  54 str  50  49   1.382
  55 str  51  50   1.396
  56 str  52   4   1.413
  57 str  52  51   1.469
  58 str  53  52   1.225
  59 str  54   7   1.412
  60 str  54  51   1.412
  61 str  55  10   1.427
  62 str  55  48   1.427
  63 str  55  54   1.434
  64 str  56  11   1.431
  65 str  56  47   1.431
  66 str  57  14   1.419
  67 str  57  44   1.419
  68 str  57  56   1.442
  69 str  58   1   1.094
  70 str  59   1   1.089
  71 str  60   1   1.093
  72 str  61   2   1.088
  73 str  62   3   1.089
  74 str  63   3   1.094
  75 str  64   3   1.093
  76 str  65   8   1.083
  77 str  66   9   1.081
  78 str  67  12   1.080
  79 str  68  13   1.083
  80 str  69  21   1.081
  81 str  70  26   1.084
  82 str  71  29   1.084
  83 str  72  32   1.092
  84 str  73  32   1.093
  85 str  74  32   1.093
  86 str  75  33   1.092
  87 str  76  33   1.093
  88 str  77  33   1.093
  89 str  78  36   1.079
  90 str  79  37   1.081
  91 str  80  40   1.092
  92 str  81  40   1.093
  93 str  82  40   1.092
  94 str  83  41   1.092
  95 str  84  41   1.092
  96 str  85  41   1.093
  97 str  86  45   1.083
  98 str  87  46   1.080
  99 str  88  49   1.081
 100 str  89  50   1.083
 nber stretches=         100
 101 ben   1   2   3
 102 prop tor   1   2   3  62
 103 prop tor   1   2   3  63
 104 prop tor   1   2   3  64
 105 ben   1   2   4
 106 prop tor   1   2   4   5
 107 prop tor   1   2   4  52
 108 ben   1   2  61
 109 ben   2   1  58
 110 ben   2   1  59
 111 ben   2   1  60
 112 ben   2   3  62
 113 ben   2   3  63
 114 ben   2   3  64
 115 ben   2   4   5
 116 prop tor   2   4   5   6
 117 prop tor   2   4   5   7
 118 ben   2   4  52
 119 prop tor   2   4  52  51
 120 prop tor   2   4  52  53
 121 ben   3   2   4
 122 prop tor   3   2   4   5
 123 prop tor   3   2   4  52
 124 ben   3   2  61
 125 prop tor   4   2   3  62
 126 prop tor   4   2   3  63
 127 prop tor   4   2   3  64
 128 ben   4   2  61
 129 ben   4   5   6
 130 ben   4   5   7
 131 prop tor   4   5   7   8
 132 prop tor   4   5   7  54
 133 ben   4  52  51
 134 ben   4  52  53
 135 ben   5   4  52
[...]
    Gval  0.00170719  0.00172481  0.00175805  0.00189644  0.00191281  0.00202209  0.00215804  0.00227629
    Gval  0.00234089  0.00235342  0.00251978  0.00252753  0.00255874  0.00277759  0.00292503  0.00302197
    Gval  0.00302714  0.00303192  0.00303569  0.00303807  0.00304258  0.00304703  0.00304706  0.00308310
    Gval  0.00309122  0.00309685  0.00309941  0.00341364  0.00342060  0.00366134  0.00366437  0.00366595
    Gval  0.00371189  0.00371342  0.00393152  0.00404144  0.15978302  3.69684079 50.42748378
  6.676274718054596E-008  6.676274718054596E-008
  2.958251663525203E-007  6.676274718054596E-008
  4.905242422363209E-007  6.676274718054596E-008
  6.564443646256042E-007  6.676274718054596E-008
  1.591368900979061E-006  6.676274718054596E-008
  1.874377479416566E-006  6.676274718054596E-008
  2.338131602508403E-006  6.676274718054596E-008
  3.110009975048743E-006  6.676274718054596E-008
  3.616355954711490E-006  6.676274718054596E-008
  4.902356466796338E-006  6.676274718054596E-008
  6.228694390700827E-006  6.676274718054596E-008
  6.403784018629072E-006  6.676274718054596E-008
  8.838202358220300E-006  6.676274718054596E-008
  9.702246354046368E-006  6.676274718054596E-008
  1.097613123170293E-005  6.676274718054596E-008
  1.161460639314676E-005  6.676274718054596E-008
  1.354479757467893E-005  6.676274718054596E-008
  1.418268814087699E-005  6.676274718054596E-008
  1.502691205251523E-005  6.676274718054596E-008
  1.556074946380796E-005  6.676274718054596E-008
  1.640812869335958E-005  6.676274718054596E-008
  1.733348177243509E-005  6.676274718054596E-008
  1.774876274183347E-005  6.676274718054596E-008
  1.785803132688944E-005  6.676274718054596E-008
  1.833415224657591E-005  6.676274718054596E-008
  2.133249650327243E-005  6.676274718054596E-008
  2.146436184000111E-005  6.676274718054596E-008
  2.266566431222691E-005  6.676274718054596E-008
  2.362539375535336E-005  6.676274718054596E-008
  2.426943559817732E-005  6.676274718054596E-008
  2.532397759469793E-005  6.676274718054596E-008
  2.732121251543406E-005  6.676274718054596E-008
  2.906807911920962E-005  6.676274718054596E-008
  3.020427692048307E-005  6.676274718054596E-008
  3.203609780880514E-005  6.676274718054596E-008
  3.326047599344746E-005  6.676274718054596E-008
  3.558204500354654E-005  6.676274718054596E-008
  3.618825830044434E-005  6.676274718054596E-008
  3.733125066875400E-005  6.676274718054596E-008
  3.911511304630550E-005  6.676274718054596E-008
  3.995126009401489E-005  6.676274718054596E-008
  4.102812711656325E-005  6.676274718054596E-008
  4.249529464822528E-005  6.676274718054596E-008
  4.355984915532683E-005  6.676274718054596E-008
  4.540530710169100E-005  6.676274718054596E-008
  4.846823811492037E-005  6.676274718054596E-008
  4.890811415293636E-005  6.676274718054596E-008
  4.971003788233132E-005  6.676274718054596E-008
  5.088860876650259E-005  6.676274718054596E-008
  5.215143946165787E-005  6.676274718054596E-008
  5.264143518829276E-005  6.676274718054596E-008
  5.575634585866531E-005  6.676274718054596E-008
  5.643709103572943E-005  6.676274718054596E-008
  5.717636813116838E-005  6.676274718054596E-008
  5.921371108701602E-005  6.676274718054596E-008
  6.332551810227611E-005  6.676274718054596E-008
  6.449957994540647E-005  6.676274718054596E-008
  6.782575228375249E-005  6.676274718054596E-008
  6.934383251755091E-005  6.676274718054596E-008
  7.102003780510129E-005  6.676274718054596E-008
  7.269581236146718E-005  6.676274718054596E-008
  7.323395430414753E-005  6.676274718054596E-008
  7.749854878314249E-005  6.676274718054596E-008
  8.131017670782580E-005  6.676274718054596E-008
  8.201772969773930E-005  6.676274718054596E-008
  8.288316192360736E-005  6.676274718054596E-008
  8.582473246026086E-005  6.676274718054596E-008
  8.614446845539407E-005  6.676274718054596E-008
  8.850461326247004E-005  6.676274718054596E-008
  9.314238596447521E-005  6.676274718054596E-008
  9.459078376211799E-005  6.676274718054596E-008
  9.488732908283245E-005  6.676274718054596E-008
  9.504453469321175E-005  6.676274718054596E-008
  9.784328116228981E-005  6.676274718054596E-008
  1.060704432609208E-004  6.676274718054596E-008
  1.182623092593813E-004  6.676274718054596E-008
  1.224783706155416E-004  6.676274718054596E-008
  1.281702166746225E-004  6.676274718054596E-008
  1.314133293783455E-004  6.676274718054596E-008
  1.314560140930581E-004  6.676274718054596E-008
  1.351596296716301E-004  6.676274718054596E-008
  1.372319764704126E-004  6.676274718054596E-008
  1.374164930892327E-004  6.676274718054596E-008
  1.408849678837342E-004  6.676274718054596E-008
  1.415248017970527E-004  6.676274718054596E-008
  1.439106381501367E-004  6.676274718054596E-008
  1.479319847527925E-004  6.676274718054596E-008
  1.586477311808835E-004  6.676274718054596E-008
  1.592648211958008E-004  6.676274718054596E-008
  1.633744586530771E-004  6.676274718054596E-008
  1.690089096573152E-004  6.676274718054596E-008
  1.766220823388780E-004  6.676274718054596E-008
  1.782137374569745E-004  6.676274718054596E-008
  1.792757705970179E-004  6.676274718054596E-008
  1.821199886211658E-004  6.676274718054596E-008
  2.017571294819932E-004  6.676274718054596E-008
  2.174063562824769E-004  6.676274718054596E-008
  2.222518539734640E-004  6.676274718054596E-008
  2.261313768067496E-004  6.676274718054596E-008
  2.300338343365167E-004  6.676274718054596E-008
  2.314619398265041E-004  6.676274718054596E-008
  2.477195870822922E-004  6.676274718054596E-008
  2.497731926001695E-004  6.676274718054596E-008
  2.641837546562354E-004  6.676274718054596E-008
  2.700968507902627E-004  6.676274718054596E-008
  2.868292357923770E-004  6.676274718054596E-008
  2.883870871603094E-004  6.676274718054596E-008
  2.954952255217467E-004  6.676274718054596E-008
  2.998947892553768E-004  6.676274718054596E-008
  3.142992922783869E-004  6.676274718054596E-008
  3.310561609078708E-004  6.676274718054596E-008
  3.433761752987271E-004  6.676274718054596E-008
  3.514279731525673E-004  6.676274718054596E-008
  3.604051163551875E-004  6.676274718054596E-008
  3.743081717573162E-004  6.676274718054596E-008
  3.830465080567814E-004  6.676274718054596E-008
  3.869293497185529E-004  6.676274718054596E-008
  3.905337253551317E-004  6.676274718054596E-008
  3.991732928476792E-004  6.676274718054596E-008
  4.041665041217773E-004  6.676274718054596E-008
  4.065547379361314E-004  6.676274718054596E-008
  4.171349152648965E-004  6.676274718054596E-008
  4.220335130613992E-004  6.676274718054596E-008
  4.235726450569581E-004  6.676274718054596E-008
  4.298201709426037E-004  6.676274718054596E-008
  4.303579961988713E-004  6.676274718054596E-008
  4.354983273193995E-004  6.676274718054596E-008
  4.406891174163044E-004  6.676274718054596E-008
  4.419690238038605E-004  6.676274718054596E-008
  4.431970733714796E-004  6.676274718054596E-008
  4.599352347836246E-004  6.676274718054596E-008
  4.620476939931457E-004  6.676274718054596E-008
  4.633800854956280E-004  6.676274718054596E-008
  4.652885638586078E-004  6.676274718054596E-008
  4.689191828075431E-004  6.676274718054596E-008
  4.930062722427499E-004  6.676274718054596E-008
  5.063944442791007E-004  6.676274718054596E-008
  5.103413077347598E-004  6.676274718054596E-008
  5.220107825467658E-004  6.676274718054596E-008
  5.238134682781245E-004  6.676274718054596E-008
  5.332901669366053E-004  6.676274718054596E-008
  5.348519027033654E-004  6.676274718054596E-008
  5.355132599693210E-004  6.676274718054596E-008
  5.357304437301728E-004  6.676274718054596E-008
  5.373086356073616E-004  6.676274718054596E-008
  5.535980966560991E-004  6.676274718054596E-008
  5.547239957579572E-004  6.676274718054596E-008
  5.559222006675516E-004  6.676274718054596E-008
  5.561499934826049E-004  6.676274718054596E-008
  5.561848784358564E-004  6.676274718054596E-008
  5.561914560731323E-004  6.676274718054596E-008
  5.562060008414859E-004  6.676274718054596E-008
  5.572282391549771E-004  6.676274718054596E-008
  5.783800447459901E-004  6.676274718054596E-008
  5.784333276993522E-004  6.676274718054596E-008
  5.884956759155237E-004  6.676274718054596E-008
  5.944756576579277E-004  6.676274718054596E-008
  5.965257374651663E-004  6.676274718054596E-008
  5.985243851438537E-004  6.676274718054596E-008
  5.989671713656790E-004  6.676274718054596E-008
  5.992511206066168E-004  6.676274718054596E-008
  5.995774480906211E-004  6.676274718054596E-008
  5.998594172217130E-004  6.676274718054596E-008
  6.022157334961513E-004  6.676274718054596E-008
  6.091992344112619E-004  6.676274718054596E-008
  6.168843962380668E-004  6.676274718054596E-008
  6.257285053968104E-004  6.676274718054596E-008
  6.277153357558550E-004  6.676274718054596E-008
  6.359474487965410E-004  6.676274718054596E-008
  6.368310406900470E-004  6.676274718054596E-008
  6.414214406378395E-004  6.676274718054596E-008
  6.449298958648206E-004  6.676274718054596E-008
  6.457014780225327E-004  6.676274718054596E-008
  6.474958279069356E-004  6.676274718054596E-008
  6.479176802395346E-004  6.676274718054596E-008
  6.695702606491586E-004  6.676274718054596E-008
  6.766848056325102E-004  6.676274718054596E-008
  6.771931206100491E-004  6.676274718054596E-008
  6.938713810129859E-004  6.676274718054596E-008
  6.968805526716235E-004  6.676274718054596E-008
  7.667795689061625E-004  6.676274718054596E-008
  7.937724440630076E-004  6.676274718054596E-008
  8.169264458722313E-004  6.676274718054596E-008
  8.570595915619757E-004  6.676274718054596E-008
  9.220710191625596E-004  6.676274718054596E-008
  9.864531554581461E-004  6.676274718054596E-008
  9.908756257979354E-004  6.676274718054596E-008
  9.968136350093190E-004  6.676274718054596E-008
  1.081411162089634E-003  6.676274718054596E-008
  1.088564570559036E-003  6.676274718054596E-008
  1.093553520254506E-003  6.676274718054596E-008
  1.094507235346187E-003  6.676274718054596E-008
  1.095152863006578E-003  6.676274718054596E-008
  1.095723325756233E-003  6.676274718054596E-008
  1.098651739536495E-003  6.676274718054596E-008
  1.109632104953684E-003  6.676274718054596E-008
  1.134097627263122E-003  6.676274718054596E-008
  1.134867601104345E-003  6.676274718054596E-008
  1.136410432050406E-003  6.676274718054596E-008
  1.146611582652275E-003  6.676274718054596E-008
  1.149248951468802E-003  6.676274718054596E-008
  1.164473537976981E-003  6.676274718054596E-008
  1.164981654927723E-003  6.676274718054596E-008
  1.166165768126525E-003  6.676274718054596E-008
  1.166678969353252E-003  6.676274718054596E-008
  1.168217406933034E-003  6.676274718054596E-008
  1.168762169010480E-003  6.676274718054596E-008
  1.180376747944697E-003  6.676274718054596E-008
  1.180579197165364E-003  6.676274718054596E-008
  1.180850012272107E-003  6.676274718054596E-008
  1.181315437192229E-003  6.676274718054596E-008
  1.184724365522203E-003  6.676274718054596E-008
  1.196423158313298E-003  6.676274718054596E-008
  1.225440409504831E-003  6.676274718054596E-008
  1.291750124233942E-003  6.676274718054596E-008
  1.320395978900709E-003  6.676274718054596E-008
  1.497782160482856E-003  6.676274718054596E-008
  1.521285505983132E-003  6.676274718054596E-008
  1.583628488906640E-003  6.676274718054596E-008
  1.608914658641356E-003  6.676274718054596E-008
  1.670690672284547E-003  6.676274718054596E-008
  1.672152242231081E-003  6.676274718054596E-008
  1.707187488932419E-003  6.676274718054596E-008
  1.724805550702590E-003  6.676274718054596E-008
  1.758051364469051E-003  6.676274718054596E-008
  1.896443785204906E-003  6.676274718054596E-008
  1.912813869603761E-003  6.676274718054596E-008
  2.022086230775727E-003  6.676274718054596E-008
  2.158036893782057E-003  6.676274718054596E-008
  2.276287731060317E-003  6.676274718054596E-008
  2.340887766675986E-003  6.676274718054596E-008
  2.353417351331004E-003  6.676274718054596E-008
  2.519779857603485E-003  6.676274718054596E-008
  2.527525352278149E-003  6.676274718054596E-008
  2.558744988132561E-003  6.676274718054596E-008
  2.777589315619658E-003  6.676274718054596E-008
  2.925027482661319E-003  6.676274718054596E-008
  3.021969517294283E-003  6.676274718054596E-008
  3.027139618810574E-003  6.676274718054596E-008
  3.031919997721586E-003  6.676274718054596E-008
  3.035693872602718E-003  6.676274718054596E-008
  3.038067497495355E-003  6.676274718054596E-008
  3.042575636839388E-003  6.676274718054596E-008
  3.047028959149743E-003  6.676274718054596E-008
  3.047056409038375E-003  6.676274718054596E-008
  3.083101362012156E-003  6.676274718054596E-008
  3.091223373705461E-003  6.676274718054596E-008
  3.096847684604201E-003  6.676274718054596E-008
  3.099412166867732E-003  6.676274718054596E-008
  3.413643952303471E-003  6.676274718054596E-008
  3.420602824886689E-003  6.676274718054596E-008
  3.661344464874895E-003  6.676274718054596E-008
  3.664370500677564E-003  6.676274718054596E-008
  3.665953668779193E-003  6.676274718054596E-008
  3.711892278008213E-003  6.676274718054596E-008
  3.713424641410881E-003  6.676274718054596E-008
  3.931521572585085E-003  6.676274718054596E-008
  4.041439466703669E-003  6.676274718054596E-008
  0.159783017517419       6.676274718054596E-008
   3.69684078911443       6.676274718054596E-008
   50.4274837832054       6.676274718054596E-008
 cut=1d-8, nber non-redundant internal coords=         261
 Check on Eigenvals of non-red overlap matrix:
  0.00000007  0.00000030  0.00000049  0.00000066  0.00000159  0.00000187  0.00000234  0.00000311
  0.00000362  0.00000490  0.00000623  0.00000640  0.00000884  0.00000970  0.00001098  0.00001161
  0.00001354  0.00001418  0.00001503  0.00001556  0.00001641  0.00001733  0.00001775  0.00001786
  0.00001833  0.00002133  0.00002146  0.00002267  0.00002363  0.00002427  0.00002532  0.00002732
  0.00002907  0.00003020  0.00003204  0.00003326  0.00003558  0.00003619  0.00003733  0.00003912
  0.00003995  0.00004103  0.00004250  0.00004356  0.00004541  0.00004847  0.00004891  0.00004971
  0.00005089  0.00005215  0.00005264  0.00005576  0.00005644  0.00005718  0.00005921  0.00006333
  0.00006450  0.00006783  0.00006934  0.00007102  0.00007270  0.00007323  0.00007750  0.00008131
  0.00008202  0.00008288  0.00008582  0.00008614  0.00008850  0.00009314  0.00009459  0.00009489
  0.00009504  0.00009784  0.00010607  0.00011826  0.00012248  0.00012817  0.00013141  0.00013146
  0.00013516  0.00013723  0.00013742  0.00014088  0.00014152  0.00014391  0.00014793  0.00015865
  0.00015926  0.00016337  0.00016901  0.00017662  0.00017821  0.00017928  0.00018212  0.00020176
  0.00021741  0.00022225  0.00022613  0.00023003  0.00023146  0.00024772  0.00024977  0.00026418
  0.00027010  0.00028683  0.00028839  0.00029550  0.00029989  0.00031430  0.00033106  0.00034338
  0.00035143  0.00036041  0.00037431  0.00038305  0.00038693  0.00039053  0.00039917  0.00040417
  0.00040655  0.00041713  0.00042203  0.00042357  0.00042982  0.00043036  0.00043550  0.00044069
  0.00044197  0.00044320  0.00045994  0.00046205  0.00046338  0.00046529  0.00046892  0.00049301
  0.00050639  0.00051034  0.00052201  0.00052381  0.00053329  0.00053485  0.00053551  0.00053573
  0.00053731  0.00055360  0.00055472  0.00055592  0.00055615  0.00055618  0.00055619  0.00055621
  0.00055723  0.00057838  0.00057843  0.00058850  0.00059448  0.00059653  0.00059852  0.00059897
  0.00059925  0.00059958  0.00059986  0.00060222  0.00060920  0.00061688  0.00062573  0.00062772
  0.00063595  0.00063683  0.00064142  0.00064493  0.00064570  0.00064750  0.00064792  0.00066957
  0.00067668  0.00067719  0.00069387  0.00069688  0.00076678  0.00079377  0.00081693  0.00085706
  0.00092207  0.00098645  0.00099088  0.00099681  0.00108141  0.00108856  0.00109355  0.00109451
  0.00109515  0.00109572  0.00109865  0.00110963  0.00113410  0.00113487  0.00113641  0.00114661
  0.00114925  0.00116447  0.00116498  0.00116617  0.00116668  0.00116822  0.00116876  0.00118038
  0.00118058  0.00118085  0.00118132  0.00118472  0.00119642  0.00122544  0.00129175  0.00132040
  0.00149778  0.00152129  0.00158363  0.00160891  0.00167069  0.00167215  0.00170719  0.00172481
  0.00175805  0.00189644  0.00191281  0.00202209  0.00215804  0.00227629  0.00234089  0.00235342
  0.00251978  0.00252753  0.00255874  0.00277759  0.00292503  0.00302197  0.00302714  0.00303192
  0.00303569  0.00303807  0.00304258  0.00304703  0.00304706  0.00308310  0.00309122  0.00309685
  0.00309941  0.00341364  0.00342060  0.00366134  0.00366437  0.00366595  0.00371189  0.00371342
  0.00393152  0.00404144  0.15978302  3.69684079 50.42748378
 d1=
-479.6 -66.5  40.2 -35.0  16.8 -23.6   3.2  -5.8  23.6  15.3  -0.7   6.5   2.9   9.3   3.4   2.9  -6.4  -6.6   4.8   3.6
  -1.5   0.8  -0.4  -3.7   0.1   1.0  -2.1   2.9   2.3  -1.9  -0.1  10.8   4.2   5.8   4.3  -2.2  -9.3  -1.8  -1.0   0.2
   0.0   0.2   0.8  -0.1   4.0   0.1   0.1   1.1  -2.3   1.5  -1.1  -1.4  -0.1  -1.8  -2.2  -1.5   1.5   0.2  -1.3   0.0
  -0.6   1.8   0.5  -0.3  -0.6   1.4  -0.3  -2.8   0.9  -1.1   0.7   1.9   2.6  -1.8   5.9   1.9   0.0  -4.3  -1.1  -0.4
   0.5   0.4  -2.0  -1.2   0.9  -1.1  -1.2  -1.5   0.6  -0.1  -0.3  -3.0   0.2   0.4  -0.2   1.3  -0.3   0.3   0.3  -0.0
   0.1   1.2  -3.8   0.3  -2.9  -0.0   0.1  -1.0   2.9   0.7   0.1  -0.3  -0.1   0.0  -1.4   0.4  -0.0   0.4  -1.2   1.0
  -0.0  -0.2   0.2   0.0  -0.4   0.0   0.0   0.1  -0.2   0.0   0.5  -0.1  -0.1   0.4   0.1   0.2   0.4   0.5   0.3   0.6
   0.1  -0.1  -0.0  -0.0  -0.0   0.0   0.3   0.0  -0.0   0.0   0.0  -0.0   0.3   0.2   0.3  -0.1   0.0   0.0   0.0   0.0
   0.0  -0.0  -0.0  -0.0   0.7  -0.0  -0.5   0.4  -0.0   0.3   0.7   1.2   0.0   0.0   0.0  -0.1  -0.1   0.2  -0.2  -0.0
   0.3  -0.1   0.1   0.4  -0.1   0.1   0.2  -0.1  -0.4   0.0  -0.0  -0.0   0.0  -0.0  -0.7  -0.4   0.0   0.3  -0.0   0.6
   0.1   0.0   0.0   0.0   0.0   0.0  -0.0  -0.0  -0.0   0.0  -0.0  -0.0   0.1   0.0   0.0   0.1   0.1   0.1  -0.0   0.0
  -1.2  -0.2  -0.1   0.1  -0.1  -0.2   0.0   0.0   0.0  -0.0  -0.0   0.0  -0.0   0.1   0.1  -0.0   0.0  -0.0   0.1  -0.0
   0.0  -0.0  -0.0  -0.0  -0.0   0.0  -0.0  -0.3   0.2   0.1   0.0   0.0  -0.0  -0.6   0.0   0.0  -0.0  -0.0 -17.5  -1.3
   0.5
 d2=
 -86.7  51.0  11.9 -13.4   5.2  -9.2   9.0  -5.0  -1.2  -2.0   4.4  -4.6  -1.3   3.1   2.7  -1.2   0.4   0.4   4.9   0.7
   1.5   0.3  -1.5   0.9  -0.2  -0.8  -1.6  -2.9   1.3  -2.6   0.2  -4.2  -0.4   3.6  -1.2  -1.3   0.4  -3.5   0.3  -0.7
  -0.0   0.3   0.9   1.1   1.9   1.0   0.1  -1.2  -0.3   1.2  -0.4  -0.1   0.2  -0.3   0.0  -0.0  -1.1  -0.3   0.1   0.1
   0.4   0.5  -1.1   0.6   0.8   1.2  -0.3   0.1   1.3  -0.6   0.5   0.6   0.4  -1.5   0.6   0.4   0.0  -0.6   0.1  -1.6
  -0.7   0.1  -0.1   1.3   0.1   1.2   1.3  -0.1   0.0   1.0  -0.3   1.5  -0.7   0.2  -0.2  -0.2   1.1  -0.1   0.6   1.1
   0.1  -1.5   1.7  -1.7   0.2  -0.0  -0.2   0.4   0.1  -1.0  -0.9  -0.1   0.5   0.0   2.3  -0.1  -0.1   0.0  -0.0  -0.6
   0.3  -0.2  -0.1  -0.2  -0.8  -0.0  -0.0   0.0  -0.1   0.4  -0.4   0.3   0.1   0.1  -0.1   0.1  -0.3   0.4  -0.4   0.6
   0.1   0.0   0.0  -0.0  -0.0  -0.0   0.3  -0.0  -0.0  -0.0  -0.0  -0.0  -0.3   0.1  -0.3  -0.1   0.1   0.2   0.0   0.1
  -0.0   0.0   0.0  -0.0   0.6  -0.1   0.3  -0.1  -0.2  -0.1   0.0  -0.0   0.0   0.0  -1.4   0.2   0.1   0.2   0.2   0.0
   0.2  -0.1  -0.1   0.3   0.1   0.2   0.0  -0.1  -0.4   0.0   0.0   0.0  -0.0  -0.0   0.5   0.4   0.1  -0.2  -0.3  -0.0
   0.2   0.0  -0.0   0.0   0.0   0.0  -0.0   0.0  -0.0   0.0   0.0   0.0   0.2  -0.1   0.0  -0.2  -0.0  -0.2   0.0  -0.1
   0.5   1.2  -0.1  -0.0  -0.2   0.2   0.1   0.0  -0.0   0.0   0.0  -0.0   0.0  -0.1   0.1   0.0   0.0   0.0  -0.0  -0.0
  -0.0   0.0  -0.0  -0.0   0.0   0.0   0.0   0.2   0.3   0.0  -0.1   0.3   0.1   0.1   0.0  -0.0   0.0   0.0  -4.3  -2.8
   0.2
 p1=

 p2=


 Displacement: in terms of nc of 1 THEN of nc of 2


 total reorg energy (cm**-1, kcal/mol)=        0.        0.      0.00      0.00
 Nber of molecules processed=           2
