 Enter ifcurve (0=recti, 1=orth curvi, 2=apprx curvi, -1 = skip
 And atom ordering flag, 0= never changes, 1= use the first order thenceforth,
  2= deduce it (does read on fail), 3= always read it
 Reading file: 
 ./Non-cov-phenyl-N_2_C0S0.log                                                  
                                          
  Entering Gaussian System, Link 0=g16                                          
  
 Gaussian format, type: g94, g98, g03= F F F
  #P Geom=AllCheck Guess=TCheck SCRF=Check GenChk RB3LYP/6-311G(d,p) Fre    
 energy type= B3LYP   
 Original G94 input coords:
  6  7.482966  0.000000  0.000000
  6  6.776026 -1.199154  0.000000
  6  5.385820 -1.197805  0.000000
  6  4.649542  0.000000  0.000000
  6  3.158659  0.000000  0.000000
  6  2.419303  1.196911  0.000000
  6  1.033388  1.200949  0.000000
  6  0.313217  0.000000  0.000000
  6 -1.163980  0.000000  0.000000
  7 -1.788210  1.191967  0.000000
  6 -3.115764  1.182695  0.000000
  6 -3.864072  0.000000  0.000000
  6 -5.339610  0.000000  0.000000
  7 -5.956436  1.192962  0.000000
  6 -7.288318  1.180727  0.000000
  6 -8.023925  0.000000  0.000000
  6 -7.288318 -1.180727  0.000000
  7 -5.956436 -1.192962  0.000000
  6 -3.115764 -1.182695  0.000000
  7 -1.788210 -1.191967  0.000000
  6  1.033388 -1.200949  0.000000
  6  2.419303 -1.196911  0.000000
  6  5.385820  1.197805  0.000000
  6  6.776026  1.199154  0.000000
  1  8.567219  0.000000  0.000000
  1  7.308026 -2.144374  0.000000
  1  4.876275 -2.151974  0.000000
  1  2.925648  2.152500  0.000000
  1  0.487685  2.135222  0.000000
  1 -3.621024  2.142174  0.000000
  1 -7.779347  2.150242  0.000000
  1 -9.106159  0.000000  0.000000
  1 -7.779347 -2.150242  0.000000
  1 -3.621024 -2.142174  0.000000
  1  0.487685 -2.135222  0.000000
  1  2.925648 -2.152500  0.000000
  1  4.876275  2.151974  0.000000
  1  7.308026  2.144374  0.000000
 nber atoms=          38
 Original standard coords:
  6  0.000000  0.000000  7.821035
  6  0.000000  1.199154  7.114095
  6  0.000000  1.197805  5.723889
  6  0.000000  0.000000  4.987611
  6  0.000000  0.000000  3.496729
  6  0.000000 -1.196911  2.757372
  6  0.000000 -1.200949  1.371457
  6  0.000000  0.000000  0.651286
  6  0.000000  0.000000 -0.825910
  7  0.000000 -1.191967 -1.450140
  6  0.000000 -1.182695 -2.777694
  6  0.000000  0.000000 -3.526002
  6  0.000000  0.000000 -5.001541
  7  0.000000 -1.192962 -5.618367
  6  0.000000 -1.180727 -6.950249
  6  0.000000  0.000000 -7.685856
  6  0.000000  1.180727 -6.950249
  7  0.000000  1.192962 -5.618367
  6  0.000000  1.182695 -2.777694
  7  0.000000  1.191967 -1.450140
  6  0.000000  1.200949  1.371457
  6  0.000000  1.196911  2.757372
  6  0.000000 -1.197805  5.723889
  6  0.000000 -1.199154  7.114095
  1  0.000000  0.000000  8.905288
  1  0.000000  2.144374  7.646095
  1  0.000000  2.151974  5.214345
  1  0.000000 -2.152500  3.263717
  1  0.000000 -2.135222  0.825754
  1  0.000000 -2.142174 -3.282955
  1  0.000000 -2.150242 -7.441278
  1  0.000000  0.000000 -8.768090
  1  0.000000  2.150242 -7.441278
  1  0.000000  2.142174 -3.282955
  1  0.000000  2.135222  0.825754
  1  0.000000  2.152500  3.263717
  1  0.000000 -2.151974  5.214345
  1  0.000000 -2.144374  7.646095
  SCF Done:  E(RB3LYP) =  -989.811722137     A.U. after    1 cycles             
  
          23          40 "  -989.811722137"
After scan for Atom:   Atom  AN      X      Y      Z        X      Y      Z        X      Y      Z   
After scan for Atom:   Atom  AN      X      Y      Z        X      Y      Z        X      Y      Z   
After scan for Atom:   Atom  AN      X      Y      Z        X      Y      Z        X      Y      Z   
After scan for Atom:   Atom  AN      X      Y      Z        X      Y      Z        X      Y      Z   
After scan for Atom:   Atom  AN      X      Y      Z        X      Y      Z        X      Y      Z   
After scan for Atom:   Atom  AN      X      Y      Z        X      Y      Z        X      Y      Z   
After scan for Atom:   Atom  AN      X      Y      Z        X      Y      Z        X      Y      Z   
After scan for Atom:   Atom  AN      X      Y      Z        X      Y      Z        X      Y      Z   
After scan for Atom:   Atom  AN      X      Y      Z        X      Y      Z        X      Y      Z   
After scan for Atom:   Atom  AN      X      Y      Z        X      Y      Z        X      Y      Z   
After scan for Atom:   Atom  AN      X      Y      Z        X      Y      Z        X      Y      Z   
After scan for Atom:   Atom  AN      X      Y      Z        X      Y      Z        X      Y      Z   
After scan for Atom:   Atom  AN      X      Y      Z        X      Y      Z        X      Y      Z   
After scan for Atom:   Atom  AN      X      Y      Z        X      Y      Z        X      Y      Z   
After scan for Atom:   Atom  AN      X      Y      Z        X      Y      Z        X      Y      Z   
After scan for Atom:   Atom  AN      X      Y      Z        X      Y      Z        X      Y      Z   
After scan for Atom:   Atom  AN      X      Y      Z        X      Y      Z        X      Y      Z   
After scan for Atom:   Atom  AN      X      Y      Z        X      Y      Z        X      Y      Z   
After scan for Atom:   Atom  AN      X      Y      Z        X      Y      Z        X      Y      Z   
After scan for Atom:   Atom  AN      X      Y      Z        X      Y      Z        X      Y      Z   
After scan for Atom:   Atom  AN      X      Y      Z        X      Y      Z        X      Y      Z   
After scan for Atom:   Atom  AN      X      Y      Z        X      Y      Z        X      Y      Z   
After scan for Atom:   Atom  AN      X      Y      Z        X      Y      Z        X      Y      Z   
After scan for Atom:   Atom  AN      X      Y      Z        X      Y      Z        X      Y      Z   
After scan for Atom:   Atom  AN      X      Y      Z        X      Y      Z        X      Y      Z   
After scan for Atom:   Atom  AN      X      Y      Z        X      Y      Z        X      Y      Z   
After scan for Atom:   Atom  AN      X      Y      Z        X      Y      Z        X      Y      Z   
After scan for Atom:   Atom  AN      X      Y      Z        X      Y      Z        X      Y      Z   
After scan for Atom:   Atom  AN      X      Y      Z        X      Y      Z        X      Y      Z   
After scan for Atom:   Atom  AN      X      Y      Z        X      Y      Z        X      Y      Z   
After scan for Atom:   Atom  AN      X      Y      Z        X      Y      Z        X      Y      Z   
After scan for Atom:   Atom  AN      X      Y      Z        X      Y      Z        X      Y      Z   
After scan for Atom:   Atom  AN      X      Y      Z        X      Y      Z        X      Y      Z   
After scan for Atom:   Atom  AN      X      Y      Z        X      Y      Z        X      Y      Z   
After scan for Atom:   Atom  AN      X      Y      Z        X      Y      Z        X      Y      Z   
After scan for Atom:   Atom  AN      X      Y      Z        X      Y      Z        X      Y      Z   
 g94    frequencies=
     0.0    0.0    0.0    0.0    0.0    0.0  -78.9   20.8   33.5   52.6
    59.3   66.8  119.2  132.9  165.8  173.7  212.6  258.5  336.8  338.2
   380.7  396.1  406.9  413.5  417.7  441.7  445.8  481.0  508.5  514.7
   560.6  593.4  631.1  645.4  655.5  656.1  671.1  695.9  721.2  739.9
   775.9  779.2  819.2  823.7  827.5  830.1  843.3  854.1  879.4  922.8
   970.5  992.9  997.5  999.3 1003.0 1004.2 1008.5 1012.8 1014.3 1015.9
  1022.4 1032.9 1045.1 1064.0 1074.7 1092.8 1111.7 1113.8 1129.2 1147.0
  1187.7 1204.0 1224.8 1235.4 1237.6 1271.9 1285.7 1289.9 1303.0 1330.6
  1341.1 1345.7 1357.2 1373.3 1412.5 1434.0 1438.0 1467.3 1483.9 1485.9
  1523.8 1557.7 1561.7 1598.8 1605.7 1607.9 1624.5 1629.5 1642.1 1655.7
  3148.0 3150.1 3159.0 3167.8 3182.0 3182.3 3182.6 3190.1 3191.3 3203.8
  3204.2 3204.7 3213.1 3215.2
 g94    symmetries=
                                                A2     B1     A2     B2
      B1     A2     B1     B2     B1     A1     B2     B1     B1     A1
      B2     A2     A2     A2     A2     B2     B1     A1     B2     B1
      B1     B1     B2     B2     B2     A1     B2     B1     A1     B1
      A1     B1     B1     A2     B1     A1     B1     A2     B1     B1
      A2     B1     A2     B1     B1     A2     A1     B1     A1     A2
      A1     A1     A1     A1     A1     A1     B2     B2     A1     B2
      B2     A1     B2     A1     B2     B2     A1     B2     B2     B2
      B2     A1     A1     B2     B2     A1     B2     B2     B2     A1
      A1     A1     B2     B2     A1     B2     B2     A1     A1     A1
      A1     B2     A1     B2     B2     A1     A1     B2     A1     A1
      B2     A1     B2     A1
 atomic masses:
 12.0000 12.0000 12.0000 12.0000 12.0000 12.0000 12.0000 12.0000 12.0000 14.0031
 12.0000 12.0000 12.0000 14.0031 12.0000 12.0000 12.0000 14.0031 12.0000 14.0031
 12.0000 12.0000 12.0000 12.0000  1.0078  1.0078  1.0078  1.0078  1.0078  1.0078
  1.0078  1.0078  1.0078  1.0078  1.0078  1.0078  1.0078  1.0078
 looking for force constants in 
 ./Non-cov-phenyl-N_2_C0S0.fchk                                                 
  
 Cartesian Force Constants                  R   N=        6555                  
  
 n3=         114        6555
 g94-fc frequencies=
   -78.9   -8.6   -2.1   -0.0   -0.0    0.0    0.2   20.8   33.5   52.6
    59.3   66.8  119.2  132.9  165.8  173.7  212.6  258.5  336.8  338.2
   380.7  396.1  406.9  413.5  417.8  441.7  445.8  481.0  508.5  514.7
   560.6  593.4  631.1  645.4  655.6  656.1  671.1  695.9  721.2  739.9
   775.9  779.2  819.2  823.7  827.5  830.1  843.3  854.1  879.4  922.8
   970.5  992.9  997.6  999.3 1003.1 1004.2 1008.5 1012.8 1014.3 1015.9
  1022.5 1032.9 1045.1 1064.0 1074.8 1092.8 1111.7 1113.8 1129.2 1147.1
  1187.7 1204.0 1224.8 1235.4 1237.6 1271.9 1285.8 1289.9 1303.0 1330.6
  1341.1 1345.7 1357.2 1373.3 1412.5 1434.1 1438.0 1467.3 1483.9 1485.9
  1523.8 1557.8 1561.7 1598.8 1605.8 1607.9 1624.5 1629.6 1642.1 1655.7
  3148.1 3150.2 3159.1 3167.8 3182.1 3182.3 3182.7 3190.2 3191.3 3203.9
  3204.2 3204.7 3213.2 3215.2
 at 99999: n3=         114
 symm operator            1 :  T  nop=           1
 symm operator            2 :  F  nop=           1
 symm operator            3 :  F  nop=           1
 symm operator            4 :  F  nop=           1
 symm operator            5 :  F  nop=           1
 symm operator            6 :  T  nop=           2
 symm operator            7 :  T  nop=           3
 The point group of the molecule is C2V
 enforcing symm op           1  jsymt=          -1          -1           1
 enforcing symm op           6  jsymt=           1          -1           1
 enforcing symm op           7  jsymt=          -1           1           1
 cartesian coord symmetries:
 A1 :   38 A2 :   14 B1 :   24 B2 :   38
 Symmetry rotation matrix:
   1.00000   0.00000   0.00000
   0.00000   1.00000   0.00000
   0.00000   0.00000   1.00000

 Projecting out zero-frequency components
 generating redundant internal coords
         300        3600          38
 search for int coords
   1 str   2   1   1.392
   2 str   3   2   1.390
   3 str   4   3   1.406
   4 str   5   4   1.491
   5 str   6   5   1.407
   6 str   7   6   1.386
   7 str   8   7   1.400
   8 str   9   8   1.477
   9 str  10   9   1.346
  10 str  11  10   1.328
  11 str  12  11   1.400
  12 str  13  12   1.476
  13 str  14  13   1.343
  14 str  15  14   1.332
  15 str  16  15   1.391
  16 str  17  16   1.391
  17 str  18  13   1.343
  18 str  18  17   1.332
  19 str  19  12   1.400
  20 str  20   9   1.346
  21 str  20  19   1.328
  22 str  21   8   1.400
  23 str  22   5   1.407
  24 str  22  21   1.386
  25 str  23   4   1.406
  26 str  24   1   1.392
  27 str  24  23   1.390
  28 str  25   1   1.084
  29 str  26   2   1.085
  30 str  27   3   1.082
  31 str  28   6   1.081
  32 str  29   7   1.082
  33 str  30  11   1.084
  34 str  31  15   1.087
  35 str  32  16   1.082
  36 str  33  17   1.087
  37 str  34  19   1.084
  38 str  35  21   1.082
  39 str  36  22   1.081
  40 str  37  23   1.082
  41 str  38  24   1.085
 nber stretches=          41
  42 ben   1   2   3
  43 prop tor   1   2   3   4
  44 prop tor   1   2   3  27
  45 ben   1   2  26
  46 ben   1  24  23
  47 ben   1  24  38
  48 ben   2   1  24
  49 prop tor   2   1  24  23
  50 prop tor   2   1  24  38
  51 ben   2   1  25
  52 ben   2   3   4
  53 prop tor   2   3   4   5
  54 prop tor   2   3   4  23
  55 ben   2   3  27
  56 ben   3   2  26
  57 ben   3   4   5
  58 prop tor   3   4   5   6
  59 prop tor   3   4   5  22
  60 ben   3   4  23
  61 prop tor   3   4  23  24
  62 prop tor   3   4  23  37
  63 ben   4   3  27
  64 ben   4   5   6
  65 prop tor   4   5   6   7
  66 prop tor   4   5   6  28
  67 ben   4   5  22
  68 prop tor   4   5  22  21
  69 prop tor   4   5  22  36
  70 ben   4  23  24
  71 prop tor   4  23  24   1
  72 prop tor   4  23  24  38
  73 ben   4  23  37
  74 ben   5   4  23
  75 prop tor   5   4  23  24
  76 prop tor   5   4  23  37
  77 ben   5   6   7
  78 prop tor   5   6   7   8
  79 prop tor   5   6   7  29
  80 ben   5   6  28
  81 ben   5  22  21
  82 ben   5  22  36
  83 ben   6   5  22
  84 prop tor   6   5  22  21
  85 prop tor   6   5  22  36
  86 ben   6   7   8
  87 prop tor   6   7   8   9
  88 prop tor   6   7   8  21
  89 ben   6   7  29
  90 ben   7   6  28
  91 ben   7   8   9
  92 prop tor   7   8   9  10
  93 prop tor   7   8   9  20
  94 ben   7   8  21
  95 prop tor   7   8  21  22
  96 prop tor   7   8  21  35
  97 ben   8   7  29
  98 ben   8   9  10
  99 prop tor   8   9  10  11
 100 ben   8   9  20
 101 prop tor   8   9  20  19
 102 ben   8  21  22
 103 prop tor   8  21  22   5
 104 prop tor   8  21  22  36
 105 ben   8  21  35
 106 ben   9   8  21
 107 prop tor   9   8  21  22
 108 prop tor   9   8  21  35
 109 ben   9  10  11
 110 prop tor   9  10  11  12
 111 prop tor   9  10  11  30
 112 ben   9  20  19
 113 ben  10   9  20
 114 prop tor  10   9  20  19
 115 ben  10  11  12
 116 prop tor  10  11  12  13
 117 prop tor  10  11  12  19
 118 ben  10  11  30
 119 ben  11  12  13
 120 prop tor  11  12  13  14
 121 prop tor  11  12  13  18
 122 ben  11  12  19
 123 prop tor  11  12  19  20
 124 prop tor  11  12  19  34
 125 ben  12  11  30
 126 ben  12  13  14
 127 prop tor  12  13  14  15
 128 ben  12  13  18
 129 prop tor  12  13  18  17
 130 ben  12  19  20
 131 prop tor  12  19  20   9
 132 ben  12  19  34
 133 ben  13  12  19
 134 prop tor  13  12  19  20
 135 prop tor  13  12  19  34
 136 ben  13  14  15
 137 prop tor  13  14  15  16
 138 prop tor  13  14  15  31
 139 ben  13  18  17
 140 ben  14  13  18
 141 prop tor  14  13  18  17
 142 ben  14  15  16
 143 prop tor  14  15  16  17
 144 prop tor  14  15  16  32
 145 ben  14  15  31
 146 ben  15  16  17
 147 prop tor  15  16  17  18
 148 prop tor  15  16  17  33
 149 ben  15  16  32
 150 ben  16  15  31
 151 ben  16  17  18
 152 prop tor  16  17  18  13
 153 ben  16  17  33
 154 ben  17  16  32
 155 prop tor  18  13  14  15
 156 ben  18  17  33
 157 prop tor  19  12  13  14
 158 prop tor  19  12  13  18
 159 prop tor  20   9  10  11
 160 ben  20  19  34
 161 prop tor  21   8   9  10
 162 prop tor  21   8   9  20
 163 ben  21  22  36
 164 prop tor  22   5   6   7
 165 prop tor  22   5   6  28
 166 ben  22  21  35
 167 prop tor  23   4   5   6
 168 prop tor  23   4   5  22
 169 ben  23  24  38
 170 prop tor  24   1   2   3
 171 prop tor  24   1   2  26
 172 ben  24   1  25
 173 ben  24  23  37
 174 prop tor  25   1   2   3
 175 prop tor  25   1   2  26
 176 prop tor  25   1  24  23
 177 prop tor  25   1  24  38
 178 prop tor  26   2   3   4
 179 prop tor  26   2   3  27
 180 prop tor  27   3   4   5
 181 prop tor  27   3   4  23
 182 prop tor  28   6   7   8
 183 prop tor  28   6   7  29
 184 prop tor  29   7   8   9
 185 prop tor  29   7   8  21
 186 prop tor  30  11  12  13
 187 prop tor  30  11  12  19
 188 prop tor  31  15  16  17
 189 prop tor  31  15  16  32
 190 prop tor  32  16  17  18
 191 prop tor  32  16  17  33
 192 prop tor  33  17  18  13
 193 prop tor  34  19  20   9
 194 prop tor  35  21  22   5
 195 prop tor  35  21  22  36
 196 prop tor  37  23  24   1
 197 prop tor  37  23  24  38
 nber bend=              64
 nber lin bend=           0
 nber prop tor=          92
 nber impr tor=           0
 nber tot redund int=         197
 Eigenvalues of G in red int coords
    Gval -0.00000000 -0.00000000 -0.00000000 -0.00000000 -0.00000000 -0.00000000 -0.00000000 -0.00000000
    Gval -0.00000000 -0.00000000 -0.00000000 -0.00000000 -0.00000000 -0.00000000 -0.00000000 -0.00000000
    Gval -0.00000000 -0.00000000 -0.00000000 -0.00000000 -0.00000000 -0.00000000 -0.00000000 -0.00000000
    Gval -0.00000000 -0.00000000 -0.00000000 -0.00000000 -0.00000000 -0.00000000 -0.00000000 -0.00000000
    Gval -0.00000000 -0.00000000 -0.00000000 -0.00000000 -0.00000000 -0.00000000 -0.00000000 -0.00000000
    Gval -0.00000000 -0.00000000 -0.00000000 -0.00000000  0.00000000  0.00000000  0.00000000  0.00000000
    Gval  0.00000000  0.00000000  0.00000000  0.00000000  0.00000000  0.00000000  0.00000000  0.00000000
    Gval  0.00000000  0.00000000  0.00000000  0.00000000  0.00000000  0.00000000  0.00000000  0.00000000
    Gval  0.00000000  0.00000000  0.00000000  0.00000000  0.00000000  0.00000000  0.00000000  0.00000000
    Gval  0.00000000  0.00000000  0.00000000  0.00000000  0.00000000  0.00000000  0.00000000  0.00000000
    Gval  0.00000000  0.00000000  0.00000000  0.00000000  0.00000000  0.00000000  0.00000000  0.00000000
    Gval  0.00000000  0.00000049  0.00000168  0.00000205  0.00000303  0.00000769  0.00000853  0.00001276
    Gval  0.00001395  0.00001542  0.00001983  0.00002829  0.00002990  0.00004209  0.00004522  0.00004601
    Gval  0.00004727  0.00004790  0.00004994  0.00005521  0.00005548  0.00005883  0.00005901  0.00006688
    Gval  0.00006785  0.00007769  0.00008438  0.00008791  0.00010048  0.00010561  0.00010585  0.00011526
    Gval  0.00011701  0.00011837  0.00012075  0.00012229  0.00012604  0.00013298  0.00017267  0.00020898
    Gval  0.00022617  0.00025177  0.00026233  0.00027600  0.00027989  0.00028879  0.00031489  0.00034990
    Gval  0.00036397  0.00037929  0.00037954  0.00039176  0.00039181  0.00041536  0.00042926  0.00050511
    Gval  0.00053270  0.00056549  0.00059138  0.00059307  0.00059343  0.00059364  0.00059772  0.00060012
    Gval  0.00060407  0.00060415  0.00060687  0.00062012  0.00062340  0.00062671  0.00063869  0.00064167
    Gval  0.00065004  0.00066110  0.00071714  0.00091322  0.00104104  0.00104812  0.00106093  0.00107903
    Gval  0.00110712  0.00110983  0.00111175  0.00112949  0.00113119  0.00113896  0.00115448  0.00116982
    Gval  0.00117242  0.00117247  0.00117488  0.00140186  0.00143031  0.00144781  0.00154820  0.00165681
    Gval  0.00192757  0.00225699  0.00226610  0.00234291  0.00235748  0.00236871  0.00251330  0.00314089
    Gval  0.00363348  0.00370560  0.00372750  0.00373439  0.00406488
  4.899829773716455E-007  4.899829773716455E-007
  1.679908469554318E-006  4.899829773716455E-007
  2.050899423510303E-006  4.899829773716455E-007
  3.027004531706432E-006  4.899829773716455E-007
  7.693429389310314E-006  4.899829773716455E-007
  8.533065555520569E-006  4.899829773716455E-007
  1.275615142730835E-005  4.899829773716455E-007
  1.395229618310758E-005  4.899829773716455E-007
  1.541976576587530E-005  4.899829773716455E-007
  1.983101588001260E-005  4.899829773716455E-007
  2.828972579420557E-005  4.899829773716455E-007
  2.989643262479264E-005  4.899829773716455E-007
  4.209088739582471E-005  4.899829773716455E-007
  4.522372155957671E-005  4.899829773716455E-007
  4.601337182529025E-005  4.899829773716455E-007
  4.727183437570080E-005  4.899829773716455E-007
  4.790074877775426E-005  4.899829773716455E-007
  4.993560418084425E-005  4.899829773716455E-007
  5.520935404237117E-005  4.899829773716455E-007
  5.547823619477048E-005  4.899829773716455E-007
  5.883299875546045E-005  4.899829773716455E-007
  5.900795006934563E-005  4.899829773716455E-007
  6.687677043540067E-005  4.899829773716455E-007
  6.784506423026981E-005  4.899829773716455E-007
  7.768820083122226E-005  4.899829773716455E-007
  8.437594699390924E-005  4.899829773716455E-007
  8.791120563494473E-005  4.899829773716455E-007
  1.004785261167936E-004  4.899829773716455E-007
  1.056080582704210E-004  4.899829773716455E-007
  1.058514651837545E-004  4.899829773716455E-007
  1.152555670667434E-004  4.899829773716455E-007
  1.170138667932904E-004  4.899829773716455E-007
  1.183707816639255E-004  4.899829773716455E-007
  1.207494934272602E-004  4.899829773716455E-007
  1.222943644285595E-004  4.899829773716455E-007
  1.260409498161428E-004  4.899829773716455E-007
  1.329755232586345E-004  4.899829773716455E-007
  1.726734267692626E-004  4.899829773716455E-007
  2.089794391226187E-004  4.899829773716455E-007
  2.261743016848535E-004  4.899829773716455E-007
  2.517721042865430E-004  4.899829773716455E-007
  2.623308567514648E-004  4.899829773716455E-007
  2.759991970446973E-004  4.899829773716455E-007
  2.798851340832316E-004  4.899829773716455E-007
  2.887913071983469E-004  4.899829773716455E-007
  3.148906888562920E-004  4.899829773716455E-007
  3.499036563258431E-004  4.899829773716455E-007
  3.639709253268615E-004  4.899829773716455E-007
  3.792897704351127E-004  4.899829773716455E-007
  3.795438122969706E-004  4.899829773716455E-007
  3.917613603735703E-004  4.899829773716455E-007
  3.918133348974153E-004  4.899829773716455E-007
  4.153602096558792E-004  4.899829773716455E-007
  4.292627219467877E-004  4.899829773716455E-007
  5.051119938902036E-004  4.899829773716455E-007
  5.326969718716987E-004  4.899829773716455E-007
  5.654884615435271E-004  4.899829773716455E-007
  5.913822612623102E-004  4.899829773716455E-007
  5.930735513433257E-004  4.899829773716455E-007
  5.934347449356433E-004  4.899829773716455E-007
  5.936437824580888E-004  4.899829773716455E-007
  5.977196814288086E-004  4.899829773716455E-007
  6.001244182955460E-004  4.899829773716455E-007
  6.040666971331495E-004  4.899829773716455E-007
  6.041487243706006E-004  4.899829773716455E-007
  6.068675167351443E-004  4.899829773716455E-007
  6.201247184654978E-004  4.899829773716455E-007
  6.234049160233602E-004  4.899829773716455E-007
  6.267068962697488E-004  4.899829773716455E-007
  6.386874569672466E-004  4.899829773716455E-007
  6.416699283689206E-004  4.899829773716455E-007
  6.500411198973243E-004  4.899829773716455E-007
  6.611012915370370E-004  4.899829773716455E-007
  7.171355173539058E-004  4.899829773716455E-007
  9.132186030571021E-004  4.899829773716455E-007
  1.041043465508513E-003  4.899829773716455E-007
  1.048116013178089E-003  4.899829773716455E-007
  1.060930403489531E-003  4.899829773716455E-007
  1.079030369913362E-003  4.899829773716455E-007
  1.107116587271456E-003  4.899829773716455E-007
  1.109833531314349E-003  4.899829773716455E-007
  1.111754437701234E-003  4.899829773716455E-007
  1.129487735125183E-003  4.899829773716455E-007
  1.131189527173734E-003  4.899829773716455E-007
  1.138963623665418E-003  4.899829773716455E-007
  1.154479940747954E-003  4.899829773716455E-007
  1.169823600131360E-003  4.899829773716455E-007
  1.172422110153703E-003  4.899829773716455E-007
  1.172473932721457E-003  4.899829773716455E-007
  1.174876713308246E-003  4.899829773716455E-007
  1.401860515218710E-003  4.899829773716455E-007
  1.430311475049792E-003  4.899829773716455E-007
  1.447814835868288E-003  4.899829773716455E-007
  1.548203902209257E-003  4.899829773716455E-007
  1.656808323469491E-003  4.899829773716455E-007
  1.927567126746294E-003  4.899829773716455E-007
  2.256992661616349E-003  4.899829773716455E-007
  2.266095465660180E-003  4.899829773716455E-007
  2.342912929851592E-003  4.899829773716455E-007
  2.357484361200718E-003  4.899829773716455E-007
  2.368710063787785E-003  4.899829773716455E-007
  2.513300127786223E-003  4.899829773716455E-007
  3.140891824892573E-003  4.899829773716455E-007
  3.633477045308981E-003  4.899829773716455E-007
  3.705599061081124E-003  4.899829773716455E-007
  3.727496749360020E-003  4.899829773716455E-007
  3.734394848593072E-003  4.899829773716455E-007
  4.064881506297522E-003  4.899829773716455E-007
 cut=1d-8, nber non-redundant internal coords=         108
 Check on Eigenvals of non-red overlap matrix:
  0.00000049  0.00000168  0.00000205  0.00000303  0.00000769  0.00000853  0.00001276  0.00001395
  0.00001542  0.00001983  0.00002829  0.00002990  0.00004209  0.00004522  0.00004601  0.00004727
  0.00004790  0.00004994  0.00005521  0.00005548  0.00005883  0.00005901  0.00006688  0.00006785
  0.00007769  0.00008438  0.00008791  0.00010048  0.00010561  0.00010585  0.00011526  0.00011701
  0.00011837  0.00012075  0.00012229  0.00012604  0.00013298  0.00017267  0.00020898  0.00022617
  0.00025177  0.00026233  0.00027600  0.00027989  0.00028879  0.00031489  0.00034990  0.00036397
  0.00037929  0.00037954  0.00039176  0.00039181  0.00041536  0.00042926  0.00050511  0.00053270
  0.00056549  0.00059138  0.00059307  0.00059343  0.00059364  0.00059772  0.00060012  0.00060407
  0.00060415  0.00060687  0.00062012  0.00062340  0.00062671  0.00063869  0.00064167  0.00065004
  0.00066110  0.00071714  0.00091322  0.00104104  0.00104812  0.00106093  0.00107903  0.00110712
  0.00110983  0.00111175  0.00112949  0.00113119  0.00113896  0.00115448  0.00116982  0.00117242
  0.00117247  0.00117488  0.00140186  0.00143031  0.00144781  0.00154820  0.00165681  0.00192757
  0.00225699  0.00226610  0.00234291  0.00235748  0.00236871  0.00251330  0.00314089  0.00363348
  0.00370560  0.00372750  0.00373439  0.00406488
 Checking for correct frequencies
 recalc frequencies=
   -78.9   -0.0   -0.0   -0.0    0.0    0.0    0.0   20.8   33.5   52.6
    59.3   66.8  119.2  132.9  165.8  173.7  212.6  258.5  336.8  338.2
   380.7  396.1  406.9  413.5  417.8  441.7  445.8  481.0  508.5  514.7
   560.6  593.4  631.1  645.4  655.6  656.1  671.1  695.9  721.2  739.9
   775.9  779.2  819.2  823.7  827.5  830.1  843.3  854.1  879.4  922.8
   970.5  992.9  997.6  999.3 1003.1 1004.2 1008.5 1012.8 1014.3 1015.9
  1022.5 1032.9 1045.1 1064.0 1074.8 1092.8 1111.7 1113.8 1129.2 1147.1
  1187.7 1204.0 1224.8 1235.4 1237.6 1271.9 1285.8 1289.9 1303.0 1330.6
  1341.1 1345.7 1357.2 1373.3 1412.5 1434.1 1438.0 1467.3 1483.9 1485.9
  1523.8 1557.8 1561.7 1598.8 1605.8 1607.9 1624.5 1629.6 1642.1 1655.7
  3148.1 3150.2 3159.1 3167.8 3182.1 3182.3 3182.7 3190.2 3191.3 3203.9
  3204.2 3204.7 3213.2 3215.2
 recalc symmetries=
     A2     B2     A1     B1     B2     A2     B1     B1     A2     B2 
     B1     A2     B1     B2     B1     A1     B2     B1     B1     A1 
     B2     A2     A2     A2     A2     B2     B1     A1     B2     B1 
     B1     B1     B2     B2     B2     A1     B2     B1     A1     B1 
     A1     B1     B1     A2     B1     A1     B1     A2     B1     B1 
     A2     B1     A2     B1     B1     A2     A1     B1     A1     A2 
     A1     A1     A1     A1     A1     A1     B2     B2     A1     B2 
     B2     A1     B2     A1     B2     B2     A1     B2     B2     B2 
     B2     A1     A1     B2     B2     A1     B2     B2     B2     A1 
     A1     A1     B2     B2     A1     B2     B2     A1     A1     A1 
     A1     B2     A1     B2     B2     A1     A1     B2     A1     A1 
     B2     A1     B2     A1 
 recalc freqs check OK
 Zero-point lengths:
 27.9013 10.0000 10.0000 10.0000 10.0000 10.0000 10.0000 54.3812 42.8421 34.1703
 32.1900 30.3308 22.7105 21.5050 19.2519 18.8109 17.0012 15.4194 13.5092 13.4810
 12.7059 12.4560 12.2895 12.1910 12.1292 11.7964 11.7418 11.3041 10.9933 10.9276
 10.4709 10.1774  9.8683  9.7582  9.6826  9.6783  9.5700  9.3976  9.2311  9.1138
  8.9001  8.8809  8.6616  8.6377  8.6180  8.6046  8.5369  8.4828  8.3600  8.1610
  7.9578  7.8677  7.8492  7.8425  7.8277  7.8232  7.8064  7.7898  7.7842  7.7779
  7.7531  7.7136  7.6686  7.6000  7.5620  7.4994  7.4353  7.4282  7.3774  7.3198
  7.1935  7.1445  7.0836  7.0532  7.0469  6.9513  6.9138  6.9026  6.8679  6.7963
  6.7697  6.7580  6.7292  6.6897  6.5963  6.5465  6.5375  6.4719  6.4356  6.4313
  6.3508  6.2813  6.2732  6.2001  6.1866  6.1825  6.1509  6.1413  6.1178  6.0926
  4.4185  4.4170  4.4108  4.4047  4.3948  4.3946  4.3944  4.3892  4.3884  4.3798
  4.3796  4.3792  4.3735  4.3721
 highest evec of mol 1
  0.0000  0.0000  0.0095
  0.0000  0.0182  0.0125
  0.0000  0.0782 -0.0418
  0.0000  0.0000 -0.0031
  0.0000  0.0000  0.0061
  0.0000 -0.1151  0.0654
  0.0000 -0.1094 -0.0656
  0.0000  0.0000 -0.0056
  0.0000  0.0000 -0.0016
  0.0000  0.0008  0.0000
  0.0000  0.0007  0.0001
  0.0000  0.0000  0.0002
  0.0000  0.0000 -0.0003
  0.0000  0.0001  0.0001
  0.0000 -0.0003 -0.0002
  0.0000  0.0000 -0.0004
  0.0000  0.0003 -0.0002
  0.0000 -0.0001  0.0001
  0.0000 -0.0007  0.0001
  0.0000 -0.0008  0.0000
  0.0000  0.1094 -0.0656
  0.0000  0.1151  0.0654
  0.0000 -0.0782 -0.0418
  0.0000 -0.0182  0.0125
  0.0000  0.0000 -0.0277
  0.0000 -0.0573 -0.0332
  0.0000 -0.2617  0.1454
  0.0000  0.3842 -0.2118
  0.0000  0.3584  0.2060
  0.0000 -0.0016 -0.0008
  0.0000  0.0010  0.0005
  0.0000  0.0000  0.0016
  0.0000 -0.0010  0.0005
  0.0000  0.0016 -0.0008
  0.0000 -0.3584  0.2060
  0.0000 -0.3842 -0.2118
  0.0000  0.2617  0.1454
  0.0000  0.0573 -0.0332
 generating redundant internal coords
         300        3600          38
 Adding extra bonds for z output only
           6           6           6           6           6           6
           6           6           6           7           6           6
           6           7           6           6           6           7
           6           7           6           6           6           6
           1           1           1           1           1           1
           1           1           1           1           1           1
           1           1
 search for int coords
   1 str   2   1   1.392
   2 str   3   2   1.390
   3 str   4   3   1.406
   4 str   5   4   1.491
   5 str   6   5   1.407
   6 str   7   6   1.386
   7 str   8   7   1.400
   8 str   9   8   1.477
   9 str  10   9   1.346
  10 str  11  10   1.328
  11 str  12  11   1.400
  12 str  13  12   1.476
  13 str  14  13   1.343
  14 str  15  14   1.332
  15 str  16  15   1.391
  16 str  17  16   1.391
  17 str  18  13   1.343
  18 str  18  17   1.332
  19 str  19  12   1.400
  20 str  20   9   1.346
  21 str  20  19   1.328
  22 str  21   8   1.400
  23 str  22   5   1.407
  24 str  22  21   1.386
  25 str  23   4   1.406
  26 str  24   1   1.392
  27 str  24  23   1.390
  28 str  25   1   1.084
  29 str  26   2   1.085
  30 str  27   3   1.082
  31 str  28   6   1.081
  32 str  29   7   1.082
  33 str  30  11   1.084
  34 str  31  15   1.087
  35 str  32  16   1.082
  36 str  33  17   1.087
  37 str  34  19   1.084
  38 str  35  21   1.082
  39 str  36  22   1.081
  40 str  37  23   1.082
  41 str  38  24   1.085
 nber stretches=          41
  42 ben   1   2   3
  43 prop tor   1   2   3   4
  44 prop tor   1   2   3  27
  45 ben   1   2  26
  46 ben   1  24  23
  47 ben   1  24  38
  48 ben   2   1  24
  49 prop tor   2   1  24  23
  50 prop tor   2   1  24  38
  51 ben   2   1  25
  52 ben   2   3   4
  53 prop tor   2   3   4   5
  54 prop tor   2   3   4  23
  55 ben   2   3  27
  56 ben   3   2  26
  57 ben   3   4   5
  58 prop tor   3   4   5   6
  59 prop tor   3   4   5  22
  60 ben   3   4  23
  61 prop tor   3   4  23  24
  62 prop tor   3   4  23  37
  63 ben   4   3  27
  64 ben   4   5   6
  65 prop tor   4   5   6   7
  66 prop tor   4   5   6  28
  67 ben   4   5  22
  68 prop tor   4   5  22  21
  69 prop tor   4   5  22  36
  70 ben   4  23  24
  71 prop tor   4  23  24   1
  72 prop tor   4  23  24  38
  73 ben   4  23  37
  74 ben   5   4  23
  75 prop tor   5   4  23  24
  76 prop tor   5   4  23  37
  77 ben   5   6   7
  78 prop tor   5   6   7   8
  79 prop tor   5   6   7  29
  80 ben   5   6  28
  81 ben   5  22  21
  82 ben   5  22  36
  83 ben   6   5  22
  84 prop tor   6   5  22  21
  85 prop tor   6   5  22  36
  86 ben   6   7   8
  87 prop tor   6   7   8   9
  88 prop tor   6   7   8  21
  89 ben   6   7  29
  90 ben   7   6  28
  91 ben   7   8   9
  92 prop tor   7   8   9  10
  93 prop tor   7   8   9  20
  94 ben   7   8  21
  95 prop tor   7   8  21  22
  96 prop tor   7   8  21  35
  97 ben   8   7  29
  98 ben   8   9  10
  99 prop tor   8   9  10  11
 100 ben   8   9  20
 101 prop tor   8   9  20  19
 102 ben   8  21  22
 103 prop tor   8  21  22   5
 104 prop tor   8  21  22  36
 105 ben   8  21  35
 106 ben   9   8  21
 107 prop tor   9   8  21  22
 108 prop tor   9   8  21  35
 109 ben   9  10  11
 110 prop tor   9  10  11  12
 111 prop tor   9  10  11  30
 112 ben   9  20  19
 113 ben  10   9  20
 114 prop tor  10   9  20  19
 115 ben  10  11  12
 116 prop tor  10  11  12  13
 117 prop tor  10  11  12  19
 118 ben  10  11  30
 119 ben  11  12  13
 120 prop tor  11  12  13  14
 121 prop tor  11  12  13  18
 122 ben  11  12  19
 123 prop tor  11  12  19  20
 124 prop tor  11  12  19  34
 125 ben  12  11  30
 126 ben  12  13  14
 127 prop tor  12  13  14  15
 128 ben  12  13  18
 129 prop tor  12  13  18  17
 130 ben  12  19  20
 131 prop tor  12  19  20   9
 132 ben  12  19  34
 133 ben  13  12  19
 134 prop tor  13  12  19  20
 135 prop tor  13  12  19  34
 136 ben  13  14  15
 137 prop tor  13  14  15  16
 138 prop tor  13  14  15  31
 139 ben  13  18  17
 140 ben  14  13  18
 141 prop tor  14  13  18  17
 142 ben  14  15  16
 143 prop tor  14  15  16  17
 144 prop tor  14  15  16  32
 145 ben  14  15  31
 146 ben  15  16  17
 147 prop tor  15  16  17  18
 148 prop tor  15  16  17  33
 149 ben  15  16  32
 150 ben  16  15  31
 151 ben  16  17  18
 152 prop tor  16  17  18  13
 153 ben  16  17  33
 154 ben  17  16  32
 155 prop tor  18  13  14  15
 156 ben  18  17  33
 157 prop tor  19  12  13  14
 158 prop tor  19  12  13  18
 159 prop tor  20   9  10  11
 160 ben  20  19  34
 161 prop tor  21   8   9  10
 162 prop tor  21   8   9  20
 163 ben  21  22  36
 164 prop tor  22   5   6   7
 165 prop tor  22   5   6  28
 166 ben  22  21  35
 167 prop tor  23   4   5   6
 168 prop tor  23   4   5  22
 169 ben  23  24  38
 170 prop tor  24   1   2   3
 171 prop tor  24   1   2  26
 172 ben  24   1  25
 173 ben  24  23  37
 174 prop tor  25   1   2   3
 175 prop tor  25   1   2  26
 176 prop tor  25   1  24  23
 177 prop tor  25   1  24  38
 178 prop tor  26   2   3   4
 179 prop tor  26   2   3  27
 180 prop tor  27   3   4   5
 181 prop tor  27   3   4  23
 182 prop tor  28   6   7   8
 183 prop tor  28   6   7  29
 184 prop tor  29   7   8   9
 185 prop tor  29   7   8  21
 186 prop tor  30  11  12  13
 187 prop tor  30  11  12  19
 188 prop tor  31  15  16  17
 189 prop tor  31  15  16  32
 190 prop tor  32  16  17  18
 191 prop tor  32  16  17  33
 192 prop tor  33  17  18  13
 193 prop tor  34  19  20   9
 194 prop tor  35  21  22   5
 195 prop tor  35  21  22  36
 196 prop tor  37  23  24   1
 197 prop tor  37  23  24  38
 nber bend=              64
 nber lin bend=           0
 nber prop tor=          92
 nber impr tor=           0
 nber tot redund int=         197
 Reading file: 
 ./Non-cov-phenyl-N_2_C1S0.log                                                  
                                          
  Entering Gaussian System, Link 0=g16                                          
  
 Gaussian format, type: g94, g98, g03= F F F
  #P Geom=AllCheck Guess=TCheck SCRF=Check GenChk UB3LYP/6-311G(d,p) Fre    
 energy type= B3LYP   
 Original G94 input coords:
  6  7.427477  0.000000  0.000000
  6  6.726769 -1.212050  0.000000
  6  5.346374 -1.215084  0.000000
  6  4.604792  0.000000  0.000000
  6  3.152120  0.000000  0.000000
  6  2.403791  1.217054  0.000000
  6  1.032882  1.219382  0.000000
  6  0.310564  0.000000  0.000000
  6 -1.149309  0.000000  0.000000
  7 -1.765381  1.198778  0.000000
  6 -3.088986  1.194288  0.000000
  6 -3.833864  0.000000  0.000000
  6 -5.306859  0.000000  0.000000
  7 -5.912419  1.195725  0.000000
  6 -7.244498  1.186644  0.000000
  6 -7.974858  0.000000  0.000000
  6 -7.244498 -1.186644  0.000000
  7 -5.912419 -1.195725  0.000000
  6 -3.088986 -1.194288  0.000000
  7 -1.765381 -1.198778  0.000000
  6  1.032882 -1.219382  0.000000
  6  2.403791 -1.217054  0.000000
  6  5.346374  1.215084  0.000000
  6  6.726769  1.212050  0.000000
  1  8.510970  0.000000  0.000000
  1  7.267782 -2.150050  0.000000
  1  4.837524 -2.167535  0.000000
  1  2.913826  2.168907  0.000000
  1  0.477178  2.147063  0.000000
  1 -3.599791  2.150388  0.000000
  1 -7.736986  2.153999  0.000000
  1 -9.057165  0.000000  0.000000
  1 -7.736986 -2.153999  0.000000
  1 -3.599791 -2.150388  0.000000
  1  0.477178 -2.147063  0.000000
  1  2.913826 -2.168907  0.000000
  1  4.837524  2.167535  0.000000
  1  7.267782  2.150050  0.000000
 nber atoms=          38
 Original standard coords:
  6  0.000000  0.000000  7.762168
  6  0.000000  1.212050  7.061460
  6  0.000000  1.215084  5.681065
  6  0.000000  0.000000  4.939483
  6  0.000000  0.000000  3.486811
  6  0.000000 -1.217054  2.738482
  6  0.000000 -1.219382  1.367573
  6  0.000000  0.000000  0.645255
  6  0.000000  0.000000 -0.814618
  7  0.000000 -1.198778 -1.430690
  6  0.000000 -1.194288 -2.754295
  6  0.000000  0.000000 -3.499172
  6  0.000000  0.000000 -4.972167
  7  0.000000 -1.195725 -5.577728
  6  0.000000 -1.186644 -6.909807
  6  0.000000  0.000000 -7.640166
  6  0.000000  1.186644 -6.909807
  7  0.000000  1.195725 -5.577728
  6  0.000000  1.194288 -2.754295
  7  0.000000  1.198778 -1.430690
  6  0.000000  1.219382  1.367573
  6  0.000000  1.217054  2.738482
  6  0.000000 -1.215084  5.681065
  6  0.000000 -1.212050  7.061460
  1  0.000000  0.000000  8.845661
  1  0.000000  2.150050  7.602473
  1  0.000000  2.167535  5.172215
  1  0.000000 -2.168907  3.248517
  1  0.000000 -2.147063  0.811869
  1  0.000000 -2.150388 -3.265100
  1  0.000000 -2.153999 -7.402295
  1  0.000000  0.000000 -8.722474
  1  0.000000  2.153999 -7.402295
  1  0.000000  2.150388 -3.265100
  1  0.000000  2.147063  0.811869
  1  0.000000  2.168907  3.248517
  1  0.000000 -2.167535  5.172215
  1  0.000000 -2.150050  7.602473
  SCF Done:  E(UB3LYP) =  -989.544933067     A.U. after    1 cycles             
  
          23          40 "  -989.544933067"
After scan for Atom:   Atom  AN      X      Y      Z        X      Y      Z        X      Y      Z   
After scan for Atom:   Atom  AN      X      Y      Z        X      Y      Z        X      Y      Z   
After scan for Atom:   Atom  AN      X      Y      Z        X      Y      Z        X      Y      Z   
After scan for Atom:   Atom  AN      X      Y      Z        X      Y      Z        X      Y      Z   
After scan for Atom:   Atom  AN      X      Y      Z        X      Y      Z        X      Y      Z   
After scan for Atom:   Atom  AN      X      Y      Z        X      Y      Z        X      Y      Z   
After scan for Atom:   Atom  AN      X      Y      Z        X      Y      Z        X      Y      Z   
After scan for Atom:   Atom  AN      X      Y      Z        X      Y      Z        X      Y      Z   
After scan for Atom:   Atom  AN      X      Y      Z        X      Y      Z        X      Y      Z   
After scan for Atom:   Atom  AN      X      Y      Z        X      Y      Z        X      Y      Z   
After scan for Atom:   Atom  AN      X      Y      Z        X      Y      Z        X      Y      Z   
After scan for Atom:   Atom  AN      X      Y      Z        X      Y      Z        X      Y      Z   
After scan for Atom:   Atom  AN      X      Y      Z        X      Y      Z        X      Y      Z   
After scan for Atom:   Atom  AN      X      Y      Z        X      Y      Z        X      Y      Z   
After scan for Atom:   Atom  AN      X      Y      Z        X      Y      Z        X      Y      Z   
After scan for Atom:   Atom  AN      X      Y      Z        X      Y      Z        X      Y      Z   
After scan for Atom:   Atom  AN      X      Y      Z        X      Y      Z        X      Y      Z   
After scan for Atom:   Atom  AN      X      Y      Z        X      Y      Z        X      Y      Z   
After scan for Atom:   Atom  AN      X      Y      Z        X      Y      Z        X      Y      Z   
After scan for Atom:   Atom  AN      X      Y      Z        X      Y      Z        X      Y      Z   
After scan for Atom:   Atom  AN      X      Y      Z        X      Y      Z        X      Y      Z   
After scan for Atom:   Atom  AN      X      Y      Z        X      Y      Z        X      Y      Z   
After scan for Atom:   Atom  AN      X      Y      Z        X      Y      Z        X      Y      Z   
After scan for Atom:   Atom  AN      X      Y      Z        X      Y      Z        X      Y      Z   
After scan for Atom:   Atom  AN      X      Y      Z        X      Y      Z        X      Y      Z   
After scan for Atom:   Atom  AN      X      Y      Z        X      Y      Z        X      Y      Z   
After scan for Atom:   Atom  AN      X      Y      Z        X      Y      Z        X      Y      Z   
After scan for Atom:   Atom  AN      X      Y      Z        X      Y      Z        X      Y      Z   
After scan for Atom:   Atom  AN      X      Y      Z        X      Y      Z        X      Y      Z   
After scan for Atom:   Atom  AN      X      Y      Z        X      Y      Z        X      Y      Z   
After scan for Atom:   Atom  AN      X      Y      Z        X      Y      Z        X      Y      Z   
After scan for Atom:   Atom  AN      X      Y      Z        X      Y      Z        X      Y      Z   
After scan for Atom:   Atom  AN      X      Y      Z        X      Y      Z        X      Y      Z   
After scan for Atom:   Atom  AN      X      Y      Z        X      Y      Z        X      Y      Z   
After scan for Atom:   Atom  AN      X      Y      Z        X      Y      Z        X      Y      Z   
After scan for Atom:   Atom  AN      X      Y      Z        X      Y      Z        X      Y      Z   
 g94    frequencies=
     0.0    0.0    0.0    0.0    0.0    0.0  -54.3   19.3   38.0   53.9
    54.5   79.6  114.1  135.4  154.7  175.1  214.4  238.0  327.2  339.6
   382.2  382.9  388.3  408.4  415.2  429.3  443.0  477.8  484.9  509.5
   547.9  594.8  606.5  629.7  643.6  650.9  660.0  663.9  719.9  739.1
   767.4  791.6  814.9  821.3  824.8  826.2  827.5  848.5  886.8  950.9
   990.8  996.2 1005.5 1005.9 1008.1 1010.7 1012.1 1015.2 1019.7 1021.2
  1026.5 1028.5 1039.4 1045.5 1061.2 1082.0 1119.4 1122.2 1123.1 1153.8
  1192.7 1208.1 1245.0 1245.6 1253.9 1282.4 1300.9 1304.5 1323.9 1335.1
  1341.6 1359.8 1365.1 1375.1 1418.4 1419.8 1464.1 1465.6 1467.5 1492.0
  1497.9 1505.8 1532.5 1546.5 1570.6 1579.0 1595.9 1607.1 1625.8 1649.6
  3168.7 3171.4 3187.6 3195.3 3195.7 3197.2 3204.9 3210.5 3214.1 3214.3
  3222.8 3223.7 3237.9 3239.1
 g94    symmetries=
                                                A2     B1     A2     B2
      B1     A2     B1     B2     B1     A1     B2     B1     B1     A1
      A2     B2     A2     A2     A2     B1     B2     B1     A1     B2
      B1     B1     B2     B2     B2     A1     B1     B2     A1     B1
      A1     B1     A2     B1     A1     A2     B1     B1     B1     B1
      A1     A2     A1     B1     A2     A1     A2     A1     B1     A2
      B1     B1     A1     A1     A1     A1     A1     B2     B2     B2
      B2     A1     B2     A1     B2     B2     B2     B2     A1     B2
      A1     B2     A1     B2     A1     B2     B2     A1     B2     B2
      A1     B2     A1     B2     B2     A1     B2     A1     A1     A1
      A1     B2     A1     B2     A1     B2     A1     A1     A1     B2
      B2     A1     B2     A1
 atomic masses:
 12.0000 12.0000 12.0000 12.0000 12.0000 12.0000 12.0000 12.0000 12.0000 14.0031
 12.0000 12.0000 12.0000 14.0031 12.0000 12.0000 12.0000 14.0031 12.0000 14.0031
 12.0000 12.0000 12.0000 12.0000  1.0078  1.0078  1.0078  1.0078  1.0078  1.0078
  1.0078  1.0078  1.0078  1.0078  1.0078  1.0078  1.0078  1.0078
 looking for force constants in 
 ./Non-cov-phenyl-N_2_C1S0.fchk                                                 
  
 Cartesian Force Constants                  R   N=        6555                  
  
 n3=         114        6555
 g94-fc frequencies=
   -54.3   -6.3   -1.7   -0.7   -0.0   -0.0    0.0   19.3   38.0   53.9
    54.5   79.6  114.1  135.4  154.7  175.1  214.4  238.0  327.2  339.6
   382.2  382.9  388.3  408.4  415.2  429.3  443.0  477.8  484.9  509.5
   547.9  594.8  606.5  629.7  643.6  650.9  660.0  663.9  719.9  739.1
   767.5  791.6  814.9  821.3  824.9  826.2  827.5  848.6  886.8  950.9
   990.8  996.2 1005.5 1005.9 1008.1 1010.7 1012.1 1015.2 1019.7 1021.3
  1026.6 1028.6 1039.4 1045.5 1061.2 1082.0 1119.5 1122.3 1123.2 1153.8
  1192.8 1208.2 1245.0 1245.7 1254.0 1282.4 1300.9 1304.5 1324.0 1335.2
  1341.6 1359.9 1365.1 1375.1 1418.5 1419.8 1464.1 1465.6 1467.5 1492.0
  1498.0 1505.8 1532.6 1546.5 1570.7 1579.0 1596.0 1607.1 1625.8 1649.7
  3168.8 3171.4 3187.7 3195.4 3195.8 3197.2 3204.9 3210.6 3214.1 3214.4
  3222.9 3223.8 3237.9 3239.2
 at 99999: n3=         114
 symm operator            1 :  T  nop=           1
 symm operator            2 :  F  nop=           1
 symm operator            3 :  F  nop=           1
 symm operator            4 :  F  nop=           1
 symm operator            5 :  F  nop=           1
 symm operator            6 :  T  nop=           2
 symm operator            7 :  T  nop=           3
 The point group of the molecule is C2V
 enforcing symm op           1  jsymt=          -1          -1           1
 enforcing symm op           6  jsymt=           1          -1           1
 enforcing symm op           7  jsymt=          -1           1           1
 cartesian coord symmetries:
 A1 :   38 A2 :   14 B1 :   24 B2 :   38
 Symmetry rotation matrix:
   1.00000   0.00000   0.00000
   0.00000   1.00000   0.00000
   0.00000   0.00000   1.00000

 Projecting out zero-frequency components
 generating redundant internal coords
         300        3600          38
 search for int coords
   1 str   2   1   1.400
   2 str   3   2   1.380
   3 str   4   3   1.424
   4 str   5   4   1.453
   5 str   6   5   1.429
   6 str   7   6   1.371
   7 str   8   7   1.417
   8 str   9   8   1.460
   9 str  10   9   1.348
  10 str  11  10   1.324
  11 str  12  11   1.408
  12 str  13  12   1.473
  13 str  14  13   1.340
  14 str  15  14   1.332
  15 str  16  15   1.393
  16 str  17  16   1.393
  17 str  18  13   1.340
  18 str  18  17   1.332
  19 str  19  12   1.408
  20 str  20   9   1.348
  21 str  20  19   1.324
  22 str  21   8   1.417
  23 str  22   5   1.429
  24 str  22  21   1.371
  25 str  23   4   1.424
  26 str  24   1   1.400
  27 str  24  23   1.380
  28 str  25   1   1.083
  29 str  26   2   1.083
  30 str  27   3   1.080
  31 str  28   6   1.080
  32 str  29   7   1.081
  33 str  30  11   1.084
  34 str  31  15   1.086
  35 str  32  16   1.082
  36 str  33  17   1.086
  37 str  34  19   1.084
  38 str  35  21   1.081
  39 str  36  22   1.080
  40 str  37  23   1.080
  41 str  38  24   1.083
 nber stretches=          41
  42 ben   1   2   3
  43 prop tor   1   2   3   4
  44 prop tor   1   2   3  27
  45 ben   1   2  26
  46 ben   1  24  23
  47 ben   1  24  38
  48 ben   2   1  24
  49 prop tor   2   1  24  23
  50 prop tor   2   1  24  38
  51 ben   2   1  25
  52 ben   2   3   4
  53 prop tor   2   3   4   5
  54 prop tor   2   3   4  23
  55 ben   2   3  27
  56 ben   3   2  26
  57 ben   3   4   5
  58 prop tor   3   4   5   6
  59 prop tor   3   4   5  22
  60 ben   3   4  23
  61 prop tor   3   4  23  24
  62 prop tor   3   4  23  37
  63 ben   4   3  27
  64 ben   4   5   6
  65 prop tor   4   5   6   7
  66 prop tor   4   5   6  28
  67 ben   4   5  22
  68 prop tor   4   5  22  21
  69 prop tor   4   5  22  36
  70 ben   4  23  24
  71 prop tor   4  23  24   1
  72 prop tor   4  23  24  38
  73 ben   4  23  37
  74 ben   5   4  23
  75 prop tor   5   4  23  24
  76 prop tor   5   4  23  37
  77 ben   5   6   7
  78 prop tor   5   6   7   8
  79 prop tor   5   6   7  29
  80 ben   5   6  28
  81 ben   5  22  21
  82 ben   5  22  36
  83 ben   6   5  22
  84 prop tor   6   5  22  21
  85 prop tor   6   5  22  36
  86 ben   6   7   8
  87 prop tor   6   7   8   9
  88 prop tor   6   7   8  21
  89 ben   6   7  29
  90 ben   7   6  28
  91 ben   7   8   9
  92 prop tor   7   8   9  10
  93 prop tor   7   8   9  20
  94 ben   7   8  21
  95 prop tor   7   8  21  22
  96 prop tor   7   8  21  35
  97 ben   8   7  29
  98 ben   8   9  10
  99 prop tor   8   9  10  11
 100 ben   8   9  20
 101 prop tor   8   9  20  19
 102 ben   8  21  22
 103 prop tor   8  21  22   5
 104 prop tor   8  21  22  36
 105 ben   8  21  35
 106 ben   9   8  21
 107 prop tor   9   8  21  22
 108 prop tor   9   8  21  35
 109 ben   9  10  11
 110 prop tor   9  10  11  12
 111 prop tor   9  10  11  30
 112 ben   9  20  19
 113 ben  10   9  20
 114 prop tor  10   9  20  19
 115 ben  10  11  12
 116 prop tor  10  11  12  13
 117 prop tor  10  11  12  19
 118 ben  10  11  30
 119 ben  11  12  13
 120 prop tor  11  12  13  14
 121 prop tor  11  12  13  18
 122 ben  11  12  19
 123 prop tor  11  12  19  20
 124 prop tor  11  12  19  34
 125 ben  12  11  30
 126 ben  12  13  14
 127 prop tor  12  13  14  15
 128 ben  12  13  18
 129 prop tor  12  13  18  17
 130 ben  12  19  20
 131 prop tor  12  19  20   9
 132 ben  12  19  34
 133 ben  13  12  19
 134 prop tor  13  12  19  20
 135 prop tor  13  12  19  34
 136 ben  13  14  15
 137 prop tor  13  14  15  16
 138 prop tor  13  14  15  31
 139 ben  13  18  17
 140 ben  14  13  18
 141 prop tor  14  13  18  17
 142 ben  14  15  16
 143 prop tor  14  15  16  17
 144 prop tor  14  15  16  32
 145 ben  14  15  31
 146 ben  15  16  17
 147 prop tor  15  16  17  18
 148 prop tor  15  16  17  33
 149 ben  15  16  32
 150 ben  16  15  31
 151 ben  16  17  18
 152 prop tor  16  17  18  13
 153 ben  16  17  33
 154 ben  17  16  32
 155 prop tor  18  13  14  15
 156 ben  18  17  33
 157 prop tor  19  12  13  14
 158 prop tor  19  12  13  18
 159 prop tor  20   9  10  11
 160 ben  20  19  34
 161 prop tor  21   8   9  10
 162 prop tor  21   8   9  20
 163 ben  21  22  36
 164 prop tor  22   5   6   7
 165 prop tor  22   5   6  28
 166 ben  22  21  35
 167 prop tor  23   4   5   6
 168 prop tor  23   4   5  22
 169 ben  23  24  38
 170 prop tor  24   1   2   3
 171 prop tor  24   1   2  26
 172 ben  24   1  25
 173 ben  24  23  37
 174 prop tor  25   1   2   3
 175 prop tor  25   1   2  26
 176 prop tor  25   1  24  23
 177 prop tor  25   1  24  38
 178 prop tor  26   2   3   4
 179 prop tor  26   2   3  27
 180 prop tor  27   3   4   5
 181 prop tor  27   3   4  23
 182 prop tor  28   6   7   8
 183 prop tor  28   6   7  29
 184 prop tor  29   7   8   9
 185 prop tor  29   7   8  21
 186 prop tor  30  11  12  13
 187 prop tor  30  11  12  19
 188 prop tor  31  15  16  17
 189 prop tor  31  15  16  32
 190 prop tor  32  16  17  18
 191 prop tor  32  16  17  33
 192 prop tor  33  17  18  13
 193 prop tor  34  19  20   9
 194 prop tor  35  21  22   5
 195 prop tor  35  21  22  36
 196 prop tor  37  23  24   1
 197 prop tor  37  23  24  38
 nber bend=              64
 nber lin bend=           0
 nber prop tor=          92
 nber impr tor=           0
 nber tot redund int=         197
 Eigenvalues of G in red int coords
    Gval -0.00000000 -0.00000000 -0.00000000 -0.00000000 -0.00000000 -0.00000000 -0.00000000 -0.00000000
    Gval -0.00000000 -0.00000000 -0.00000000 -0.00000000 -0.00000000 -0.00000000 -0.00000000 -0.00000000
    Gval -0.00000000 -0.00000000 -0.00000000 -0.00000000 -0.00000000 -0.00000000 -0.00000000 -0.00000000
    Gval -0.00000000 -0.00000000 -0.00000000 -0.00000000 -0.00000000 -0.00000000 -0.00000000 -0.00000000
    Gval -0.00000000 -0.00000000 -0.00000000 -0.00000000 -0.00000000 -0.00000000 -0.00000000 -0.00000000
    Gval -0.00000000 -0.00000000 -0.00000000 -0.00000000  0.00000000  0.00000000  0.00000000  0.00000000
    Gval  0.00000000  0.00000000  0.00000000  0.00000000  0.00000000  0.00000000  0.00000000  0.00000000
    Gval  0.00000000  0.00000000  0.00000000  0.00000000  0.00000000  0.00000000  0.00000000  0.00000000
    Gval  0.00000000  0.00000000  0.00000000  0.00000000  0.00000000  0.00000000  0.00000000  0.00000000
    Gval  0.00000000  0.00000000  0.00000000  0.00000000  0.00000000  0.00000000  0.00000000  0.00000000
    Gval  0.00000000  0.00000000  0.00000000  0.00000000  0.00000000  0.00000000  0.00000000  0.00000000
    Gval  0.00000000  0.00000050  0.00000169  0.00000205  0.00000305  0.00000769  0.00000852  0.00001259
    Gval  0.00001403  0.00001540  0.00001998  0.00002819  0.00002962  0.00004207  0.00004513  0.00004524
    Gval  0.00004706  0.00004773  0.00004963  0.00005531  0.00005539  0.00005873  0.00005905  0.00006680
    Gval  0.00006829  0.00007767  0.00008278  0.00008855  0.00010047  0.00010576  0.00010636  0.00011509
    Gval  0.00011681  0.00011848  0.00012060  0.00012190  0.00012621  0.00013250  0.00017352  0.00020968
    Gval  0.00022733  0.00025126  0.00025958  0.00027545  0.00027894  0.00028743  0.00031335  0.00034962
    Gval  0.00036178  0.00037807  0.00038279  0.00038936  0.00039429  0.00041675  0.00043140  0.00049831
    Gval  0.00052688  0.00055802  0.00059243  0.00059305  0.00059348  0.00059364  0.00059773  0.00059996
    Gval  0.00060033  0.00060384  0.00060409  0.00061974  0.00062324  0.00062629  0.00063853  0.00064147
    Gval  0.00064873  0.00066027  0.00071876  0.00091858  0.00104354  0.00104944  0.00106250  0.00107935
    Gval  0.00110842  0.00110970  0.00111292  0.00113231  0.00113258  0.00114234  0.00115918  0.00117359
    Gval  0.00117471  0.00117478  0.00117636  0.00140125  0.00142364  0.00145085  0.00154435  0.00164855
    Gval  0.00191991  0.00226231  0.00227878  0.00234080  0.00236000  0.00236183  0.00250763  0.00314723
    Gval  0.00365722  0.00372244  0.00373377  0.00375243  0.00406284
  4.958584391050015E-007  4.958584391050015E-007
  1.685338881889275E-006  4.958584391050015E-007
  2.048727580551637E-006  4.958584391050015E-007
  3.047245756310766E-006  4.958584391050015E-007
  7.685231247663979E-006  4.958584391050015E-007
  8.520198875960816E-006  4.958584391050015E-007
  1.258733369427569E-005  4.958584391050015E-007
  1.403067043426771E-005  4.958584391050015E-007
  1.540047975021507E-005  4.958584391050015E-007
  1.998129935776008E-005  4.958584391050015E-007
  2.818619707626010E-005  4.958584391050015E-007
  2.961844159649323E-005  4.958584391050015E-007
  4.206706726938120E-005  4.958584391050015E-007
  4.513148939097656E-005  4.958584391050015E-007
  4.523781647457073E-005  4.958584391050015E-007
  4.705555991698958E-005  4.958584391050015E-007
  4.773028264546743E-005  4.958584391050015E-007
  4.963135443238689E-005  4.958584391050015E-007
  5.531116503745959E-005  4.958584391050015E-007
  5.539328942384951E-005  4.958584391050015E-007
  5.873093702497050E-005  4.958584391050015E-007
  5.905379071046672E-005  4.958584391050015E-007
  6.679967321942366E-005  4.958584391050015E-007
  6.828707062595987E-005  4.958584391050015E-007
  7.766668406534939E-005  4.958584391050015E-007
  8.277580697098188E-005  4.958584391050015E-007
  8.854773788841006E-005  4.958584391050015E-007
  1.004683371910317E-004  4.958584391050015E-007
  1.057611555202759E-004  4.958584391050015E-007
  1.063559802268600E-004  4.958584391050015E-007
  1.150888877256894E-004  4.958584391050015E-007
  1.168149169487306E-004  4.958584391050015E-007
  1.184779749965924E-004  4.958584391050015E-007
  1.206020361274746E-004  4.958584391050015E-007
  1.218968301145864E-004  4.958584391050015E-007
  1.262086475925187E-004  4.958584391050015E-007
  1.324989935866452E-004  4.958584391050015E-007
  1.735177699975767E-004  4.958584391050015E-007
  2.096833649581670E-004  4.958584391050015E-007
  2.273280088120843E-004  4.958584391050015E-007
  2.512604565496616E-004  4.958584391050015E-007
  2.595848791080710E-004  4.958584391050015E-007
  2.754537744041905E-004  4.958584391050015E-007
  2.789366526306600E-004  4.958584391050015E-007
  2.874297844070103E-004  4.958584391050015E-007
  3.133545419636725E-004  4.958584391050015E-007
  3.496208074474009E-004  4.958584391050015E-007
  3.617829172660739E-004  4.958584391050015E-007
  3.780666629026636E-004  4.958584391050015E-007
  3.827869289457855E-004  4.958584391050015E-007
  3.893602977208416E-004  4.958584391050015E-007
  3.942879291902632E-004  4.958584391050015E-007
  4.167509229962879E-004  4.958584391050015E-007
  4.314027563473373E-004  4.958584391050015E-007
  4.983056429613454E-004  4.958584391050015E-007
  5.268833817173806E-004  4.958584391050015E-007
  5.580159975580408E-004  4.958584391050015E-007
  5.924278488530901E-004  4.958584391050015E-007
  5.930478722387952E-004  4.958584391050015E-007
  5.934838043458975E-004  4.958584391050015E-007
  5.936387424771715E-004  4.958584391050015E-007
  5.977323479677420E-004  4.958584391050015E-007
  5.999556797172524E-004  4.958584391050015E-007
  6.003329574169769E-004  4.958584391050015E-007
  6.038438604786638E-004  4.958584391050015E-007
  6.040936118156034E-004  4.958584391050015E-007
  6.197403248239732E-004  4.958584391050015E-007
  6.232360459857871E-004  4.958584391050015E-007
  6.262912677500624E-004  4.958584391050015E-007
  6.385316306867111E-004  4.958584391050015E-007
  6.414730506274078E-004  4.958584391050015E-007
  6.487300092374739E-004  4.958584391050015E-007
  6.602716645439788E-004  4.958584391050015E-007
  7.187648747480151E-004  4.958584391050015E-007
  9.185845778734809E-004  4.958584391050015E-007
  1.043537692167751E-003  4.958584391050015E-007
  1.049444038215447E-003  4.958584391050015E-007
  1.062499366417233E-003  4.958584391050015E-007
  1.079346892219328E-003  4.958584391050015E-007
  1.108419914574279E-003  4.958584391050015E-007
  1.109701977997213E-003  4.958584391050015E-007
  1.112919173271119E-003  4.958584391050015E-007
  1.132314620297001E-003  4.958584391050015E-007
  1.132577373581230E-003  4.958584391050015E-007
  1.142341895634591E-003  4.958584391050015E-007
  1.159178515963419E-003  4.958584391050015E-007
  1.173590945835146E-003  4.958584391050015E-007
  1.174709965646475E-003  4.958584391050015E-007
  1.174779936109044E-003  4.958584391050015E-007
  1.176359104578162E-003  4.958584391050015E-007
  1.401246941710984E-003  4.958584391050015E-007
  1.423637335878475E-003  4.958584391050015E-007
  1.450848161441045E-003  4.958584391050015E-007
  1.544349988921801E-003  4.958584391050015E-007
  1.648554737898104E-003  4.958584391050015E-007
  1.919914295232577E-003  4.958584391050015E-007
  2.262312447395200E-003  4.958584391050015E-007
  2.278784304628833E-003  4.958584391050015E-007
  2.340801927155171E-003  4.958584391050015E-007
  2.360003370264848E-003  4.958584391050015E-007
  2.361829180334708E-003  4.958584391050015E-007
  2.507633859276508E-003  4.958584391050015E-007
  3.147229371975610E-003  4.958584391050015E-007
  3.657216467013659E-003  4.958584391050015E-007
  3.722437115311264E-003  4.958584391050015E-007
  3.733771583766254E-003  4.958584391050015E-007
  3.752425295137785E-003  4.958584391050015E-007
  4.062842391741791E-003  4.958584391050015E-007
 cut=1d-8, nber non-redundant internal coords=         108
 Check on Eigenvals of non-red overlap matrix:
  0.00000050  0.00000169  0.00000205  0.00000305  0.00000769  0.00000852  0.00001259  0.00001403
  0.00001540  0.00001998  0.00002819  0.00002962  0.00004207  0.00004513  0.00004524  0.00004706
  0.00004773  0.00004963  0.00005531  0.00005539  0.00005873  0.00005905  0.00006680  0.00006829
  0.00007767  0.00008278  0.00008855  0.00010047  0.00010576  0.00010636  0.00011509  0.00011681
  0.00011848  0.00012060  0.00012190  0.00012621  0.00013250  0.00017352  0.00020968  0.00022733
  0.00025126  0.00025958  0.00027545  0.00027894  0.00028743  0.00031335  0.00034962  0.00036178
  0.00037807  0.00038279  0.00038936  0.00039429  0.00041675  0.00043140  0.00049831  0.00052688
  0.00055802  0.00059243  0.00059305  0.00059348  0.00059364  0.00059773  0.00059996  0.00060033
  0.00060384  0.00060409  0.00061974  0.00062324  0.00062629  0.00063853  0.00064147  0.00064873
  0.00066027  0.00071876  0.00091858  0.00104354  0.00104944  0.00106250  0.00107935  0.00110842
  0.00110970  0.00111292  0.00113231  0.00113258  0.00114234  0.00115918  0.00117359  0.00117471
  0.00117478  0.00117636  0.00140125  0.00142364  0.00145085  0.00154435  0.00164855  0.00191991
  0.00226231  0.00227878  0.00234080  0.00236000  0.00236183  0.00250763  0.00314723  0.00365722
  0.00372244  0.00373377  0.00375243  0.00406284
 Checking for correct frequencies
 recalc frequencies=
   -54.3   -0.0   -0.0   -0.0   -0.0    0.0    0.0   19.3   38.0   53.9
    54.5   79.6  114.1  135.4  154.7  175.1  214.4  238.0  327.2  339.6
   382.2  382.9  388.3  408.4  415.2  429.3  443.0  477.8  484.9  509.5
   547.9  594.8  606.5  629.7  643.6  650.9  660.0  663.9  719.9  739.1
   767.5  791.6  814.9  821.3  824.9  826.2  827.5  848.6  886.8  950.9
   990.8  996.2 1005.5 1005.9 1008.1 1010.7 1012.1 1015.2 1019.7 1021.3
  1026.6 1028.6 1039.4 1045.5 1061.2 1082.0 1119.5 1122.3 1123.2 1153.8
  1192.8 1208.2 1245.0 1245.7 1254.0 1282.4 1300.9 1304.5 1324.0 1335.2
  1341.6 1359.9 1365.1 1375.1 1418.5 1419.8 1464.1 1465.6 1467.5 1492.0
  1498.0 1505.8 1532.6 1546.5 1570.7 1579.0 1596.0 1607.1 1625.8 1649.7
  3168.8 3171.4 3187.7 3195.4 3195.8 3197.2 3204.9 3210.6 3214.1 3214.4
  3222.9 3223.8 3237.9 3239.2
 recalc symmetries=
     A2     B2     B2     B1     A2     B1     A1     B1     A2     B2 
     B1     A2     B1     B2     B1     A1     B2     B1     B1     A1 
     A2     B2     A2     A2     A2     B1     B2     B1     A1     B2 
     B1     B1     B2     B2     B2     A1     B1     B2     A1     B1 
     A1     B1     A2     B1     A1     A2     B1     B1     B1     B1 
     A1     A2     A1     B1     A2     A1     A2     A1     B1     A2 
     B1     B1     A1     A1     A1     A1     A1     B2     B2     B2 
     B2     A1     B2     A1     B2     B2     B2     B2     A1     B2 
     A1     B2     A1     B2     A1     B2     B2     A1     B2     B2 
     A1     B2     A1     B2     B2     A1     B2     A1     A1     A1 
     A1     B2     A1     B2     A1     B2     A1     A1     A1     B2 
     B2     A1     B2     A1 
 recalc freqs check OK
 Zero-point lengths:
 33.6333 10.0000 10.0000 10.0000 10.0000 10.0000 10.0000 56.3761 40.2073 33.7756
 33.5882 27.7811 23.2075 21.3076 19.9318 18.7354 16.9304 16.0704 13.7046 13.4522
 12.6815 12.6694 12.5811 12.2668 12.1666 11.9653 11.7791 11.3419 11.2582 10.9831
 10.5908 10.1652 10.0665  9.8793  9.7723  9.7169  9.6498  9.6214  9.2396  9.1187
  8.9489  8.8113  8.6846  8.6504  8.6319  8.6250  8.6179  8.5105  8.3251  8.0394
  7.8759  7.8544  7.8182  7.8166  7.8080  7.7981  7.7925  7.7807  7.7635  7.7576
  7.7376  7.7300  7.6897  7.6670  7.6103  7.5368  7.4095  7.4003  7.3973  7.2984
  7.1782  7.1324  7.0260  7.0242  7.0009  6.9228  6.8734  6.8639  6.8133  6.7847
  6.7684  6.7227  6.7099  6.6854  6.5824  6.5793  6.4791  6.4756  6.4715  6.4181
  6.4054  6.3887  6.3326  6.3040  6.2554  6.2389  6.2056  6.1840  6.1484  6.1038
  4.4040  4.4022  4.3909  4.3856  4.3854  4.3844  4.3791  4.3753  4.3729  4.3727
  4.3669  4.3663  4.3567  4.3559
 highest evec of mol 2
  0.0000  0.0000  0.0084
  0.0000  0.0227  0.0172
  0.0000  0.1158 -0.0629
  0.0000  0.0000 -0.0039
  0.0000  0.0000  0.0042
  0.0000 -0.1244  0.0699
  0.0000 -0.0458 -0.0320
  0.0000  0.0000 -0.0029
  0.0000  0.0000  0.0001
  0.0000  0.0001 -0.0004
  0.0000 -0.0000  0.0003
  0.0000  0.0000 -0.0003
  0.0000  0.0000  0.0001
  0.0000 -0.0000 -0.0000
  0.0000 -0.0003 -0.0000
  0.0000  0.0000 -0.0002
  0.0000  0.0003 -0.0000
  0.0000  0.0000 -0.0000
  0.0000  0.0000  0.0003
  0.0000 -0.0001 -0.0004
  0.0000  0.0458 -0.0320
  0.0000  0.1244  0.0699
  0.0000 -0.1158 -0.0629
  0.0000 -0.0227  0.0172
  0.0000  0.0000 -0.0221
  0.0000 -0.0718 -0.0427
  0.0000 -0.3853  0.2157
  0.0000  0.4149 -0.2325
  0.0000  0.1487  0.0884
  0.0000 -0.0003 -0.0002
  0.0000  0.0008  0.0004
  0.0000  0.0000  0.0006
  0.0000 -0.0008  0.0004
  0.0000  0.0003 -0.0002
  0.0000 -0.1487  0.0884
  0.0000 -0.4149 -0.2325
  0.0000  0.3853  0.2157
  0.0000  0.0718 -0.0427
 Enter nber and list of atoms to keep of mol #2
 keep list:          38           1           2           3           4
           5           6           7           8           9          10
          11          12          13          14          15          16
          17          18          19          20          21          22
          23          24          25          26          27          28
          29          30          31          32          33          34
          35          36          37          38
 reordering atoms
           1   7.84648928453090     
           2   7.14578128453090     
           3   5.76538628453090     
           4   5.02380428453090     
           5   3.57113228453090     
           6   2.82280328453090     
           7   1.45189428453090     
           8  0.729576284530899     
           9 -0.730296715469101     
          10  -1.34636871546910     
          11  -2.66997371546910     
          12  -3.41485071546910     
          13  -4.88784571546910     
          14  -5.49340671546910     
          15  -6.82548571546910     
          16  -7.55584471546910     
          17  -6.82548571546910     
          18  -5.49340671546910     
          19  -2.66997371546910     
          20  -1.34636871546910     
          21   1.45189428453090     
          22   2.82280328453090     
          23   5.76538628453090     
          24   7.14578128453090     
          25   8.92998228453090     
          26   7.68679428453090     
          27   5.25653628453090     
          28   3.33283828453090     
          29  0.896190284530898     
          30  -3.18077871546910     
          31  -7.31797371546910     
          32  -8.63815271546910     
          33  -7.31797371546910     
          34  -3.18077871546910     
          35  0.896190284530898     
          36   3.33283828453090     
          37   5.25653628453090     
          38   7.68679428453090     
           1           1
           2           2
           3           3
           4           4
           5           5
           6           6
           7           7
           8           8
           9           9
          10          10
          11          11
          12          12
          13          13
          14          14
          15          15
          16          16
          17          17
          18          18
          19          19
          20          20
          21          21
          22          22
          23          23
          24          24
          25          25
          26          26
          27          27
          28          28
          29          29
          30          30
          31          31
          32          32
          33          33
          34          34
          35          35
          36          36
          37          37
          38          38
 initial cartes coords mol 1
   6   0.00000  -0.00000   7.90624
   6   0.00000  -1.19915   7.19930
   6   0.00000  -1.19781   5.80909
   6   0.00000  -0.00000   5.07281
   6   0.00000  -0.00000   3.58193
   6   0.00000   1.19691   2.84257
   6   0.00000   1.20095   1.45666
   6   0.00000  -0.00000   0.73649
   6   0.00000  -0.00000  -0.74071
   7   0.00000   1.19197  -1.36494
   6   0.00000   1.18270  -2.69249
   6   0.00000  -0.00000  -3.44080
   6   0.00000  -0.00000  -4.91634
   7   0.00000   1.19296  -5.53317
   6   0.00000   1.18073  -6.86505
   6   0.00000  -0.00000  -7.60066
   6   0.00000  -1.18073  -6.86505
   7   0.00000  -1.19296  -5.53317
   6   0.00000  -1.18270  -2.69249
   7   0.00000  -1.19197  -1.36494
   6   0.00000  -1.20095   1.45666
   6   0.00000  -1.19691   2.84257
   6   0.00000   1.19781   5.80909
   6   0.00000   1.19915   7.19930
   1   0.00000  -0.00000   8.99049
   1   0.00000  -2.14437   7.73130
   1   0.00000  -2.15197   5.29955
   1   0.00000   2.15250   3.34892
   1   0.00000   2.13522   0.91095
   1   0.00000   2.14217  -3.19775
   1   0.00000   2.15024  -7.35608
   1   0.00000  -0.00000  -8.68289
   1   0.00000  -2.15024  -7.35608
   1   0.00000  -2.14217  -3.19775
   1   0.00000  -2.13522   0.91095
   1   0.00000  -2.15250   3.34892
   1   0.00000   2.15197   5.29955
   1   0.00000   2.14437   7.73130
 initial cartes coords mol 2
   6   0.00000   0.00000   7.84649
   6   0.00000  -1.21205   7.14578
   6   0.00000  -1.21508   5.76539
   6   0.00000   0.00000   5.02380
   6   0.00000   0.00000   3.57113
   6   0.00000   1.21705   2.82280
   6   0.00000   1.21938   1.45189
   6   0.00000   0.00000   0.72958
   6   0.00000   0.00000  -0.73030
   7   0.00000   1.19878  -1.34637
   6   0.00000   1.19429  -2.66997
   6   0.00000   0.00000  -3.41485
   6   0.00000   0.00000  -4.88785
   7   0.00000   1.19572  -5.49341
   6   0.00000   1.18664  -6.82549
   6   0.00000   0.00000  -7.55584
   6   0.00000  -1.18664  -6.82549
   7   0.00000  -1.19572  -5.49341
   6   0.00000  -1.19429  -2.66997
   7   0.00000  -1.19878  -1.34637
   6   0.00000  -1.21938   1.45189
   6   0.00000  -1.21705   2.82280
   6   0.00000   1.21508   5.76539
   6   0.00000   1.21205   7.14578
   1   0.00000   0.00000   8.92998
   1   0.00000  -2.15005   7.68679
   1   0.00000  -2.16753   5.25654
   1   0.00000   2.16891   3.33284
   1   0.00000   2.14706   0.89619
   1   0.00000   2.15039  -3.18078
   1   0.00000   2.15400  -7.31797
   1   0.00000   0.00000  -8.63815
   1   0.00000  -2.15400  -7.31797
   1   0.00000  -2.15039  -3.18078
   1   0.00000  -2.14706   0.89619
   1   0.00000  -2.16891   3.33284
   1   0.00000   2.16753   5.25654
   1   0.00000   2.15005   7.68679
 loop 1 0
 mod cartes coords mol 2
   6   0.00000   0.00000   7.84649
   6   0.00000  -1.21205   7.14578
   6   0.00000  -1.21508   5.76539
   6   0.00000   0.00000   5.02380
   6   0.00000   0.00000   3.57113
   6   0.00000   1.21705   2.82280
   6   0.00000   1.21938   1.45189
   6   0.00000   0.00000   0.72958
   6   0.00000   0.00000  -0.73030
   7   0.00000   1.19878  -1.34637
   6   0.00000   1.19429  -2.66997
   6   0.00000   0.00000  -3.41485
   6   0.00000   0.00000  -4.88785
   7   0.00000   1.19572  -5.49341
   6   0.00000   1.18664  -6.82549
   6   0.00000   0.00000  -7.55584
   6   0.00000  -1.18664  -6.82549
   7   0.00000  -1.19572  -5.49341
   6   0.00000  -1.19429  -2.66997
   7   0.00000  -1.19878  -1.34637
   6   0.00000  -1.21938   1.45189
   6   0.00000  -1.21705   2.82280
   6   0.00000   1.21508   5.76539
   6   0.00000   1.21205   7.14578
   1   0.00000   0.00000   8.92998
   1   0.00000  -2.15005   7.68679
   1   0.00000  -2.16753   5.25654
   1   0.00000   2.16891   3.33284
   1   0.00000   2.14706   0.89619
   1   0.00000   2.15039  -3.18078
   1   0.00000   2.15400  -7.31797
   1   0.00000   0.00000  -8.63815
   1   0.00000  -2.15400  -7.31797
   1   0.00000  -2.15039  -3.18078
   1   0.00000  -2.14706   0.89619
   1   0.00000  -2.16891   3.33284
   1   0.00000   2.16753   5.25654
   1   0.00000   2.15005   7.68679
 read in order, maxerr=  0.06 for atom  25
 final axis swaps:           1           1           1
 final xyz swap pattern=           1
 reorder list:
   1   2   3   4   5   6   7   8   9  10  11  12  13  14  15  16  17  18  19  20
  21  22  23  24  25  26  27  28  29  30  31  32  33  34  35  36  37  38
 axis signs=           1           1           1
  6     0.000000  0.000000  7.846489     0.000000 -0.000000  7.906236
  6     0.000000 -1.212050  7.145781     0.000000 -1.199154  7.199296
  6     0.000000 -1.215084  5.765386     0.000000 -1.197805  5.809090
  6     0.000000  0.000000  5.023804     0.000000 -0.000000  5.072812
  6     0.000000  0.000000  3.571132     0.000000 -0.000000  3.581930
  6     0.000000  1.217054  2.822803     0.000000  1.196911  2.842573
  6     0.000000  1.219382  1.451894     0.000000  1.200949  1.456658
  6     0.000000  0.000000  0.729576     0.000000 -0.000000  0.736487
  6     0.000000  0.000000 -0.730297     0.000000 -0.000000 -0.740709
  7     0.000000  1.198778 -1.346369     0.000000  1.191967 -1.364939
  6     0.000000  1.194288 -2.669974     0.000000  1.182695 -2.692493
  6     0.000000  0.000000 -3.414851     0.000000 -0.000000 -3.440801
  6     0.000000  0.000000 -4.887846     0.000000 -0.000000 -4.916340
  7     0.000000  1.195725 -5.493407     0.000000  1.192962 -5.533166
  6     0.000000  1.186644 -6.825486     0.000000  1.180727 -6.865048
  6     0.000000  0.000000 -7.555845     0.000000 -0.000000 -7.600655
  6     0.000000 -1.186644 -6.825486     0.000000 -1.180727 -6.865048
  7     0.000000 -1.195725 -5.493407     0.000000 -1.192962 -5.533166
  6     0.000000 -1.194288 -2.669974     0.000000 -1.182695 -2.692493
  7     0.000000 -1.198778 -1.346369     0.000000 -1.191967 -1.364939
  6     0.000000 -1.219382  1.451894     0.000000 -1.200949  1.456658
  6     0.000000 -1.217054  2.822803     0.000000 -1.196911  2.842573
  6     0.000000  1.215084  5.765386     0.000000  1.197805  5.809090
  6     0.000000  1.212050  7.145781     0.000000  1.199154  7.199296
  1     0.000000  0.000000  8.929982     0.000000 -0.000000  8.990489
  1     0.000000 -2.150050  7.686794     0.000000 -2.144374  7.731296
  1     0.000000 -2.167535  5.256536     0.000000 -2.151974  5.299546
  1     0.000000  2.168907  3.332838     0.000000  2.152500  3.348918
  1     0.000000  2.147063  0.896190     0.000000  2.135222  0.910955
  1     0.000000  2.150388 -3.180779     0.000000  2.142174 -3.197754
  1     0.000000  2.153999 -7.317974     0.000000  2.150242 -7.356077
  1     0.000000  0.000000 -8.638153     0.000000 -0.000000 -8.682889
  1     0.000000 -2.153999 -7.317974     0.000000 -2.150242 -7.356077
  1     0.000000 -2.150388 -3.180779     0.000000 -2.142174 -3.197754
  1     0.000000 -2.147063  0.896190     0.000000 -2.135222  0.910955
  1     0.000000 -2.168907  3.332838     0.000000 -2.152500  3.348918
  1     0.000000  2.167535  5.256536     0.000000  2.151974  5.299546
  1     0.000000  2.150050  7.686794     0.000000  2.144374  7.731296
 generating redundant internal coords
         300        3600          38
 Adding extra bonds for z output only
           6           6           6           6           6           6
           6           6           6           7           6           6
           6           7           6           6           6           7
           6           7           6           6           6           6
           1           1           1           1           1           1
           1           1           1           1           1           1
           1           1
 search for int coords
   1 str   2   1   1.400
   2 str   3   2   1.380
   3 str   4   3   1.424
   4 str   5   4   1.453
   5 str   6   5   1.429
   6 str   7   6   1.371
   7 str   8   7   1.417
   8 str   9   8   1.460
   9 str  10   9   1.348
  10 str  11  10   1.324
  11 str  12  11   1.408
  12 str  13  12   1.473
  13 str  14  13   1.340
  14 str  15  14   1.332
  15 str  16  15   1.393
  16 str  17  16   1.393
  17 str  18  13   1.340
  18 str  18  17   1.332
  19 str  19  12   1.408
  20 str  20   9   1.348
  21 str  20  19   1.324
  22 str  21   8   1.417
  23 str  22   5   1.429
  24 str  22  21   1.371
  25 str  23   4   1.424
  26 str  24   1   1.400
  27 str  24  23   1.380
  28 str  25   1   1.083
  29 str  26   2   1.083
  30 str  27   3   1.080
  31 str  28   6   1.080
  32 str  29   7   1.081
  33 str  30  11   1.084
  34 str  31  15   1.086
  35 str  32  16   1.082
  36 str  33  17   1.086
  37 str  34  19   1.084
  38 str  35  21   1.081
  39 str  36  22   1.080
  40 str  37  23   1.080
  41 str  38  24   1.083
 nber stretches=          41
  42 ben   1   2   3
  43 prop tor   1   2   3   4
  44 prop tor   1   2   3  27
  45 ben   1   2  26
  46 ben   1  24  23
  47 ben   1  24  38
  48 ben   2   1  24
  49 prop tor   2   1  24  23
  50 prop tor   2   1  24  38
  51 ben   2   1  25
  52 ben   2   3   4
  53 prop tor   2   3   4   5
  54 prop tor   2   3   4  23
  55 ben   2   3  27
  56 ben   3   2  26
  57 ben   3   4   5
  58 prop tor   3   4   5   6
  59 prop tor   3   4   5  22
  60 ben   3   4  23
  61 prop tor   3   4  23  24
  62 prop tor   3   4  23  37
  63 ben   4   3  27
  64 ben   4   5   6
  65 prop tor   4   5   6   7
  66 prop tor   4   5   6  28
  67 ben   4   5  22
  68 prop tor   4   5  22  21
  69 prop tor   4   5  22  36
  70 ben   4  23  24
  71 prop tor   4  23  24   1
  72 prop tor   4  23  24  38
  73 ben   4  23  37
  74 ben   5   4  23
  75 prop tor   5   4  23  24
  76 prop tor   5   4  23  37
  77 ben   5   6   7
  78 prop tor   5   6   7   8
  79 prop tor   5   6   7  29
  80 ben   5   6  28
  81 ben   5  22  21
  82 ben   5  22  36
  83 ben   6   5  22
  84 prop tor   6   5  22  21
  85 prop tor   6   5  22  36
  86 ben   6   7   8
  87 prop tor   6   7   8   9
  88 prop tor   6   7   8  21
  89 ben   6   7  29
  90 ben   7   6  28
  91 ben   7   8   9
  92 prop tor   7   8   9  10
  93 prop tor   7   8   9  20
  94 ben   7   8  21
  95 prop tor   7   8  21  22
  96 prop tor   7   8  21  35
  97 ben   8   7  29
  98 ben   8   9  10
  99 prop tor   8   9  10  11
 100 ben   8   9  20
 101 prop tor   8   9  20  19
 102 ben   8  21  22
 103 prop tor   8  21  22   5
 104 prop tor   8  21  22  36
 105 ben   8  21  35
 106 ben   9   8  21
 107 prop tor   9   8  21  22
 108 prop tor   9   8  21  35
 109 ben   9  10  11
 110 prop tor   9  10  11  12
 111 prop tor   9  10  11  30
 112 ben   9  20  19
 113 ben  10   9  20
 114 prop tor  10   9  20  19
 115 ben  10  11  12
 116 prop tor  10  11  12  13
 117 prop tor  10  11  12  19
 118 ben  10  11  30
 119 ben  11  12  13
 120 prop tor  11  12  13  14
 121 prop tor  11  12  13  18
 122 ben  11  12  19
 123 prop tor  11  12  19  20
 124 prop tor  11  12  19  34
 125 ben  12  11  30
 126 ben  12  13  14
 127 prop tor  12  13  14  15
 128 ben  12  13  18
 129 prop tor  12  13  18  17
 130 ben  12  19  20
 131 prop tor  12  19  20   9
 132 ben  12  19  34
 133 ben  13  12  19
 134 prop tor  13  12  19  20
 135 prop tor  13  12  19  34
 136 ben  13  14  15
 137 prop tor  13  14  15  16
 138 prop tor  13  14  15  31
 139 ben  13  18  17
 140 ben  14  13  18
 141 prop tor  14  13  18  17
 142 ben  14  15  16
 143 prop tor  14  15  16  17
 144 prop tor  14  15  16  32
 145 ben  14  15  31
 146 ben  15  16  17
 147 prop tor  15  16  17  18
 148 prop tor  15  16  17  33
 149 ben  15  16  32
 150 ben  16  15  31
 151 ben  16  17  18
 152 prop tor  16  17  18  13
 153 ben  16  17  33
 154 ben  17  16  32
 155 prop tor  18  13  14  15
 156 ben  18  17  33
 157 prop tor  19  12  13  14
 158 prop tor  19  12  13  18
 159 prop tor  20   9  10  11
 160 ben  20  19  34
 161 prop tor  21   8   9  10
 162 prop tor  21   8   9  20
 163 ben  21  22  36
 164 prop tor  22   5   6   7
 165 prop tor  22   5   6  28
 166 ben  22  21  35
 167 prop tor  23   4   5   6
 168 prop tor  23   4   5  22
 169 ben  23  24  38
 170 prop tor  24   1   2   3
 171 prop tor  24   1   2  26
 172 ben  24   1  25
 173 ben  24  23  37
 174 prop tor  25   1   2   3
 175 prop tor  25   1   2  26
 176 prop tor  25   1  24  23
 177 prop tor  25   1  24  38
 178 prop tor  26   2   3   4
 179 prop tor  26   2   3  27
 180 prop tor  27   3   4   5
 181 prop tor  27   3   4  23
 182 prop tor  28   6   7   8
 183 prop tor  28   6   7  29
 184 prop tor  29   7   8   9
 185 prop tor  29   7   8  21
 186 prop tor  30  11  12  13
 187 prop tor  30  11  12  19
 188 prop tor  31  15  16  17
[...]
                 0.3906    15.3          83 A1   1365.
  83 A1   1357. -0.3958    15.7   100.0  79 A1   1324.
                -0.8448    71.4          83 A1   1365.
  84 B2   1373. -0.9176    84.2   100.2  84 B2   1375.
  85 B2   1412. -0.9648    93.1    99.9  86 B2   1420.
  86 A1   1434.  0.9565    91.5   100.0  85 A1   1418.
  87 B2   1438. -0.6247    39.0    99.4  87 B2   1464.
                 0.4270    18.2          89 B2   1467.
                -0.5153    26.6          90 B2   1492.
  88 B2   1467. -0.4337    18.8   100.0  87 B2   1464.
                -0.8619    74.3          89 B2   1467.
  89 B2   1484.  0.5014    25.1    99.7  87 B2   1464.
                -0.7922    62.8          90 B2   1492.
  90 A1   1486.  0.9775    95.5    99.9  88 A1   1466.
  91 A1   1524.  0.9582    91.8   100.2  91 A1   1498.
  92 A1   1558. -0.9303    86.5   100.1  93 A1   1533.
  93 B2   1562.  0.6107    37.3   100.4  92 B2   1506.
                 0.7430    55.2          94 B2   1546.
  94 B2   1599.  0.4622    21.4   100.4  92 B2   1506.
                -0.7595    57.7          97 B2   1596.
  95 A1   1606. -0.9086    82.6    99.8  96 A1   1579.
  96 B2   1608.  0.3689    13.6   100.4  92 B2   1506.
                -0.5066    25.7          94 B2   1546.
                -0.3913    15.3          95 B2   1571.
                 0.6287    39.5          97 B2   1596.
  97 B2   1624.  0.4321    18.7   100.5  92 B2   1506.
                 0.8228    67.7          95 B2   1571.
  98 A1   1630.  0.8292    68.8    99.7  98 A1   1607.
                -0.3267    10.7          99 A1   1626.
                -0.4112    16.9         100 A1   1650.
  99 A1   1642. -0.4537    20.6    99.6  98 A1   1607.
                -0.5106    26.1          99 A1   1626.
                -0.6466    41.8         100 A1   1650.
 100 A1   1656.  0.7912    62.6    99.5  99 A1   1626.
                -0.5898    34.8         100 A1   1650.
 101 A1   3148. -0.9994    99.9   100.0 101 A1   3169.
 102 B2   3150.  1.0000   100.0   100.0 102 B2   3171.
 103 A1   3159.  0.9844    96.9   100.0 103 A1   3188.
 104 B2   3168. -0.9997    99.9   100.0 106 B2   3197.
 105 B2   3182. -0.9998   100.0   100.0 104 B2   3195.
 106 A1   3182. -0.9305    86.6   100.0 107 A1   3205.
 107 A1   3183. -0.9572    91.6   100.0 105 A1   3196.
 108 B2   3190.  0.9427    88.9   100.0 110 B2   3214.
                -0.3315    11.0         111 B2   3223.
 109 A1   3191. -0.9523    90.7   100.0 109 A1   3214.
 110 A1   3204. -0.9994    99.9   100.0 108 A1   3211.
 111 B2   3204.  0.8491    72.1   100.0 111 B2   3223.
                -0.4459    19.9         113 B2   3238.
 112 A1   3205. -0.8888    79.0   100.0 112 A1   3224.
                 0.3982    15.9         114 A1   3239.
 113 B2   3213.  0.4110    16.9   100.0 111 B2   3223.
                 0.8942    80.0         113 B2   3238.
 114 A1   3215.  0.3685    13.6   100.0 112 A1   3224.
                 0.9132    83.4         114 A1   3239.
 nber times 1st assigned=           1           0
 nber times 1st assigned=           2           0
 nber times 1st assigned=           3           0
 nber times 1st assigned=           4           0
 nber times 1st assigned=           5           0
 nber times 1st assigned=           6           0
 nber times 1st assigned=           7           0
 nber times 1st assigned=           8           0
 nber times 1st assigned=           9           0
 nber times 1st assigned=          10           0
 nber times 1st assigned=          11           0
 nber times 1st assigned=          12           0
 nber times 1st assigned=          13           0
 nber times 1st assigned=          14           0
 nber times 1st assigned=          15           0
 nber times 1st assigned=          16           0
 nber times 1st assigned=          17           0
 nber times 1st assigned=          18           0
 nber times 1st assigned=          19           0
 nber times 1st assigned=          20           0
 nber times 1st assigned=          21           0
 nber times 1st assigned=          22           0
 nber times 1st assigned=          23           0
 nber times 1st assigned=          24           0
 nber times 1st assigned=          25           0
 nber times 1st assigned=          26           0
 nber times 1st assigned=          27           0
 nber times 1st assigned=          28           0
 nber times 1st assigned=          29           0
 nber times 1st assigned=          30           0
 nber times 1st assigned=          31           0
 nber times 1st assigned=          32           0
 nber times 1st assigned=          33           0
 nber times 1st assigned=          34           0
 nber times 1st assigned=          35           0
 nber times 1st assigned=          36           0
 nber times 1st assigned=          37           0
 nber times 1st assigned=          38           0
 nber times 1st assigned=          39           0
 nber times 1st assigned=          40           0
 nber times 1st assigned=          41           0
 nber times 1st assigned=          42           0
 nber times 1st assigned=          43           0
 nber times 1st assigned=          44           0
 nber times 1st assigned=          45           0
 nber times 1st assigned=          46           0
 nber times 1st assigned=          47           0
 nber times 1st assigned=          48           0
 nber times 1st assigned=          49           0
 nber times 1st assigned=          50           0
 nber times 1st assigned=          51           0
 nber times 1st assigned=          52           0
 nber times 1st assigned=          53           0
 nber times 1st assigned=          54           0
 nber times 1st assigned=          55           0
 nber times 1st assigned=          56           0
 nber times 1st assigned=          57           0
 nber times 1st assigned=          58           0
 nber times 1st assigned=          59           0
 nber times 1st assigned=          60           0
 nber times 1st assigned=          61           0
 nber times 1st assigned=          62           0
 nber times 1st assigned=          63           0
 nber times 1st assigned=          64           0
 nber times 1st assigned=          65           0
 nber times 1st assigned=          66           0
 nber times 1st assigned=          67           0
 nber times 1st assigned=          68           0
 nber times 1st assigned=          69           0
 nber times 1st assigned=          70           0
 nber times 1st assigned=          71           0
 nber times 1st assigned=          72           0
 nber times 1st assigned=          73           0
 nber times 1st assigned=          74           0
 nber times 1st assigned=          75           0
 nber times 1st assigned=          76           0
 nber times 1st assigned=          77           0
 nber times 1st assigned=          78           0
 nber times 1st assigned=          79           0
 nber times 1st assigned=          80           0
 nber times 1st assigned=          81           0
 nber times 1st assigned=          82           0
 nber times 1st assigned=          83           0
 nber times 1st assigned=          84           0
 nber times 1st assigned=          85           0
 nber times 1st assigned=          86           0
 nber times 1st assigned=          87           0
 nber times 1st assigned=          88           0
 nber times 1st assigned=          89           0
 nber times 1st assigned=          90           0
 nber times 1st assigned=          91           0
 nber times 1st assigned=          92           0
 nber times 1st assigned=          93           0
 nber times 1st assigned=          94           0
 nber times 1st assigned=          95           0
 nber times 1st assigned=          96           0
 nber times 1st assigned=          97           0
 nber times 1st assigned=          98           0
 nber times 1st assigned=          99           0
 nber times 1st assigned=         100           0
 nber times 1st assigned=         101           0
 nber times 1st assigned=         102           0
 nber times 1st assigned=         103           0
 nber times 1st assigned=         104           0
 nber times 1st assigned=         105           0
 nber times 1st assigned=         106           0
 nber times 1st assigned=         107           0
 nber times 1st assigned=         108           0
 nber times 1st assigned=         109           0
 nber times 1st assigned=         110           0
 nber times 1st assigned=         111           0
 nber times 1st assigned=         112           0
 nber times 1st assigned=         113           0
 nber times 1st assigned=         114           0
 modes represented=   107.972655763152     
 p1=
    0.   -0.   -0.    0.   -0.   -0.    0.    0.   -0.    0.   -0.   -0.   -0.   -0.    0.  -26.   -0.    0.   -0.   -3.
   -0.    0.    0.    0.   -0.   -0.   -0.    2.   -0.    0.   -0.   -0.   -0.    0.   -0.    1.   -0.   -0.   -2.    0.
   -2.   -0.    0.    0.   -0.    4.   -0.    0.    0.    0.    0.    0.   -0.    0.   -0.   -0.    0.   -0.    1.   -0.
   -0.    1.   -0.    1.   -1.   -1.   -0.   -0.   -2.   -0.    0.   -0.   -0.    2.    0.    0.   -3.    0.    0.    0.
   -0.    0.   -0.    0.   -0.   -0.   -0.    0.    0.    0.   -0.   -1.   -0.   -0.   -1.   -0.   -0.    2.    2.    1.
   -0.   -0.    0.    0.    0.   -0.    0.    0.   -0.    0.    0.    0.   -0.    0.
 p2=
   -0.    0.    0.   -0.    0.   -0.    0.   -0.    0.    0.   -0.   -0.    0.   -0.    0.  -26.   -0.    0.    0.    4.
   -0.    0.   -0.   -0.    0.    0.    0.   -0.   -2.   -0.    0.   -0.   -0.    0.   -0.    1.    0.    0.   -2.   -0.
    3.    0.    0.    0.   -4.   -0.    0.   -0.   -0.    0.   -0.   -0.   -1.   -0.    0.    0.   -0.   -1.    0.    0.
    0.   -0.   -0.    1.   -1.   -1.   -2.    0.    0.    0.    0.    0.    0.    2.   -0.    0.    0.    0.    2.   -0.
    1.   -0.   -1.    0.    0.    0.   -0.   -0.   -0.    0.    0.   -0.   -1.   -0.   -0.   -0.    0.   -0.    1.    3.
   -0.    0.   -0.   -0.    0.    0.   -0.    0.   -0.   -0.    0.    0.   -0.   -0.

 Displacement: in terms of nc of 1 THEN of nc of 2

   1 A2  freq=   -79. Q=  0.000 lam=    -0.0 A2  freq=   -54. Q=  0.000 lam=    -0.0
   2 B2  freq=    -0. Q= -0.000 lam=    -0.0 B2  freq=    -0. Q= -0.000 lam=    -0.0
   3 A1  freq=    -0. Q= -0.000 lam=    -0.0 B2  freq=    -0. Q= -0.000 lam=    -0.0
   4 B1  freq=    -0. Q=  0.000 lam=    -0.0 B1  freq=    -0. Q=  0.000 lam=    -0.0
   5 B2  freq=     0. Q= -0.000 lam=     0.0 A2  freq=    -0. Q= -0.000 lam=    -0.0
   6 A2  freq=     0. Q= -0.000 lam=     0.0 B1  freq=     0. Q= -0.000 lam=     0.0
   7 B1  freq=     0. Q=  0.000 lam=     0.0 A1  freq=     0. Q=  0.000 lam=     0.0
   8 B1  freq=    21. Q=  0.000 lam=     0.0 B1  freq=    19. Q=  0.000 lam=     0.0
   9 A2  freq=    33. Q= -0.000 lam=     0.0 A2  freq=    38. Q= -0.000 lam=     0.0
  10 B2  freq=    53. Q=  0.000 lam=     0.0 B2  freq=    54. Q=  0.000 lam=     0.0
  11 B1  freq=    59. Q= -0.000 lam=     0.0 B1  freq=    54. Q= -0.000 lam=     0.0
  12 A2  freq=    67. Q= -0.000 lam=     0.0 A2  freq=    80. Q= -0.000 lam=     0.0
  13 B1  freq=   119. Q= -0.000 lam=     0.0 B1  freq=   114. Q= -0.000 lam=     0.0
  14 B2  freq=   133. Q= -0.000 lam=     0.0 B2  freq=   135. Q= -0.000 lam=     0.0
  15 B1  freq=   166. Q=  0.000 lam=     0.0 B1  freq=   155. Q=  0.000 lam=     0.0
  16 A1  freq=   174. Q= -1.357 lam=   159.9 A1  freq=   175. Q= -1.369 lam=   164.1
  17 B2  freq=   213. Q= -0.000 lam=     0.0 B2  freq=   214. Q= -0.000 lam=     0.0
  18 B1  freq=   258. Q=  0.000 lam=     0.0 B1  freq=   238. Q=  0.000 lam=     0.0
  19 B1  freq=   337. Q= -0.000 lam=     0.0 B1  freq=   327. Q= -0.000 lam=     0.0
  20 A1  freq=   338. Q= -0.246 lam=    10.2 A1  freq=   340. Q= -0.263 lam=    11.8
  21 B2  freq=   381. Q= -0.000 lam=     0.0 A2  freq=   382. Q= -0.000 lam=     0.0
  22 A2  freq=   396. Q=  0.000 lam=     0.0 B2  freq=   383. Q=  0.000 lam=     0.0
  23 A2  freq=   407. Q=  0.000 lam=     0.0 A2  freq=   388. Q=  0.000 lam=     0.0
  24 A2  freq=   414. Q=  0.000 lam=     0.0 A2  freq=   408. Q=  0.000 lam=     0.0
  25 A2  freq=   418. Q= -0.000 lam=     0.0 A2  freq=   415. Q= -0.000 lam=     0.0
  26 B2  freq=   442. Q= -0.000 lam=     0.0 B1  freq=   429. Q= -0.000 lam=     0.0
  27 B1  freq=   446. Q= -0.000 lam=     0.0 B2  freq=   443. Q= -0.000 lam=     0.0
  28 A1  freq=   481. Q=  0.172 lam=     7.1 B1  freq=   478. Q=  0.000 lam=     0.0
  29 B2  freq=   509. Q= -0.000 lam=     0.0 A1  freq=   485. Q= -0.180 lam=     7.8
  30 B1  freq=   515. Q=  0.000 lam=     0.0 B2  freq=   509. Q=  0.000 lam=     0.0
  31 B1  freq=   561. Q= -0.000 lam=     0.0 B1  freq=   548. Q= -0.000 lam=     0.0
  32 B1  freq=   593. Q= -0.000 lam=     0.0 B1  freq=   595. Q= -0.000 lam=     0.0
  33 B2  freq=   631. Q= -0.000 lam=     0.0 B2  freq=   606. Q= -0.000 lam=     0.0
  34 B2  freq=   645. Q=  0.000 lam=     0.0 B2  freq=   630. Q=  0.000 lam=     0.0
  35 B2  freq=   656. Q= -0.000 lam=     0.0 B2  freq=   644. Q= -0.000 lam=     0.0
  36 A1  freq=   656. Q=  0.082 lam=     2.2 A1  freq=   651. Q=  0.076 lam=     1.9
  37 B2  freq=   671. Q= -0.000 lam=     0.0 B1  freq=   660. Q= -0.000 lam=     0.0
  38 B1  freq=   696. Q= -0.000 lam=     0.0 B2  freq=   664. Q= -0.000 lam=     0.0
  39 A1  freq=   721. Q= -0.197 lam=    14.0 A1  freq=   720. Q= -0.206 lam=    15.3
  40 B1  freq=   740. Q=  0.000 lam=     0.0 B1  freq=   739. Q=  0.000 lam=     0.0
  41 A1  freq=   776. Q= -0.262 lam=    26.5 A1  freq=   767. Q= -0.282 lam=    30.6
  42 B1  freq=   779. Q= -0.000 lam=     0.0 B1  freq=   792. Q= -0.000 lam=     0.0
  43 B1  freq=   819. Q=  0.000 lam=     0.0 A2  freq=   815. Q=  0.000 lam=     0.0
  44 A2  freq=   824. Q=  0.000 lam=     0.0 B1  freq=   821. Q=  0.000 lam=     0.0
  45 B1  freq=   827. Q= -0.000 lam=     0.0 A1  freq=   825. Q= -0.459 lam=    86.9
  46 A1  freq=   830. Q=  0.447 lam=    83.1 A2  freq=   826. Q=  0.000 lam=     0.0
  47 B1  freq=   843. Q= -0.000 lam=     0.0 B1  freq=   828. Q= -0.000 lam=     0.0
  48 A2  freq=   854. Q=  0.000 lam=     0.0 B1  freq=   849. Q=  0.000 lam=     0.0
  49 B1  freq=   879. Q=  0.000 lam=     0.0 B1  freq=   887. Q=  0.000 lam=     0.0
  50 B1  freq=   923. Q=  0.000 lam=     0.0 B1  freq=   951. Q=  0.000 lam=     0.0
  51 A2  freq=   970. Q=  0.000 lam=     0.0 A1  freq=   991. Q=  0.062 lam=     1.9
  52 B1  freq=   993. Q=  0.000 lam=     0.0 A2  freq=   996. Q=  0.000 lam=     0.0
  53 A2  freq=   998. Q= -0.000 lam=     0.0 A1  freq=  1005. Q= -0.093 lam=     4.4
  54 B1  freq=   999. Q=  0.000 lam=     0.0 B1  freq=  1006. Q=  0.000 lam=     0.0
  55 B1  freq=  1003. Q= -0.000 lam=     0.0 A2  freq=  1008. Q= -0.000 lam=     0.0
  56 A2  freq=  1004. Q= -0.000 lam=     0.0 A1  freq=  1011. Q= -0.016 lam=     0.1
  57 A1  freq=  1009. Q=  0.016 lam=     0.1 A2  freq=  1012. Q=  0.000 lam=     0.0
  58 B1  freq=  1013. Q= -0.000 lam=     0.0 A1  freq=  1015. Q= -0.188 lam=    17.9
  59 A1  freq=  1014. Q=  0.155 lam=    12.1 B1  freq=  1020. Q=  0.000 lam=     0.0
  60 A2  freq=  1016. Q= -0.000 lam=     0.0 A2  freq=  1021. Q= -0.000 lam=     0.0
  61 A1  freq=  1022. Q= -0.057 lam=     1.7 B1  freq=  1027. Q= -0.000 lam=     0.0
  62 A1  freq=  1033. Q=  0.142 lam=    10.4 B1  freq=  1029. Q=  0.000 lam=     0.0
  63 A1  freq=  1045. Q= -0.034 lam=     0.6 A1  freq=  1039. Q= -0.038 lam=     0.7
  64 A1  freq=  1064. Q=  0.095 lam=     4.8 A1  freq=  1046. Q=  0.098 lam=     5.1
  65 A1  freq=  1075. Q= -0.073 lam=     2.8 A1  freq=  1061. Q= -0.118 lam=     7.4
  66 A1  freq=  1093. Q= -0.138 lam=    10.4 A1  freq=  1082. Q= -0.133 lam=     9.6
  67 B2  freq=  1112. Q= -0.000 lam=     0.0 A1  freq=  1119. Q= -0.243 lam=    33.0
  68 B2  freq=  1114. Q= -0.000 lam=     0.0 B2  freq=  1122. Q= -0.000 lam=     0.0
  69 A1  freq=  1129. Q= -0.262 lam=    38.9 B2  freq=  1123. Q= -0.000 lam=     0.0
  70 B2  freq=  1147. Q= -0.000 lam=     0.0 B2  freq=  1154. Q= -0.000 lam=     0.0
  71 B2  freq=  1188. Q=  0.000 lam=     0.0 B2  freq=  1193. Q=  0.000 lam=     0.0
  72 A1  freq=  1204. Q= -0.052 lam=     1.6 A1  freq=  1208. Q= -0.028 lam=     0.5
  73 B2  freq=  1225. Q= -0.000 lam=     0.0 B2  freq=  1245. Q= -0.000 lam=     0.0
  74 A1  freq=  1235. Q=  0.314 lam=    61.1 A1  freq=  1246. Q=  0.324 lam=    65.2
  75 B2  freq=  1238. Q=  0.000 lam=     0.0 B2  freq=  1254. Q=  0.000 lam=     0.0
  76 B2  freq=  1272. Q=  0.000 lam=     0.0 B2  freq=  1282. Q=  0.000 lam=     0.0
  77 A1  freq=  1286. Q= -0.378 lam=    91.8 B2  freq=  1301. Q= -0.000 lam=     0.0
  78 B2  freq=  1290. Q=  0.000 lam=     0.0 B2  freq=  1304. Q=  0.000 lam=     0.0
  79 B2  freq=  1303. Q=  0.000 lam=     0.0 A1  freq=  1324. Q=  0.316 lam=    66.2
  80 B2  freq=  1331. Q=  0.000 lam=     0.0 B2  freq=  1335. Q=  0.000 lam=     0.0
  81 B2  freq=  1341. Q= -0.000 lam=     0.0 A1  freq=  1342. Q= -0.116 lam=     9.0
  82 A1  freq=  1346. Q=  0.041 lam=     1.1 B2  freq=  1360. Q=  0.000 lam=     0.0
  83 A1  freq=  1357. Q= -0.016 lam=     0.2 A1  freq=  1365. Q= -0.141 lam=    13.6
  84 B2  freq=  1373. Q=  0.000 lam=     0.0 B2  freq=  1375. Q=  0.000 lam=     0.0
  85 B2  freq=  1412. Q= -0.000 lam=     0.0 A1  freq=  1418. Q= -0.035 lam=     0.9
  86 A1  freq=  1434. Q= -0.064 lam=     2.9 B2  freq=  1420. Q= -0.000 lam=     0.0
  87 B2  freq=  1438. Q= -0.000 lam=     0.0 B2  freq=  1464. Q= -0.000 lam=     0.0
  88 B2  freq=  1467. Q=  0.000 lam=     0.0 A1  freq=  1466. Q=  0.066 lam=     3.2
  89 B2  freq=  1484. Q=  0.000 lam=     0.0 B2  freq=  1467. Q=  0.000 lam=     0.0
  90 A1  freq=  1486. Q=  0.057 lam=     2.4 B2  freq=  1492. Q=  0.000 lam=     0.0
  91 A1  freq=  1524. Q= -0.060 lam=     2.7 A1  freq=  1498. Q= -0.044 lam=     1.4
  92 A1  freq=  1558. Q= -0.084 lam=     5.4 B2  freq=  1506. Q= -0.000 lam=     0.0
  93 B2  freq=  1562. Q= -0.000 lam=     0.0 A1  freq=  1533. Q= -0.097 lam=     7.1
  94 B2  freq=  1599. Q= -0.000 lam=     0.0 B2  freq=  1546. Q= -0.000 lam=     0.0
  95 A1  freq=  1606. Q= -0.111 lam=     9.8 B2  freq=  1571. Q= -0.000 lam=     0.0
  96 B2  freq=  1608. Q= -0.000 lam=     0.0 A1  freq=  1579. Q= -0.044 lam=     1.5
  97 B2  freq=  1624. Q= -0.000 lam=     0.0 B2  freq=  1596. Q= -0.000 lam=     0.0
  98 A1  freq=  1630. Q=  0.320 lam=    83.2 A1  freq=  1607. Q=  0.076 lam=     4.7
  99 A1  freq=  1642. Q=  0.364 lam=   108.9 A1  freq=  1626. Q=  0.119 lam=    11.5
 100 A1  freq=  1656. Q=  0.218 lam=    39.3 A1  freq=  1650. Q=  0.500 lam=   206.0
 101 A1  freq=  3148. Q= -0.018 lam=     0.5 A1  freq=  3169. Q= -0.018 lam=     0.5
 102 B2  freq=  3150. Q= -0.000 lam=     0.0 B2  freq=  3171. Q= -0.000 lam=     0.0
 103 A1  freq=  3159. Q=  0.011 lam=     0.2 A1  freq=  3188. Q=  0.007 lam=     0.1
 104 B2  freq=  3168. Q=  0.000 lam=     0.0 B2  freq=  3195. Q=  0.000 lam=     0.0
 105 B2  freq=  3182. Q=  0.000 lam=     0.0 A1  freq=  3196. Q=  0.009 lam=     0.1
 106 A1  freq=  3182. Q= -0.012 lam=     0.2 B2  freq=  3197. Q= -0.000 lam=     0.0
 107 A1  freq=  3183. Q=  0.014 lam=     0.3 A1  freq=  3205. Q=  0.020 lam=     0.7
 108 B2  freq=  3190. Q=  0.000 lam=     0.0 A1  freq=  3211. Q=  0.005 lam=     0.0
 109 A1  freq=  3191. Q= -0.010 lam=     0.2 A1  freq=  3214. Q= -0.009 lam=     0.1
 110 A1  freq=  3204. Q=  0.004 lam=     0.0 B2  freq=  3214. Q=  0.000 lam=     0.0
 111 B2  freq=  3204. Q=  0.000 lam=     0.0 B2  freq=  3223. Q=  0.000 lam=     0.0
 112 A1  freq=  3205. Q=  0.019 lam=     0.6 A1  freq=  3224. Q=  0.008 lam=     0.1
 113 B2  freq=  3213. Q= -0.000 lam=     0.0 B2  freq=  3238. Q= -0.000 lam=     0.0
 114 A1  freq=  3215. Q=  0.032 lam=     1.7 A1  freq=  3239. Q=  0.034 lam=     1.9

 total reorg energy (cm**-1, kcal/mol)=      799.      793.      2.28      2.27
 Nber of molecules processed=           2
