 Enter ifcurve (0=recti, 1=orth curvi, 2=apprx curvi, -1 = skip
 And atom ordering flag, 0= never changes, 1= use the first order thenceforth,
  2= deduce it (does read on fail), 3= always read it
 Reading file: 
 ./benz-b-imbal_0_C0S0.log                                                      
                                          
  Entering Gaussian System, Link 0=g16                                          
  
 Gaussian format, type: g94, g98, g03= F F F
  #P Geom=AllCheck Guess=TCheck SCRF=Check GenChk RB3LYP/6-311G(d,p) Fre    
 energy type= B3LYP   
 Original G94 input coords:
  6 -1.424766 -0.067771  0.119334
  6 -0.843271  0.180431 -1.122244
  6  0.542746  0.255953 -1.243790
  6  1.368384  0.084580 -0.126440
  6  2.857748  0.165474 -0.257616
  6  3.509934  1.408346 -0.108979
  6  2.801360  2.621067  0.167675
  6  3.459926  3.811082  0.306557
  6  4.875451  3.877666  0.179432
  6  5.592735  2.745846 -0.083846
  6  4.946168  1.480769 -0.236665
  6  5.670181  0.318138 -0.505510
  6  5.039516 -0.918026 -0.654977
  6  5.781613 -2.107691 -0.930336
  6  5.155197 -3.312435 -1.075316
  6  3.740373 -3.399507 -0.952904
  6  2.992174 -2.285884 -0.689888
  6  3.603692 -1.001511 -0.529495
  6  0.773296 -0.164183  1.115950
  6 -0.612649 -0.239862  1.238305
  1 -2.503218 -0.126642  0.214218
  1 -1.468247  0.315517 -1.998129
  1  0.993329  0.449080 -2.211056
  1  1.724206  2.583735  0.266892
  1  2.900964  4.716288  0.516030
  1  5.379273  4.830950  0.292961
  1  6.672552  2.786972 -0.182276
  1  6.750167  0.376773 -0.600734
  1  6.860111 -2.031625 -1.022194
  1  5.730931 -4.207087 -1.284136
  1  3.253955 -4.361444 -1.070327
  1  1.916558 -2.365472 -0.599301
  1  1.403553 -0.298380  1.988131
  1 -1.057280 -0.433278  2.208311
 nber atoms=          34
  SCF Done:  E(RB3LYP) =  -770.758357544     A.U. after    1 cycles             
  
          23          40 "  -770.758357544"
After scan for Atom:   Atom  AN      X      Y      Z        X      Y      Z        X      Y      Z   
After scan for Atom:   Atom  AN      X      Y      Z        X      Y      Z        X      Y      Z   
After scan for Atom:   Atom  AN      X      Y      Z        X      Y      Z        X      Y      Z   
After scan for Atom:   Atom  AN      X      Y      Z        X      Y      Z        X      Y      Z   
After scan for Atom:   Atom  AN      X      Y      Z        X      Y      Z        X      Y      Z   
After scan for Atom:   Atom  AN      X      Y      Z        X      Y      Z        X      Y      Z   
After scan for Atom:   Atom  AN      X      Y      Z        X      Y      Z        X      Y      Z   
After scan for Atom:   Atom  AN      X      Y      Z        X      Y      Z        X      Y      Z   
After scan for Atom:   Atom  AN      X      Y      Z        X      Y      Z        X      Y      Z   
After scan for Atom:   Atom  AN      X      Y      Z        X      Y      Z        X      Y      Z   
After scan for Atom:   Atom  AN      X      Y      Z        X      Y      Z        X      Y      Z   
After scan for Atom:   Atom  AN      X      Y      Z        X      Y      Z        X      Y      Z   
After scan for Atom:   Atom  AN      X      Y      Z        X      Y      Z        X      Y      Z   
After scan for Atom:   Atom  AN      X      Y      Z        X      Y      Z        X      Y      Z   
After scan for Atom:   Atom  AN      X      Y      Z        X      Y      Z        X      Y      Z   
After scan for Atom:   Atom  AN      X      Y      Z        X      Y      Z        X      Y      Z   
After scan for Atom:   Atom  AN      X      Y      Z        X      Y      Z        X      Y      Z   
After scan for Atom:   Atom  AN      X      Y      Z        X      Y      Z        X      Y      Z   
After scan for Atom:   Atom  AN      X      Y      Z        X      Y      Z        X      Y      Z   
After scan for Atom:   Atom  AN      X      Y      Z        X      Y      Z        X      Y      Z   
After scan for Atom:   Atom  AN      X      Y      Z        X      Y      Z        X      Y      Z   
After scan for Atom:   Atom  AN      X      Y      Z        X      Y      Z        X      Y      Z   
After scan for Atom:   Atom  AN      X      Y      Z        X      Y      Z        X      Y      Z   
After scan for Atom:   Atom  AN      X      Y      Z        X      Y      Z        X      Y      Z   
After scan for Atom:   Atom  AN      X      Y      Z        X      Y      Z        X      Y      Z   
After scan for Atom:   Atom  AN      X      Y      Z        X      Y      Z        X      Y      Z   
After scan for Atom:   Atom  AN      X      Y      Z        X      Y      Z        X      Y      Z   
After scan for Atom:   Atom  AN      X      Y      Z        X      Y      Z        X      Y      Z   
After scan for Atom:   Atom  AN      X      Y      Z        X      Y      Z        X      Y      Z   
After scan for Atom:   Atom  AN      X      Y      Z        X      Y      Z        X      Y      Z   
After scan for Atom:   Atom  AN      X      Y      Z        X      Y      Z        X      Y      Z   
After scan for Atom:   Atom  AN      X      Y      Z        X      Y      Z        X      Y      Z   
 g94    frequencies=
     0.0    0.0    0.0    0.0    0.0    0.0   16.3   64.5   64.6   88.9
   118.5  197.6  218.1  234.1  254.2  319.2  335.3  401.4  412.5  413.5
   431.7  483.4  504.3  505.1  566.1  589.0  626.0  626.3  636.8  656.5
   656.6  703.2  718.7  749.6  756.4  770.7  773.6  806.2  842.7  861.0
   861.7  868.1  868.2  902.4  928.2  949.2  953.9  971.5  974.1  983.9
   997.3  998.0 1004.1 1017.3 1036.7 1037.6 1051.5 1098.2 1128.3 1164.2
  1167.6 1181.7 1190.9 1201.6 1202.6 1212.7 1248.8 1287.8 1308.3 1310.4
  1340.9 1350.6 1379.3 1402.0 1414.2 1438.4 1471.5 1476.9 1482.9 1516.4
  1529.2 1558.0 1596.5 1615.1 1616.3 1643.2 1659.2 1669.6 3154.3 3157.7
  3158.5 3159.2 3165.2 3168.4 3168.7 3174.5 3180.5 3183.1 3183.4 3188.8
  3198.8 3199.4
 g94    symmetries=
                                                 A      A      A      A
       A      A      A      A      A      A      A      A      A      A
       A      A      A      A      A      A      A      A      A      A
       A      A      A      A      A      A      A      A      A      A
       A      A      A      A      A      A      A      A      A      A
       A      A      A      A      A      A      A      A      A      A
       A      A      A      A      A      A      A      A      A      A
       A      A      A      A      A      A      A      A      A      A
       A      A      A      A      A      A      A      A      A      A
       A      A      A      A      A      A      A      A      A      A
       A      A
 atomic masses:
 12.0000 12.0000 12.0000 12.0000 12.0000 12.0000 12.0000 12.0000 12.0000 12.0000
 12.0000 12.0000 12.0000 12.0000 12.0000 12.0000 12.0000 12.0000 12.0000 12.0000
  1.0078  1.0078  1.0078  1.0078  1.0078  1.0078  1.0078  1.0078  1.0078  1.0078
  1.0078  1.0078  1.0078  1.0078
 looking for force constants in 
 ./benz-b-imbal_0_C0S0.fchk                                                     
  
 Cartesian Force Constants                  R   N=        5253                  
  
 n3=         102        5253
 g94-fc frequencies=
    -3.5   -2.9   -0.3   -0.0    0.0    0.0   16.3   64.5   64.6   88.9
   118.5  197.6  218.1  234.1  254.3  319.3  335.3  401.5  412.6  413.6
   431.7  483.4  504.3  505.1  566.2  589.0  626.0  626.3  636.9  656.5
   656.6  703.2  718.8  749.6  756.4  770.8  773.6  806.2  842.7  861.0
   861.7  868.1  868.2  902.4  928.2  949.2  953.9  971.5  974.1  983.9
   997.3  998.0 1004.1 1017.3 1036.7 1037.7 1051.5 1098.3 1128.3 1164.2
  1167.6 1181.7 1190.9 1201.6 1202.7 1212.7 1248.8 1287.9 1308.3 1310.4
  1341.0 1350.6 1379.4 1402.1 1414.2 1438.5 1471.6 1476.9 1482.9 1516.4
  1529.3 1558.0 1596.5 1615.1 1616.3 1643.2 1659.2 1669.6 3154.3 3157.8
  3158.6 3159.2 3165.2 3168.5 3168.8 3174.5 3180.6 3183.1 3183.4 3188.8
  3198.9 3199.5
 at 99999: n3=         102
 symm operator            1 :  F  nop=           0
 symm operator            2 :  F  nop=           0
 symm operator            3 :  F  nop=           0
 symm operator            4 :  F  nop=           0
 symm operator            5 :  F  nop=           0
 symm operator            6 :  F  nop=           0
 symm operator            7 :  F  nop=           0
 The point group of the molecule is  C1
 Symmetry rotation matrix:
   1.00000   0.00000   0.00000
   0.00000   1.00000   0.00000
   0.00000   0.00000   1.00000

 Projecting out zero-frequency components
 generating redundant internal coords
         300        3600          34
 search for int coords
   1 str   2   1   1.393
   2 str   3   2   1.393
   3 str   4   3   1.400
   4 str   5   4   1.497
   5 str   6   5   1.411
   6 str   7   6   1.432
   7 str   8   7   1.367
   8 str   9   8   1.423
   9 str  10   9   1.366
  10 str  11   6   1.444
  11 str  11  10   1.429
  12 str  12  11   1.396
  13 str  13  12   1.396
  14 str  14  13   1.429
  15 str  15  14   1.366
  16 str  16  15   1.423
  17 str  17  16   1.367
  18 str  18   5   1.411
  19 str  18  13   1.444
  20 str  18  17   1.432
  21 str  19   4   1.400
  22 str  20   1   1.393
  23 str  20  19   1.393
  24 str  21   1   1.084
  25 str  22   2   1.084
  26 str  23   3   1.084
  27 str  24   7   1.082
  28 str  25   8   1.084
  29 str  26   9   1.084
  30 str  27  10   1.085
  31 str  28  12   1.086
  32 str  29  14   1.085
  33 str  30  15   1.084
  34 str  31  16   1.084
  35 str  32  17   1.082
  36 str  33  19   1.084
  37 str  34  20   1.084
 nber stretches=          37
  38 ben   1   2   3
  39 prop tor   1   2   3   4
  40 prop tor   1   2   3  23
  41 ben   1   2  22
  42 ben   1  20  19
  43 ben   1  20  34
  44 ben   2   1  20
  45 prop tor   2   1  20  19
  46 prop tor   2   1  20  34
  47 ben   2   1  21
  48 ben   2   3   4
  49 prop tor   2   3   4   5
  50 prop tor   2   3   4  19
  51 ben   2   3  23
  52 ben   3   2  22
  53 ben   3   4   5
  54 prop tor   3   4   5   6
  55 prop tor   3   4   5  18
  56 ben   3   4  19
  57 prop tor   3   4  19  20
  58 prop tor   3   4  19  33
  59 ben   4   3  23
  60 ben   4   5   6
  61 prop tor   4   5   6   7
  62 prop tor   4   5   6  11
  63 ben   4   5  18
  64 prop tor   4   5  18  13
  65 prop tor   4   5  18  17
  66 ben   4  19  20
  67 prop tor   4  19  20   1
  68 prop tor   4  19  20  34
  69 ben   4  19  33
  70 ben   5   4  19
  71 prop tor   5   4  19  20
  72 prop tor   5   4  19  33
  73 ben   5   6   7
  74 prop tor   5   6   7   8
  75 prop tor   5   6   7  24
  76 ben   5   6  11
  77 prop tor   5   6  11  10
  78 prop tor   5   6  11  12
  79 ben   5  18  13
  80 ben   5  18  17
  81 ben   6   5  18
  82 prop tor   6   5  18  13
  83 prop tor   6   5  18  17
  84 ben   6   7   8
  85 prop tor   6   7   8   9
  86 prop tor   6   7   8  25
  87 ben   6   7  24
  88 ben   6  11  10
  89 ben   6  11  12
  90 prop tor   6  11  12  13
  91 prop tor   6  11  12  28
  92 ben   7   6  11
  93 prop tor   7   6  11  10
  94 prop tor   7   6  11  12
  95 ben   7   8   9
  96 prop tor   7   8   9  10
  97 prop tor   7   8   9  26
  98 ben   7   8  25
  99 ben   8   7  24
 100 ben   8   9  10
 101 prop tor   8   9  10  11
 102 prop tor   8   9  10  27
 103 ben   8   9  26
 104 ben   9   8  25
 105 ben   9  10  11
 106 prop tor   9  10  11   6
 107 prop tor   9  10  11  12
 108 ben   9  10  27
 109 ben  10   9  26
 110 ben  10  11  12
 111 prop tor  10  11  12  13
 112 prop tor  10  11  12  28
 113 prop tor  11   6   7   8
 114 prop tor  11   6   7  24
 115 ben  11  10  27
 116 ben  11  12  13
 117 prop tor  11  12  13  14
 118 prop tor  11  12  13  18
 119 ben  11  12  28
 120 ben  12  13  14
 121 prop tor  12  13  14  15
 122 prop tor  12  13  14  29
 123 ben  12  13  18
 124 prop tor  12  13  18   5
 125 prop tor  12  13  18  17
 126 ben  13  12  28
 127 ben  13  14  15
 128 prop tor  13  14  15  16
 129 prop tor  13  14  15  30
 130 ben  13  14  29
 131 ben  13  18  17
 132 ben  14  13  18
 133 prop tor  14  13  18   5
 134 prop tor  14  13  18  17
 135 ben  14  15  16
 136 prop tor  14  15  16  17
 137 prop tor  14  15  16  31
 138 ben  14  15  30
 139 ben  15  14  29
 140 ben  15  16  17
 141 prop tor  15  16  17  18
 142 prop tor  15  16  17  32
 143 ben  15  16  31
 144 ben  16  15  30
 145 ben  16  17  18
 146 prop tor  16  17  18   5
 147 prop tor  16  17  18  13
 148 ben  16  17  32
 149 ben  17  16  31
 150 prop tor  18   5   6   7
 151 prop tor  18   5   6  11
 152 prop tor  18  13  14  15
 153 prop tor  18  13  14  29
 154 ben  18  17  32
 155 prop tor  19   4   5   6
 156 prop tor  19   4   5  18
 157 ben  19  20  34
 158 prop tor  20   1   2   3
 159 prop tor  20   1   2  22
 160 ben  20   1  21
 161 ben  20  19  33
 162 prop tor  21   1   2   3
 163 prop tor  21   1   2  22
 164 prop tor  21   1  20  19
 165 prop tor  21   1  20  34
 166 prop tor  22   2   3   4
 167 prop tor  22   2   3  23
 168 prop tor  23   3   4   5
 169 prop tor  23   3   4  19
 170 prop tor  24   7   8   9
 171 prop tor  24   7   8  25
 172 prop tor  25   8   9  10
 173 prop tor  25   8   9  26
 174 prop tor  26   9  10  11
 175 prop tor  26   9  10  27
 176 prop tor  27  10  11   6
 177 prop tor  27  10  11  12
 178 prop tor  28  12  13  14
 179 prop tor  28  12  13  18
 180 prop tor  29  14  15  16
 181 prop tor  29  14  15  30
 182 prop tor  30  15  16  17
 183 prop tor  30  15  16  31
 184 prop tor  31  16  17  18
 185 prop tor  31  16  17  32
 186 prop tor  32  17  18   5
 187 prop tor  32  17  18  13
 188 prop tor  33  19  20   1
 189 prop tor  33  19  20  34
 nber bend=              60
 nber lin bend=           0
 nber prop tor=          92
 nber impr tor=           0
 nber tot redund int=         189
 Eigenvalues of G in red int coords
    Gval -0.00000000 -0.00000000 -0.00000000 -0.00000000 -0.00000000 -0.00000000 -0.00000000 -0.00000000
    Gval -0.00000000 -0.00000000 -0.00000000 -0.00000000 -0.00000000 -0.00000000 -0.00000000 -0.00000000
    Gval -0.00000000 -0.00000000 -0.00000000 -0.00000000 -0.00000000 -0.00000000 -0.00000000 -0.00000000
    Gval -0.00000000 -0.00000000 -0.00000000 -0.00000000 -0.00000000 -0.00000000 -0.00000000 -0.00000000
    Gval -0.00000000 -0.00000000 -0.00000000 -0.00000000 -0.00000000 -0.00000000 -0.00000000 -0.00000000
    Gval -0.00000000 -0.00000000  0.00000000  0.00000000  0.00000000  0.00000000  0.00000000  0.00000000
    Gval  0.00000000  0.00000000  0.00000000  0.00000000  0.00000000  0.00000000  0.00000000  0.00000000
    Gval  0.00000000  0.00000000  0.00000000  0.00000000  0.00000000  0.00000000  0.00000000  0.00000000
    Gval  0.00000000  0.00000000  0.00000000  0.00000000  0.00000000  0.00000000  0.00000000  0.00000000
    Gval  0.00000000  0.00000000  0.00000000  0.00000000  0.00000000  0.00000000  0.00000000  0.00000000
    Gval  0.00000000  0.00000000  0.00000000  0.00000000  0.00000000  0.00000000  0.00000000  0.00000000
    Gval  0.00000000  0.00000000  0.00000000  0.00000000  0.00000000  0.00000222  0.00000399  0.00000715
    Gval  0.00000968  0.00001219  0.00002273  0.00002636  0.00002685  0.00003378  0.00004283  0.00004343
    Gval  0.00004524  0.00004795  0.00005383  0.00005684  0.00006054  0.00007204  0.00007244  0.00007502
    Gval  0.00007868  0.00009310  0.00009668  0.00010113  0.00011581  0.00011811  0.00012445  0.00012728
    Gval  0.00015064  0.00018284  0.00018411  0.00021583  0.00023566  0.00025852  0.00026882  0.00027293
    Gval  0.00028924  0.00032337  0.00035373  0.00036498  0.00038082  0.00040115  0.00041114  0.00041734
    Gval  0.00046003  0.00052849  0.00053203  0.00059306  0.00059314  0.00059315  0.00059358  0.00059699
    Gval  0.00059709  0.00060447  0.00061392  0.00061746  0.00062306  0.00063623  0.00065427  0.00065790
    Gval  0.00066079  0.00077569  0.00079369  0.00084199  0.00098006  0.00103837  0.00105132  0.00105304
    Gval  0.00110856  0.00111455  0.00111625  0.00112327  0.00113528  0.00116231  0.00116240  0.00116986
    Gval  0.00117086  0.00117086  0.00117202  0.00124179  0.00142972  0.00177443  0.00178602  0.00179305
    Gval  0.00179359  0.00220656  0.00234020  0.00264992  0.00267476  0.00310020  0.00312056  0.00350724
    Gval  0.00356890  0.00374133  0.00400191  0.00400925  0.00406852
  2.222576268377468E-006  2.222576268377468E-006
  3.985176435896768E-006  2.222576268377468E-006
  7.148751526717919E-006  2.222576268377468E-006
  9.683159988888128E-006  2.222576268377468E-006
  1.219054873236097E-005  2.222576268377468E-006
  2.272585138164121E-005  2.222576268377468E-006
  2.635742105066827E-005  2.222576268377468E-006
  2.684522845819003E-005  2.222576268377468E-006
  3.377873357824891E-005  2.222576268377468E-006
  4.282848115256179E-005  2.222576268377468E-006
  4.343471459885794E-005  2.222576268377468E-006
  4.524387735007704E-005  2.222576268377468E-006
  4.795390720510847E-005  2.222576268377468E-006
  5.383038179615554E-005  2.222576268377468E-006
  5.683975478841537E-005  2.222576268377468E-006
  6.054044445323070E-005  2.222576268377468E-006
  7.204140264851606E-005  2.222576268377468E-006
  7.243609653652943E-005  2.222576268377468E-006
  7.501683906548325E-005  2.222576268377468E-006
  7.867635445975352E-005  2.222576268377468E-006
  9.309775420832499E-005  2.222576268377468E-006
  9.667857619088839E-005  2.222576268377468E-006
  1.011280079012229E-004  2.222576268377468E-006
  1.158131017798284E-004  2.222576268377468E-006
  1.181125874804092E-004  2.222576268377468E-006
  1.244546480866677E-004  2.222576268377468E-006
  1.272823781358546E-004  2.222576268377468E-006
  1.506442727329164E-004  2.222576268377468E-006
  1.828401872555782E-004  2.222576268377468E-006
  1.841056178289786E-004  2.222576268377468E-006
  2.158283639909011E-004  2.222576268377468E-006
  2.356624668859894E-004  2.222576268377468E-006
  2.585207747557174E-004  2.222576268377468E-006
  2.688184049313744E-004  2.222576268377468E-006
  2.729280094920700E-004  2.222576268377468E-006
  2.892378636966119E-004  2.222576268377468E-006
  3.233690710904575E-004  2.222576268377468E-006
  3.537316327347114E-004  2.222576268377468E-006
  3.649828303002284E-004  2.222576268377468E-006
  3.808223312404343E-004  2.222576268377468E-006
  4.011549595188486E-004  2.222576268377468E-006
  4.111389863984242E-004  2.222576268377468E-006
  4.173416415769307E-004  2.222576268377468E-006
  4.600263675165175E-004  2.222576268377468E-006
  5.284908981833776E-004  2.222576268377468E-006
  5.320321016292581E-004  2.222576268377468E-006
  5.930606069377725E-004  2.222576268377468E-006
  5.931445489771660E-004  2.222576268377468E-006
  5.931477590926249E-004  2.222576268377468E-006
  5.935767760027764E-004  2.222576268377468E-006
  5.969916590234788E-004  2.222576268377468E-006
  5.970873701000677E-004  2.222576268377468E-006
  6.044739632240381E-004  2.222576268377468E-006
  6.139241261797551E-004  2.222576268377468E-006
  6.174573721890519E-004  2.222576268377468E-006
  6.230565746192185E-004  2.222576268377468E-006
  6.362287058810000E-004  2.222576268377468E-006
  6.542710775785396E-004  2.222576268377468E-006
  6.579045468156920E-004  2.222576268377468E-006
  6.607864481411220E-004  2.222576268377468E-006
  7.756882627855676E-004  2.222576268377468E-006
  7.936941498258401E-004  2.222576268377468E-006
  8.419928310219985E-004  2.222576268377468E-006
  9.800555075930716E-004  2.222576268377468E-006
  1.038366467237540E-003  2.222576268377468E-006
  1.051319625528707E-003  2.222576268377468E-006
  1.053037993421404E-003  2.222576268377468E-006
  1.108556569312944E-003  2.222576268377468E-006
  1.114551926537329E-003  2.222576268377468E-006
  1.116254733898696E-003  2.222576268377468E-006
  1.123268705202815E-003  2.222576268377468E-006
  1.135279865036413E-003  2.222576268377468E-006
  1.162311171377928E-003  2.222576268377468E-006
  1.162399399575005E-003  2.222576268377468E-006
  1.169864812244645E-003  2.222576268377468E-006
  1.170857548411206E-003  2.222576268377468E-006
  1.170864688885795E-003  2.222576268377468E-006
  1.172017662095062E-003  2.222576268377468E-006
  1.241793657463099E-003  2.222576268377468E-006
  1.429724562744480E-003  2.222576268377468E-006
  1.774430165874557E-003  2.222576268377468E-006
  1.786017759679638E-003  2.222576268377468E-006
  1.793051016166698E-003  2.222576268377468E-006
  1.793591375911970E-003  2.222576268377468E-006
  2.206555002415001E-003  2.222576268377468E-006
  2.340195108345842E-003  2.222576268377468E-006
  2.649921581082550E-003  2.222576268377468E-006
  2.674764788446167E-003  2.222576268377468E-006
  3.100198341627621E-003  2.222576268377468E-006
  3.120559674726171E-003  2.222576268377468E-006
  3.507237803868574E-003  2.222576268377468E-006
  3.568896425988318E-003  2.222576268377468E-006
  3.741333997300314E-003  2.222576268377468E-006
  4.001912420143027E-003  2.222576268377468E-006
  4.009246948761511E-003  2.222576268377468E-006
  4.068519081231771E-003  2.222576268377468E-006
 cut=1d-8, nber non-redundant internal coords=          96
 Check on Eigenvals of non-red overlap matrix:
  0.00000222  0.00000399  0.00000715  0.00000968  0.00001219  0.00002273  0.00002636  0.00002685
  0.00003378  0.00004283  0.00004343  0.00004524  0.00004795  0.00005383  0.00005684  0.00006054
  0.00007204  0.00007244  0.00007502  0.00007868  0.00009310  0.00009668  0.00010113  0.00011581
  0.00011811  0.00012445  0.00012728  0.00015064  0.00018284  0.00018411  0.00021583  0.00023566
  0.00025852  0.00026882  0.00027293  0.00028924  0.00032337  0.00035373  0.00036498  0.00038082
  0.00040115  0.00041114  0.00041734  0.00046003  0.00052849  0.00053203  0.00059306  0.00059314
  0.00059315  0.00059358  0.00059699  0.00059709  0.00060447  0.00061392  0.00061746  0.00062306
  0.00063623  0.00065427  0.00065790  0.00066079  0.00077569  0.00079369  0.00084199  0.00098006
  0.00103837  0.00105132  0.00105304  0.00110856  0.00111455  0.00111625  0.00112327  0.00113528
  0.00116231  0.00116240  0.00116986  0.00117086  0.00117086  0.00117202  0.00124179  0.00142972
  0.00177443  0.00178602  0.00179305  0.00179359  0.00220656  0.00234020  0.00264992  0.00267476
  0.00310020  0.00312056  0.00350724  0.00356890  0.00374133  0.00400191  0.00400925  0.00406852
 Checking for correct frequencies
 recalc frequencies=
    -0.0   -0.0   -0.0    0.0    0.0    0.0   16.3   64.5   64.6   88.9
   118.5  197.6  218.1  234.1  254.3  319.3  335.3  401.5  412.6  413.6
   431.7  483.4  504.3  505.1  566.2  589.0  626.0  626.3  636.9  656.5
   656.6  703.2  718.8  749.6  756.4  770.8  773.6  806.2  842.7  861.0
   861.7  868.1  868.2  902.4  928.2  949.2  953.9  971.5  974.1  983.9
   997.3  998.0 1004.1 1017.3 1036.7 1037.7 1051.5 1098.3 1128.3 1164.2
  1167.6 1181.7 1190.9 1201.6 1202.7 1212.7 1248.8 1287.9 1308.3 1310.4
  1341.0 1350.6 1379.4 1402.1 1414.2 1438.5 1471.6 1476.9 1482.9 1516.4
  1529.3 1558.0 1596.5 1615.1 1616.3 1643.2 1659.2 1669.6 3154.3 3157.8
  3158.6 3159.2 3165.2 3168.5 3168.8 3174.5 3180.6 3183.1 3183.4 3188.8
  3198.9 3199.5
 recalc symmetries=
                                                                       
                                                                       
                                                                       
                                                                       
                                                                       
                                                                       
                                                                       
                                                                       
                                                                       
                                                                       
               
 recalc freqs check OK
 Zero-point lengths:
 10.0000 10.0000 10.0000 10.0000 10.0000 10.0000 61.4252 30.8665 30.8401 26.2884
 22.7781 17.6371 16.7883 16.2044 15.5476 13.8748 13.5386 12.3730 12.2055 12.1907
 11.9311 11.2754 11.0399 11.0303 10.4191 10.2152  9.9088  9.9060  9.8237  9.6755
  9.6745  9.3486  9.2471  9.0550  9.0142  8.9297  8.9133  8.7313  8.5401  8.4488
  8.4451  8.4141  8.4136  8.2525  8.1372  8.0465  8.0270  7.9537  7.9430  7.9034
  7.8502  7.8476  7.8235  7.7725  7.6995  7.6961  7.6451  7.4807  7.3804  7.2656
  7.2550  7.2118  7.1837  7.1517  7.1486  7.1190  7.0153  6.9081  6.8540  6.8484
  6.7700  6.7457  6.6751  6.6208  6.5923  6.5365  6.4626  6.4508  6.4379  6.3662
  6.3395  6.2807  6.2045  6.1686  6.1664  6.1157  6.0862  6.0672  4.4141  4.4117
  4.4111  4.4107  4.4065  4.4042  4.4040  4.4000  4.3958  4.3941  4.3939  4.3902
  4.3832  4.3829
 highest evec of mol 1
  0.0025  0.0001 -0.0002
  0.0011 -0.0003  0.0018
 -0.0017 -0.0006  0.0033
  0.0000 -0.0000 -0.0000
  0.0021  0.0001 -0.0002
 -0.0017  0.0052  0.0010
  0.1866  0.0112 -0.0164
  0.0331 -0.0667 -0.0146
 -0.0166 -0.0256 -0.0027
 -0.0138  0.0007  0.0015
 -0.0012  0.0006  0.0002
 -0.0017 -0.0001  0.0002
 -0.0012 -0.0007 -0.0000
 -0.0140 -0.0023  0.0010
 -0.0189  0.0242  0.0060
  0.0283  0.0714  0.0095
  0.1905  0.0093 -0.0169
 -0.0013 -0.0054 -0.0008
 -0.0023  0.0004 -0.0030
  0.0007  0.0004 -0.0019
 -0.0074 -0.0004  0.0007
 -0.0039  0.0008 -0.0054
  0.0053  0.0023 -0.0113
 -0.6151 -0.0225  0.0565
 -0.1193  0.1962  0.0452
  0.0451  0.0827  0.0097
  0.0421  0.0011 -0.0039
  0.0074  0.0004 -0.0007
  0.0428  0.0035 -0.0036
  0.0523 -0.0789 -0.0186
 -0.1055 -0.2122 -0.0261
 -0.6268 -0.0452  0.0530
  0.0075 -0.0016  0.0103
 -0.0028 -0.0012  0.0061
 generating redundant internal coords
         300        3600          34
 Adding extra bonds for z output only
           6           6           6           6           6           6
           6           6           6           6           6           6
           6           6           6           6           6           6
           6           6           1           1           1           1
           1           1           1           1           1           1
           1           1           1           1
 search for int coords
   1 str   2   1   1.393
   2 str   3   2   1.393
   3 str   4   3   1.400
   4 str   5   4   1.497
   5 str   6   5   1.411
   6 str   7   6   1.432
   7 str   8   7   1.367
   8 str   9   8   1.423
   9 str  10   9   1.366
  10 str  11   6   1.444
  11 str  11  10   1.429
  12 str  12  11   1.396
  13 str  13  12   1.396
  14 str  14  13   1.429
  15 str  15  14   1.366
  16 str  16  15   1.423
  17 str  17  16   1.367
  18 str  18   5   1.411
  19 str  18  13   1.444
  20 str  18  17   1.432
  21 str  19   4   1.400
  22 str  20   1   1.393
  23 str  20  19   1.393
  24 str  21   1   1.084
  25 str  22   2   1.084
  26 str  23   3   1.084
  27 str  24   7   1.082
  28 str  25   8   1.084
  29 str  26   9   1.084
  30 str  27  10   1.085
  31 str  28  12   1.086
  32 str  29  14   1.085
  33 str  30  15   1.084
  34 str  31  16   1.084
  35 str  32  17   1.082
  36 str  33  19   1.084
  37 str  34  20   1.084
 nber stretches=          37
  38 ben   1   2   3
  39 prop tor   1   2   3   4
  40 prop tor   1   2   3  23
  41 ben   1   2  22
  42 ben   1  20  19
  43 ben   1  20  34
  44 ben   2   1  20
  45 prop tor   2   1  20  19
  46 prop tor   2   1  20  34
  47 ben   2   1  21
  48 ben   2   3   4
  49 prop tor   2   3   4   5
  50 prop tor   2   3   4  19
  51 ben   2   3  23
  52 ben   3   2  22
  53 ben   3   4   5
  54 prop tor   3   4   5   6
  55 prop tor   3   4   5  18
  56 ben   3   4  19
  57 prop tor   3   4  19  20
  58 prop tor   3   4  19  33
  59 ben   4   3  23
  60 ben   4   5   6
  61 prop tor   4   5   6   7
  62 prop tor   4   5   6  11
  63 ben   4   5  18
  64 prop tor   4   5  18  13
  65 prop tor   4   5  18  17
  66 ben   4  19  20
  67 prop tor   4  19  20   1
  68 prop tor   4  19  20  34
  69 ben   4  19  33
  70 ben   5   4  19
  71 prop tor   5   4  19  20
  72 prop tor   5   4  19  33
  73 ben   5   6   7
  74 prop tor   5   6   7   8
  75 prop tor   5   6   7  24
  76 ben   5   6  11
  77 prop tor   5   6  11  10
  78 prop tor   5   6  11  12
  79 ben   5  18  13
  80 ben   5  18  17
  81 ben   6   5  18
  82 prop tor   6   5  18  13
  83 prop tor   6   5  18  17
  84 ben   6   7   8
  85 prop tor   6   7   8   9
  86 prop tor   6   7   8  25
  87 ben   6   7  24
  88 ben   6  11  10
  89 ben   6  11  12
  90 prop tor   6  11  12  13
  91 prop tor   6  11  12  28
  92 ben   7   6  11
  93 prop tor   7   6  11  10
  94 prop tor   7   6  11  12
  95 ben   7   8   9
  96 prop tor   7   8   9  10
  97 prop tor   7   8   9  26
  98 ben   7   8  25
  99 ben   8   7  24
 100 ben   8   9  10
 101 prop tor   8   9  10  11
 102 prop tor   8   9  10  27
 103 ben   8   9  26
 104 ben   9   8  25
 105 ben   9  10  11
 106 prop tor   9  10  11   6
 107 prop tor   9  10  11  12
 108 ben   9  10  27
 109 ben  10   9  26
 110 ben  10  11  12
 111 prop tor  10  11  12  13
 112 prop tor  10  11  12  28
 113 prop tor  11   6   7   8
 114 prop tor  11   6   7  24
 115 ben  11  10  27
 116 ben  11  12  13
 117 prop tor  11  12  13  14
 118 prop tor  11  12  13  18
 119 ben  11  12  28
 120 ben  12  13  14
 121 prop tor  12  13  14  15
 122 prop tor  12  13  14  29
 123 ben  12  13  18
 124 prop tor  12  13  18   5
 125 prop tor  12  13  18  17
 126 ben  13  12  28
 127 ben  13  14  15
 128 prop tor  13  14  15  16
 129 prop tor  13  14  15  30
 130 ben  13  14  29
 131 ben  13  18  17
 132 ben  14  13  18
 133 prop tor  14  13  18   5
 134 prop tor  14  13  18  17
 135 ben  14  15  16
 136 prop tor  14  15  16  17
 137 prop tor  14  15  16  31
 138 ben  14  15  30
 139 ben  15  14  29
 140 ben  15  16  17
 141 prop tor  15  16  17  18
 142 prop tor  15  16  17  32
 143 ben  15  16  31
 144 ben  16  15  30
 145 ben  16  17  18
 146 prop tor  16  17  18   5
 147 prop tor  16  17  18  13
 148 ben  16  17  32
 149 ben  17  16  31
 150 prop tor  18   5   6   7
 151 prop tor  18   5   6  11
 152 prop tor  18  13  14  15
 153 prop tor  18  13  14  29
 154 ben  18  17  32
 155 prop tor  19   4   5   6
 156 prop tor  19   4   5  18
 157 ben  19  20  34
 158 prop tor  20   1   2   3
 159 prop tor  20   1   2  22
 160 ben  20   1  21
 161 ben  20  19  33
 162 prop tor  21   1   2   3
 163 prop tor  21   1   2  22
 164 prop tor  21   1  20  19
 165 prop tor  21   1  20  34
 166 prop tor  22   2   3   4
 167 prop tor  22   2   3  23
 168 prop tor  23   3   4   5
 169 prop tor  23   3   4  19
 170 prop tor  24   7   8   9
 171 prop tor  24   7   8  25
 172 prop tor  25   8   9  10
 173 prop tor  25   8   9  26
 174 prop tor  26   9  10  11
 175 prop tor  26   9  10  27
 176 prop tor  27  10  11   6
 177 prop tor  27  10  11  12
 178 prop tor  28  12  13  14
 179 prop tor  28  12  13  18
 180 prop tor  29  14  15  16
 181 prop tor  29  14  15  30
 182 prop tor  30  15  16  17
 183 prop tor  30  15  16  31
 184 prop tor  31  16  17  18
 185 prop tor  31  16  17  32
 186 prop tor  32  17  18   5
 187 prop tor  32  17  18  13
 188 prop tor  33  19  20   1
 189 prop tor  33  19  20  34
 nber bend=              60
 nber lin bend=           0
 nber prop tor=          92
 nber impr tor=           0
 nber tot redund int=         189
 Reading file: 
 ./benz-b-imbal_0_C0S1.log                                                      
                                          
  Entering Gaussian System, Link 0=g16                                          
  
 Gaussian format, type: g94, g98, g03= F F F
  #P Geom=AllCheck Guess=TCheck SCRF=Check GenChk RB3LYP TD(FC,Read)/6-3    
 energy type= TD      
 Original G94 input coords:
  6 -1.433643 -0.068152  0.120757
  6 -0.858645  0.661292 -0.919311
  6  0.524649  0.743658 -1.037594
  6  1.370143  0.084565 -0.126743
  6  2.842435  0.164621 -0.256646
  6  3.492515  1.444207 -0.182533
  6  2.807736  2.645359  0.085006
  6  3.474344  3.884720  0.136892
  6  4.847107  3.947992 -0.048961
  6  5.567334  2.764881 -0.273177
  6  4.925443  1.511764 -0.331530
  6  5.652500  0.317098 -0.503270
  6  5.039191 -0.950280 -0.557694
  6  5.791921 -2.127730 -0.738561
  6  5.174873 -3.383308 -0.846014
  6  3.791935 -3.469438 -0.790509
  6  3.015384 -2.308374 -0.611735
  6  3.603315 -1.038308 -0.455128
  6  0.772774 -0.653088  0.911505
  6 -0.610601 -0.721415  1.037454
  1 -2.511934 -0.126891  0.215939
  1 -1.489717  1.164985 -1.643323
  1  0.964337  1.304365 -1.854351
  1  1.741908  2.619938  0.266167
  1  2.904254  4.785829  0.330665
  1  5.366080  4.898583 -0.011938
  1  6.644426  2.802853 -0.396753
  1  6.732799  0.375719 -0.598012
  1  6.871887 -2.048749 -0.803958
  1  5.778512 -4.272993 -0.981685
  1  3.296889 -4.428239 -0.891391
  1  1.937806 -2.399083 -0.605284
  1  1.406191 -1.155262  1.633596
  1 -1.047490 -1.283248  1.855761
 nber atoms=          34
  Total Energy, E(TD-HF/TD-DFT) =  -770.650499978                               
  
          32          49 "  -770.650499978"
After scan for Atom:   Atom  AN      X      Y      Z        X      Y      Z        X      Y      Z   
After scan for Atom:   Atom  AN      X      Y      Z        X      Y      Z        X      Y      Z   
After scan for Atom:   Atom  AN      X      Y      Z        X      Y      Z        X      Y      Z   
After scan for Atom:   Atom  AN      X      Y      Z        X      Y      Z        X      Y      Z   
After scan for Atom:   Atom  AN      X      Y      Z        X      Y      Z        X      Y      Z   
After scan for Atom:   Atom  AN      X      Y      Z        X      Y      Z        X      Y      Z   
After scan for Atom:   Atom  AN      X      Y      Z        X      Y      Z        X      Y      Z   
After scan for Atom:   Atom  AN      X      Y      Z        X      Y      Z        X      Y      Z   
After scan for Atom:   Atom  AN      X      Y      Z        X      Y      Z        X      Y      Z   
After scan for Atom:   Atom  AN      X      Y      Z        X      Y      Z        X      Y      Z   
After scan for Atom:   Atom  AN      X      Y      Z        X      Y      Z        X      Y      Z   
After scan for Atom:   Atom  AN      X      Y      Z        X      Y      Z        X      Y      Z   
After scan for Atom:   Atom  AN      X      Y      Z        X      Y      Z        X      Y      Z   
After scan for Atom:   Atom  AN      X      Y      Z        X      Y      Z        X      Y      Z   
After scan for Atom:   Atom  AN      X      Y      Z        X      Y      Z        X      Y      Z   
After scan for Atom:   Atom  AN      X      Y      Z        X      Y      Z        X      Y      Z   
After scan for Atom:   Atom  AN      X      Y      Z        X      Y      Z        X      Y      Z   
After scan for Atom:   Atom  AN      X      Y      Z        X      Y      Z        X      Y      Z   
After scan for Atom:   Atom  AN      X      Y      Z        X      Y      Z        X      Y      Z   
After scan for Atom:   Atom  AN      X      Y      Z        X      Y      Z        X      Y      Z   
After scan for Atom:   Atom  AN      X      Y      Z        X      Y      Z        X      Y      Z   
After scan for Atom:   Atom  AN      X      Y      Z        X      Y      Z        X      Y      Z   
After scan for Atom:   Atom  AN      X      Y      Z        X      Y      Z        X      Y      Z   
After scan for Atom:   Atom  AN      X      Y      Z        X      Y      Z        X      Y      Z   
After scan for Atom:   Atom  AN      X      Y      Z        X      Y      Z        X      Y      Z   
After scan for Atom:   Atom  AN      X      Y      Z        X      Y      Z        X      Y      Z   
After scan for Atom:   Atom  AN      X      Y      Z        X      Y      Z        X      Y      Z   
After scan for Atom:   Atom  AN      X      Y      Z        X      Y      Z        X      Y      Z   
After scan for Atom:   Atom  AN      X      Y      Z        X      Y      Z        X      Y      Z   
After scan for Atom:   Atom  AN      X      Y      Z        X      Y      Z        X      Y      Z   
After scan for Atom:   Atom  AN      X      Y      Z        X      Y      Z        X      Y      Z   
After scan for Atom:   Atom  AN      X      Y      Z        X      Y      Z        X      Y      Z   
 g94    frequencies=
     0.0    0.0    0.0    0.0    0.0    0.0   49.7   51.8   73.7   91.4
   113.7  201.1  211.9  237.7  261.3  301.3  312.5  387.7  395.7  405.4
   412.5  442.9  488.1  513.3  516.7  580.9  610.7  612.8  618.0  636.2
   654.3  696.5  710.2  714.1  722.7  728.1  736.6  776.6  806.9  832.2
   842.9  859.8  870.8  872.3  904.7  906.1  924.1  942.7  947.0  947.2
   950.2  986.2 1000.5 1013.0 1049.3 1057.2 1062.8 1095.7 1101.7 1129.4
  1176.3 1181.3 1185.2 1188.9 1202.4 1212.8 1270.7 1279.1 1299.7 1301.3
  1328.9 1350.7 1354.2 1387.3 1406.3 1425.9 1450.5 1462.0 1471.5 1515.7
  1525.5 1528.9 1543.6 1573.0 1592.4 1597.3 1601.6 1629.9 3152.6 3159.4
  3161.9 3162.9 3166.5 3172.6 3173.1 3178.2 3183.4 3188.9 3189.4 3190.0
  3205.2 3205.8
 g94    symmetries=
                                                 A      A      A      A
       A      A      A      A      A      A      A      A      A      A
       A      A      A      A      A      A      A      A      A      A
       A      A      A      A      A      A      A      A      A      A
       A      A      A      A      A      A      A      A      A      A
       A      A      A      A      A      A      A      A      A      A
       A      A      A      A      A      A      A      A      A      A
       A      A      A      A      A      A      A      A      A      A
       A      A      A      A      A      A      A      A      A      A
       A      A      A      A      A      A      A      A      A      A
       A      A
 atomic masses:
 12.0000 12.0000 12.0000 12.0000 12.0000 12.0000 12.0000 12.0000 12.0000 12.0000
 12.0000 12.0000 12.0000 12.0000 12.0000 12.0000 12.0000 12.0000 12.0000 12.0000
  1.0078  1.0078  1.0078  1.0078  1.0078  1.0078  1.0078  1.0078  1.0078  1.0078
  1.0078  1.0078  1.0078  1.0078
 looking for force constants in 
 ./benz-b-imbal_0_C0S1.fchk                                                     
  
 Cartesian Force Constants                  R   N=        5253                  
  
 n3=         102        5253
 g94-fc frequencies=
    -2.3   -0.0   -0.0   -0.0    1.4    2.6   49.7   51.8   73.8   91.4
   113.7  201.1  212.0  237.7  261.3  301.3  312.5  387.7  395.7  405.4
   412.5  442.9  488.1  513.3  516.7  580.9  610.7  612.8  618.0  636.2
   654.3  696.5  710.2  714.1  722.7  728.1  736.6  776.6  806.9  832.2
   842.9  859.9  870.8  872.3  904.7  906.1  924.2  942.7  947.0  947.3
   950.2  986.3 1000.5 1013.0 1049.4 1057.2 1062.9 1095.7 1101.7 1129.4
  1176.3 1181.3 1185.2 1188.9 1202.4 1212.8 1270.7 1279.2 1299.7 1301.3
  1328.9 1350.7 1354.2 1387.4 1406.3 1425.9 1450.6 1462.0 1471.5 1515.8
  1525.5 1529.0 1543.6 1573.0 1592.4 1597.4 1601.6 1629.9 3152.7 3159.5
  3161.9 3163.0 3166.6 3172.7 3173.1 3178.3 3183.5 3189.0 3189.4 3190.1
  3205.2 3205.9
 at 99999: n3=         102
 symm operator            1 :  F  nop=           0
 symm operator            2 :  F  nop=           0
 symm operator            3 :  F  nop=           0
 symm operator            4 :  F  nop=           0
 symm operator            5 :  F  nop=           0
 symm operator            6 :  F  nop=           0
 symm operator            7 :  F  nop=           0
 The point group of the molecule is  C1
 Symmetry rotation matrix:
   1.00000   0.00000   0.00000
   0.00000   1.00000   0.00000
   0.00000   0.00000   1.00000

 Projecting out zero-frequency components
 generating redundant internal coords
         300        3600          34
 search for int coords
   1 str   2   1   1.394
   2 str   3   2   1.391
   3 str   4   3   1.407
   4 str   5   4   1.480
   5 str   6   5   1.437
   6 str   7   6   1.408
   7 str   8   7   1.408
   8 str   9   8   1.387
   9 str  10   9   1.403
  10 str  11   6   1.442
  11 str  11  10   1.409
  12 str  12  11   1.409
  13 str  13  12   1.409
  14 str  14  13   1.409
  15 str  15  14   1.403
  16 str  16  15   1.387
  17 str  17  16   1.408
  18 str  18   5   1.437
  19 str  18  13   1.442
  20 str  18  17   1.408
  21 str  19   4   1.407
  22 str  20   1   1.394
  23 str  20  19   1.391
  24 str  21   1   1.084
  25 str  22   2   1.085
  26 str  23   3   1.084
  27 str  24   7   1.081
  28 str  25   8   1.084
  29 str  26   9   1.084
  30 str  27  10   1.085
  31 str  28  12   1.086
  32 str  29  14   1.085
  33 str  30  15   1.084
  34 str  31  16   1.084
  35 str  32  17   1.081
  36 str  33  19   1.084
  37 str  34  20   1.085
 nber stretches=          37
  38 ben   1   2   3
  39 prop tor   1   2   3   4
  40 prop tor   1   2   3  23
  41 ben   1   2  22
  42 ben   1  20  19
  43 ben   1  20  34
  44 ben   2   1  20
  45 prop tor   2   1  20  19
  46 prop tor   2   1  20  34
  47 ben   2   1  21
  48 ben   2   3   4
  49 prop tor   2   3   4   5
  50 prop tor   2   3   4  19
  51 ben   2   3  23
  52 ben   3   2  22
  53 ben   3   4   5
  54 prop tor   3   4   5   6
  55 prop tor   3   4   5  18
  56 ben   3   4  19
  57 prop tor   3   4  19  20
  58 prop tor   3   4  19  33
  59 ben   4   3  23
  60 ben   4   5   6
  61 prop tor   4   5   6   7
  62 prop tor   4   5   6  11
  63 ben   4   5  18
  64 prop tor   4   5  18  13
  65 prop tor   4   5  18  17
  66 ben   4  19  20
  67 prop tor   4  19  20   1
  68 prop tor   4  19  20  34
  69 ben   4  19  33
  70 ben   5   4  19
  71 prop tor   5   4  19  20
  72 prop tor   5   4  19  33
  73 ben   5   6   7
  74 prop tor   5   6   7   8
  75 prop tor   5   6   7  24
  76 ben   5   6  11
  77 prop tor   5   6  11  10
  78 prop tor   5   6  11  12
  79 ben   5  18  13
  80 ben   5  18  17
  81 ben   6   5  18
  82 prop tor   6   5  18  13
  83 prop tor   6   5  18  17
  84 ben   6   7   8
  85 prop tor   6   7   8   9
  86 prop tor   6   7   8  25
  87 ben   6   7  24
  88 ben   6  11  10
  89 ben   6  11  12
  90 prop tor   6  11  12  13
  91 prop tor   6  11  12  28
  92 ben   7   6  11
  93 prop tor   7   6  11  10
  94 prop tor   7   6  11  12
  95 ben   7   8   9
  96 prop tor   7   8   9  10
  97 prop tor   7   8   9  26
  98 ben   7   8  25
  99 ben   8   7  24
 100 ben   8   9  10
 101 prop tor   8   9  10  11
 102 prop tor   8   9  10  27
 103 ben   8   9  26
 104 ben   9   8  25
 105 ben   9  10  11
 106 prop tor   9  10  11   6
 107 prop tor   9  10  11  12
 108 ben   9  10  27
 109 ben  10   9  26
 110 ben  10  11  12
 111 prop tor  10  11  12  13
 112 prop tor  10  11  12  28
 113 prop tor  11   6   7   8
 114 prop tor  11   6   7  24
 115 ben  11  10  27
 116 ben  11  12  13
 117 prop tor  11  12  13  14
 118 prop tor  11  12  13  18
 119 ben  11  12  28
 120 ben  12  13  14
 121 prop tor  12  13  14  15
 122 prop tor  12  13  14  29
 123 ben  12  13  18
 124 prop tor  12  13  18   5
 125 prop tor  12  13  18  17
 126 ben  13  12  28
 127 ben  13  14  15
 128 prop tor  13  14  15  16
 129 prop tor  13  14  15  30
 130 ben  13  14  29
 131 ben  13  18  17
 132 ben  14  13  18
 133 prop tor  14  13  18   5
 134 prop tor  14  13  18  17
 135 ben  14  15  16
 136 prop tor  14  15  16  17
 137 prop tor  14  15  16  31
 138 ben  14  15  30
 139 ben  15  14  29
 140 ben  15  16  17
 141 prop tor  15  16  17  18
 142 prop tor  15  16  17  32
 143 ben  15  16  31
 144 ben  16  15  30
 145 ben  16  17  18
 146 prop tor  16  17  18   5
 147 prop tor  16  17  18  13
 148 ben  16  17  32
 149 ben  17  16  31
 150 prop tor  18   5   6   7
 151 prop tor  18   5   6  11
 152 prop tor  18  13  14  15
 153 prop tor  18  13  14  29
 154 ben  18  17  32
 155 prop tor  19   4   5   6
 156 prop tor  19   4   5  18
 157 ben  19  20  34
 158 prop tor  20   1   2   3
 159 prop tor  20   1   2  22
 160 ben  20   1  21
 161 ben  20  19  33
 162 prop tor  21   1   2   3
 163 prop tor  21   1   2  22
 164 prop tor  21   1  20  19
 165 prop tor  21   1  20  34
 166 prop tor  22   2   3   4
 167 prop tor  22   2   3  23
 168 prop tor  23   3   4   5
 169 prop tor  23   3   4  19
 170 prop tor  24   7   8   9
 171 prop tor  24   7   8  25
 172 prop tor  25   8   9  10
 173 prop tor  25   8   9  26
 174 prop tor  26   9  10  11
 175 prop tor  26   9  10  27
 176 prop tor  27  10  11   6
 177 prop tor  27  10  11  12
 178 prop tor  28  12  13  14
 179 prop tor  28  12  13  18
 180 prop tor  29  14  15  16
 181 prop tor  29  14  15  30
 182 prop tor  30  15  16  17
 183 prop tor  30  15  16  31
 184 prop tor  31  16  17  18
 185 prop tor  31  16  17  32
 186 prop tor  32  17  18   5
 187 prop tor  32  17  18  13
 188 prop tor  33  19  20   1
 189 prop tor  33  19  20  34
 nber bend=              60
 nber lin bend=           0
 nber prop tor=          92
 nber impr tor=           0
 nber tot redund int=         189
 Eigenvalues of G in red int coords
    Gval -0.00000000 -0.00000000 -0.00000000 -0.00000000 -0.00000000 -0.00000000 -0.00000000 -0.00000000
    Gval -0.00000000 -0.00000000 -0.00000000 -0.00000000 -0.00000000 -0.00000000 -0.00000000 -0.00000000
    Gval -0.00000000 -0.00000000 -0.00000000 -0.00000000 -0.00000000 -0.00000000 -0.00000000 -0.00000000
    Gval -0.00000000 -0.00000000 -0.00000000 -0.00000000 -0.00000000 -0.00000000 -0.00000000 -0.00000000
    Gval -0.00000000 -0.00000000 -0.00000000 -0.00000000 -0.00000000 -0.00000000 -0.00000000 -0.00000000
    Gval -0.00000000 -0.00000000 -0.00000000 -0.00000000 -0.00000000 -0.00000000 -0.00000000  0.00000000
    Gval  0.00000000  0.00000000  0.00000000  0.00000000  0.00000000  0.00000000  0.00000000  0.00000000
    Gval  0.00000000  0.00000000  0.00000000  0.00000000  0.00000000  0.00000000  0.00000000  0.00000000
    Gval  0.00000000  0.00000000  0.00000000  0.00000000  0.00000000  0.00000000  0.00000000  0.00000000
    Gval  0.00000000  0.00000000  0.00000000  0.00000000  0.00000000  0.00000000  0.00000000  0.00000000
    Gval  0.00000000  0.00000000  0.00000000  0.00000000  0.00000000  0.00000000  0.00000000  0.00000000
    Gval  0.00000000  0.00000000  0.00000000  0.00000000  0.00000000  0.00000203  0.00000398  0.00000834
    Gval  0.00000961  0.00001217  0.00002271  0.00002428  0.00002816  0.00003416  0.00004105  0.00004272
    Gval  0.00004811  0.00004866  0.00005417  0.00005690  0.00006061  0.00007163  0.00007171  0.00007567
    Gval  0.00007930  0.00009305  0.00009698  0.00010115  0.00011581  0.00011809  0.00012486  0.00012733
    Gval  0.00014886  0.00017815  0.00018561  0.00021216  0.00022755  0.00025588  0.00025875  0.00027227
    Gval  0.00029722  0.00032441  0.00035314  0.00036360  0.00038244  0.00039987  0.00041529  0.00041898
    Gval  0.00045249  0.00052748  0.00053335  0.00059306  0.00059319  0.00059320  0.00059360  0.00059703
    Gval  0.00059718  0.00060438  0.00061352  0.00061743  0.00062354  0.00063555  0.00065372  0.00065720
    Gval  0.00066059  0.00077379  0.00078208  0.00082052  0.00097083  0.00103853  0.00105315  0.00105494
    Gval  0.00110823  0.00111529  0.00112013  0.00112212  0.00113591  0.00115675  0.00115686  0.00116991
    Gval  0.00117206  0.00117244  0.00117245  0.00122136  0.00143476  0.00177653  0.00178099  0.00180657
    Gval  0.00181669  0.00220887  0.00233648  0.00267589  0.00267961  0.00308284  0.00312465  0.00347457
    Gval  0.00353751  0.00373295  0.00401750  0.00402374  0.00406704
  2.034963934131702E-006  2.034963934131702E-006
  3.975036275093469E-006  2.034963934131702E-006
  8.337220607347738E-006  2.034963934131702E-006
  9.608038871511729E-006  2.034963934131702E-006
  1.217224321874631E-005  2.034963934131702E-006
  2.271336862628839E-005  2.034963934131702E-006
  2.428283316556025E-005  2.034963934131702E-006
  2.816138990618172E-005  2.034963934131702E-006
  3.416273312762799E-005  2.034963934131702E-006
  4.105220403158117E-005  2.034963934131702E-006
  4.271633394321057E-005  2.034963934131702E-006
  4.811190508354030E-005  2.034963934131702E-006
  4.866297051465158E-005  2.034963934131702E-006
  5.417033715531794E-005  2.034963934131702E-006
  5.689516053672479E-005  2.034963934131702E-006
  6.060675498046186E-005  2.034963934131702E-006
  7.162932316615847E-005  2.034963934131702E-006
  7.170727636899909E-005  2.034963934131702E-006
  7.567393695977381E-005  2.034963934131702E-006
  7.930139641713441E-005  2.034963934131702E-006
  9.305451892976939E-005  2.034963934131702E-006
  9.698235822406659E-005  2.034963934131702E-006
  1.011453575770323E-004  2.034963934131702E-006
  1.158080104153436E-004  2.034963934131702E-006
  1.180892330842470E-004  2.034963934131702E-006
  1.248557751207585E-004  2.034963934131702E-006
  1.273301059297230E-004  2.034963934131702E-006
  1.488611018936875E-004  2.034963934131702E-006
  1.781479459703306E-004  2.034963934131702E-006
  1.856132156011965E-004  2.034963934131702E-006
  2.121636670120105E-004  2.034963934131702E-006
  2.275541310984079E-004  2.034963934131702E-006
  2.558774932097490E-004  2.034963934131702E-006
  2.587450683519358E-004  2.034963934131702E-006
  2.722671965288178E-004  2.034963934131702E-006
  2.972170696755534E-004  2.034963934131702E-006
  3.244105844599845E-004  2.034963934131702E-006
  3.531422199873916E-004  2.034963934131702E-006
  3.636035820890556E-004  2.034963934131702E-006
  3.824391359237890E-004  2.034963934131702E-006
  3.998707978167871E-004  2.034963934131702E-006
  4.152876746610184E-004  2.034963934131702E-006
  4.189800965792288E-004  2.034963934131702E-006
  4.524904419963578E-004  2.034963934131702E-006
  5.274782924497850E-004  2.034963934131702E-006
  5.333531819408313E-004  2.034963934131702E-006
  5.930630775902861E-004  2.034963934131702E-006
  5.931937991881260E-004  2.034963934131702E-006
  5.932038932314564E-004  2.034963934131702E-006
  5.936001796560200E-004  2.034963934131702E-006
  5.970306579755702E-004  2.034963934131702E-006
  5.971796255316337E-004  2.034963934131702E-006
  6.043769999819856E-004  2.034963934131702E-006
  6.135193109648591E-004  2.034963934131702E-006
  6.174320170385858E-004  2.034963934131702E-006
  6.235369251279577E-004  2.034963934131702E-006
  6.355453381087832E-004  2.034963934131702E-006
  6.537244346962824E-004  2.034963934131702E-006
  6.572036618631103E-004  2.034963934131702E-006
  6.605939642929268E-004  2.034963934131702E-006
  7.737880055220651E-004  2.034963934131702E-006
  7.820786351477240E-004  2.034963934131702E-006
  8.205242551407439E-004  2.034963934131702E-006
  9.708347445066019E-004  2.034963934131702E-006
  1.038528268590030E-003  2.034963934131702E-006
  1.053149734449642E-003  2.034963934131702E-006
  1.054935686460203E-003  2.034963934131702E-006
  1.108225886884926E-003  2.034963934131702E-006
  1.115291494518278E-003  2.034963934131702E-006
  1.120132000978543E-003  2.034963934131702E-006
  1.122115575359832E-003  2.034963934131702E-006
  1.135914250585417E-003  2.034963934131702E-006
  1.156753969727680E-003  2.034963934131702E-006
  1.156859681602930E-003  2.034963934131702E-006
  1.169912973861664E-003  2.034963934131702E-006
  1.172063068283853E-003  2.034963934131702E-006
  1.172443968998917E-003  2.034963934131702E-006
  1.172447190868320E-003  2.034963934131702E-006
  1.221359764700308E-003  2.034963934131702E-006
  1.434758116153112E-003  2.034963934131702E-006
  1.776532711820075E-003  2.034963934131702E-006
  1.780992484181660E-003  2.034963934131702E-006
  1.806573111320687E-003  2.034963934131702E-006
  1.816686521392332E-003  2.034963934131702E-006
  2.208872665527510E-003  2.034963934131702E-006
  2.336476031528282E-003  2.034963934131702E-006
  2.675890960075287E-003  2.034963934131702E-006
  2.679605254325612E-003  2.034963934131702E-006
  3.082838174417600E-003  2.034963934131702E-006
  3.124651110703698E-003  2.034963934131702E-006
  3.474567204726428E-003  2.034963934131702E-006
  3.537507421491668E-003  2.034963934131702E-006
  3.732954910052120E-003  2.034963934131702E-006
  4.017495821814794E-003  2.034963934131702E-006
  4.023744059076775E-003  2.034963934131702E-006
  4.067038650540293E-003  2.034963934131702E-006
 cut=1d-8, nber non-redundant internal coords=          96
 Check on Eigenvals of non-red overlap matrix:
  0.00000203  0.00000398  0.00000834  0.00000961  0.00001217  0.00002271  0.00002428  0.00002816
  0.00003416  0.00004105  0.00004272  0.00004811  0.00004866  0.00005417  0.00005690  0.00006061
  0.00007163  0.00007171  0.00007567  0.00007930  0.00009305  0.00009698  0.00010115  0.00011581
  0.00011809  0.00012486  0.00012733  0.00014886  0.00017815  0.00018561  0.00021216  0.00022755
  0.00025588  0.00025875  0.00027227  0.00029722  0.00032441  0.00035314  0.00036360  0.00038244
  0.00039987  0.00041529  0.00041898  0.00045249  0.00052748  0.00053335  0.00059306  0.00059319
  0.00059320  0.00059360  0.00059703  0.00059718  0.00060438  0.00061352  0.00061743  0.00062354
  0.00063555  0.00065372  0.00065720  0.00066059  0.00077379  0.00078208  0.00082052  0.00097083
  0.00103853  0.00105315  0.00105494  0.00110823  0.00111529  0.00112013  0.00112212  0.00113591
  0.00115675  0.00115686  0.00116991  0.00117206  0.00117244  0.00117245  0.00122136  0.00143476
  0.00177653  0.00178099  0.00180657  0.00181669  0.00220887  0.00233648  0.00267589  0.00267961
  0.00308284  0.00312465  0.00347457  0.00353751  0.00373295  0.00401750  0.00402374  0.00406704
 Checking for correct frequencies
 recalc frequencies=
    -0.0   -0.0    0.0    0.0    0.0    0.0   49.7   51.8   73.8   91.4
   113.7  201.1  212.0  237.7  261.3  301.3  312.5  387.7  395.7  405.4
   412.5  442.9  488.1  513.3  516.7  580.9  610.7  612.8  618.0  636.2
   654.3  696.5  710.2  714.1  722.7  728.1  736.6  776.6  806.9  832.2
   842.9  859.9  870.8  872.3  904.7  906.1  924.2  942.7  947.0  947.3
   950.2  986.3 1000.5 1013.0 1049.4 1057.2 1062.9 1095.7 1101.7 1129.4
  1176.3 1181.3 1185.2 1188.9 1202.4 1212.8 1270.7 1279.2 1299.7 1301.3
  1328.9 1350.7 1354.2 1387.4 1406.3 1425.9 1450.6 1462.0 1471.5 1515.8
  1525.5 1529.0 1543.6 1573.0 1592.4 1597.4 1601.6 1629.9 3152.7 3159.5
  3161.9 3163.0 3166.6 3172.7 3173.1 3178.3 3183.5 3189.0 3189.4 3190.1
  3205.2 3205.9
 recalc symmetries=
                                                                       
                                                                       
                                                                       
                                                                       
                                                                       
                                                                       
                                                                       
                                                                       
                                                                       
                                                                       
               
 recalc freqs check OK
 Zero-point lengths:
 10.0000 10.0000 10.0000 10.0000 10.0000 10.0000 35.1577 34.4331 28.8679 25.9266
 23.2486 17.4839 17.0286 16.0782 15.3357 14.2814 14.0239 12.5912 12.4626 12.3121
 12.2056 11.7794 11.2216 10.9420 10.9059 10.2860 10.0319 10.0143  9.9726  9.8287
  9.6917  9.3934  9.3027  9.2770  9.2220  9.1873  9.1345  8.8961  8.7273  8.5937
  8.5388  8.4544  8.4009  8.3939  8.2420  8.2359  8.1550  8.0744  8.0559  8.0549
  8.0425  7.8940  7.8377  7.7890  7.6530  7.6245  7.6043  7.4895  7.4689  7.3768
  7.2283  7.2131  7.2010  7.1900  7.1494  7.1187  6.9547  6.9316  6.8766  6.8724
  6.8006  6.7455  6.7368  6.6558  6.6108  6.5652  6.5092  6.4836  6.4626  6.3676
  6.3473  6.3401  6.3100  6.2507  6.2124  6.2029  6.1946  6.1407  4.4153  4.4105
  4.4088  4.4080  4.4056  4.4013  4.4010  4.3974  4.3938  4.3901  4.3897  4.3893
  4.3789  4.3785
 highest evec of mol 2
  0.0029  0.0001 -0.0002
  0.0023 -0.0016  0.0026
 -0.0035 -0.0043  0.0071
 -0.0015 -0.0004  0.0002
  0.0032  0.0000 -0.0003
 -0.0016  0.0047  0.0011
  0.1525  0.0043 -0.0259
  0.0267 -0.0472 -0.0096
 -0.0141 -0.0203 -0.0005
 -0.0084  0.0008  0.0011
 -0.0011  0.0002  0.0001
 -0.0021 -0.0002  0.0002
 -0.0014 -0.0004  0.0001
 -0.0111 -0.0023  0.0005
 -0.0224  0.0258  0.0043
  0.0322  0.0704  0.0074
  0.2194  0.0175 -0.0014
 -0.0017 -0.0064 -0.0011
 -0.0066  0.0050 -0.0085
  0.0019  0.0021 -0.0035
 -0.0084 -0.0004  0.0007
 -0.0068  0.0053 -0.0077
  0.0123  0.0159 -0.0228
 -0.5089 -0.0139  0.0845
 -0.0896  0.1443  0.0310
  0.0366  0.0651  0.0024
  0.0262  0.0005 -0.0029
  0.0076  0.0005 -0.0006
  0.0349  0.0032 -0.0022
  0.0589 -0.0845 -0.0129
 -0.1095 -0.2162 -0.0232
 -0.7322 -0.0591  0.0073
  0.0235 -0.0188  0.0266
 -0.0055 -0.0069  0.0102
 Enter nber and list of atoms to keep of mol #2
 keep list:          34           1           2           3           4
           5           6           7           8           9          10
          11          12          13          14          15          16
          17          18          19          20          21          22
          23          24          25          26          27          28
          29          30          31          32          33          34
 reordering atoms
           1  -4.44686802346957     
           2  -3.74415109127826     
           3  -2.35338869812988     
           4  -1.62803956720167     
           5 -0.147861473796523     
           6  0.561883636874010     
           7 -7.732432832132867E-002
           8  0.648618845801311     
           9   2.03378565227757     
          10   2.70543979602684     
          11   2.00389984362810     
          12   2.67712273186980     
          13   2.00289238195979     
          14   2.70338753758493     
          15   2.03072473329242     
          16  0.645610107945242     
          17 -7.928731386851176E-002
          18  0.560896773112071     
          19  -2.35329550070121     
          20  -3.74404604360513     
          21  -5.53094424311436     
          22  -4.28104073636713     
          23  -1.81400028570712     
          24  -1.15472170898068     
          25  0.113624328979620     
          26   2.59847075660552     
          27   3.78968040106846     
          28   3.76315129078257     
          29   3.78762243803692     
          30   2.59462209384395     
          31  0.109870914210632     
          32  -1.15662222110401     
          33  -1.81382245455423     
          34  -4.28084739756414     
           1           1
           2           2
           3           3
           4           4
           5           5
           6           6
           7           7
           8           8
           9           9
          10          10
          11          11
          12          12
          13          13
          14          14
          15          15
          16          16
          17          17
          18          18
          19          19
          20          20
          21          21
          22          22
          23          23
          24          24
          25          25
          26          26
          27          27
          28          28
          29          29
          30          30
          31          31
          32          32
          33          33
          34          34
 initial cartes coords mol 1
   6  -0.00014  -0.00160  -4.43986
   6  -1.20442  -0.01064  -3.73923
   6  -1.20390  -0.01030  -2.34584
   6   0.00007  -0.00092  -1.63178
   6   0.00012  -0.00020  -0.13446
   6   0.00072  -1.22386   0.56897
   6   0.00200  -2.49266  -0.09395
   6   0.00247  -3.66237   0.61381
   6   0.00182  -3.65112   2.03654
   6   0.00100  -2.46392   2.71137
   6   0.00053  -1.21747   2.01267
   6   0.00003   0.00128   2.69300
   6  -0.00045   1.21932   2.01141
   6  -0.00110   2.46649   2.70882
   6  -0.00203   3.65300   2.03277
   6  -0.00252   3.66276   0.61003
   6  -0.00187   2.49232  -0.09651
   6  -0.00054   1.22420   0.56770
   6   1.20395   0.00801  -2.34603
   6   1.20425   0.00769  -3.73942
   1  -0.00022  -0.00181  -5.52407
   1  -2.14620  -0.01786  -4.27682
   1  -2.14230  -0.01720  -1.80245
   1   0.00269  -2.51477  -1.17608
   1   0.00346  -4.61111   0.08882
   1   0.00216  -4.58945   2.57970
   1   0.00069  -2.44558   3.79628
   1  -0.00003   0.00184   3.77876
   1  -0.00092   2.44926   3.79375
   1  -0.00254   4.59189   2.57496
   1  -0.00357   4.61095   0.08406
   1  -0.00243   2.51334  -1.17866
   1   2.14245   0.01519  -1.80281
   1   2.14596   0.01464  -4.27715
 initial cartes coords mol 2
   6   0.00056   0.00134  -4.44687
   6  -1.03598   0.61472  -3.74415
   6  -1.03301   0.62167  -2.35339
   6   0.00000   0.00065  -1.62804
   6  -0.00022   0.00015  -0.14786
   6   0.03344   1.24937   0.56188
   6   0.14286   2.49946  -0.07732
   6   0.15909   3.70603   0.64862
   6   0.09551   3.68891   2.03379
   6   0.03095   2.45868   2.70544
   6   0.01163   1.23672   2.00390
   6   0.00069  -0.00102   2.67712
   6  -0.01101  -1.23820   2.00289
   6  -0.02999  -2.46076   2.70339
   6  -0.09559  -3.69039   2.03072
   6  -0.16056  -3.70629   0.64561
   6  -0.14457  -2.49909  -0.07929
   6  -0.03397  -1.24961   0.56090
   6   1.03332  -0.61999  -2.35330
   6   1.03686  -0.61234  -3.74405
   1   0.00077   0.00161  -5.53094
   1  -1.85177   1.08631  -4.28104
   1  -1.84714   1.09184  -1.81400
   1   0.22697   2.53938  -1.15472
   1   0.22913   4.64593   0.11362
   1   0.10591   4.61376   2.59847
   1   0.00405   2.43547   3.78968
   1   0.00110  -0.00146   3.76315
   1  -0.00206  -2.43850   3.78762
   1  -0.10575  -4.61573   2.59462
   1  -0.23153  -4.64570   0.10987
   1  -0.22989  -2.53799  -1.15662
   1   1.84729  -1.09034  -1.81382
   1   1.85287  -1.08363  -4.28085
 loop 1 0
 mod cartes coords mol 2
   6   0.00056   0.00134  -4.44687
   6  -1.03598   0.61472  -3.74415
   6  -1.03301   0.62167  -2.35339
   6   0.00000   0.00065  -1.62804
   6  -0.00022   0.00015  -0.14786
   6   0.03344   1.24937   0.56188
   6   0.14286   2.49946  -0.07732
   6   0.15909   3.70603   0.64862
   6   0.09551   3.68891   2.03379
   6   0.03095   2.45868   2.70544
   6   0.01163   1.23672   2.00390
   6   0.00069  -0.00102   2.67712
   6  -0.01101  -1.23820   2.00289
   6  -0.02999  -2.46076   2.70339
   6  -0.09559  -3.69039   2.03072
   6  -0.16056  -3.70629   0.64561
   6  -0.14457  -2.49909  -0.07929
   6  -0.03397  -1.24961   0.56090
   6   1.03332  -0.61999  -2.35330
   6   1.03686  -0.61234  -3.74405
   1   0.00077   0.00161  -5.53094
   1  -1.85177   1.08631  -4.28104
   1  -1.84714   1.09184  -1.81400
   1   0.22697   2.53938  -1.15472
   1   0.22913   4.64593   0.11362
   1   0.10591   4.61376   2.59847
   1   0.00405   2.43547   3.78968
   1   0.00110  -0.00146   3.76315
   1  -0.00206  -2.43850   3.78762
   1  -0.10575  -4.61573   2.59462
   1  -0.23153  -4.64570   0.10987
   1  -0.22989  -2.53799  -1.15662
   1   1.84729  -1.09034  -1.81382
   1   1.85287  -1.08363  -4.28085
 read in order, maxerr=  9.26 for atom  25
 loop 1 1
 mod cartes coords mol 2
   6  -0.00056   0.00134  -4.44687
   6   1.03598   0.61472  -3.74415
   6   1.03301   0.62167  -2.35339
   6  -0.00000   0.00065  -1.62804
   6   0.00022   0.00015  -0.14786
   6  -0.03344   1.24937   0.56188
   6  -0.14286   2.49946  -0.07732
   6  -0.15909   3.70603   0.64862
   6  -0.09551   3.68891   2.03379
   6  -0.03095   2.45868   2.70544
   6  -0.01163   1.23672   2.00390
   6  -0.00069  -0.00102   2.67712
   6   0.01101  -1.23820   2.00289
   6   0.02999  -2.46076   2.70339
   6   0.09559  -3.69039   2.03072
   6   0.16056  -3.70629   0.64561
   6   0.14457  -2.49909  -0.07929
   6   0.03397  -1.24961   0.56090
   6  -1.03332  -0.61999  -2.35330
   6  -1.03686  -0.61234  -3.74405
   1  -0.00077   0.00161  -5.53094
   1   1.85177   1.08631  -4.28104
   1   1.84714   1.09184  -1.81400
   1  -0.22697   2.53938  -1.15472
   1  -0.22913   4.64593   0.11362
   1  -0.10591   4.61376   2.59847
   1  -0.00405   2.43547   3.78968
   1  -0.00110  -0.00146   3.76315
   1   0.00206  -2.43850   3.78762
   1   0.10575  -4.61573   2.59462
   1   0.23153  -4.64570   0.10987
   1   0.22989  -2.53799  -1.15662
   1  -1.84729  -1.09034  -1.81382
   1  -1.85287  -1.08363  -4.28085
 read in order, maxerr=  9.26 for atom  25
 loop 1 2
 mod cartes coords mol 2
   6   0.00056  -0.00134  -4.44687
   6  -1.03598  -0.61472  -3.74415
   6  -1.03301  -0.62167  -2.35339
   6   0.00000  -0.00065  -1.62804
   6  -0.00022  -0.00015  -0.14786
   6   0.03344  -1.24937   0.56188
   6   0.14286  -2.49946  -0.07732
   6   0.15909  -3.70603   0.64862
   6   0.09551  -3.68891   2.03379
   6   0.03095  -2.45868   2.70544
   6   0.01163  -1.23672   2.00390
   6   0.00069   0.00102   2.67712
   6  -0.01101   1.23820   2.00289
   6  -0.02999   2.46076   2.70339
   6  -0.09559   3.69039   2.03072
   6  -0.16056   3.70629   0.64561
   6  -0.14457   2.49909  -0.07929
   6  -0.03397   1.24961   0.56090
   6   1.03332   0.61999  -2.35330
   6   1.03686   0.61234  -3.74405
   1   0.00077  -0.00161  -5.53094
   1  -1.85177  -1.08631  -4.28104
   1  -1.84714  -1.09184  -1.81400
   1   0.22697  -2.53938  -1.15472
   1   0.22913  -4.64593   0.11362
   1   0.10591  -4.61376   2.59847
   1   0.00405  -2.43547   3.78968
   1   0.00110   0.00146   3.76315
   1  -0.00206   2.43850   3.78762
   1  -0.10575   4.61573   2.59462
   1  -0.23153   4.64570   0.10987
   1  -0.22989   2.53799  -1.15662
   1   1.84729   1.09034  -1.81382
   1   1.85287   1.08363  -4.28085
 read in order, maxerr=  1.11 for atom  33
 loop 1 3
 mod cartes coords mol 2
   6  -0.00056  -0.00134  -4.44687
   6   1.03598  -0.61472  -3.74415
   6   1.03301  -0.62167  -2.35339
   6  -0.00000  -0.00065  -1.62804
   6   0.00022  -0.00015  -0.14786
   6  -0.03344  -1.24937   0.56188
   6  -0.14286  -2.49946  -0.07732
   6  -0.15909  -3.70603   0.64862
   6  -0.09551  -3.68891   2.03379
   6  -0.03095  -2.45868   2.70544
   6  -0.01163  -1.23672   2.00390
   6  -0.00069   0.00102   2.67712
   6   0.01101   1.23820   2.00289
   6   0.02999   2.46076   2.70339
   6   0.09559   3.69039   2.03072
   6   0.16056   3.70629   0.64561
   6   0.14457   2.49909  -0.07929
   6   0.03397   1.24961   0.56090
   6  -1.03332   0.61999  -2.35330
   6  -1.03686   0.61234  -3.74405
   1  -0.00077  -0.00161  -5.53094
   1   1.85177  -1.08631  -4.28104
   1   1.84714  -1.09184  -1.81400
   1  -0.22697  -2.53938  -1.15472
   1  -0.22913  -4.64593   0.11362
   1  -0.10591  -4.61376   2.59847
   1  -0.00405  -2.43547   3.78968
   1  -0.00110   0.00146   3.76315
   1   0.00206   2.43850   3.78762
   1   0.10575   4.61573   2.59462
   1   0.23153   4.64570   0.10987
   1   0.22989   2.53799  -1.15662
   1  -1.84729   1.09034  -1.81382
   1  -1.85287   1.08363  -4.28085
 read in order, maxerr=  4.14 for atom  34
 loop 1 4
 mod cartes coords mol 2
   6   0.00056   0.00134   4.44687
   6  -1.03598   0.61472   3.74415
   6  -1.03301   0.62167   2.35339
   6   0.00000   0.00065   1.62804
   6  -0.00022   0.00015   0.14786
   6   0.03344   1.24937  -0.56188
   6   0.14286   2.49946   0.07732
   6   0.15909   3.70603  -0.64862
   6   0.09551   3.68891  -2.03379
   6   0.03095   2.45868  -2.70544
   6   0.01163   1.23672  -2.00390
   6   0.00069  -0.00102  -2.67712
   6  -0.01101  -1.23820  -2.00289
   6  -0.02999  -2.46076  -2.70339
   6  -0.09559  -3.69039  -2.03072
   6  -0.16056  -3.70629  -0.64561
   6  -0.14457  -2.49909   0.07929
   6  -0.03397  -1.24961  -0.56090
   6   1.03332  -0.61999   2.35330
   6   1.03686  -0.61234   3.74405
   1   0.00077   0.00161   5.53094
   1  -1.85177   1.08631   4.28104
   1  -1.84714   1.09184   1.81400
   1   0.22697   2.53938   1.15472
   1   0.22913   4.64593  -0.11362
   1   0.10591   4.61376  -2.59847
   1   0.00405   2.43547  -3.78968
   1   0.00110  -0.00146  -3.76315
   1  -0.00206  -2.43850  -3.78762
   1  -0.10575  -4.61573  -2.59462
   1  -0.23153  -4.64570  -0.10987
   1  -0.22989  -2.53799   1.15662
   1   1.84729  -1.09034   1.81382
   1   1.85287  -1.08363   4.28085
 read in order, maxerr= 11.06 for atom  21
 loop 1 5
 mod cartes coords mol 2
   6  -0.00056   0.00134   4.44687
   6   1.03598   0.61472   3.74415
   6   1.03301   0.62167   2.35339
   6  -0.00000   0.00065   1.62804
   6   0.00022   0.00015   0.14786
   6  -0.03344   1.24937  -0.56188
   6  -0.14286   2.49946   0.07732
   6  -0.15909   3.70603  -0.64862
   6  -0.09551   3.68891  -2.03379
   6  -0.03095   2.45868  -2.70544
   6  -0.01163   1.23672  -2.00390
   6  -0.00069  -0.00102  -2.67712
   6   0.01101  -1.23820  -2.00289
   6   0.02999  -2.46076  -2.70339
   6   0.09559  -3.69039  -2.03072
   6   0.16056  -3.70629  -0.64561
   6   0.14457  -2.49909   0.07929
   6   0.03397  -1.24961  -0.56090
   6  -1.03332  -0.61999   2.35330
   6  -1.03686  -0.61234   3.74405
   1  -0.00077   0.00161   5.53094
   1   1.85177   1.08631   4.28104
   1   1.84714   1.09184   1.81400
   1  -0.22697   2.53938   1.15472
   1  -0.22913   4.64593  -0.11362
   1  -0.10591   4.61376  -2.59847
   1  -0.00405   2.43547  -3.78968
   1  -0.00110  -0.00146  -3.76315
   1   0.00206  -2.43850  -3.78762
   1   0.10575  -4.61573  -2.59462
   1   0.23153  -4.64570  -0.10987
   1   0.22989  -2.53799   1.15662
   1  -1.84729  -1.09034   1.81382
   1  -1.85287  -1.08363   4.28085
 read in order, maxerr= 11.06 for atom  21
 loop 1 6
 mod cartes coords mol 2
   6   0.00056  -0.00134   4.44687
   6  -1.03598  -0.61472   3.74415
   6  -1.03301  -0.62167   2.35339
   6   0.00000  -0.00065   1.62804
   6  -0.00022  -0.00015   0.14786
   6   0.03344  -1.24937  -0.56188
   6   0.14286  -2.49946   0.07732
   6   0.15909  -3.70603  -0.64862
   6   0.09551  -3.68891  -2.03379
   6   0.03095  -2.45868  -2.70544
   6   0.01163  -1.23672  -2.00390
   6   0.00069   0.00102  -2.67712
   6  -0.01101   1.23820  -2.00289
   6  -0.02999   2.46076  -2.70339
   6  -0.09559   3.69039  -2.03072
   6  -0.16056   3.70629  -0.64561
   6  -0.14457   2.49909   0.07929
   6  -0.03397   1.24961  -0.56090
   6   1.03332   0.61999   2.35330
   6   1.03686   0.61234   3.74405
   1   0.00077  -0.00161   5.53094
   1  -1.85177  -1.08631   4.28104
   1  -1.84714  -1.09184   1.81400
   1   0.22697  -2.53938   1.15472
   1   0.22913  -4.64593  -0.11362
   1   0.10591  -4.61376  -2.59847
   1   0.00405  -2.43547  -3.78968
   1   0.00110   0.00146  -3.76315
   1  -0.00206   2.43850  -3.78762
   1  -0.10575   4.61573  -2.59462
   1  -0.23153   4.64570  -0.10987
   1  -0.22989   2.53799   1.15662
   1   1.84729   1.09034   1.81382
   1   1.85287   1.08363   4.28085
 read in order, maxerr= 11.06 for atom  21
 loop 1 7
 mod cartes coords mol 2
   6  -0.00056  -0.00134   4.44687
   6   1.03598  -0.61472   3.74415
   6   1.03301  -0.62167   2.35339
   6  -0.00000  -0.00065   1.62804
   6   0.00022  -0.00015   0.14786
   6  -0.03344  -1.24937  -0.56188
   6  -0.14286  -2.49946   0.07732
   6  -0.15909  -3.70603  -0.64862
   6  -0.09551  -3.68891  -2.03379
   6  -0.03095  -2.45868  -2.70544
   6  -0.01163  -1.23672  -2.00390
   6  -0.00069   0.00102  -2.67712
   6   0.01101   1.23820  -2.00289
   6   0.02999   2.46076  -2.70339
   6   0.09559   3.69039  -2.03072
   6   0.16056   3.70629  -0.64561
   6   0.14457   2.49909   0.07929
   6   0.03397   1.24961  -0.56090
   6  -1.03332   0.61999   2.35330
   6  -1.03686   0.61234   3.74405
   1  -0.00077  -0.00161   5.53094
   1   1.85177  -1.08631   4.28104
   1   1.84714  -1.09184   1.81400
   1  -0.22697  -2.53938   1.15472
   1  -0.22913  -4.64593  -0.11362
   1  -0.10591  -4.61376  -2.59847
   1  -0.00405  -2.43547  -3.78968
   1  -0.00110   0.00146  -3.76315
   1   0.00206   2.43850  -3.78762
   1   0.10575   4.61573  -2.59462
   1   0.23153   4.64570  -0.10987
   1   0.22989   2.53799   1.15662
   1  -1.84729   1.09034   1.81382
   1  -1.85287   1.08363   4.28085
 read in order, maxerr= 11.06 for atom  21
 loop 2 0
 mod cartes coords mol 2
   6   0.00056  -4.44687   0.00134
   6  -1.03598  -3.74415   0.61472
   6  -1.03301  -2.35339   0.62167
   6   0.00000  -1.62804   0.00065
   6  -0.00022  -0.14786   0.00015
   6   0.03344   0.56188   1.24937
   6   0.14286  -0.07732   2.49946
   6   0.15909   0.64862   3.70603
   6   0.09551   2.03379   3.68891
   6   0.03095   2.70544   2.45868
   6   0.01163   2.00390   1.23672
   6   0.00069   2.67712  -0.00102
   6  -0.01101   2.00289  -1.23820
   6  -0.02999   2.70339  -2.46076
   6  -0.09559   2.03072  -3.69039
   6  -0.16056   0.64561  -3.70629
   6  -0.14457  -0.07929  -2.49909
   6  -0.03397   0.56090  -1.24961
   6   1.03332  -2.35330  -0.61999
   6   1.03686  -3.74405  -0.61234
   1   0.00077  -5.53094   0.00161
   1  -1.85177  -4.28104   1.08631
   1  -1.84714  -1.81400   1.09184
   1   0.22697  -1.15472   2.53938
   1   0.22913   0.11362   4.64593
   1   0.10591   2.59847   4.61376
   1   0.00405   3.78968   2.43547
   1   0.00110   3.76315  -0.00146
   1  -0.00206   3.78762  -2.43850
   1  -0.10575   2.59462  -4.61573
   1  -0.23153   0.10987  -4.64570
   1  -0.22989  -1.15662  -2.53799
   1   1.84729  -1.81382  -1.09034
   1   1.85287  -4.28085  -1.08363
 read in order, maxerr=  7.82 for atom  21
 loop 2 1
 mod cartes coords mol 2
   6  -0.00056  -4.44687   0.00134
   6   1.03598  -3.74415   0.61472
   6   1.03301  -2.35339   0.62167
   6  -0.00000  -1.62804   0.00065
   6   0.00022  -0.14786   0.00015
   6  -0.03344   0.56188   1.24937
   6  -0.14286  -0.07732   2.49946
   6  -0.15909   0.64862   3.70603
   6  -0.09551   2.03379   3.68891
   6  -0.03095   2.70544   2.45868
   6  -0.01163   2.00390   1.23672
   6  -0.00069   2.67712  -0.00102
   6   0.01101   2.00289  -1.23820
   6   0.02999   2.70339  -2.46076
   6   0.09559   2.03072  -3.69039
   6   0.16056   0.64561  -3.70629
   6   0.14457  -0.07929  -2.49909
   6   0.03397   0.56090  -1.24961
   6  -1.03332  -2.35330  -0.61999
   6  -1.03686  -3.74405  -0.61234
   1  -0.00077  -5.53094   0.00161
   1   1.85177  -4.28104   1.08631
   1   1.84714  -1.81400   1.09184
   1  -0.22697  -1.15472   2.53938
   1  -0.22913   0.11362   4.64593
   1  -0.10591   2.59847   4.61376
   1  -0.00405   3.78968   2.43547
   1  -0.00110   3.76315  -0.00146
   1   0.00206   3.78762  -2.43850
   1   0.10575   2.59462  -4.61573
   1   0.23153   0.10987  -4.64570
   1   0.22989  -1.15662  -2.53799
   1  -1.84729  -1.81382  -1.09034
   1  -1.85287  -4.28085  -1.08363
 read in order, maxerr=  7.93 for atom  22
 loop 2 2
 mod cartes coords mol 2
   6   0.00056  -4.44687  -0.00134
   6  -1.03598  -3.74415  -0.61472
   6  -1.03301  -2.35339  -0.62167
   6   0.00000  -1.62804  -0.00065
   6  -0.00022  -0.14786  -0.00015
   6   0.03344   0.56188  -1.24937
   6   0.14286  -0.07732  -2.49946
   6   0.15909   0.64862  -3.70603
   6   0.09551   2.03379  -3.68891
   6   0.03095   2.70544  -2.45868
   6   0.01163   2.00390  -1.23672
   6   0.00069   2.67712   0.00102
   6  -0.01101   2.00289   1.23820
   6  -0.02999   2.70339   2.46076
   6  -0.09559   2.03072   3.69039
   6  -0.16056   0.64561   3.70629
   6  -0.14457  -0.07929   2.49909
   6  -0.03397   0.56090   1.24961
   6   1.03332  -2.35330   0.61999
   6   1.03686  -3.74405   0.61234
   1   0.00077  -5.53094  -0.00161
   1  -1.85177  -4.28104  -1.08631
   1  -1.84714  -1.81400  -1.09184
   1   0.22697  -1.15472  -2.53938
   1   0.22913   0.11362  -4.64593
   1   0.10591   2.59847  -4.61376
   1   0.00405   3.78968  -2.43547
   1   0.00110   3.76315   0.00146
   1  -0.00206   3.78762   2.43850
   1  -0.10575   2.59462   4.61573
   1  -0.23153   0.10987   4.64570
   1  -0.22989  -1.15662   2.53799
   1   1.84729  -1.81382   1.09034
   1   1.85287  -4.28085   1.08363
 read in order, maxerr= 10.17 for atom  26
 loop 2 3
 mod cartes coords mol 2
   6  -0.00056  -4.44687  -0.00134
   6   1.03598  -3.74415  -0.61472
   6   1.03301  -2.35339  -0.62167
   6  -0.00000  -1.62804  -0.00065
   6   0.00022  -0.14786  -0.00015
   6  -0.03344   0.56188  -1.24937
   6  -0.14286  -0.07732  -2.49946
   6  -0.15909   0.64862  -3.70603
   6  -0.09551   2.03379  -3.68891
   6  -0.03095   2.70544  -2.45868
   6  -0.01163   2.00390  -1.23672
   6  -0.00069   2.67712   0.00102
   6   0.01101   2.00289   1.23820
   6   0.02999   2.70339   2.46076
   6   0.09559   2.03072   3.69039
   6   0.16056   0.64561   3.70629
   6   0.14457  -0.07929   2.49909
   6   0.03397   0.56090   1.24961
   6  -1.03332  -2.35330   0.61999
   6  -1.03686  -3.74405   0.61234
   1  -0.00077  -5.53094  -0.00161
   1   1.85177  -4.28104  -1.08631
   1   1.84714  -1.81400  -1.09184
   1  -0.22697  -1.15472  -2.53938
   1  -0.22913   0.11362  -4.64593
   1  -0.10591   2.59847  -4.61376
   1  -0.00405   3.78968  -2.43547
   1  -0.00110   3.76315   0.00146
   1   0.00206   3.78762   2.43850
   1   0.10575   2.59462   4.61573
   1   0.23153   0.10987   4.64570
   1   0.22989  -1.15662   2.53799
   1  -1.84729  -1.81382   1.09034
   1  -1.85287  -4.28085   1.08363
 read in order, maxerr= 10.17 for atom  26
 loop 2 4
 mod cartes coords mol 2
   6   0.00056   4.44687   0.00134
   6  -1.03598   3.74415   0.61472
   6  -1.03301   2.35339   0.62167
   6   0.00000   1.62804   0.00065
   6  -0.00022   0.14786   0.00015
   6   0.03344  -0.56188   1.24937
   6   0.14286   0.07732   2.49946
   6   0.15909  -0.64862   3.70603
   6   0.09551  -2.03379   3.68891
   6   0.03095  -2.70544   2.45868
   6   0.01163  -2.00390   1.23672
   6   0.00069  -2.67712  -0.00102
   6  -0.01101  -2.00289  -1.23820
   6  -0.02999  -2.70339  -2.46076
   6  -0.09559  -2.03072  -3.69039
   6  -0.16056  -0.64561  -3.70629
   6  -0.14457   0.07929  -2.49909
   6  -0.03397  -0.56090  -1.24961
   6   1.03332   2.35330  -0.61999
   6   1.03686   3.74405  -0.61234
   1   0.00077   5.53094   0.00161
   1  -1.85177   4.28104   1.08631
   1  -1.84714   1.81400   1.09184
   1   0.22697   1.15472   2.53938
   1   0.22913  -0.11362   4.64593
   1   0.10591  -2.59847   4.61376
   1   0.00405  -3.78968   2.43547
   1   0.00110  -3.76315  -0.00146
   1  -0.00206  -3.78762  -2.43850
   1  -0.10575  -2.59462  -4.61573
   1  -0.23153  -0.10987  -4.64570
   1  -0.22989   1.15662  -2.53799
   1   1.84729   1.81382  -1.09034
   1   1.85287   4.28085  -1.08363
 read in order, maxerr= 10.17 for atom  30
 loop 2 5
 mod cartes coords mol 2
   6  -0.00056   4.44687   0.00134
   6   1.03598   3.74415   0.61472
   6   1.03301   2.35339   0.62167
   6  -0.00000   1.62804   0.00065
   6   0.00022   0.14786   0.00015
   6  -0.03344  -0.56188   1.24937
   6  -0.14286   0.07732   2.49946
   6  -0.15909  -0.64862   3.70603
   6  -0.09551  -2.03379   3.68891
   6  -0.03095  -2.70544   2.45868
   6  -0.01163  -2.00390   1.23672
   6  -0.00069  -2.67712  -0.00102
   6   0.01101  -2.00289  -1.23820
   6   0.02999  -2.70339  -2.46076
   6   0.09559  -2.03072  -3.69039
   6   0.16056  -0.64561  -3.70629
   6   0.14457   0.07929  -2.49909
   6   0.03397  -0.56090  -1.24961
   6  -1.03332   2.35330  -0.61999
   6  -1.03686   3.74405  -0.61234
   1  -0.00077   5.53094   0.00161
   1   1.85177   4.28104   1.08631
   1   1.84714   1.81400   1.09184
   1  -0.22697   1.15472   2.53938
   1  -0.22913  -0.11362   4.64593
   1  -0.10591  -2.59847   4.61376
   1  -0.00405  -3.78968   2.43547
   1  -0.00110  -3.76315  -0.00146
   1   0.00206  -3.78762  -2.43850
   1   0.10575  -2.59462  -4.61573
   1   0.23153  -0.10987  -4.64570
   1   0.22989   1.15662  -2.53799
   1  -1.84729   1.81382  -1.09034
   1  -1.85287   4.28085  -1.08363
 read in order, maxerr= 10.17 for atom  30
 loop 2 6
 mod cartes coords mol 2
   6   0.00056   4.44687  -0.00134
   6  -1.03598   3.74415  -0.61472
   6  -1.03301   2.35339  -0.62167
   6   0.00000   1.62804  -0.00065
   6  -0.00022   0.14786  -0.00015
   6   0.03344  -0.56188  -1.24937
   6   0.14286   0.07732  -2.49946
   6   0.15909  -0.64862  -3.70603
   6   0.09551  -2.03379  -3.68891
   6   0.03095  -2.70544  -2.45868
   6   0.01163  -2.00390  -1.23672
   6   0.00069  -2.67712   0.00102
   6  -0.01101  -2.00289   1.23820
   6  -0.02999  -2.70339   2.46076
   6  -0.09559  -2.03072   3.69039
   6  -0.16056  -0.64561   3.70629
[...]
                 0.6146    37.8          44       872.
  45       928. -0.9342    87.3   100.2  47       924.
  46       949. -0.9750    95.1    98.9  48       943.
  47       954. -0.4088    16.7    99.7  49       947.
                 0.7661    58.7          51       950.
  48       971. -0.9594    92.0    98.9  45       905.
  49       974.  0.9607    92.3    98.9  46       906.
  50       984.  0.9955    99.1    99.8  52       986.
  51       997.  0.9409    88.5    99.9  50       947.
  52       998. -0.8295    68.8    99.9  49       947.
                -0.3857    14.9          51       950.
  53      1004.  0.9945    98.9    99.9  53      1000.
  54      1017. -0.9961    99.2    99.7  54      1013.
  55      1037. -0.9536    90.9   100.3  56      1057.
  56      1038. -0.9253    85.6   100.3  57      1063.
  57      1052. -0.9970    99.4   100.1  55      1049.
  58      1098.  0.9136    83.5    99.8  59      1102.
  59      1128. -0.9307    86.6    99.6  58      1096.
  60      1164. -0.9379    88.0    99.7  60      1129.
  61      1168. -0.8082    65.3    99.9  61      1176.
                 0.4204    17.7          66      1213.
  62      1182. -0.9982    99.6   100.0  62      1181.
  63      1191.  0.9376    87.9   100.0  63      1185.
  64      1202. -0.9811    96.3   100.1  65      1202.
  65      1203. -0.4894    24.0    99.9  61      1176.
                -0.8061    65.0          66      1213.
  66      1213.  0.8969    80.4   100.1  64      1189.
  67      1249.  0.8813    77.7   100.1  67      1271.
  68      1288. -0.8187    67.0   100.0  68      1279.
                 0.3772    14.2          70      1301.
                -0.3687    13.6          75      1406.
  69      1308. -0.6360    40.4    99.7  69      1300.
                 0.3584    12.8          71      1329.
  70      1310. -0.3322    11.0    99.8  68      1279.
                -0.8062    65.0          70      1301.
                 0.3892    15.1          72      1351.
  71      1341. -0.3258    10.6    99.7  71      1329.
                 0.5385    29.0          74      1387.
  72      1351. -0.9169    84.1   100.0  73      1354.
  73      1379. -0.4046    16.4    99.4  70      1301.
                -0.7895    62.3          72      1351.
                 0.3379    11.4          75      1406.
  74      1402.  0.3996    16.0   100.0  71      1329.
                 0.5016    25.2          74      1387.
                 0.5040    25.4          77      1451.
  75      1414. -0.3473    12.1    99.6  74      1387.
                -0.8875    78.8          76      1426.
  76      1438.  0.3787    14.3    99.4  68      1279.
                -0.3384    11.5          72      1351.
                -0.7898    62.4          75      1406.
  77      1472. -0.8030    64.5    99.8  79      1472.
  78      1477.  0.6625    43.9    99.5  77      1451.
                 0.4326    18.7          84      1573.
  79      1483. -0.9048    81.9   100.3  78      1462.
  80      1516. -0.5909    34.9    99.2  80      1516.
                 0.6443    41.5          82      1529.
                 0.4585    21.0          85      1592.
  81      1529. -0.7824    61.2    99.7  80      1516.
                -0.5391    29.1          82      1529.
  82      1558. -0.3369    11.4    99.3  77      1451.
                 0.3656    13.4          81      1525.
                 0.3612    13.0          83      1544.
                 0.6240    38.9          84      1573.
  83      1596. -0.5022    25.2   100.0  82      1529.
                 0.8339    69.5          85      1592.
  84      1615. -0.8197    67.2   100.4  81      1525.
                 0.4918    24.2          84      1573.
  85      1616. -0.8345    69.6    99.9  87      1602.
  86      1643.  0.9586    91.9   100.1  88      1630.
  87      1659.  0.8623    74.4   100.8  83      1544.
                -0.3702    13.7          84      1573.
  88      1670.  0.8936    79.9   100.9  86      1597.
  89      3154.  0.9511    90.5   100.0  89      3153.
  90      3158.  0.9955    99.1   100.0  91      3162.
  91      3158.  0.9953    99.1   100.0  90      3159.
  92      3159.  0.9421    88.8   100.0  92      3163.
  93      3165.  0.9829    96.6   100.0  93      3167.
  94      3168. -0.9883    97.7   100.0  94      3173.
  95      3169. -0.9840    96.8   100.0  95      3173.
  96      3174. -0.9944    98.9   100.0  96      3178.
  97      3181. -0.9808    96.2   100.0  97      3183.
  98      3183.  0.9890    97.8   100.0  98      3189.
  99      3183. -0.9857    97.2   100.0  99      3189.
 100      3189.  0.9902    98.0   100.0 100      3190.
 101      3199.  0.9847    97.0   100.0 101      3205.
 102      3199.  0.9851    97.0   100.0 102      3206.
 nber times 1st assigned=           1           0
 nber times 1st assigned=           2           0
 nber times 1st assigned=           3           0
 nber times 1st assigned=           4           0
 nber times 1st assigned=           5           0
 nber times 1st assigned=           6           0
 nber times 1st assigned=           7           0
 nber times 1st assigned=           8           0
 nber times 1st assigned=           9           0
 nber times 1st assigned=          10           0
 nber times 1st assigned=          11           0
 nber times 1st assigned=          12           0
 nber times 1st assigned=          13           0
 nber times 1st assigned=          14           0
 nber times 1st assigned=          15           0
 nber times 1st assigned=          16           0
 nber times 1st assigned=          17           0
 nber times 1st assigned=          18           0
 nber times 1st assigned=          19           0
 nber times 1st assigned=          20           0
 nber times 1st assigned=          21           0
 nber times 1st assigned=          22           0
 nber times 1st assigned=          23           0
 nber times 1st assigned=          24           0
 nber times 1st assigned=          25           0
 nber times 1st assigned=          26           0
 nber times 1st assigned=          27           0
 nber times 1st assigned=          28           0
 nber times 1st assigned=          29           0
 nber times 1st assigned=          30           0
 nber times 1st assigned=          31           0
 nber times 1st assigned=          32           0
 nber times 1st assigned=          33           0
 nber times 1st assigned=          34           0
 nber times 1st assigned=          35           0
 nber times 1st assigned=          36           0
 nber times 1st assigned=          37           0
 nber times 1st assigned=          38           0
 nber times 1st assigned=          39           0
 nber times 1st assigned=          40           0
 nber times 1st assigned=          41           0
 nber times 1st assigned=          42           0
 nber times 1st assigned=          43           0
 nber times 1st assigned=          44           0
 nber times 1st assigned=          45           0
 nber times 1st assigned=          46           0
 nber times 1st assigned=          47           0
 nber times 1st assigned=          48           0
 nber times 1st assigned=          49           0
 nber times 1st assigned=          50           0
 nber times 1st assigned=          51           0
 nber times 1st assigned=          52           0
 nber times 1st assigned=          53           0
 nber times 1st assigned=          54           0
 nber times 1st assigned=          55           0
 nber times 1st assigned=          56           0
 nber times 1st assigned=          57           0
 nber times 1st assigned=          58           0
 nber times 1st assigned=          59           0
 nber times 1st assigned=          60           0
 nber times 1st assigned=          61           0
 nber times 1st assigned=          62           0
 nber times 1st assigned=          63           0
 nber times 1st assigned=          64           0
 nber times 1st assigned=          65           0
 nber times 1st assigned=          66           0
 nber times 1st assigned=          67           0
 nber times 1st assigned=          68           0
 nber times 1st assigned=          69           0
 nber times 1st assigned=          70           0
 nber times 1st assigned=          71           0
 nber times 1st assigned=          72           0
 nber times 1st assigned=          73           0
 nber times 1st assigned=          74           0
 nber times 1st assigned=          75           0
 nber times 1st assigned=          76           0
 nber times 1st assigned=          77           0
 nber times 1st assigned=          78           0
 nber times 1st assigned=          79           0
 nber times 1st assigned=          80           0
 nber times 1st assigned=          81           0
 nber times 1st assigned=          82           0
 nber times 1st assigned=          83           0
 nber times 1st assigned=          84           0
 nber times 1st assigned=          85           0
 nber times 1st assigned=          86           0
 nber times 1st assigned=          87           0
 nber times 1st assigned=          88           0
 nber times 1st assigned=          89           0
 nber times 1st assigned=          90           0
 nber times 1st assigned=          91           0
 nber times 1st assigned=          92           0
 nber times 1st assigned=          93           0
 nber times 1st assigned=          94           0
 nber times 1st assigned=          95           0
 nber times 1st assigned=          96           0
 nber times 1st assigned=          97           0
 nber times 1st assigned=          98           0
 nber times 1st assigned=          99           0
 nber times 1st assigned=         100           0
 nber times 1st assigned=         101           0
 nber times 1st assigned=         102           0
 modes represented=   102.480982984236     
 p1=
   -0.   -0.   -0.   -0.   -0.    0. -192.   -1.   -0.    0.    8.    5.   -0.    1.   -0.   -5.    0.  -12.    1.   -0.
    0.    3.   -0.   -1.   -0.   -0.    0.   -0.   -2.    1.    0.    2.   -0.   -0.    1.   -0.   -0.   -0.    1.    1.
   -0.    0.    0.    0.    0.    0.   -0.   -1.    0.    0.   -0.   -0.    0.   -0.   -1.   -0.   -0.   -0.   -0.    0.
   -0.   -0.   -3.   -0.    0.   -0.    0.   -3.    0.   -2.   -0.    0.    3.   -0.    0.   -5.    0.   -0.   -1.    1.
   -0.    0.   -6.    0.   -0.    1.   -0.   -0.    0.   -0.    0.   -0.    0.    0.   -0.    0.    0.   -0.    0.   -0.
    0.   -0.
 p2=
   -0.   -0.    0.   -0.   -0.   -0.   -3.  190.    0.   -0.  -29.   14.    0.    8.    0.    0.   -3.    0.  -10.   -0.
    4.   -1.    0.    1.    0.    0.   -0.   -0.    1.   -0.    0.    2.   -0.   -0.   -0.    0.    0.    0.   -0.    1.
   -1.    1.   -0.   -0.    0.    0.    0.   -0.   -0.   -0.   -0.    0.    0.    0.    0.    2.    0.    0.    0.   -0.
   -0.   -0.    3.    1.    0.    0.   -0.   -1.    0.    0.    0.   -0.    0.   -0.   -7.   -0.   -0.   -0.    0.    1.
    0.   -3.   -0.   -0.    4.   -1.   -0.   -0.   -0.    0.    0.    0.    0.    0.    0.   -0.   -0.    0.    0.   -0.
    0.   -0.

 Displacement: in terms of nc of 1 THEN of nc of 2

   1     freq=    -0. Q= -0.000 lam=    -0.0     freq=    -0. Q= -0.000 lam=    -0.0
   2     freq=    -0. Q= -0.000 lam=    -0.0     freq=    -0. Q= -0.000 lam=    -0.0
   3     freq=    -0. Q= -0.000 lam=    -0.0     freq=     0. Q= -0.000 lam=     0.0
   4     freq=     0. Q= -0.000 lam=     0.0     freq=     0. Q= -0.000 lam=     0.0
   5     freq=     0. Q= -0.000 lam=     0.0     freq=     0. Q= -0.000 lam=     0.0
   6     freq=     0. Q=  0.000 lam=     0.0     freq=     0. Q=  0.000 lam=     0.0
   7     freq=    16. Q= -3.130 lam=    79.8     freq=    50. Q= -0.095 lam=     0.2
   8     freq=    65. Q= -0.019 lam=     0.0     freq=    52. Q= -5.526 lam=   791.5
   9     freq=    65. Q= -0.001 lam=     0.0     freq=    74. Q= -0.010 lam=     0.0
  10     freq=    89. Q=  0.004 lam=     0.0     freq=    91. Q=  0.002 lam=     0.0
  11     freq=   118. Q=  0.360 lam=     7.7     freq=   114. Q=  1.250 lam=    88.9
  12     freq=   198. Q=  0.312 lam=     9.6     freq=   201. Q=  0.801 lam=    64.4
  13     freq=   218. Q= -0.000 lam=     0.0     freq=   212. Q= -0.007 lam=     0.0
  14     freq=   234. Q=  0.035 lam=     0.1     freq=   238. Q=  0.483 lam=    27.7
  15     freq=   254. Q= -0.005 lam=     0.0     freq=   261. Q= -0.001 lam=     0.0
  16     freq=   319. Q= -0.363 lam=    21.1     freq=   301. Q= -0.002 lam=     0.0
  17     freq=   335. Q=  0.001 lam=     0.0     freq=   312. Q=  0.204 lam=     6.5
  18     freq=   401. Q= -1.009 lam=   204.2     freq=   388. Q= -0.000 lam=     0.0
  19     freq=   413. Q=  0.082 lam=     1.4     freq=   396. Q=  0.767 lam=   116.3
  20     freq=   414. Q= -0.002 lam=     0.0     freq=   405. Q= -0.001 lam=     0.0
  21     freq=   432. Q=  0.001 lam=     0.0     freq=   413. Q=  0.342 lam=    24.2
  22     freq=   483. Q=  0.224 lam=    12.2     freq=   443. Q=  0.079 lam=     1.4
  23     freq=   504. Q= -0.001 lam=     0.0     freq=   488. Q= -0.002 lam=     0.0
  24     freq=   505. Q= -0.091 lam=     2.1     freq=   513. Q= -0.067 lam=     1.2
  25     freq=   566. Q= -0.000 lam=     0.0     freq=   517. Q= -0.000 lam=     0.0
  26     freq=   589. Q= -0.000 lam=     0.0     freq=   581. Q= -0.001 lam=     0.0
  27     freq=   626. Q=  0.000 lam=     0.0     freq=   611. Q=  0.000 lam=     0.0
  28     freq=   626. Q= -0.001 lam=     0.0     freq=   613. Q= -0.001 lam=     0.0
  29     freq=   637. Q= -0.161 lam=     8.2     freq=   618. Q= -0.120 lam=     4.4
  30     freq=   656. Q=  0.102 lam=     3.4     freq=   636. Q=  0.001 lam=     0.0
  31     freq=   657. Q=  0.000 lam=     0.0     freq=   654. Q=  0.041 lam=     0.6
  32     freq=   703. Q=  0.251 lam=    22.2     freq=   697. Q=  0.162 lam=     9.1
  33     freq=   719. Q= -0.001 lam=     0.0     freq=   710. Q= -0.015 lam=     0.1
  34     freq=   750. Q= -0.000 lam=     0.0     freq=   714. Q= -0.001 lam=     0.0
  35     freq=   756. Q=  0.103 lam=     4.0     freq=   723. Q=  0.001 lam=     0.0
  36     freq=   771. Q= -0.051 lam=     1.0     freq=   728. Q= -0.022 lam=     0.2
  37     freq=   774. Q= -0.000 lam=     0.0     freq=   737. Q= -0.000 lam=     0.0
  38     freq=   806. Q= -0.000 lam=     0.0     freq=   777. Q= -0.000 lam=     0.0
  39     freq=   843. Q=  0.140 lam=     8.2     freq=   807. Q=  0.000 lam=     0.0
  40     freq=   861. Q=  0.062 lam=     1.7     freq=   832. Q=  0.132 lam=     7.2
  41     freq=   862. Q= -0.000 lam=     0.0     freq=   843. Q= -0.062 lam=     1.6
  42     freq=   868. Q=  0.002 lam=     0.0     freq=   860. Q=  0.063 lam=     1.7
  43     freq=   868. Q=  0.023 lam=     0.2     freq=   871. Q=  0.000 lam=     0.0
  44     freq=   902. Q=  0.000 lam=     0.0     freq=   872. Q=  0.001 lam=     0.0
  45     freq=   928. Q=  0.000 lam=     0.0     freq=   905. Q=  0.029 lam=     0.4
  46     freq=   949. Q=  0.013 lam=     0.1     freq=   906. Q=  0.003 lam=     0.0
  47     freq=   954. Q= -0.000 lam=     0.0     freq=   924. Q= -0.001 lam=     0.0
  48     freq=   971. Q= -0.072 lam=     2.5     freq=   943. Q= -0.050 lam=     1.2
  49     freq=   974. Q=  0.000 lam=     0.0     freq=   947. Q=  0.001 lam=     0.0
  50     freq=   984. Q=  0.037 lam=     0.7     freq=   947. Q=  0.018 lam=     0.1
  51     freq=   997. Q= -0.059 lam=     1.7     freq=   950. Q= -0.001 lam=     0.0
  52     freq=   998. Q= -0.001 lam=     0.0     freq=   986. Q= -0.057 lam=     1.6
  53     freq=  1004. Q=  0.000 lam=     0.0     freq=  1000. Q=  0.000 lam=     0.0
  54     freq=  1017. Q= -0.016 lam=     0.1     freq=  1013. Q= -0.008 lam=     0.0
  55     freq=  1037. Q= -0.115 lam=     6.9     freq=  1049. Q= -0.025 lam=     0.3
  56     freq=  1038. Q= -0.002 lam=     0.0     freq=  1057. Q= -0.286 lam=    43.1
  57     freq=  1052. Q= -0.026 lam=     0.4     freq=  1063. Q= -0.001 lam=     0.0
  58     freq=  1098. Q= -0.000 lam=     0.0     freq=  1096. Q= -0.000 lam=     0.0
  59     freq=  1128. Q= -0.000 lam=     0.0     freq=  1102. Q= -0.001 lam=     0.0
  60     freq=  1164. Q=  0.040 lam=     0.9     freq=  1129. Q=  0.054 lam=     1.6
  61     freq=  1168. Q= -0.000 lam=     0.0     freq=  1176. Q= -0.001 lam=     0.0
  62     freq=  1182. Q= -0.000 lam=     0.0     freq=  1181. Q= -0.000 lam=     0.0
  63     freq=  1191. Q= -0.380 lam=    85.9     freq=  1185. Q= -0.467 lam=   129.2
  64     freq=  1202. Q= -0.052 lam=     1.6     freq=  1189. Q= -0.159 lam=    15.1
  65     freq=  1203. Q=  0.001 lam=     0.0     freq=  1202. Q=  0.045 lam=     1.2
  66     freq=  1213. Q= -0.059 lam=     2.1     freq=  1213. Q= -0.000 lam=     0.0
  67     freq=  1249. Q=  0.000 lam=     0.0     freq=  1271. Q=  0.001 lam=     0.0
  68     freq=  1288. Q= -0.464 lam=   138.7     freq=  1279. Q= -0.079 lam=     4.0
  69     freq=  1308. Q=  0.001 lam=     0.0     freq=  1300. Q=  0.000 lam=     0.0
  70     freq=  1310. Q= -0.351 lam=    80.8     freq=  1301. Q= -0.003 lam=     0.0
  71     freq=  1341. Q= -0.000 lam=     0.0     freq=  1329. Q= -0.000 lam=     0.0
  72     freq=  1351. Q=  0.000 lam=     0.0     freq=  1351. Q=  0.069 lam=     3.2
  73     freq=  1379. Q=  0.441 lam=   134.0     freq=  1354. Q=  0.001 lam=     0.0
  74     freq=  1402. Q= -0.000 lam=     0.0     freq=  1387. Q= -0.001 lam=     0.0
  75     freq=  1414. Q=  0.001 lam=     0.0     freq=  1406. Q=  1.125 lam=   889.4
  76     freq=  1438. Q= -0.762 lam=   417.5     freq=  1426. Q= -0.000 lam=     0.0
  77     freq=  1472. Q=  0.001 lam=     0.0     freq=  1451. Q=  0.000 lam=     0.0
  78     freq=  1477. Q= -0.000 lam=     0.0     freq=  1462. Q= -0.063 lam=     2.9
  79     freq=  1483. Q= -0.079 lam=     4.6     freq=  1472. Q= -0.000 lam=     0.0
  80     freq=  1516. Q=  0.094 lam=     6.8     freq=  1516. Q=  0.159 lam=    19.1
  81     freq=  1529. Q= -0.028 lam=     0.6     freq=  1525. Q= -0.001 lam=     0.0
  82     freq=  1558. Q=  0.000 lam=     0.0     freq=  1529. Q=  0.464 lam=   164.4
  83     freq=  1596. Q= -0.905 lam=   653.7     freq=  1544. Q= -0.000 lam=     0.0
  84     freq=  1615. Q=  0.000 lam=     0.0     freq=  1573. Q=  0.001 lam=     0.0
  85     freq=  1616. Q= -0.000 lam=     0.0     freq=  1592. Q= -0.641 lam=   327.3
  86     freq=  1643. Q=  0.153 lam=    19.3     freq=  1597. Q=  0.140 lam=    15.6
  87     freq=  1659. Q= -0.000 lam=     0.0     freq=  1602. Q= -0.000 lam=     0.0
  88     freq=  1670. Q= -0.026 lam=     0.6     freq=  1630. Q= -0.050 lam=     2.0
  89     freq=  3154. Q=  0.000 lam=     0.0     freq=  3153. Q=  0.005 lam=     0.0
  90     freq=  3158. Q= -0.000 lam=     0.0     freq=  3159. Q= -0.004 lam=     0.0
  91     freq=  3158. Q=  0.006 lam=     0.0     freq=  3162. Q=  0.000 lam=     0.0
  92     freq=  3159. Q= -0.003 lam=     0.0     freq=  3163. Q= -0.006 lam=     0.1
  93     freq=  3165. Q=  0.000 lam=     0.0     freq=  3167. Q=  0.000 lam=     0.0
  94     freq=  3168. Q=  0.000 lam=     0.0     freq=  3173. Q=  0.000 lam=     0.0
  95     freq=  3169. Q= -0.002 lam=     0.0     freq=  3173. Q= -0.002 lam=     0.0
  96     freq=  3174. Q=  0.006 lam=     0.1     freq=  3178. Q=  0.009 lam=     0.1
  97     freq=  3181. Q=  0.000 lam=     0.0     freq=  3183. Q=  0.000 lam=     0.0
  98     freq=  3183. Q= -0.001 lam=     0.0     freq=  3189. Q= -0.000 lam=     0.0
  99     freq=  3183. Q=  0.017 lam=     0.5     freq=  3189. Q=  0.019 lam=     0.5
 100     freq=  3189. Q= -0.005 lam=     0.0     freq=  3190. Q= -0.008 lam=     0.1
 101     freq=  3199. Q=  0.000 lam=     0.0     freq=  3205. Q=  0.001 lam=     0.0
 102     freq=  3199. Q= -0.033 lam=     1.7     freq=  3206. Q= -0.007 lam=     0.1

 total reorg energy (cm**-1, kcal/mol)=     1949.     2770.      5.57      7.92
 Nber of molecules processed=           2
