 Enter ifcurve (0=recti, 1=orth curvi, 2=apprx curvi, -1 = skip
 And atom ordering flag, 0= never changes, 1= use the first order thenceforth,
  2= deduce it (does read on fail), 3= always read it
 Reading file: 
 ./thiophene-donors_5_C0S1.log                                                  
                                          
  Entering Gaussian System, Link 0=g16                                          
  
 Gaussian format, type: g94, g98, g03= F F F
  #P Geom=AllCheck Guess=TCheck SCRF=Check GenChk RB3LYP TD(FC,Read)/6-3    
 energy type= TD      
 Original G94 input coords:
  6 -0.665870  2.029972 -0.000077
  6  0.775386  1.989702 -0.000076
  6  1.405251  0.764051 -0.000044
  6  0.709729 -0.487086 -0.000010
  6  1.583660 -1.586035  0.000019
  6  2.934816 -1.236331  0.000009
 16  3.164370  0.482492 -0.000037
  6 -0.738624 -0.446619 -0.000010
  6 -1.363196  0.841402 -0.000044
 16 -3.135296  0.658487 -0.000038
  6 -3.002060 -1.070479  0.000008
  6 -1.672536 -1.495065  0.000019
  1 -1.172946  2.986229 -0.000102
  1  1.335062  2.916156 -0.000101
  1  1.259912 -2.618907  0.000046
  1  3.789804 -1.893173  0.000026
  1 -3.892389 -1.678563  0.000025
  1 -1.406953 -2.544402  0.000047
 nber atoms=          18
  Total Energy, E(TD-HF/TD-DFT) =  -1181.04789157                               
  
          32          49 "  -1181.04789157"
After scan for Atom:   Atom  AN      X      Y      Z        X      Y      Z        X      Y      Z   
After scan for Atom:   Atom  AN      X      Y      Z        X      Y      Z        X      Y      Z   
After scan for Atom:   Atom  AN      X      Y      Z        X      Y      Z        X      Y      Z   
After scan for Atom:   Atom  AN      X      Y      Z        X      Y      Z        X      Y      Z   
After scan for Atom:   Atom  AN      X      Y      Z        X      Y      Z        X      Y      Z   
After scan for Atom:   Atom  AN      X      Y      Z        X      Y      Z        X      Y      Z   
After scan for Atom:   Atom  AN      X      Y      Z        X      Y      Z        X      Y      Z   
After scan for Atom:   Atom  AN      X      Y      Z        X      Y      Z        X      Y      Z   
After scan for Atom:   Atom  AN      X      Y      Z        X      Y      Z        X      Y      Z   
After scan for Atom:   Atom  AN      X      Y      Z        X      Y      Z        X      Y      Z   
After scan for Atom:   Atom  AN      X      Y      Z        X      Y      Z        X      Y      Z   
After scan for Atom:   Atom  AN      X      Y      Z        X      Y      Z        X      Y      Z   
After scan for Atom:   Atom  AN      X      Y      Z        X      Y      Z        X      Y      Z   
After scan for Atom:   Atom  AN      X      Y      Z        X      Y      Z        X      Y      Z   
After scan for Atom:   Atom  AN      X      Y      Z        X      Y      Z        X      Y      Z   
After scan for Atom:   Atom  AN      X      Y      Z        X      Y      Z        X      Y      Z   
 g94    frequencies=
     0.0    0.0    0.0    0.0    0.0    0.0   82.9   99.8  192.2  226.0
   284.0  309.5  339.4  396.6  412.9  430.7  481.8  508.0  553.3  554.1
   576.1  591.6  659.7  674.4  727.0  730.1  809.3  809.4  824.5  825.9
   836.2  891.4  912.9 1057.3 1061.0 1093.5 1110.7 1225.8 1243.5 1283.5
  1311.7 1356.4 1364.1 1382.7 1438.6 1440.2 1521.6 1570.7 3186.0 3196.7
  3199.7 3200.8 3249.6 3252.5
 g94    symmetries=
                                                 A      A      A      A
       A      A      A      A      A      A      A      A      A      A
       A      A      A      A      A      A      A      A      A      A
       A      A      A      A      A      A      A      A      A      A
       A      A      A      A      A      A      A      A      A      A
       A      A      A      A
 atomic masses:
 12.0000 12.0000 12.0000 12.0000 12.0000 12.0000 31.9721 12.0000 12.0000 31.9721
 12.0000 12.0000  1.0078  1.0078  1.0078  1.0078  1.0078  1.0078
 looking for force constants in 
 ./thiophene-donors_5_C0S1.fchk                                                 
  
 Cartesian Force Constants                  R   N=        1485                  
  
 n3=          54        1485
 g94-fc frequencies=
    -3.0   -1.7   -0.0   -0.0    0.0    5.0   82.9   99.8  192.2  226.0
   284.0  309.5  339.4  396.6  412.9  430.8  481.8  508.0  553.3  554.1
   576.1  591.6  659.7  674.4  727.0  730.1  809.3  809.4  824.5  825.9
   836.3  891.4  912.9 1057.4 1061.0 1093.5 1110.7 1225.8 1243.5 1283.5
  1311.7 1356.4 1364.1 1382.7 1438.6 1440.3 1521.7 1570.7 3186.0 3196.7
  3199.7 3200.9 3249.7 3252.6
 at 99999: n3=          54
 symm operator            1 :  F  nop=           0
 symm operator            2 :  F  nop=           0
 symm operator            3 :  F  nop=           0
 symm operator            4 :  F  nop=           0
 symm operator            5 :  F  nop=           0
 symm operator            6 :  F  nop=           0
 symm operator            7 :  F  nop=           0
 The point group of the molecule is  C1
 Symmetry rotation matrix:
   1.00000   0.00000   0.00000
   0.00000   1.00000   0.00000
   0.00000   0.00000   1.00000

 Projecting out zero-frequency components
 generating redundant internal coords
         300        3600          18
 search for int coords
   1 str   2   1   1.442
   2 str   3   2   1.378
   3 str   4   3   1.431
   4 str   5   4   1.404
   5 str   6   5   1.396
   6 str   7   3   1.782
   7 str   7   6   1.734
   8 str   8   4   1.449
   9 str   9   1   1.378
  10 str   9   8   1.431
  11 str  10   9   1.782
  12 str  11  10   1.734
  13 str  12   8   1.404
  14 str  12  11   1.396
  15 str  13   1   1.082
  16 str  14   2   1.082
  17 str  15   5   1.082
  18 str  16   6   1.078
  19 str  17  11   1.078
  20 str  18  12   1.082
 nber stretches=          20
  21 ben   1   2   3
  22 prop tor   1   2   3   4
  23 prop tor   1   2   3   7
  24 ben   1   2  14
  25 ben   1   9   8
  26 ben   1   9  10
  27 prop tor   1   9  10  11
  28 ben   2   1   9
  29 prop tor   2   1   9   8
  30 prop tor   2   1   9  10
  31 ben   2   1  13
  32 ben   2   3   4
  33 prop tor   2   3   4   5
  34 prop tor   2   3   4   8
  35 ben   2   3   7
  36 prop tor   2   3   7   6
  37 ben   3   2  14
  38 ben   3   4   5
  39 prop tor   3   4   5   6
  40 prop tor   3   4   5  15
  41 ben   3   4   8
  42 prop tor   3   4   8   9
  43 prop tor   3   4   8  12
  44 ben   3   7   6
  45 ben   4   3   7
  46 prop tor   4   3   7   6
  47 ben   4   5   6
  48 prop tor   4   5   6   7
  49 prop tor   4   5   6  16
  50 ben   4   5  15
  51 ben   4   8   9
  52 prop tor   4   8   9   1
  53 prop tor   4   8   9  10
  54 ben   4   8  12
  55 prop tor   4   8  12  11
  56 prop tor   4   8  12  18
  57 ben   5   4   8
  58 prop tor   5   4   8   9
  59 prop tor   5   4   8  12
  60 ben   5   6   7
  61 prop tor   5   6   7   3
  62 ben   5   6  16
  63 ben   6   5  15
  64 prop tor   7   3   4   5
  65 prop tor   7   3   4   8
  66 ben   7   6  16
  67 prop tor   8   4   5   6
  68 prop tor   8   4   5  15
  69 ben   8   9  10
  70 prop tor   8   9  10  11
  71 ben   8  12  11
  72 ben   8  12  18
  73 prop tor   9   1   2   3
  74 prop tor   9   1   2  14
  75 ben   9   1  13
  76 ben   9   8  12
  77 prop tor   9   8  12  11
  78 prop tor   9   8  12  18
  79 ben   9  10  11
  80 prop tor   9  10  11  12
  81 prop tor   9  10  11  17
  82 ben  10  11  12
  83 prop tor  10  11  12   8
  84 prop tor  10  11  12  18
  85 ben  10  11  17
  86 ben  11  12  18
  87 prop tor  12   8   9   1
  88 prop tor  12   8   9  10
  89 ben  12  11  17
  90 prop tor  13   1   2   3
  91 prop tor  13   1   2  14
  92 prop tor  13   1   9   8
  93 prop tor  13   1   9  10
  94 prop tor  14   2   3   4
  95 prop tor  14   2   3   7
  96 prop tor  15   5   6   7
  97 prop tor  15   5   6  16
  98 prop tor  16   6   7   3
  99 prop tor  17  11  12   8
 100 prop tor  17  11  12  18
 nber bend=              32
 nber lin bend=           0
 nber prop tor=          48
 nber impr tor=           0
 nber tot redund int=         100
 Eigenvalues of G in red int coords
    Gval -0.00000000 -0.00000000 -0.00000000 -0.00000000 -0.00000000 -0.00000000 -0.00000000 -0.00000000
    Gval -0.00000000 -0.00000000 -0.00000000 -0.00000000 -0.00000000 -0.00000000 -0.00000000 -0.00000000
    Gval -0.00000000 -0.00000000 -0.00000000 -0.00000000 -0.00000000 -0.00000000 -0.00000000 -0.00000000
    Gval -0.00000000 -0.00000000 -0.00000000 -0.00000000  0.00000000  0.00000000  0.00000000  0.00000000
    Gval  0.00000000  0.00000000  0.00000000  0.00000000  0.00000000  0.00000000  0.00000000  0.00000000
    Gval  0.00000000  0.00000000  0.00000000  0.00000000  0.00000000  0.00000000  0.00000000  0.00000000
    Gval  0.00000000  0.00000000  0.00000000  0.00000000  0.00000891  0.00001164  0.00002597  0.00003058
    Gval  0.00003614  0.00004654  0.00004800  0.00004964  0.00006658  0.00007092  0.00007983  0.00008462
    Gval  0.00010041  0.00011460  0.00012122  0.00015501  0.00016994  0.00019509  0.00024079  0.00025679
    Gval  0.00029701  0.00029811  0.00039050  0.00039702  0.00041010  0.00043837  0.00051186  0.00059646
    Gval  0.00059689  0.00059888  0.00062246  0.00062738  0.00064025  0.00096857  0.00108192  0.00108408
    Gval  0.00109952  0.00116132  0.00116523  0.00117865  0.00117900  0.00182295  0.00201530  0.00243943
    Gval  0.00246162  0.00373177  0.00382816  0.00395073
  8.909024577412058E-006  8.909024577412058E-006
  1.163533487382022E-005  8.909024577412058E-006
  2.597089258120629E-005  8.909024577412058E-006
  3.057897634924779E-005  8.909024577412058E-006
  3.613796618285550E-005  8.909024577412058E-006
  4.653740723430541E-005  8.909024577412058E-006
  4.799948568238755E-005  8.909024577412058E-006
  4.964124800310404E-005  8.909024577412058E-006
  6.658058908769762E-005  8.909024577412058E-006
  7.091794458793139E-005  8.909024577412058E-006
  7.982515467689419E-005  8.909024577412058E-006
  8.461974057795447E-005  8.909024577412058E-006
  1.004096978494025E-004  8.909024577412058E-006
  1.145952356144253E-004  8.909024577412058E-006
  1.212198653855164E-004  8.909024577412058E-006
  1.550063070477180E-004  8.909024577412058E-006
  1.699385834924392E-004  8.909024577412058E-006
  1.950945671781756E-004  8.909024577412058E-006
  2.407869845363348E-004  8.909024577412058E-006
  2.567859017469483E-004  8.909024577412058E-006
  2.970142171423606E-004  8.909024577412058E-006
  2.981056750532856E-004  8.909024577412058E-006
  3.905000430585303E-004  8.909024577412058E-006
  3.970224631313640E-004  8.909024577412058E-006
  4.101040795599387E-004  8.909024577412058E-006
  4.383706486579476E-004  8.909024577412058E-006
  5.118570553840390E-004  8.909024577412058E-006
  5.964642758300841E-004  8.909024577412058E-006
  5.968870249094271E-004  8.909024577412058E-006
  5.988842111387457E-004  8.909024577412058E-006
  6.224604567406464E-004  8.909024577412058E-006
  6.273827437059644E-004  8.909024577412058E-006
  6.402451586425322E-004  8.909024577412058E-006
  9.685746693029450E-004  8.909024577412058E-006
  1.081920491760519E-003  8.909024577412058E-006
  1.084084644160882E-003  8.909024577412058E-006
  1.099515181905093E-003  8.909024577412058E-006
  1.161324605970650E-003  8.909024577412058E-006
  1.165231560819228E-003  8.909024577412058E-006
  1.178649391626832E-003  8.909024577412058E-006
  1.179004310325286E-003  8.909024577412058E-006
  1.822946545133918E-003  8.909024577412058E-006
  2.015296238871311E-003  8.909024577412058E-006
  2.439431718461001E-003  8.909024577412058E-006
  2.461622301456274E-003  8.909024577412058E-006
  3.731774860931168E-003  8.909024577412058E-006
  3.828156030221215E-003  8.909024577412058E-006
  3.950732100561473E-003  8.909024577412058E-006
 cut=1d-8, nber non-redundant internal coords=          48
 Check on Eigenvals of non-red overlap matrix:
  0.00000891  0.00001164  0.00002597  0.00003058  0.00003614  0.00004654  0.00004800  0.00004964
  0.00006658  0.00007092  0.00007983  0.00008462  0.00010041  0.00011460  0.00012122  0.00015501
  0.00016994  0.00019509  0.00024079  0.00025679  0.00029701  0.00029811  0.00039050  0.00039702
  0.00041010  0.00043837  0.00051186  0.00059646  0.00059689  0.00059888  0.00062246  0.00062738
  0.00064025  0.00096857  0.00108192  0.00108408  0.00109952  0.00116132  0.00116523  0.00117865
  0.00117900  0.00182295  0.00201530  0.00243943  0.00246162  0.00373177  0.00382816  0.00395073
 Checking for correct frequencies
 recalc frequencies=
    -0.0   -0.0   -0.0   -0.0    0.0    0.0   82.9   99.8  192.2  226.0
   284.0  309.5  339.4  396.6  412.9  430.8  481.8  508.0  553.3  554.1
   576.1  591.6  659.7  674.4  727.0  730.1  809.3  809.4  824.5  825.9
   836.3  891.4  912.9 1057.4 1061.0 1093.5 1110.7 1225.8 1243.5 1283.5
  1311.7 1356.4 1364.1 1382.7 1438.6 1440.3 1521.7 1570.7 3186.0 3196.7
  3199.7 3200.9 3249.7 3252.6
 recalc symmetries=
                                                                       
                                                                       
                                                                       
                                                                       
                                                                       
                             
 recalc freqs check OK
 Zero-point lengths:
 10.0000 10.0000 10.0000 10.0000 10.0000 10.0000 27.2354 24.8209 17.8833 16.4897
 14.7115 14.0908 13.4563 12.4491 12.2007 11.9449 11.2940 10.9991 10.5390 10.5317
 10.3288 10.1927  9.6522  9.5461  9.1943  9.1750  8.7145  8.7140  8.6338  8.6263
  8.5729  8.3034  8.2052  7.6240  7.6108  7.4968  7.4385  7.0809  7.0303  6.9199
  6.8450  6.7313  6.7122  6.6670  6.5362  6.5324  6.3553  6.2552  4.3921  4.3847
  4.3827  4.3819  4.3489  4.3469
 highest evec of mol 1
  0.0016 -0.0004  0.0000
 -0.0017 -0.0003  0.0000
  0.0016 -0.0020  0.0000
  0.0011 -0.0020  0.0000
  0.0183  0.0304 -0.0000
 -0.1668  0.1196 -0.0000
 -0.0004 -0.0017  0.0000
 -0.0012 -0.0019  0.0000
 -0.0017 -0.0019  0.0000
  0.0003 -0.0017  0.0000
  0.1725  0.1096 -0.0000
 -0.0166  0.0312 -0.0000
 -0.0012  0.0023 -0.0000
  0.0013  0.0022 -0.0000
 -0.0299 -0.0882  0.0000
  0.5333 -0.4071  0.0000
 -0.5527 -0.3750  0.0000
  0.0248 -0.0893  0.0000
 generating redundant internal coords
         300        3600          18
 Adding extra bonds for z output only
           6           6           6           6           6           6
          16           6           6          16           6           6
           1           1           1           1           1           1
 search for int coords
   1 str   2   1   1.442
   2 str   3   2   1.378
   3 str   4   3   1.431
   4 str   5   4   1.404
   5 str   6   5   1.396
   6 str   7   3   1.782
   7 str   7   6   1.734
   8 str   8   4   1.449
   9 str   9   1   1.378
  10 str   9   8   1.431
  11 str  10   9   1.782
  12 str  11  10   1.734
  13 str  12   8   1.404
  14 str  12  11   1.396
  15 str  13   1   1.082
  16 str  14   2   1.082
  17 str  15   5   1.082
  18 str  16   6   1.078
  19 str  17  11   1.078
  20 str  18  12   1.082
 nber stretches=          20
  21 ben   1   2   3
  22 prop tor   1   2   3   4
  23 prop tor   1   2   3   7
  24 ben   1   2  14
  25 ben   1   9   8
  26 ben   1   9  10
  27 prop tor   1   9  10  11
  28 ben   2   1   9
  29 prop tor   2   1   9   8
  30 prop tor   2   1   9  10
  31 ben   2   1  13
  32 ben   2   3   4
  33 prop tor   2   3   4   5
  34 prop tor   2   3   4   8
  35 ben   2   3   7
  36 prop tor   2   3   7   6
  37 ben   3   2  14
  38 ben   3   4   5
  39 prop tor   3   4   5   6
  40 prop tor   3   4   5  15
  41 ben   3   4   8
  42 prop tor   3   4   8   9
  43 prop tor   3   4   8  12
  44 ben   3   7   6
  45 ben   4   3   7
  46 prop tor   4   3   7   6
  47 ben   4   5   6
  48 prop tor   4   5   6   7
  49 prop tor   4   5   6  16
  50 ben   4   5  15
  51 ben   4   8   9
  52 prop tor   4   8   9   1
  53 prop tor   4   8   9  10
  54 ben   4   8  12
  55 prop tor   4   8  12  11
  56 prop tor   4   8  12  18
  57 ben   5   4   8
  58 prop tor   5   4   8   9
  59 prop tor   5   4   8  12
  60 ben   5   6   7
  61 prop tor   5   6   7   3
  62 ben   5   6  16
  63 ben   6   5  15
  64 prop tor   7   3   4   5
  65 prop tor   7   3   4   8
  66 ben   7   6  16
  67 prop tor   8   4   5   6
  68 prop tor   8   4   5  15
  69 ben   8   9  10
  70 prop tor   8   9  10  11
  71 ben   8  12  11
  72 ben   8  12  18
  73 prop tor   9   1   2   3
  74 prop tor   9   1   2  14
  75 ben   9   1  13
  76 ben   9   8  12
  77 prop tor   9   8  12  11
  78 prop tor   9   8  12  18
  79 ben   9  10  11
  80 prop tor   9  10  11  12
  81 prop tor   9  10  11  17
  82 ben  10  11  12
  83 prop tor  10  11  12   8
  84 prop tor  10  11  12  18
  85 ben  10  11  17
  86 ben  11  12  18
  87 prop tor  12   8   9   1
  88 prop tor  12   8   9  10
  89 ben  12  11  17
  90 prop tor  13   1   2   3
  91 prop tor  13   1   2  14
  92 prop tor  13   1   9   8
  93 prop tor  13   1   9  10
  94 prop tor  14   2   3   4
  95 prop tor  14   2   3   7
  96 prop tor  15   5   6   7
  97 prop tor  15   5   6  16
  98 prop tor  16   6   7   3
  99 prop tor  17  11  12   8
 100 prop tor  17  11  12  18
 nber bend=              32
 nber lin bend=           0
 nber prop tor=          48
 nber impr tor=           0
 nber tot redund int=         100
 Reading file: 
 ./thiophene-donors_5_C1S0.log                                                  
                                          
  Entering Gaussian System, Link 0=g16                                          
  
 Gaussian format, type: g94, g98, g03= F F F
  #P Geom=AllCheck Guess=TCheck SCRF=Check GenChk UB3LYP/6-311G(d,p) Fre    
 energy type= B3LYP   
 Original G94 input coords:
  6 -0.654615  2.012798 -0.000076
  6  0.763187  1.973182 -0.000076
  6  1.404461  0.749696 -0.000043
  6  0.702725 -0.490417 -0.000010
  6  1.577598 -1.590767  0.000019
  6  2.910355 -1.206073  0.000008
 16  3.148290  0.487021 -0.000037
  6 -0.731815 -0.450336 -0.000010
  6 -1.363208  0.827024 -0.000044
 16 -3.118985  0.662113 -0.000038
  6 -2.975946 -1.041632  0.000007
  6 -1.666749 -1.500131  0.000019
  1 -1.159413  2.971202 -0.000101
  1  1.320707  2.901908 -0.000101
  1  1.273863 -2.628441  0.000047
  1  3.769033 -1.862788  0.000025
  1 -3.869951 -1.649384  0.000024
  1 -1.421417 -2.553145  0.000047
 nber atoms=          18
  SCF Done:  E(UB3LYP) =  -1180.92353205     A.U. after    1 cycles             
  
          23          40 "  -1180.92353205"
After scan for Atom:   Atom  AN      X      Y      Z        X      Y      Z        X      Y      Z   
After scan for Atom:   Atom  AN      X      Y      Z        X      Y      Z        X      Y      Z   
After scan for Atom:   Atom  AN      X      Y      Z        X      Y      Z        X      Y      Z   
After scan for Atom:   Atom  AN      X      Y      Z        X      Y      Z        X      Y      Z   
After scan for Atom:   Atom  AN      X      Y      Z        X      Y      Z        X      Y      Z   
After scan for Atom:   Atom  AN      X      Y      Z        X      Y      Z        X      Y      Z   
After scan for Atom:   Atom  AN      X      Y      Z        X      Y      Z        X      Y      Z   
After scan for Atom:   Atom  AN      X      Y      Z        X      Y      Z        X      Y      Z   
After scan for Atom:   Atom  AN      X      Y      Z        X      Y      Z        X      Y      Z   
After scan for Atom:   Atom  AN      X      Y      Z        X      Y      Z        X      Y      Z   
After scan for Atom:   Atom  AN      X      Y      Z        X      Y      Z        X      Y      Z   
After scan for Atom:   Atom  AN      X      Y      Z        X      Y      Z        X      Y      Z   
After scan for Atom:   Atom  AN      X      Y      Z        X      Y      Z        X      Y      Z   
After scan for Atom:   Atom  AN      X      Y      Z        X      Y      Z        X      Y      Z   
After scan for Atom:   Atom  AN      X      Y      Z        X      Y      Z        X      Y      Z   
After scan for Atom:   Atom  AN      X      Y      Z        X      Y      Z        X      Y      Z   
 g94    frequencies=
     0.0    0.0    0.0    0.0    0.0    0.0  109.7  122.8  223.8  230.1
   299.9  348.0  420.0  425.9  460.2  488.3  496.5  593.7  598.1  615.0
   691.8  724.8  739.8  780.3  789.9  836.9  842.0  866.5  912.3  914.5
   916.9  945.8  965.0 1098.0 1110.9 1132.5 1161.1 1236.9 1266.4 1324.7
  1353.6 1405.2 1419.0 1433.0 1450.7 1465.4 1570.9 1585.2 3195.1 3205.6
  3218.7 3221.7 3237.9 3238.7
 g94    symmetries=
                                                 A      A      A      A
       A      A      A      A      A      A      A      A      A      A
       A      A      A      A      A      A      A      A      A      A
       A      A      A      A      A      A      A      A      A      A
       A      A      A      A      A      A      A      A      A      A
       A      A      A      A
 atomic masses:
 12.0000 12.0000 12.0000 12.0000 12.0000 12.0000 31.9721 12.0000 12.0000 31.9721
 12.0000 12.0000  1.0078  1.0078  1.0078  1.0078  1.0078  1.0078
 looking for force constants in 
 ./thiophene-donors_5_C1S0.fchk                                                 
  
 Cartesian Force Constants                  R   N=        1485                  
  
 n3=          54        1485
 g94-fc frequencies=
    -1.8   -0.0   -0.0    0.0    0.6    3.2  109.7  122.8  223.8  230.1
   299.9  348.0  420.0  425.9  460.2  488.3  496.5  593.7  598.2  615.0
   691.8  724.8  739.8  780.3  789.9  836.9  842.0  866.5  912.3  914.6
   916.9  945.9  965.0 1098.0 1110.9 1132.5 1161.2 1236.9 1266.4 1324.7
  1353.6 1405.2 1419.1 1433.0 1450.7 1465.5 1570.9 1585.3 3195.2 3205.7
  3218.8 3221.8 3238.0 3238.8
 at 99999: n3=          54
 symm operator            1 :  F  nop=           0
 symm operator            2 :  F  nop=           0
 symm operator            3 :  F  nop=           0
 symm operator            4 :  F  nop=           0
 symm operator            5 :  F  nop=           0
 symm operator            6 :  F  nop=           0
 symm operator            7 :  F  nop=           0
 The point group of the molecule is  C1
 Symmetry rotation matrix:
   1.00000   0.00000   0.00000
   0.00000   1.00000   0.00000
   0.00000   0.00000   1.00000

 Projecting out zero-frequency components
 generating redundant internal coords
         300        3600          18
 search for int coords
   1 str   2   1   1.418
   2 str   3   2   1.381
   3 str   4   3   1.425
   4 str   5   4   1.406
   5 str   6   5   1.387
   6 str   7   3   1.764
   7 str   7   6   1.710
   8 str   8   4   1.435
   9 str   9   1   1.381
  10 str   9   8   1.425
  11 str  10   9   1.764
  12 str  11  10   1.710
  13 str  12   8   1.406
  14 str  12  11   1.387
  15 str  13   1   1.083
  16 str  14   2   1.083
  17 str  15   5   1.081
  18 str  16   6   1.081
  19 str  17  11   1.081
  20 str  18  12   1.081
 nber stretches=          20
  21 ben   1   2   3
  22 prop tor   1   2   3   4
  23 prop tor   1   2   3   7
  24 ben   1   2  14
  25 ben   1   9   8
  26 ben   1   9  10
  27 prop tor   1   9  10  11
  28 ben   2   1   9
  29 prop tor   2   1   9   8
  30 prop tor   2   1   9  10
  31 ben   2   1  13
  32 ben   2   3   4
  33 prop tor   2   3   4   5
  34 prop tor   2   3   4   8
  35 ben   2   3   7
  36 prop tor   2   3   7   6
  37 ben   3   2  14
  38 ben   3   4   5
  39 prop tor   3   4   5   6
  40 prop tor   3   4   5  15
  41 ben   3   4   8
  42 prop tor   3   4   8   9
  43 prop tor   3   4   8  12
  44 ben   3   7   6
  45 ben   4   3   7
  46 prop tor   4   3   7   6
  47 ben   4   5   6
  48 prop tor   4   5   6   7
  49 prop tor   4   5   6  16
  50 ben   4   5  15
  51 ben   4   8   9
  52 prop tor   4   8   9   1
  53 prop tor   4   8   9  10
  54 ben   4   8  12
  55 prop tor   4   8  12  11
  56 prop tor   4   8  12  18
  57 ben   5   4   8
  58 prop tor   5   4   8   9
  59 prop tor   5   4   8  12
  60 ben   5   6   7
  61 prop tor   5   6   7   3
  62 ben   5   6  16
  63 ben   6   5  15
  64 prop tor   7   3   4   5
  65 prop tor   7   3   4   8
  66 ben   7   6  16
  67 prop tor   8   4   5   6
  68 prop tor   8   4   5  15
  69 ben   8   9  10
  70 prop tor   8   9  10  11
  71 ben   8  12  11
  72 ben   8  12  18
  73 prop tor   9   1   2   3
  74 prop tor   9   1   2  14
  75 ben   9   1  13
  76 ben   9   8  12
  77 prop tor   9   8  12  11
  78 prop tor   9   8  12  18
  79 ben   9  10  11
  80 prop tor   9  10  11  12
  81 prop tor   9  10  11  17
  82 ben  10  11  12
  83 prop tor  10  11  12   8
  84 prop tor  10  11  12  18
  85 ben  10  11  17
  86 ben  11  12  18
  87 prop tor  12   8   9   1
  88 prop tor  12   8   9  10
  89 ben  12  11  17
  90 prop tor  13   1   2   3
  91 prop tor  13   1   2  14
  92 prop tor  13   1   9   8
  93 prop tor  13   1   9  10
  94 prop tor  14   2   3   4
  95 prop tor  14   2   3   7
  96 prop tor  15   5   6   7
  97 prop tor  15   5   6  16
  98 prop tor  16   6   7   3
  99 prop tor  17  11  12   8
 100 prop tor  17  11  12  18
 nber bend=              32
 nber lin bend=           0
 nber prop tor=          48
 nber impr tor=           0
 nber tot redund int=         100
 Eigenvalues of G in red int coords
    Gval -0.00000000 -0.00000000 -0.00000000 -0.00000000 -0.00000000 -0.00000000 -0.00000000 -0.00000000
    Gval -0.00000000 -0.00000000 -0.00000000 -0.00000000 -0.00000000 -0.00000000 -0.00000000 -0.00000000
    Gval -0.00000000 -0.00000000 -0.00000000 -0.00000000 -0.00000000 -0.00000000 -0.00000000 -0.00000000
    Gval -0.00000000  0.00000000  0.00000000  0.00000000  0.00000000  0.00000000  0.00000000  0.00000000
    Gval  0.00000000  0.00000000  0.00000000  0.00000000  0.00000000  0.00000000  0.00000000  0.00000000
    Gval  0.00000000  0.00000000  0.00000000  0.00000000  0.00000000  0.00000000  0.00000000  0.00000000
    Gval  0.00000000  0.00000000  0.00000000  0.00000000  0.00000900  0.00001162  0.00002608  0.00003064
    Gval  0.00003634  0.00004721  0.00004799  0.00004962  0.00006735  0.00007248  0.00008011  0.00008482
    Gval  0.00010163  0.00011550  0.00012164  0.00015592  0.00017315  0.00019846  0.00024181  0.00025820
    Gval  0.00029948  0.00030513  0.00039132  0.00039709  0.00041920  0.00044330  0.00051132  0.00059644
    Gval  0.00059690  0.00059883  0.00062280  0.00062793  0.00064157  0.00097629  0.00108005  0.00108212
    Gval  0.00109719  0.00115773  0.00116123  0.00117882  0.00117933  0.00181940  0.00198807  0.00242506
    Gval  0.00244231  0.00371489  0.00383579  0.00397478
  9.003816975194042E-006  9.003816975194042E-006
  1.162344701379110E-005  9.003816975194042E-006
  2.607953748885102E-005  9.003816975194042E-006
  3.063812735002348E-005  9.003816975194042E-006
  3.634002445965925E-005  9.003816975194042E-006
  4.721329082310415E-005  9.003816975194042E-006
  4.799234554278688E-005  9.003816975194042E-006
  4.961777614369288E-005  9.003816975194042E-006
  6.734691838775365E-005  9.003816975194042E-006
  7.247679297081212E-005  9.003816975194042E-006
  8.010576937758097E-005  9.003816975194042E-006
  8.482289724065345E-005  9.003816975194042E-006
  1.016342559078784E-004  9.003816975194042E-006
  1.154982784285429E-004  9.003816975194042E-006
  1.216357149221266E-004  9.003816975194042E-006
  1.559179124337096E-004  9.003816975194042E-006
  1.731483666903501E-004  9.003816975194042E-006
  1.984560655884771E-004  9.003816975194042E-006
  2.418119132497986E-004  9.003816975194042E-006
  2.582023686024600E-004  9.003816975194042E-006
  2.994833089496561E-004  9.003816975194042E-006
  3.051342837136571E-004  9.003816975194042E-006
  3.913152284281930E-004  9.003816975194042E-006
  3.970864520049748E-004  9.003816975194042E-006
  4.192026632793050E-004  9.003816975194042E-006
  4.433008621557764E-004  9.003816975194042E-006
  5.113160706069303E-004  9.003816975194042E-006
  5.964409749625215E-004  9.003816975194042E-006
  5.969010248736144E-004  9.003816975194042E-006
  5.988258220412097E-004  9.003816975194042E-006
  6.228027973847237E-004  9.003816975194042E-006
  6.279320558516721E-004  9.003816975194042E-006
  6.415688120059470E-004  9.003816975194042E-006
  9.762924661342911E-004  9.003816975194042E-006
  1.080045075459602E-003  9.003816975194042E-006
  1.082116255481060E-003  9.003816975194042E-006
  1.097188195031026E-003  9.003816975194042E-006
  1.157727787600328E-003  9.003816975194042E-006
  1.161227048609326E-003  9.003816975194042E-006
  1.178824679984106E-003  9.003816975194042E-006
  1.179328233425450E-003  9.003816975194042E-006
  1.819401207028406E-003  9.003816975194042E-006
  1.988073269352264E-003  9.003816975194042E-006
  2.425057923244275E-003  9.003816975194042E-006
  2.442306615532391E-003  9.003816975194042E-006
  3.714892156795561E-003  9.003816975194042E-006
  3.835786268624213E-003  9.003816975194042E-006
  3.974776160213366E-003  9.003816975194042E-006
 cut=1d-8, nber non-redundant internal coords=          48
 Check on Eigenvals of non-red overlap matrix:
  0.00000900  0.00001162  0.00002608  0.00003064  0.00003634  0.00004721  0.00004799  0.00004962
  0.00006735  0.00007248  0.00008011  0.00008482  0.00010163  0.00011550  0.00012164  0.00015592
  0.00017315  0.00019846  0.00024181  0.00025820  0.00029948  0.00030513  0.00039132  0.00039709
  0.00041920  0.00044330  0.00051132  0.00059644  0.00059690  0.00059883  0.00062280  0.00062793
  0.00064157  0.00097629  0.00108005  0.00108212  0.00109719  0.00115773  0.00116123  0.00117882
  0.00117933  0.00181940  0.00198807  0.00242506  0.00244231  0.00371489  0.00383579  0.00397478
 Checking for correct frequencies
 recalc frequencies=
    -0.0   -0.0   -0.0   -0.0    0.0    0.0  109.7  122.8  223.8  230.1
   299.9  348.0  420.0  425.9  460.2  488.3  496.5  593.7  598.2  615.0
   691.8  724.8  739.8  780.3  789.9  836.9  842.0  866.5  912.3  914.6
   916.9  945.9  965.0 1098.0 1110.9 1132.5 1161.2 1236.9 1266.4 1324.7
  1353.6 1405.2 1419.1 1433.0 1450.7 1465.5 1570.9 1585.3 3195.2 3205.7
  3218.8 3221.8 3238.0 3238.8
 recalc symmetries=
                                                                       
                                                                       
                                                                       
                                                                       
                                                                       
                             
 recalc freqs check OK
 Zero-point lengths:
 10.0000 10.0000 10.0000 10.0000 10.0000 10.0000 23.6685 22.3744 16.5719 16.3446
 14.3164 13.2888 12.0963 12.0126 11.5561 11.2185 11.1256 10.1748 10.1365  9.9966
  9.4254  9.2086  9.1147  8.8747  8.8207  8.5694  8.5436  8.4221  8.2077  8.1976
  8.1871  8.0609  7.9804  7.4816  7.4381  7.3668  7.2753  7.0490  6.9664  6.8113
  6.7383  6.6134  6.5811  6.5488  6.5089  6.4760  6.2549  6.2265  4.3858  4.3786
  4.3697  4.3676  4.3567  4.3562
 highest evec of mol 2
 -0.0004  0.0022 -0.0000
  0.0005  0.0021 -0.0000
  0.0018 -0.0031  0.0000
  0.0043 -0.0042  0.0000
  0.0350  0.0894 -0.0000
 -0.1550  0.1085 -0.0000
 -0.0004 -0.0022  0.0000
 -0.0046 -0.0040  0.0000
 -0.0020 -0.0030  0.0000
  0.0003 -0.0022  0.0000
  0.1611  0.0999 -0.0000
 -0.0300  0.0911 -0.0000
  0.0028 -0.0050  0.0000
 -0.0030 -0.0048  0.0000
 -0.0846 -0.2803  0.0000
  0.4833 -0.3674  0.0000
 -0.5040 -0.3405  0.0000
  0.0687 -0.2841  0.0000
 Enter nber and list of atoms to keep of mol #2
 keep list:          18           1           2           3           4
           5           6           7           8           9          10
          11          12          13          14          15          16
          17          18
 reordering atoms
           1 -0.709170731237682     
           2  0.709184632769983     
           3   1.38437551244968     
           4  0.717544496747403     
           5   1.62280458488213     
           6   2.94429886715581     
           7   3.13485985352760     
           8 -0.717555324916793     
           9  -1.38437353957358     
          10  -3.13486048585532     
          11  -2.94429861484875     
          12  -1.62280819869267     
          13  -1.24053617687063     
          14   1.24055166373118     
          15   1.34816605036407     
          16   3.82098135321008     
          17  -3.82098291126071     
          18  -1.34816548822932     
           1           1
           2           2
           3           3
           4           4
           5           5
           6           6
           7           7
           8           8
           9           9
          10          10
          11          11
          12          12
          13          13
          14          14
          15          15
          16          16
          17          17
          18          18
 initial cartes coords mol 1
   6  -0.00000  -1.85768  -0.72090
   6   0.00000  -1.85768   0.72092
   6  -0.00000  -0.65009   1.38477
   6  -0.00000   0.61998   0.72445
   6  -0.00000   1.69409   1.62873
   6  -0.00000   1.30679   2.96960
  16   0.00000  -0.41777   3.15106
   6  -0.00000   0.61997  -0.72447
   6   0.00000  -0.65010  -1.38476
  16   0.00000  -0.41777  -3.15106
   6  -0.00000   1.30680  -2.96960
   6   0.00000   1.69409  -1.62873
   1  -0.00000  -2.79941  -1.25448
   1   0.00000  -2.79940   1.25450
   1  -0.00000   2.73560   1.33395
   1  -0.00000   1.93950   3.84259
   1   0.00000   1.93951  -3.84260
   1   0.00000   2.73560  -1.33395
 initial cartes coords mol 2
   6  -0.00000  -1.84073  -0.70917
   6  -0.00000  -1.84072   0.70918
   6   0.00000  -0.63562   1.38438
   6  -0.00000   0.62361   0.71754
   6  -0.00000   1.69909   1.62280
   6  -0.00000   1.27733   2.94430
  16   0.00000  -0.42175   3.13486
   6  -0.00000   0.62360  -0.71756
   6  -0.00000  -0.63563  -1.38437
  16   0.00000  -0.42175  -3.13486
   6  -0.00000   1.27734  -2.94430
   6   0.00000   1.69910  -1.62281
   1   0.00000  -2.78466  -1.24054
   1  -0.00000  -2.78465   1.24055
   1  -0.00000   2.74485   1.34817
   1  -0.00000   1.90981   3.82098
   1  -0.00000   1.90982  -3.82098
   1   0.00000   2.74485  -1.34817
 loop 1 0
 mod cartes coords mol 2
   6  -0.00000  -1.84073  -0.70917
   6  -0.00000  -1.84072   0.70918
   6   0.00000  -0.63562   1.38438
   6  -0.00000   0.62361   0.71754
   6  -0.00000   1.69909   1.62280
   6  -0.00000   1.27733   2.94430
  16   0.00000  -0.42175   3.13486
   6  -0.00000   0.62360  -0.71756
   6  -0.00000  -0.63563  -1.38437
  16   0.00000  -0.42175  -3.13486
   6  -0.00000   1.27734  -2.94430
   6   0.00000   1.69910  -1.62281
   1   0.00000  -2.78466  -1.24054
   1  -0.00000  -2.78465   1.24055
   1  -0.00000   2.74485   1.34817
   1  -0.00000   1.90981   3.82098
   1  -0.00000   1.90982  -3.82098
   1   0.00000   2.74485  -1.34817
 read in order, maxerr=  0.04 for atom  11
 final axis swaps:           1           1           1
 final xyz swap pattern=           1
 reorder list:
   1   2   3   4   5   6   7   8   9  10  11  12  13  14  15  16  17  18
 axis signs=           1           1           1
  6    -0.000000 -1.840729 -0.709171    -0.000001 -1.857684 -0.720900
  6    -0.000000 -1.840722  0.709185     0.000000 -1.857677  0.720919
  6     0.000000 -0.635621  1.384376    -0.000000 -0.650094  1.384765
  6    -0.000000  0.623605  0.717544    -0.000000  0.619978  0.724453
  6    -0.000000  1.699094  1.622805    -0.000000  1.694094  1.628732
  6    -0.000000  1.277332  2.944299    -0.000000  1.306794  2.969595
 16     0.000000 -0.421746  3.134860     0.000000 -0.417769  3.151061
  6    -0.000000  0.623601 -0.717555    -0.000000  0.619973 -0.724465
  6    -0.000000 -0.635629 -1.384374     0.000000 -0.650104 -1.384762
 16     0.000000 -0.421751 -3.134860     0.000000 -0.417773 -3.151063
  6    -0.000000  1.277335 -2.944299    -0.000000  1.306798 -2.969597
  6     0.000000  1.699095 -1.622808     0.000000  1.694090 -1.628734
  1     0.000000 -2.784662 -1.240536    -0.000000 -2.799407 -1.254482
  1    -0.000000 -2.784655  1.240552     0.000000 -2.799399  1.254505
  1    -0.000000  2.744846  1.348166    -0.000001  2.735604  1.333954
  1    -0.000000  1.909811  3.820981    -0.000000  1.939504  3.842593
  1    -0.000000  1.909816 -3.820983     0.000000  1.939508 -3.842597
  1     0.000000  2.744847 -1.348165     0.000000  2.735602 -1.333952
 generating redundant internal coords
         300        3600          18
 Adding extra bonds for z output only
           6           6           6           6           6           6
          16           6           6          16           6           6
           1           1           1           1           1           1
 search for int coords
   1 str   2   1   1.418
   2 str   3   2   1.381
   3 str   4   3   1.425
   4 str   5   4   1.406
   5 str   6   5   1.387
   6 str   7   3   1.764
   7 str   7   6   1.710
   8 str   8   4   1.435
   9 str   9   1   1.381
  10 str   9   8   1.425
  11 str  10   9   1.764
  12 str  11  10   1.710
  13 str  12   8   1.406
  14 str  12  11   1.387
  15 str  13   1   1.083
  16 str  14   2   1.083
  17 str  15   5   1.081
  18 str  16   6   1.081
  19 str  17  11   1.081
  20 str  18  12   1.081
 nber stretches=          20
  21 ben   1   2   3
  22 prop tor   1   2   3   4
  23 prop tor   1   2   3   7
  24 ben   1   2  14
  25 ben   1   9   8
  26 ben   1   9  10
  27 prop tor   1   9  10  11
  28 ben   2   1   9
  29 prop tor   2   1   9   8
  30 prop tor   2   1   9  10
  31 ben   2   1  13
  32 ben   2   3   4
  33 prop tor   2   3   4   5
  34 prop tor   2   3   4   8
  35 ben   2   3   7
  36 prop tor   2   3   7   6
  37 ben   3   2  14
  38 ben   3   4   5
  39 prop tor   3   4   5   6
  40 prop tor   3   4   5  15
  41 ben   3   4   8
  42 prop tor   3   4   8   9
  43 prop tor   3   4   8  12
  44 ben   3   7   6
  45 ben   4   3   7
  46 prop tor   4   3   7   6
  47 ben   4   5   6
  48 prop tor   4   5   6   7
  49 prop tor   4   5   6  16
  50 ben   4   5  15
  51 ben   4   8   9
  52 prop tor   4   8   9   1
  53 prop tor   4   8   9  10
  54 ben   4   8  12
  55 prop tor   4   8  12  11
  56 prop tor   4   8  12  18
  57 ben   5   4   8
  58 prop tor   5   4   8   9
  59 prop tor   5   4   8  12
  60 ben   5   6   7
  61 prop tor   5   6   7   3
  62 ben   5   6  16
  63 ben   6   5  15
  64 prop tor   7   3   4   5
  65 prop tor   7   3   4   8
  66 ben   7   6  16
  67 prop tor   8   4   5   6
  68 prop tor   8   4   5  15
  69 ben   8   9  10
  70 prop tor   8   9  10  11
  71 ben   8  12  11
  72 ben   8  12  18
  73 prop tor   9   1   2   3
  74 prop tor   9   1   2  14
  75 ben   9   1  13
  76 ben   9   8  12
  77 prop tor   9   8  12  11
  78 prop tor   9   8  12  18
  79 ben   9  10  11
  80 prop tor   9  10  11  12
  81 prop tor   9  10  11  17
  82 ben  10  11  12
  83 prop tor  10  11  12   8
  84 prop tor  10  11  12  18
  85 ben  10  11  17
  86 ben  11  12  18
  87 prop tor  12   8   9   1
  88 prop tor  12   8   9  10
  89 ben  12  11  17
  90 prop tor  13   1   2   3
  91 prop tor  13   1   2  14
  92 prop tor  13   1   9   8
  93 prop tor  13   1   9  10
  94 prop tor  14   2   3   4
  95 prop tor  14   2   3   7
  96 prop tor  15   5   6   7
  97 prop tor  15   5   6  16
  98 prop tor  16   6   7   3
  99 prop tor  17  11  12   8
 100 prop tor  17  11  12  18
 nber bend=              32
 nber lin bend=           0
 nber prop tor=          48
 nber impr tor=           0
 nber tot redund int=         100
 generating redundant internal coords
         300        3600          18
 search for int coords
   1 str   2   1   1.442
   2 str   3   2   1.378
   3 str   4   3   1.431
   4 str   5   4   1.404
   5 str   6   5   1.396
   6 str   7   3   1.782
   7 str   7   6   1.734
   8 str   8   4   1.449
   9 str   9   1   1.378
  10 str   9   8   1.431
  11 str  10   9   1.782
  12 str  11  10   1.734
  13 str  12   8   1.404
  14 str  12  11   1.396
  15 str  13   1   1.082
  16 str  14   2   1.082
  17 str  15   5   1.082
  18 str  16   6   1.078
  19 str  17  11   1.078
  20 str  18  12   1.082
 nber stretches=          20
  21 ben   1   2   3
  22 prop tor   1   2   3   4
  23 prop tor   1   2   3   7
  24 ben   1   2  14
  25 ben   1   9   8
  26 ben   1   9  10
  27 prop tor   1   9  10  11
  28 ben   2   1   9
  29 prop tor   2   1   9   8
  30 prop tor   2   1   9  10
  31 ben   2   1  13
  32 ben   2   3   4
  33 prop tor   2   3   4   5
  34 prop tor   2   3   4   8
  35 ben   2   3   7
  36 prop tor   2   3   7   6
  37 ben   3   2  14
  38 ben   3   4   5
  39 prop tor   3   4   5   6
  40 prop tor   3   4   5  15
  41 ben   3   4   8
  42 prop tor   3   4   8   9
  43 prop tor   3   4   8  12
  44 ben   3   7   6
  45 ben   4   3   7
  46 prop tor   4   3   7   6
  47 ben   4   5   6
  48 prop tor   4   5   6   7
  49 prop tor   4   5   6  16
  50 ben   4   5  15
  51 ben   4   8   9
  52 prop tor   4   8   9   1
  53 prop tor   4   8   9  10
  54 ben   4   8  12
  55 prop tor   4   8  12  11
  56 prop tor   4   8  12  18
  57 ben   5   4   8
  58 prop tor   5   4   8   9
  59 prop tor   5   4   8  12
  60 ben   5   6   7
  61 prop tor   5   6   7   3
  62 ben   5   6  16
  63 ben   6   5  15
  64 prop tor   7   3   4   5
  65 prop tor   7   3   4   8
  66 ben   7   6  16
  67 prop tor   8   4   5   6
  68 prop tor   8   4   5  15
  69 ben   8   9  10
  70 prop tor   8   9  10  11
  71 ben   8  12  11
  72 ben   8  12  18
  73 prop tor   9   1   2   3
  74 prop tor   9   1   2  14
  75 ben   9   1  13
  76 ben   9   8  12
  77 prop tor   9   8  12  11
  78 prop tor   9   8  12  18
  79 ben   9  10  11
  80 prop tor   9  10  11  12
  81 prop tor   9  10  11  17
  82 ben  10  11  12
  83 prop tor  10  11  12   8
  84 prop tor  10  11  12  18
  85 ben  10  11  17
  86 ben  11  12  18
  87 prop tor  12   8   9   1
  88 prop tor  12   8   9  10
  89 ben  12  11  17
  90 prop tor  13   1   2   3
  91 prop tor  13   1   2  14
  92 prop tor  13   1   9   8
  93 prop tor  13   1   9  10
  94 prop tor  14   2   3   4
  95 prop tor  14   2   3   7
  96 prop tor  15   5   6   7
  97 prop tor  15   5   6  16
  98 prop tor  16   6   7   3
  99 prop tor  17  11  12   8
 100 prop tor  17  11  12  18
 nber bend=              32
 nber lin bend=           0
 nber prop tor=          48
 nber impr tor=           0
 nber tot redund int=         100
 Eigenvalues of G in red int coords
    Gval -0.00000000 -0.00000000 -0.00000000 -0.00000000 -0.00000000 -0.00000000 -0.00000000 -0.00000000
    Gval -0.00000000 -0.00000000 -0.00000000 -0.00000000 -0.00000000 -0.00000000 -0.00000000 -0.00000000
    Gval -0.00000000 -0.00000000 -0.00000000 -0.00000000 -0.00000000 -0.00000000 -0.00000000 -0.00000000
    Gval -0.00000000 -0.00000000 -0.00000000 -0.00000000  0.00000000  0.00000000  0.00000000  0.00000000
    Gval  0.00000000  0.00000000  0.00000000  0.00000000  0.00000000  0.00000000  0.00000000  0.00000000
    Gval  0.00000000  0.00000000  0.00000000  0.00000000  0.00000000  0.00000000  0.00000000  0.00000000
    Gval  0.00000000  0.00000000  0.00000000  0.00000000  0.00000891  0.00001164  0.00002597  0.00003058
    Gval  0.00003614  0.00004654  0.00004800  0.00004964  0.00006658  0.00007092  0.00007983  0.00008462
    Gval  0.00010041  0.00011460  0.00012122  0.00015501  0.00016994  0.00019509  0.00024079  0.00025679
    Gval  0.00029701  0.00029811  0.00039050  0.00039702  0.00041010  0.00043837  0.00051186  0.00059646
    Gval  0.00059689  0.00059888  0.00062246  0.00062738  0.00064025  0.00096857  0.00108192  0.00108408
    Gval  0.00109952  0.00116132  0.00116523  0.00117865  0.00117900  0.00182295  0.00201530  0.00243943
    Gval  0.00246162  0.00373177  0.00382816  0.00395073
  8.909024577412119E-006  8.909024577412119E-006
  1.163533487382020E-005  8.909024577412119E-006
  2.597089258120632E-005  8.909024577412119E-006
  3.057897634924764E-005  8.909024577412119E-006
  3.613796618285548E-005  8.909024577412119E-006
  4.653740723430558E-005  8.909024577412119E-006
  4.799948568238747E-005  8.909024577412119E-006
  4.964124800310397E-005  8.909024577412119E-006
  6.658058908769756E-005  8.909024577412119E-006
  7.091794458793109E-005  8.909024577412119E-006
  7.982515467689400E-005  8.909024577412119E-006
  8.461974057795450E-005  8.909024577412119E-006
  1.004096978494025E-004  8.909024577412119E-006
  1.145952356144251E-004  8.909024577412119E-006
  1.212198653855165E-004  8.909024577412119E-006
  1.550063070477183E-004  8.909024577412119E-006
  1.699385834924394E-004  8.909024577412119E-006
  1.950945671781750E-004  8.909024577412119E-006
  2.407869845363352E-004  8.909024577412119E-006
  2.567859017469486E-004  8.909024577412119E-006
  2.970142171423608E-004  8.909024577412119E-006
  2.981056750532858E-004  8.909024577412119E-006
  3.905000430585301E-004  8.909024577412119E-006
  3.970224631313638E-004  8.909024577412119E-006
  4.101040795599383E-004  8.909024577412119E-006
  4.383706486579480E-004  8.909024577412119E-006
  5.118570553840382E-004  8.909024577412119E-006
  5.964642758300843E-004  8.909024577412119E-006
  5.968870249094265E-004  8.909024577412119E-006
  5.988842111387461E-004  8.909024577412119E-006
  6.224604567406462E-004  8.909024577412119E-006
  6.273827437059649E-004  8.909024577412119E-006
  6.402451586425314E-004  8.909024577412119E-006
  9.685746693029441E-004  8.909024577412119E-006
  1.081920491760517E-003  8.909024577412119E-006
  1.084084644160880E-003  8.909024577412119E-006
  1.099515181905094E-003  8.909024577412119E-006
  1.161324605970648E-003  8.909024577412119E-006
  1.165231560819228E-003  8.909024577412119E-006
  1.178649391626832E-003  8.909024577412119E-006
  1.179004310325286E-003  8.909024577412119E-006
  1.822946545133913E-003  8.909024577412119E-006
  2.015296238871299E-003  8.909024577412119E-006
  2.439431718461003E-003  8.909024577412119E-006
  2.461622301456262E-003  8.909024577412119E-006
  3.731774860931161E-003  8.909024577412119E-006
  3.828156030221204E-003  8.909024577412119E-006
  3.950732100561466E-003  8.909024577412119E-006
 cut=1d-8, nber non-redundant internal coords=          48
 Check on Eigenvals of non-red overlap matrix:
  0.00000891  0.00001164  0.00002597  0.00003058  0.00003614  0.00004654  0.00004800  0.00004964
  0.00006658  0.00007092  0.00007983  0.00008462  0.00010041  0.00011460  0.00012122  0.00015501
  0.00016994  0.00019509  0.00024079  0.00025679  0.00029701  0.00029811  0.00039050  0.00039702
  0.00041010  0.00043837  0.00051186  0.00059646  0.00059689  0.00059888  0.00062246  0.00062738
  0.00064025  0.00096857  0.00108192  0.00108408  0.00109952  0.00116132  0.00116523  0.00117865
  0.00117900  0.00182295  0.00201530  0.00243943  0.00246162  0.00373177  0.00382816  0.00395073
 generating redundant internal coords
         300        3600          18
 search for int coords
   1 str   2   1   1.418
   2 str   3   2   1.381
   3 str   4   3   1.425
   4 str   5   4   1.406
   5 str   6   5   1.387
   6 str   7   3   1.764
   7 str   7   6   1.710
   8 str   8   4   1.435
   9 str   9   1   1.381
  10 str   9   8   1.425
  11 str  10   9   1.764
  12 str  11  10   1.710
  13 str  12   8   1.406
  14 str  12  11   1.387
  15 str  13   1   1.083
  16 str  14   2   1.083
  17 str  15   5   1.081
  18 str  16   6   1.081
  19 str  17  11   1.081
  20 str  18  12   1.081
 nber stretches=          20
  21 ben   1   2   3
  22 prop tor   1   2   3   4
  23 prop tor   1   2   3   7
  24 ben   1   2  14
  25 ben   1   9   8
  26 ben   1   9  10
  27 prop tor   1   9  10  11
  28 ben   2   1   9
  29 prop tor   2   1   9   8
  30 prop tor   2   1   9  10
  31 ben   2   1  13
  32 ben   2   3   4
  33 prop tor   2   3   4   5
  34 prop tor   2   3   4   8
  35 ben   2   3   7
  36 prop tor   2   3   7   6
  37 ben   3   2  14
  38 ben   3   4   5
  39 prop tor   3   4   5   6
  40 prop tor   3   4   5  15
  41 ben   3   4   8
  42 prop tor   3   4   8   9
  43 prop tor   3   4   8  12
  44 ben   3   7   6
  45 ben   4   3   7
  46 prop tor   4   3   7   6
  47 ben   4   5   6
  48 prop tor   4   5   6   7
  49 prop tor   4   5   6  16
  50 ben   4   5  15
  51 ben   4   8   9
  52 prop tor   4   8   9   1
  53 prop tor   4   8   9  10
  54 ben   4   8  12
  55 prop tor   4   8  12  11
  56 prop tor   4   8  12  18
  57 ben   5   4   8
  58 prop tor   5   4   8   9
  59 prop tor   5   4   8  12
  60 ben   5   6   7
  61 prop tor   5   6   7   3
  62 ben   5   6  16
  63 ben   6   5  15
  64 prop tor   7   3   4   5
  65 prop tor   7   3   4   8
  66 ben   7   6  16
  67 prop tor   8   4   5   6
  68 prop tor   8   4   5  15
  69 ben   8   9  10
  70 prop tor   8   9  10  11
  71 ben   8  12  11
  72 ben   8  12  18
  73 prop tor   9   1   2   3
  74 prop tor   9   1   2  14
  75 ben   9   1  13
  76 ben   9   8  12
  77 prop tor   9   8  12  11
  78 prop tor   9   8  12  18
  79 ben   9  10  11
  80 prop tor   9  10  11  12
  81 prop tor   9  10  11  17
  82 ben  10  11  12
  83 prop tor  10  11  12   8
  84 prop tor  10  11  12  18
  85 ben  10  11  17
  86 ben  11  12  18
  87 prop tor  12   8   9   1
  88 prop tor  12   8   9  10
  89 ben  12  11  17
  90 prop tor  13   1   2   3
  91 prop tor  13   1   2  14
  92 prop tor  13   1   9   8
  93 prop tor  13   1   9  10
  94 prop tor  14   2   3   4
  95 prop tor  14   2   3   7
  96 prop tor  15   5   6   7
  97 prop tor  15   5   6  16
  98 prop tor  16   6   7   3
  99 prop tor  17  11  12   8
 100 prop tor  17  11  12  18
 nber bend=              32
 nber lin bend=           0
 nber prop tor=          48
 nber impr tor=           0
 nber tot redund int=         100
 Eigenvalues of G in red int coords
    Gval -0.00000000 -0.00000000 -0.00000000 -0.00000000 -0.00000000 -0.00000000 -0.00000000 -0.00000000
    Gval -0.00000000 -0.00000000 -0.00000000 -0.00000000 -0.00000000 -0.00000000 -0.00000000 -0.00000000
    Gval -0.00000000 -0.00000000 -0.00000000 -0.00000000 -0.00000000 -0.00000000 -0.00000000 -0.00000000
    Gval -0.00000000 -0.00000000 -0.00000000 -0.00000000  0.00000000  0.00000000  0.00000000  0.00000000
    Gval  0.00000000  0.00000000  0.00000000  0.00000000  0.00000000  0.00000000  0.00000000  0.00000000
    Gval  0.00000000  0.00000000  0.00000000  0.00000000  0.00000000  0.00000000  0.00000000  0.00000000
    Gval  0.00000000  0.00000000  0.00000000  0.00000000  0.00000900  0.00001162  0.00002608  0.00003064
    Gval  0.00003634  0.00004721  0.00004799  0.00004962  0.00006735  0.00007248  0.00008011  0.00008482
    Gval  0.00010163  0.00011550  0.00012164  0.00015592  0.00017315  0.00019846  0.00024181  0.00025820
    Gval  0.00029948  0.00030513  0.00039132  0.00039709  0.00041920  0.00044330  0.00051132  0.00059644
    Gval  0.00059690  0.00059883  0.00062280  0.00062793  0.00064157  0.00097629  0.00108005  0.00108212
    Gval  0.00109719  0.00115773  0.00116123  0.00117882  0.00117933  0.00181940  0.00198807  0.00242506
    Gval  0.00244231  0.00371489  0.00383579  0.00397478
  9.003816975194039E-006  9.003816975194039E-006
  1.162344701379112E-005  9.003816975194039E-006
  2.607953748885103E-005  9.003816975194039E-006
  3.063812735002344E-005  9.003816975194039E-006
  3.634002445965928E-005  9.003816975194039E-006
  4.721329082310432E-005  9.003816975194039E-006
  4.799234554278685E-005  9.003816975194039E-006
  4.961777614369292E-005  9.003816975194039E-006
  6.734691838775361E-005  9.003816975194039E-006
  7.247679297081194E-005  9.003816975194039E-006
  8.010576937758083E-005  9.003816975194039E-006
  8.482289724065339E-005  9.003816975194039E-006
  1.016342559078784E-004  9.003816975194039E-006
  1.154982784285430E-004  9.003816975194039E-006
  1.216357149221265E-004  9.003816975194039E-006
  1.559179124337097E-004  9.003816975194039E-006
  1.731483666903504E-004  9.003816975194039E-006
  1.984560655884782E-004  9.003816975194039E-006
  2.418119132497984E-004  9.003816975194039E-006
  2.582023686024602E-004  9.003816975194039E-006
  2.994833089496567E-004  9.003816975194039E-006
  3.051342837136564E-004  9.003816975194039E-006
  3.913152284281928E-004  9.003816975194039E-006
  3.970864520049744E-004  9.003816975194039E-006
  4.192026632793052E-004  9.003816975194039E-006
  4.433008621557762E-004  9.003816975194039E-006
  5.113160706069313E-004  9.003816975194039E-006
  5.964409749625216E-004  9.003816975194039E-006
  5.969010248736145E-004  9.003816975194039E-006
  5.988258220412102E-004  9.003816975194039E-006
  6.228027973847239E-004  9.003816975194039E-006
  6.279320558516725E-004  9.003816975194039E-006
  6.415688120059472E-004  9.003816975194039E-006
  9.762924661342909E-004  9.003816975194039E-006
  1.080045075459603E-003  9.003816975194039E-006
  1.082116255481061E-003  9.003816975194039E-006
  1.097188195031027E-003  9.003816975194039E-006
  1.157727787600330E-003  9.003816975194039E-006
  1.161227048609325E-003  9.003816975194039E-006
  1.178824679984105E-003  9.003816975194039E-006
  1.179328233425449E-003  9.003816975194039E-006
  1.819401207028404E-003  9.003816975194039E-006
  1.988073269352266E-003  9.003816975194039E-006
  2.425057923244279E-003  9.003816975194039E-006
  2.442306615532390E-003  9.003816975194039E-006
  3.714892156795564E-003  9.003816975194039E-006
  3.835786268624215E-003  9.003816975194039E-006
  3.974776160213367E-003  9.003816975194039E-006
 cut=1d-8, nber non-redundant internal coords=          48
 Check on Eigenvals of non-red overlap matrix:
  0.00000900  0.00001162  0.00002608  0.00003064  0.00003634  0.00004721  0.00004799  0.00004962
  0.00006735  0.00007248  0.00008011  0.00008482  0.00010163  0.00011550  0.00012164  0.00015592
  0.00017315  0.00019846  0.00024181  0.00025820  0.00029948  0.00030513  0.00039132  0.00039709
  0.00041920  0.00044330  0.00051132  0.00059644  0.00059690  0.00059883  0.00062280  0.00062793
  0.00064157  0.00097629  0.00108005  0.00108212  0.00109719  0.00115773  0.00116123  0.00117882
  0.00117933  0.00181940  0.00198807  0.00242506  0.00244231  0.00371489  0.00383579  0.00397478
 d1=
  -3.5   8.4  -0.0  -0.0  -2.9   0.0   0.4   0.0   0.0   0.0   1.6   3.0  -0.0  -2.1   0.0  -1.7   0.0  -0.0  -0.2  -5.0
   0.0   0.0  -0.0  -0.9  -0.0  -0.0   0.0   0.4   0.0   0.3  -0.8   0.0   0.0  -0.0   0.6  -0.0   0.2  -0.0  -0.0   0.4
   0.0   0.0   0.0  -0.0  -0.0   0.0  -0.0  -0.0
 d2=
  -3.9   8.4  -0.0  -0.0   2.8  -0.0   0.6   0.0  -0.0   0.0  -1.6   2.9   0.0   2.1   0.0   1.7   0.0   0.0   0.2   5.0
   0.0  -0.0   0.0  -0.9   0.0   0.0  -0.0   0.4   0.0  -0.3  -0.9   0.0  -0.0   0.0  -0.6  -0.0   0.2  -0.0  -0.0   0.4
  -0.0  -0.0  -0.0  -0.0  -0.0  -0.0   0.0   0.0
 curvilinear- renormalizn of Dush matrix done
  mol 1 sym            1  -> mol 2 sym            1

 Dushinsky matrix, ncs 2 in terms of ncs 1

   mode   freq    coeff     %      %tot     of    at

   1        -0. -0.0000     0.0     0.0   7        83.
   2        -0. -0.0000     0.0     0.0   7        83.
   3        -0. -0.0000     0.0     0.0   7        83.
   4        -0. -0.0000     0.0     0.0   8       100.
   5         0. -0.0000     0.0     0.0   7        83.
   6         0.  0.0000     0.0     0.0  10       226.
   7       110.  0.9971    99.4   101.5   8       100.
   8       123.  0.9948    99.0   101.3   7        83.
   9       224. -0.9902    98.0   100.0   9       192.
  10       230.  0.9994    99.9   101.3  10       226.
  11       300. -0.8991    80.8   102.2  11       284.
                -0.4266    18.2          12       310.
  12       348.  0.9993    99.9   100.0  13       339.
  13       420. -0.9941    98.8   101.3  14       397.
  14       426. -0.4394    19.3   102.9  11       284.
                 0.8929    79.7          12       310.
  15       460.  0.9863    97.3   101.7  15       413.
  16       488. -0.9962    99.3   101.3  16       431.
  17       497. -0.9885    97.7   101.0  17       482.
  18       594.  0.9989    99.8   100.9  21       576.
  19       598.  0.9398    88.3   102.3  18       508.
  20       615.  0.3518    12.4    99.4  20       554.
                 0.9327    87.0          22       592.
  21       692. -0.3702    13.7   100.5  19       553.
                 0.9242    85.4          23       660.
  22       725.  0.9379    88.0   100.1  24       674.
  23       740.  0.9957    99.2   100.4  25       727.
  24       780.  0.8595    73.9    99.0  20       554.
                -0.3225    10.4          22       592.
                 0.3925    15.4          30       826.
  25       790.  0.8360    69.9    99.0  19       553.
                 0.3496    12.2          23       660.
                -0.4070    16.6          29       824.
  26       837.  0.9977    99.5   100.3  27       809.
  27       842.  0.9989    99.8    99.4  26       730.
  28       866. -0.9886    97.7   100.9  31       836.
  29       912.  0.3565    12.7   100.0  19       553.
                 0.9210    84.8          29       824.
  30       915.  0.9929    98.6   100.8  32       891.
  31       917. -0.3488    12.2   100.0  20       554.
                 0.9283    86.2          30       826.
  32       946. -0.9962    99.2   100.5  33       913.
  33       965. -0.9930    98.6    99.9  28       809.
  34      1098.  0.9909    98.2    99.9  35      1061.
  35      1111. -0.8685    75.4    99.9  34      1057.
                -0.4902    24.0          36      1094.
  36      1132. -0.4854    23.6   100.0  34      1057.
                 0.8665    75.1          36      1094.
  37      1161.  0.9759    95.2   100.1  37      1111.
  38      1237.  0.9902    98.1   100.0  38      1226.
  39      1266.  0.9925    98.5   100.1  39      1243.
  40      1325.  0.9929    98.6    99.9  40      1283.
  41      1354.  0.9595    92.1    99.9  41      1312.
  42      1405.  0.3464    12.0   100.4  43      1364.
                -0.7682    59.0          44      1383.
                -0.4867    23.7          45      1439.
  43      1419.  0.9340    87.2   100.3  43      1364.
  44      1433.  0.9303    86.6   100.6  42      1356.
  45      1451. -0.5066    25.7   100.1  44      1383.
                 0.8518    72.6          45      1439.
  46      1465. -0.9941    98.8   100.2  46      1440.
  47      1571. -0.9625    92.6   100.4  47      1522.
  48      1585.  0.9549    91.2   100.3  48      1571.
  49      3195.  0.9984    99.7   100.0  49      3186.
  50      3206. -0.9836    96.7   100.0  52      3201.
  51      3219. -0.9675    93.6   100.0  50      3197.
  52      3222.  0.9361    87.6   100.0  51      3200.
  53      3238.  0.9684    93.8   100.0  53      3250.
  54      3239.  0.9522    90.7   100.0  54      3253.
 nber times 1st assigned=           1           0
 nber times 1st assigned=           2           0
 nber times 1st assigned=           3           0
 nber times 1st assigned=           4           0
 nber times 1st assigned=           5           0
 nber times 1st assigned=           6           0
 nber times 1st assigned=           7           4
 nber times 1st assigned=           9           0
 nber times 1st assigned=          11           0
 nber times 1st assigned=          12           0
 nber times 1st assigned=          13           0
 nber times 1st assigned=          14           0
 nber times 1st assigned=          15           0
 nber times 1st assigned=          16           0
 nber times 1st assigned=          17           0
 nber times 1st assigned=          18           0
 nber times 1st assigned=          19           0
 nber times 1st assigned=          20           0
 nber times 1st assigned=          21           0
 nber times 1st assigned=          22           0
 nber times 1st assigned=          23           0
 nber times 1st assigned=          24           0
 nber times 1st assigned=          25           0
 nber times 1st assigned=          26           0
 nber times 1st assigned=          27           0
 nber times 1st assigned=          28           0
 nber times 1st assigned=          29           0
 nber times 1st assigned=          30           0
 nber times 1st assigned=          31           0
 nber times 1st assigned=          32           0
 nber times 1st assigned=          33           0
 nber times 1st assigned=          34           0
 nber times 1st assigned=          35           0
 nber times 1st assigned=          36           0
 nber times 1st assigned=          37           0
 nber times 1st assigned=          38           0
 nber times 1st assigned=          39           0
 nber times 1st assigned=          40           0
 nber times 1st assigned=          41           0
 nber times 1st assigned=          42           0
 nber times 1st assigned=          43           0
 nber times 1st assigned=          44           0
 nber times 1st assigned=          45           0
 nber times 1st assigned=          46           0
 nber times 1st assigned=          47           0
 nber times 1st assigned=          48           0
 nber times 1st assigned=          49           0
 nber times 1st assigned=          50           0
 nber times 1st assigned=          51           0
 nber times 1st assigned=          52           0
 nber times 1st assigned=          53           0
 nber times 1st assigned=          54           0
 Dushinsky matrix written to .out file
 modes represented=   48.1994956345625     

 Dushinsky matrix, ncs 1 in terms of ncs 2

   mode   freq    coeff     %      %tot     of    at

   7        83.  0.9948    99.0   101.2   8       123.
   8       100.  0.9971    99.4   101.8   7       110.
   9       192. -0.9902    98.0   100.9   9       224.
  10       226.  0.9994    99.9   101.4  10       230.
  11       284. -0.8991    80.8   103.4  11       300.
                -0.4394    19.3          14       426.
  12       310. -0.4266    18.2   101.9  11       300.
                 0.8929    79.7          14       426.
  13       339.  0.9993    99.9   100.1  12       348.
  14       397. -0.9941    98.8   101.6  13       420.
  15       413.  0.9863    97.3   100.7  15       460.
  16       431. -0.9962    99.3   101.4  16       488.
  17       482. -0.9885    97.7   101.2  17       497.
  18       508.  0.9398    88.3   101.8  19       598.
  19       553. -0.3702    13.7    97.6  21       692.
                 0.8360    69.9          25       790.
                 0.3565    12.7          29       912.
  20       554.  0.3518    12.4    97.8  20       615.
                 0.8595    73.9          24       780.
                -0.3488    12.2          31       917.
  21       576.  0.9989    99.8   100.9  18       594.
  22       592.  0.9327    87.0    98.8  20       615.
                -0.3225    10.4          24       780.
  23       660.  0.9242    85.4   100.3  21       692.
                 0.3496    12.2          25       790.
  24       674.  0.9379    88.0   100.3  22       725.
  25       727.  0.9957    99.2   100.3  23       740.
  26       730.  0.9989    99.8    99.4  27       842.
  27       809.  0.9977    99.5   100.3  26       837.
  28       809. -0.9930    98.6    99.9  33       965.
  29       824. -0.4070    16.6   101.4  25       790.
                 0.9210    84.8          29       912.
  30       826.  0.3925    15.4   101.5  24       780.
                 0.9283    86.2          31       917.
  31       836. -0.9886    97.7   100.9  28       866.
  32       891.  0.9929    98.6   100.8  30       915.
  33       913. -0.9962    99.2   100.5  32       946.
  34      1057. -0.8685    75.4   100.0  35      1111.
                -0.4854    23.6          36      1132.
  35      1061.  0.9909    98.2    99.8  34      1098.
  36      1094. -0.4902    24.0   100.0  35      1111.
                 0.8665    75.1          36      1132.
  37      1111.  0.9759    95.2   100.1  37      1161.
  38      1226.  0.9902    98.1   100.0  38      1237.
  39      1243.  0.9925    98.5   100.0  39      1266.
  40      1283.  0.9929    98.6    99.8  40      1325.
  41      1312.  0.9595    92.1    99.9  41      1354.
  42      1356.  0.9303    86.6   100.6  44      1433.
  43      1364.  0.3464    12.0   100.7  42      1405.
                 0.9340    87.2          43      1419.
  44      1383. -0.7682    59.0    99.9  42      1405.
                -0.5066    25.7          45      1451.
  45      1439. -0.4867    23.7   100.2  42      1405.
                 0.8518    72.6          45      1451.
  46      1440. -0.9941    98.8   100.1  46      1465.
  47      1522. -0.9625    92.6   100.4  47      1571.
  48      1571.  0.9549    91.2   100.2  48      1585.
  49      3186.  0.9984    99.7   100.0  49      3195.
  50      3197. -0.9675    93.6   100.0  51      3219.
  51      3200.  0.9361    87.6   100.0  52      3222.
  52      3201. -0.9836    96.7   100.0  50      3206.
  53      3250.  0.9684    93.8   100.0  53      3238.
  54      3253.  0.9522    90.7   100.0  54      3239.
 nber times 1st assigned=           1           0
 nber times 1st assigned=           2           0
 nber times 1st assigned=           3           0
 nber times 1st assigned=           4           0
 nber times 1st assigned=           5           0
 nber times 1st assigned=           6           0
 nber times 1st assigned=           7           0
 nber times 1st assigned=           8           0
 nber times 1st assigned=           9           0
 nber times 1st assigned=          10           0
 nber times 1st assigned=          11           0
 nber times 1st assigned=          12           0
 nber times 1st assigned=          13           0
 nber times 1st assigned=          14           0
 nber times 1st assigned=          15           0
 nber times 1st assigned=          16           0
 nber times 1st assigned=          17           0
 nber times 1st assigned=          18           0
 nber times 1st assigned=          19           0
 nber times 1st assigned=          20           0
 nber times 1st assigned=          21           0
 nber times 1st assigned=          22           0
 nber times 1st assigned=          23           0
 nber times 1st assigned=          24           0
 nber times 1st assigned=          25           0
 nber times 1st assigned=          26           0
 nber times 1st assigned=          27           0
 nber times 1st assigned=          28           0
 nber times 1st assigned=          29           0
 nber times 1st assigned=          30           0
 nber times 1st assigned=          31           0
 nber times 1st assigned=          32           0
 nber times 1st assigned=          33           0
 nber times 1st assigned=          34           0
 nber times 1st assigned=          35           0
 nber times 1st assigned=          36           0
 nber times 1st assigned=          37           0
 nber times 1st assigned=          38           0
 nber times 1st assigned=          39           0
 nber times 1st assigned=          40           0
 nber times 1st assigned=          41           0
 nber times 1st assigned=          42           0
 nber times 1st assigned=          43           0
 nber times 1st assigned=          44           0
 nber times 1st assigned=          45           0
 nber times 1st assigned=          46           0
 nber times 1st assigned=          47           0
 nber times 1st assigned=          48           0
 nber times 1st assigned=          49           0
 nber times 1st assigned=          50           0
 nber times 1st assigned=          51           0
 nber times 1st assigned=          52           0
 nber times 1st assigned=          53           0
 nber times 1st assigned=          54           0
 modes represented=   48.1994956345625     
 p1=
   -0.    0.    0.    0.    0.   -0.   -0.   -0.   -0.   -4.   -0.    0.   -7.    0.   -0.    0.    0.    0.    0.    0.
    6.    0.   -0.   -0.    3.   -0.    5.   -0.   -0.    0.   -0.   -0.   -2.    1.    0.   -2.    0.    1.   -0.   -1.
    0.   -0.   -0.   -0.   -1.   -0.    0.   -2.   -0.    0.   -0.    0.   -0.    0.
 p2=
    0.    0.   -0.   -0.    0.    0.    0.    0.   -0.    4.    0.    7.    0.   -0.    0.    0.    0.   -6.   -0.   -0.
    0.    0.   -2.   -0.    0.   -5.    0.   -0.    0.    0.   -0.   -3.    0.   -0.   -0.    2.   -0.   -0.    0.    1.
   -0.   -1.    0.    0.    1.   -0.    0.    2.    0.    0.    0.    0.   -0.   -0.

 Displacement: in terms of nc of 1 THEN of nc of 2

   1     freq=    -0. Q= -0.000 lam=    -0.0     freq=    -0. Q= -0.000 lam=    -0.0
   2     freq=    -0. Q=  0.000 lam=    -0.0     freq=    -0. Q=  0.000 lam=    -0.0
   3     freq=    -0. Q=  0.000 lam=    -0.0     freq=    -0. Q=  0.000 lam=    -0.0
   4     freq=    -0. Q=  0.000 lam=    -0.0     freq=    -0. Q=  0.000 lam=    -0.0
   5     freq=     0. Q=  0.000 lam=     0.0     freq=     0. Q=  0.000 lam=     0.0
   6     freq=     0. Q= -0.000 lam=     0.0     freq=     0. Q= -0.000 lam=     0.0
   7     freq=    83. Q= -0.000 lam=     0.0     freq=   110. Q= -0.000 lam=     0.0
   8     freq=   100. Q= -0.000 lam=     0.0     freq=   123. Q= -0.000 lam=     0.0
   9     freq=   192. Q= -0.000 lam=     0.0     freq=   224. Q= -0.000 lam=     0.0
  10     freq=   226. Q= -0.219 lam=     5.4     freq=   230. Q= -0.219 lam=     5.5
  11     freq=   284. Q= -0.000 lam=     0.0     freq=   300. Q= -0.000 lam=     0.0
  12     freq=   310. Q=  0.000 lam=     0.0     freq=   348. Q=  0.500 lam=    43.4
  13     freq=   339. Q= -0.489 lam=    40.6     freq=   420. Q= -0.000 lam=     0.0
  14     freq=   397. Q=  0.000 lam=     0.0     freq=   426. Q=  0.000 lam=     0.0
  15     freq=   413. Q= -0.000 lam=     0.0     freq=   460. Q= -0.000 lam=     0.0
  16     freq=   431. Q=  0.000 lam=     0.0     freq=   488. Q=  0.000 lam=     0.0
  17     freq=   482. Q=  0.000 lam=     0.0     freq=   497. Q=  0.000 lam=     0.0
  18     freq=   508. Q=  0.000 lam=     0.0     freq=   594. Q=  0.574 lam=    97.8
  19     freq=   553. Q=  0.000 lam=     0.0     freq=   598. Q=  0.001 lam=     0.0
  20     freq=   554. Q=  0.000 lam=     0.0     freq=   615. Q=  0.000 lam=     0.0
  21     freq=   576. Q=  0.558 lam=    89.8     freq=   692. Q=  0.000 lam=     0.0
  22     freq=   592. Q=  0.000 lam=     0.0     freq=   725. Q=  0.000 lam=     0.0
  23     freq=   660. Q= -0.000 lam=     0.0     freq=   740. Q= -0.246 lam=    22.4
  24     freq=   674. Q= -0.000 lam=     0.0     freq=   780. Q= -0.000 lam=     0.0
  25     freq=   727. Q=  0.290 lam=    30.7     freq=   790. Q=  0.000 lam=     0.0
  26     freq=   730. Q= -0.000 lam=     0.0     freq=   837. Q= -0.615 lam=   158.4
  27     freq=   809. Q=  0.614 lam=   152.6     freq=   842. Q=  0.000 lam=     0.0
  28     freq=   809. Q= -0.000 lam=     0.0     freq=   866. Q= -0.000 lam=     0.0
  29     freq=   824. Q= -0.000 lam=     0.0     freq=   912. Q= -0.000 lam=     0.0
  30     freq=   826. Q=  0.000 lam=     0.0     freq=   915. Q=  0.000 lam=     0.0
  31     freq=   836. Q= -0.000 lam=     0.0     freq=   917. Q= -0.000 lam=     0.0
  32     freq=   891. Q= -0.000 lam=     0.0     freq=   946. Q= -0.324 lam=    49.8
  33     freq=   913. Q= -0.274 lam=    34.2     freq=   965. Q= -0.000 lam=     0.0
  34     freq=  1057. Q=  0.070 lam=     2.6     freq=  1098. Q=  0.000 lam=     0.0
  35     freq=  1061. Q=  0.000 lam=     0.0     freq=  1111. Q=  0.039 lam=     0.8
  36     freq=  1094. Q= -0.207 lam=    23.5     freq=  1132. Q= -0.216 lam=    26.4
  37     freq=  1111. Q=  0.000 lam=     0.0     freq=  1161. Q=  0.000 lam=     0.0
  38     freq=  1226. Q=  0.077 lam=     3.6     freq=  1237. Q=  0.050 lam=     1.5
  39     freq=  1243. Q= -0.000 lam=     0.0     freq=  1266. Q= -0.000 lam=     0.0
  40     freq=  1283. Q= -0.119 lam=     9.1     freq=  1325. Q= -0.141 lam=    13.2
  41     freq=  1312. Q=  0.000 lam=     0.0     freq=  1354. Q=  0.000 lam=     0.0
  42     freq=  1356. Q= -0.000 lam=     0.0     freq=  1405. Q= -0.167 lam=    19.7
  43     freq=  1364. Q= -0.010 lam=     0.1     freq=  1419. Q= -0.062 lam=     2.7
  44     freq=  1383. Q= -0.047 lam=     1.5     freq=  1433. Q= -0.000 lam=     0.0
  45     freq=  1439. Q= -0.116 lam=     9.7     freq=  1451. Q= -0.101 lam=     7.3
  46     freq=  1440. Q= -0.001 lam=     0.0     freq=  1465. Q= -0.000 lam=     0.0
  47     freq=  1522. Q=  0.000 lam=     0.0     freq=  1571. Q=  0.000 lam=     0.0
  48     freq=  1571. Q= -0.308 lam=    74.3     freq=  1585. Q= -0.290 lam=    66.8
  49     freq=  3186. Q= -0.000 lam=     0.0     freq=  3195. Q= -0.000 lam=     0.0
  50     freq=  3197. Q=  0.000 lam=     0.0     freq=  3206. Q=  0.019 lam=     0.6
  51     freq=  3200. Q= -0.019 lam=     0.6     freq=  3219. Q= -0.000 lam=     0.0
  52     freq=  3201. Q=  0.011 lam=     0.2     freq=  3222. Q=  0.037 lam=     2.2
  53     freq=  3250. Q= -0.000 lam=     0.0     freq=  3238. Q= -0.000 lam=     0.0
  54     freq=  3253. Q=  0.055 lam=     4.9     freq=  3239. Q=  0.049 lam=     4.0

 total reorg energy (cm**-1, kcal/mol)=      483.      522.      1.38      1.49
 Nber of molecules processed=           2
