 Enter ifcurve (0=recti, 1=orth curvi, 2=apprx curvi, -1 = skip
 And atom ordering flag, 0= never changes, 1= use the first order thenceforth,
  2= deduce it (does read on fail), 3= always read it
 Reading file: 
 ./PDI_3_C0S1.log                                                               
                                          
  Entering Gaussian System, Link 0=g16                                          
  
 Gaussian format, type: g94, g98, g03= F F F
  #P Geom=AllCheck Guess=TCheck SCRF=Check GenChk RB3LYP TD(FC,Read)/6-3    
 energy type= TD      
 Original G94 input coords:
  6  0.873165  0.302171 -0.272955
  6  2.347034  0.028420 -0.218864
  6  3.240820  1.015930 -0.330380
  7  4.666188  0.955144 -0.304286
  6  5.365376 -0.259640 -0.141086
  8  4.782708 -1.322852 -0.012531
  6  6.842231 -0.197549 -0.131648
  6  7.563977 -1.387010  0.027824
  6  8.944074 -1.372152  0.041845
  6  9.678644 -0.164928 -0.103184
  6 11.119827 -0.132756 -0.090544
  6 11.905158 -1.307283  0.068636
  6 13.284630 -1.261328  0.078843
  6 13.955271 -0.041713 -0.069432
  6 15.433403 -0.028454 -0.053312
  8 16.074395 -1.059748  0.087195
  7 16.067216  1.211175 -0.205472
  6 17.563813  1.273514 -0.195553
  6 18.139544  0.846335  1.158554
  6 18.170446  0.518519 -1.382811
  6 15.379304  2.427792 -0.369885
  8 15.974099  3.486827 -0.499231
  6 13.902658  2.373392 -0.379637
  6 13.180264  3.562256 -0.540177
  6 11.800437  3.546112 -0.553379
  6 11.066301  2.336992 -0.406587
  6  9.626451  2.304659 -0.418159
  6  8.841274  3.481653 -0.576161
  6  7.463469  3.437516 -0.585851
  6  6.789779  2.216610 -0.438651
  6  5.320298  2.213962 -0.455061
  8  4.677758  3.240911 -0.592489
  6  7.528055  1.023393 -0.278863
  6  8.955614  1.054876 -0.266654
  6 11.789706  1.117275 -0.242609
  6 13.217241  1.149774 -0.230519
  1  0.380657 -0.032401  0.647191
  1  0.404149 -0.250433 -1.095046
  1  0.655859  1.364170 -0.408806
  1  2.662337 -0.994911 -0.086639
  1  2.916393  2.038113 -0.462541
  1  7.012185 -2.311278  0.138879
  1  9.467033 -2.309711  0.166889
  1 11.421351 -2.266668  0.185710
  1 13.876008 -2.159618  0.200735
  1 17.766051  2.333810 -0.329926
  1 17.983185 -0.215178  1.345999
  1 17.686322  1.421337  1.970214
  1 19.214163  1.048153  1.167286
  1 18.016106 -0.556384 -1.298240
  1 19.245443  0.715596 -1.417069
  1 17.738056  0.866951 -2.324330
  1 13.732308  4.486362 -0.652585
  1 11.276223  4.482819 -0.679377
  1  9.326138  4.440520 -0.692197
  1  6.874047  4.337073 -0.706401
 nber atoms=          56
  Total Energy, E(TD-HF/TD-DFT) =  -1566.05563591                               
  
          32          49 "  -1566.05563591"
After scan for Atom:   Atom  AN      X      Y      Z        X      Y      Z        X      Y      Z   
After scan for Atom:   Atom  AN      X      Y      Z        X      Y      Z        X      Y      Z   
After scan for Atom:   Atom  AN      X      Y      Z        X      Y      Z        X      Y      Z   
After scan for Atom:   Atom  AN      X      Y      Z        X      Y      Z        X      Y      Z   
After scan for Atom:   Atom  AN      X      Y      Z        X      Y      Z        X      Y      Z   
After scan for Atom:   Atom  AN      X      Y      Z        X      Y      Z        X      Y      Z   
After scan for Atom:   Atom  AN      X      Y      Z        X      Y      Z        X      Y      Z   
After scan for Atom:   Atom  AN      X      Y      Z        X      Y      Z        X      Y      Z   
After scan for Atom:   Atom  AN      X      Y      Z        X      Y      Z        X      Y      Z   
After scan for Atom:   Atom  AN      X      Y      Z        X      Y      Z        X      Y      Z   
After scan for Atom:   Atom  AN      X      Y      Z        X      Y      Z        X      Y      Z   
After scan for Atom:   Atom  AN      X      Y      Z        X      Y      Z        X      Y      Z   
After scan for Atom:   Atom  AN      X      Y      Z        X      Y      Z        X      Y      Z   
After scan for Atom:   Atom  AN      X      Y      Z        X      Y      Z        X      Y      Z   
After scan for Atom:   Atom  AN      X      Y      Z        X      Y      Z        X      Y      Z   
After scan for Atom:   Atom  AN      X      Y      Z        X      Y      Z        X      Y      Z   
After scan for Atom:   Atom  AN      X      Y      Z        X      Y      Z        X      Y      Z   
After scan for Atom:   Atom  AN      X      Y      Z        X      Y      Z        X      Y      Z   
After scan for Atom:   Atom  AN      X      Y      Z        X      Y      Z        X      Y      Z   
After scan for Atom:   Atom  AN      X      Y      Z        X      Y      Z        X      Y      Z   
After scan for Atom:   Atom  AN      X      Y      Z        X      Y      Z        X      Y      Z   
After scan for Atom:   Atom  AN      X      Y      Z        X      Y      Z        X      Y      Z   
After scan for Atom:   Atom  AN      X      Y      Z        X      Y      Z        X      Y      Z   
After scan for Atom:   Atom  AN      X      Y      Z        X      Y      Z        X      Y      Z   
After scan for Atom:   Atom  AN      X      Y      Z        X      Y      Z        X      Y      Z   
After scan for Atom:   Atom  AN      X      Y      Z        X      Y      Z        X      Y      Z   
After scan for Atom:   Atom  AN      X      Y      Z        X      Y      Z        X      Y      Z   
After scan for Atom:   Atom  AN      X      Y      Z        X      Y      Z        X      Y      Z   
After scan for Atom:   Atom  AN      X      Y      Z        X      Y      Z        X      Y      Z   
After scan for Atom:   Atom  AN      X      Y      Z        X      Y      Z        X      Y      Z   
After scan for Atom:   Atom  AN      X      Y      Z        X      Y      Z        X      Y      Z   
After scan for Atom:   Atom  AN      X      Y      Z        X      Y      Z        X      Y      Z   
After scan for Atom:   Atom  AN      X      Y      Z        X      Y      Z        X      Y      Z   
After scan for Atom:   Atom  AN      X      Y      Z        X      Y      Z        X      Y      Z   
After scan for Atom:   Atom  AN      X      Y      Z        X      Y      Z        X      Y      Z   
After scan for Atom:   Atom  AN      X      Y      Z        X      Y      Z        X      Y      Z   
After scan for Atom:   Atom  AN      X      Y      Z        X      Y      Z        X      Y      Z   
After scan for Atom:   Atom  AN      X      Y      Z        X      Y      Z        X      Y      Z   
After scan for Atom:   Atom  AN      X      Y      Z        X      Y      Z        X      Y      Z   
After scan for Atom:   Atom  AN      X      Y      Z        X      Y      Z        X      Y      Z   
After scan for Atom:   Atom  AN      X      Y      Z        X      Y      Z        X      Y      Z   
After scan for Atom:   Atom  AN      X      Y      Z        X      Y      Z        X      Y      Z   
After scan for Atom:   Atom  AN      X      Y      Z        X      Y      Z        X      Y      Z   
After scan for Atom:   Atom  AN      X      Y      Z        X      Y      Z        X      Y      Z   
After scan for Atom:   Atom  AN      X      Y      Z        X      Y      Z        X      Y      Z   
After scan for Atom:   Atom  AN      X      Y      Z        X      Y      Z        X      Y      Z   
After scan for Atom:   Atom  AN      X      Y      Z        X      Y      Z        X      Y      Z   
After scan for Atom:   Atom  AN      X      Y      Z        X      Y      Z        X      Y      Z   
After scan for Atom:   Atom  AN      X      Y      Z        X      Y      Z        X      Y      Z   
After scan for Atom:   Atom  AN      X      Y      Z        X      Y      Z        X      Y      Z   
After scan for Atom:   Atom  AN      X      Y      Z        X      Y      Z        X      Y      Z   
After scan for Atom:   Atom  AN      X      Y      Z        X      Y      Z        X      Y      Z   
After scan for Atom:   Atom  AN      X      Y      Z        X      Y      Z        X      Y      Z   
After scan for Atom:   Atom  AN      X      Y      Z        X      Y      Z        X      Y      Z   
 g94    frequencies=
     0.0    0.0    0.0    0.0    0.0    0.0   18.6   28.6   36.2   55.0
    58.8   70.4   75.6   87.6   89.1  101.1  146.1  152.5  168.0  181.1
   183.4  192.7  208.7  211.7  218.1  234.2  235.4  256.0  275.7  285.9
   301.8  319.5  334.5  358.6  386.7  388.7  394.4  416.8  418.8  434.4
   440.0  443.0  447.4  466.3  480.1  483.9  498.0  501.1  505.7  515.8
   546.1  568.5  574.6  577.8  604.6  615.8  631.7  643.8  651.9  674.5
   700.1  707.3  717.0  728.8  746.7  750.5  757.2  763.2  801.9  806.7
   808.1  813.8  825.0  825.3  831.5  842.1  843.4  893.2  911.1  935.6
   943.0  945.4  956.7  971.3  974.1  976.3  987.0  988.4 1012.0 1039.5
  1062.0 1065.5 1086.8 1094.4 1109.7 1137.5 1155.5 1161.1 1168.2 1176.8
  1185.7 1196.6 1199.4 1224.2 1232.7 1242.6 1247.2 1262.4 1300.5 1315.2
  1320.8 1330.6 1352.8 1361.6 1366.9 1377.8 1382.1 1391.9 1400.2 1405.1
  1415.6 1416.1 1427.1 1432.7 1446.6 1452.9 1464.6 1478.4 1483.9 1485.0
  1493.8 1497.5 1504.9 1505.1 1520.2 1522.9 1546.9 1558.5 1575.2 1594.1
  1601.8 1613.6 1621.9 1685.6 1696.7 1724.6 1733.4 2034.7 3009.6 3034.1
  3038.2 3050.8 3092.0 3093.7 3095.2 3112.2 3132.4 3142.7 3197.5 3198.2
  3205.3 3205.7 3212.9 3213.4 3216.0 3223.1 3223.9 3239.3
 g94    symmetries=
                                                 A      A      A      A
       A      A      A      A      A      A      A      A      A      A
       A      A      A      A      A      A      A      A      A      A
       A      A      A      A      A      A      A      A      A      A
       A      A      A      A      A      A      A      A      A      A
       A      A      A      A      A      A      A      A      A      A
       A      A      A      A      A      A      A      A      A      A
       A      A      A      A      A      A      A      A      A      A
       A      A      A      A      A      A      A      A      A      A
       A      A      A      A      A      A      A      A      A      A
       A      A      A      A      A      A      A      A      A      A
       A      A      A      A      A      A      A      A      A      A
       A      A      A      A      A      A      A      A      A      A
       A      A      A      A      A      A      A      A      A      A
       A      A      A      A      A      A      A      A      A      A
       A      A      A      A      A      A      A      A      A      A
       A      A      A      A      A      A      A      A
 atomic masses:
 12.0000 12.0000 12.0000 14.0031 12.0000 15.9949 12.0000 12.0000 12.0000 12.0000
 12.0000 12.0000 12.0000 12.0000 12.0000 15.9949 14.0031 12.0000 12.0000 12.0000
 12.0000 15.9949 12.0000 12.0000 12.0000 12.0000 12.0000 12.0000 12.0000 12.0000
 12.0000 15.9949 12.0000 12.0000 12.0000 12.0000  1.0078  1.0078  1.0078  1.0078
  1.0078  1.0078  1.0078  1.0078  1.0078  1.0078  1.0078  1.0078  1.0078  1.0078
  1.0078  1.0078  1.0078  1.0078  1.0078  1.0078
 looking for force constants in 
 ./PDI_3_C0S1.fchk                                                              
  
 Cartesian Force Constants                  R   N=       14196                  
  
 n3=         168       14196
 g94-fc frequencies=
    -2.2   -1.2   -0.0   -0.0    0.0    4.0   18.6   28.6   36.2   55.0
    58.8   70.4   75.6   87.6   89.1  101.1  146.1  152.5  168.0  181.1
   183.4  192.7  208.7  211.7  218.1  234.2  235.4  256.0  275.7  285.9
   301.8  319.6  334.5  358.6  386.7  388.8  394.4  416.8  418.8  434.4
   440.0  443.1  447.4  466.3  480.1  483.9  498.1  501.1  505.7  515.9
   546.1  568.5  574.6  577.8  604.6  615.9  631.7  643.8  651.9  674.5
   700.1  707.3  717.0  728.8  746.7  750.5  757.3  763.2  801.9  806.7
   808.1  813.8  825.0  825.4  831.5  842.2  843.4  893.2  911.1  935.7
   943.0  945.4  956.7  971.3  974.1  976.3  987.1  988.5 1012.1 1039.5
  1062.0 1065.6 1086.8 1094.4 1109.7 1137.5 1155.5 1161.2 1168.2 1176.8
  1185.7 1196.6 1199.4 1224.2 1232.7 1242.6 1247.3 1262.4 1300.5 1315.2
  1320.8 1330.7 1352.9 1361.6 1367.0 1377.8 1382.2 1392.0 1400.2 1405.1
  1415.7 1416.1 1427.1 1432.7 1446.6 1452.9 1464.7 1478.4 1483.9 1485.0
  1493.9 1497.5 1505.0 1505.2 1520.2 1522.9 1547.0 1558.5 1575.2 1594.2
  1601.8 1613.6 1622.0 1685.6 1696.8 1724.7 1733.4 2034.7 3009.6 3034.1
  3038.2 3050.8 3092.0 3093.8 3095.3 3112.2 3132.5 3142.7 3197.6 3198.3
  3205.3 3205.8 3213.0 3213.4 3216.0 3223.2 3224.0 3239.4
 at 99999: n3=         168
 symm operator            1 :  F  nop=           0
 symm operator            2 :  F  nop=           0
 symm operator            3 :  F  nop=           0
 symm operator            4 :  F  nop=           0
 symm operator            5 :  F  nop=           0
 symm operator            6 :  F  nop=           0
 symm operator            7 :  F  nop=           0
 The point group of the molecule is  C1
 Symmetry rotation matrix:
   1.00000   0.00000   0.00000
   0.00000   1.00000   0.00000
   0.00000   0.00000   1.00000

 Projecting out zero-frequency components
 generating redundant internal coords
         300        3600          56
 search for int coords
   1 str   2   1   1.500
   2 str   3   2   1.337
   3 str   4   3   1.427
   4 str   5   4   1.411
   5 str   6   5   1.219
   6 str   7   5   1.478
   7 str   8   7   1.400
   8 str   9   8   1.380
   9 str  10   9   1.421
  10 str  11  10   1.442
  11 str  12  11   1.422
  12 str  13  12   1.380
  13 str  14  13   1.400
  14 str  15  14   1.478
  15 str  16  15   1.222
  16 str  17  15   1.401
  17 str  18  17   1.498
  18 str  19  18   1.532
  19 str  20  18   1.532
  20 str  21  17   1.407
  21 str  22  21   1.222
  22 str  23  21   1.478
  23 str  24  23   1.400
  24 str  25  24   1.380
  25 str  26  25   1.422
  26 str  27  26   1.440
  27 str  28  27   1.424
  28 str  29  28   1.379
  29 str  30  29   1.402
  30 str  31   4   1.427
  31 str  31  30   1.470
  32 str  32  31   1.219
  33 str  33   7   1.408
  34 str  33  30   1.412
  35 str  34  10   1.427
  36 str  34  27   1.427
  37 str  34  33   1.428
  38 str  35  11   1.426
  39 str  35  26   1.428
  40 str  36  14   1.411
  41 str  36  23   1.410
  42 str  36  35   1.428
  43 str  37   1   1.096
  44 str  38   1   1.096
  45 str  39   1   1.092
  46 str  40   2   1.079
  47 str  41   3   1.081
  48 str  42   8   1.082
  49 str  43   9   1.081
  50 str  44  12   1.081
  51 str  45  13   1.082
  52 str  46  18   1.088
  53 str  47  19   1.089
  54 str  48  19   1.093
  55 str  49  19   1.093
  56 str  50  20   1.089
  57 str  51  20   1.093
  58 str  52  20   1.093
  59 str  53  24   1.082
  60 str  54  25   1.081
  61 str  55  28   1.081
  62 str  56  29   1.082
 nber stretches=          62
  63 ben   1   2   3
  64 prop tor   1   2   3   4
  65 prop tor   1   2   3  41
  66 ben   1   2  40
  67 ben   2   1  37
  68 ben   2   1  38
  69 ben   2   1  39
  70 ben   2   3   4
  71 prop tor   2   3   4   5
  72 prop tor   2   3   4  31
  73 ben   2   3  41
  74 ben   3   2  40
  75 ben   3   4   5
  76 prop tor   3   4   5   6
  77 prop tor   3   4   5   7
  78 ben   3   4  31
  79 prop tor   3   4  31  30
  80 prop tor   3   4  31  32
  81 ben   4   3  41
  82 ben   4   5   6
  83 ben   4   5   7
  84 prop tor   4   5   7   8
  85 prop tor   4   5   7  33
  86 ben   4  31  30
  87 ben   4  31  32
  88 ben   5   4  31
  89 prop tor   5   4  31  30
  90 prop tor   5   4  31  32
  91 ben   5   7   8
  92 prop tor   5   7   8   9
  93 prop tor   5   7   8  42
  94 ben   5   7  33
  95 prop tor   5   7  33  30
  96 prop tor   5   7  33  34
  97 ben   6   5   7
  98 prop tor   6   5   7   8
  99 prop tor   6   5   7  33
 100 ben   7   8   9
 101 prop tor   7   8   9  10
 102 prop tor   7   8   9  43
 103 ben   7   8  42
 104 ben   7  33  30
 105 ben   7  33  34
 106 prop tor   7  33  34  10
 107 prop tor   7  33  34  27
 108 ben   8   7  33
 109 prop tor   8   7  33  30
 110 prop tor   8   7  33  34
 111 ben   8   9  10
 112 prop tor   8   9  10  11
 113 prop tor   8   9  10  34
 114 ben   8   9  43
 115 ben   9   8  42
 116 ben   9  10  11
 117 prop tor   9  10  11  12
 118 prop tor   9  10  11  35
 119 ben   9  10  34
 120 prop tor   9  10  34  27
 121 prop tor   9  10  34  33
 122 ben  10   9  43
 123 ben  10  11  12
 124 prop tor  10  11  12  13
 125 prop tor  10  11  12  44
 126 ben  10  11  35
 127 prop tor  10  11  35  26
 128 prop tor  10  11  35  36
 129 ben  10  34  27
 130 ben  10  34  33
 131 ben  11  10  34
 132 prop tor  11  10  34  27
 133 prop tor  11  10  34  33
 134 ben  11  12  13
 135 prop tor  11  12  13  14
 136 prop tor  11  12  13  45
 137 ben  11  12  44
 138 ben  11  35  26
 139 ben  11  35  36
 140 prop tor  11  35  36  14
 141 prop tor  11  35  36  23
 142 ben  12  11  35
 143 prop tor  12  11  35  26
 144 prop tor  12  11  35  36
 145 ben  12  13  14
 146 prop tor  12  13  14  15
 147 prop tor  12  13  14  36
 148 ben  12  13  45
 149 ben  13  12  44
 150 ben  13  14  15
 151 prop tor  13  14  15  16
 152 prop tor  13  14  15  17
 153 ben  13  14  36
 154 prop tor  13  14  36  23
 155 prop tor  13  14  36  35
 156 ben  14  13  45
 157 ben  14  15  16
 158 ben  14  15  17
 159 prop tor  14  15  17  18
 160 prop tor  14  15  17  21
 161 ben  14  36  23
 162 ben  14  36  35
 163 ben  15  14  36
 164 prop tor  15  14  36  23
 165 prop tor  15  14  36  35
 166 ben  15  17  18
 167 prop tor  15  17  18  19
 168 prop tor  15  17  18  20
 169 prop tor  15  17  18  46
 170 ben  15  17  21
 171 prop tor  15  17  21  22
 172 prop tor  15  17  21  23
 173 ben  16  15  17
 174 prop tor  16  15  17  18
 175 prop tor  16  15  17  21
 176 ben  17  18  19
 177 prop tor  17  18  19  47
 178 prop tor  17  18  19  48
 179 prop tor  17  18  19  49
 180 ben  17  18  20
 181 prop tor  17  18  20  50
 182 prop tor  17  18  20  51
 183 prop tor  17  18  20  52
 184 ben  17  18  46
 185 ben  17  21  22
 186 ben  17  21  23
 187 prop tor  17  21  23  24
 188 prop tor  17  21  23  36
 189 ben  18  17  21
 190 prop tor  18  17  21  22
 191 prop tor  18  17  21  23
 192 ben  18  19  47
 193 ben  18  19  48
 194 ben  18  19  49
 195 ben  18  20  50
 196 ben  18  20  51
 197 ben  18  20  52
 198 ben  19  18  20
 199 prop tor  19  18  20  50
 200 prop tor  19  18  20  51
 201 prop tor  19  18  20  52
 202 ben  19  18  46
 203 prop tor  20  18  19  47
 204 prop tor  20  18  19  48
 205 prop tor  20  18  19  49
 206 ben  20  18  46
 207 prop tor  21  17  18  19
 208 prop tor  21  17  18  20
 209 prop tor  21  17  18  46
 210 ben  21  23  24
 211 prop tor  21  23  24  25
 212 prop tor  21  23  24  53
 213 ben  21  23  36
 214 prop tor  21  23  36  14
 215 prop tor  21  23  36  35
 216 ben  22  21  23
 217 prop tor  22  21  23  24
 218 prop tor  22  21  23  36
 219 ben  23  24  25
 220 prop tor  23  24  25  26
 221 prop tor  23  24  25  54
 222 ben  23  24  53
 223 ben  23  36  35
 224 ben  24  23  36
 225 prop tor  24  23  36  14
 226 prop tor  24  23  36  35
 227 ben  24  25  26
 228 prop tor  24  25  26  27
 229 prop tor  24  25  26  35
 230 ben  24  25  54
 231 ben  25  24  53
 232 ben  25  26  27
 233 prop tor  25  26  27  28
 234 prop tor  25  26  27  34
 235 ben  25  26  35
 236 prop tor  25  26  35  11
 237 prop tor  25  26  35  36
 238 ben  26  25  54
 239 ben  26  27  28
 240 prop tor  26  27  28  29
 241 prop tor  26  27  28  55
 242 ben  26  27  34
 243 prop tor  26  27  34  10
 244 prop tor  26  27  34  33
 245 ben  26  35  36
 246 prop tor  26  35  36  14
 247 prop tor  26  35  36  23
 248 ben  27  26  35
 249 prop tor  27  26  35  11
 250 prop tor  27  26  35  36
 251 ben  27  28  29
 252 prop tor  27  28  29  30
 253 prop tor  27  28  29  56
 254 ben  27  28  55
 255 ben  27  34  33
 256 ben  28  27  34
 257 prop tor  28  27  34  10
 258 prop tor  28  27  34  33
 259 ben  28  29  30
 260 prop tor  28  29  30  31
 261 prop tor  28  29  30  33
 262 ben  28  29  56
 263 ben  29  28  55
 264 ben  29  30  31
 265 prop tor  29  30  31   4
 266 prop tor  29  30  31  32
 267 ben  29  30  33
 268 prop tor  29  30  33   7
 269 prop tor  29  30  33  34
 270 ben  30  29  56
 271 ben  30  31  32
 272 ben  30  33  34
 273 prop tor  30  33  34  10
 274 prop tor  30  33  34  27
 275 prop tor  31   4   5   6
 276 prop tor  31   4   5   7
 277 ben  31  30  33
 278 prop tor  31  30  33   7
 279 prop tor  31  30  33  34
 280 prop tor  33   7   8   9
 281 prop tor  33   7   8  42
 282 prop tor  33  30  31   4
 283 prop tor  33  30  31  32
 284 prop tor  34  10  11  12
 285 prop tor  34  10  11  35
 286 prop tor  34  27  28  29
 287 prop tor  34  27  28  55
 288 prop tor  35  11  12  13
 289 prop tor  35  11  12  44
 290 prop tor  35  26  27  28
 291 prop tor  35  26  27  34
 292 prop tor  36  14  15  16
 293 prop tor  36  14  15  17
 294 prop tor  36  23  24  25
 295 prop tor  36  23  24  53
 296 prop tor  37   1   2   3
 297 prop tor  37   1   2  40
 298 ben  37   1  38
 299 ben  37   1  39
 300 prop tor  38   1   2   3
 301 prop tor  38   1   2  40
 302 ben  38   1  39
 303 prop tor  39   1   2   3
 304 prop tor  39   1   2  40
 305 prop tor  40   2   3   4
 306 prop tor  40   2   3  41
 307 prop tor  41   3   4   5
 308 prop tor  41   3   4  31
 309 prop tor  42   8   9  10
 310 prop tor  42   8   9  43
 311 prop tor  43   9  10  11
 312 prop tor  43   9  10  34
 313 prop tor  44  12  13  14
 314 prop tor  44  12  13  45
 315 prop tor  45  13  14  15
 316 prop tor  45  13  14  36
 317 prop tor  46  18  19  47
 318 prop tor  46  18  19  48
 319 prop tor  46  18  19  49
 320 prop tor  46  18  20  50
 321 prop tor  46  18  20  51
 322 prop tor  46  18  20  52
 323 ben  47  19  48
 324 ben  47  19  49
 325 ben  48  19  49
 326 ben  50  20  51
 327 ben  50  20  52
 328 ben  51  20  52
 329 prop tor  53  24  25  26
 330 prop tor  53  24  25  54
 331 prop tor  54  25  26  27
 332 prop tor  54  25  26  35
 333 prop tor  55  28  29  30
 334 prop tor  55  28  29  56
 335 prop tor  56  29  30  31
 336 prop tor  56  29  30  33
 nber bend=             108
 nber lin bend=           0
 nber prop tor=         166
 nber impr tor=           0
 nber tot redund int=         336
 Eigenvalues of G in red int coords
    Gval -0.00000000 -0.00000000 -0.00000000 -0.00000000 -0.00000000 -0.00000000 -0.00000000 -0.00000000
    Gval -0.00000000 -0.00000000 -0.00000000 -0.00000000 -0.00000000 -0.00000000 -0.00000000 -0.00000000
    Gval -0.00000000 -0.00000000 -0.00000000 -0.00000000 -0.00000000 -0.00000000 -0.00000000 -0.00000000
    Gval -0.00000000 -0.00000000 -0.00000000 -0.00000000 -0.00000000 -0.00000000 -0.00000000 -0.00000000
    Gval -0.00000000 -0.00000000 -0.00000000 -0.00000000 -0.00000000 -0.00000000 -0.00000000 -0.00000000
    Gval -0.00000000 -0.00000000 -0.00000000 -0.00000000 -0.00000000 -0.00000000 -0.00000000 -0.00000000
    Gval -0.00000000 -0.00000000 -0.00000000 -0.00000000 -0.00000000 -0.00000000 -0.00000000 -0.00000000
    Gval -0.00000000 -0.00000000 -0.00000000 -0.00000000 -0.00000000 -0.00000000 -0.00000000 -0.00000000
    Gval -0.00000000 -0.00000000 -0.00000000 -0.00000000 -0.00000000 -0.00000000 -0.00000000 -0.00000000
    Gval -0.00000000 -0.00000000 -0.00000000 -0.00000000 -0.00000000 -0.00000000 -0.00000000 -0.00000000
    Gval -0.00000000 -0.00000000 -0.00000000 -0.00000000 -0.00000000 -0.00000000 -0.00000000 -0.00000000
    Gval -0.00000000 -0.00000000  0.00000000  0.00000000  0.00000000  0.00000000  0.00000000  0.00000000
    Gval  0.00000000  0.00000000  0.00000000  0.00000000  0.00000000  0.00000000  0.00000000  0.00000000
    Gval  0.00000000  0.00000000  0.00000000  0.00000000  0.00000000  0.00000000  0.00000000  0.00000000
    Gval  0.00000000  0.00000000  0.00000000  0.00000000  0.00000000  0.00000000  0.00000000  0.00000000
    Gval  0.00000000  0.00000000  0.00000000  0.00000000  0.00000000  0.00000000  0.00000000  0.00000000
    Gval  0.00000000  0.00000000  0.00000000  0.00000000  0.00000000  0.00000000  0.00000000  0.00000000
    Gval  0.00000000  0.00000000  0.00000000  0.00000000  0.00000000  0.00000000  0.00000000  0.00000000
    Gval  0.00000000  0.00000000  0.00000000  0.00000000  0.00000000  0.00000000  0.00000000  0.00000000
    Gval  0.00000000  0.00000000  0.00000000  0.00000000  0.00000000  0.00000000  0.00000000  0.00000000
    Gval  0.00000000  0.00000000  0.00000000  0.00000000  0.00000000  0.00000000  0.00000000  0.00000000
    Gval  0.00000000  0.00000000  0.00000000  0.00000000  0.00000000  0.00000000  0.00000083  0.00000200
    Gval  0.00000243  0.00000274  0.00000615  0.00000693  0.00000804  0.00001013  0.00001098  0.00001121
    Gval  0.00001552  0.00001615  0.00001718  0.00001791  0.00001837  0.00001901  0.00002157  0.00002349
    Gval  0.00002404  0.00002544  0.00002986  0.00003222  0.00003281  0.00003583  0.00003994  0.00004639
    Gval  0.00004885  0.00005125  0.00005294  0.00005503  0.00005868  0.00006188  0.00006196  0.00006836
    Gval  0.00007125  0.00007392  0.00008136  0.00008245  0.00008382  0.00008608  0.00008863  0.00009197
    Gval  0.00009371  0.00009510  0.00010693  0.00010703  0.00011587  0.00012154  0.00012247  0.00013403
    Gval  0.00013670  0.00013743  0.00014074  0.00015296  0.00015899  0.00016388  0.00016508  0.00018125
    Gval  0.00019339  0.00021076  0.00021462  0.00022199  0.00022898  0.00023008  0.00026762  0.00028560
    Gval  0.00028625  0.00029405  0.00033696  0.00034086  0.00035930  0.00037613  0.00038246  0.00038957
    Gval  0.00039254  0.00040578  0.00042463  0.00042617  0.00043176  0.00043557  0.00044066  0.00044217
    Gval  0.00046215  0.00046721  0.00046747  0.00046892  0.00049562  0.00053108  0.00053115  0.00053442
    Gval  0.00053717  0.00054542  0.00055408  0.00055594  0.00055601  0.00055697  0.00057194  0.00059349
    Gval  0.00059849  0.00059923  0.00059956  0.00059984  0.00060219  0.00062007  0.00062060  0.00064076
    Gval  0.00064422  0.00064504  0.00064682  0.00067007  0.00069194  0.00069357  0.00069770  0.00072776
    Gval  0.00079357  0.00081249  0.00093111  0.00098188  0.00107272  0.00109326  0.00109420  0.00109489
    Gval  0.00109540  0.00114315  0.00115567  0.00116533  0.00116554  0.00116583  0.00116612  0.00117114
    Gval  0.00117180  0.00117314  0.00119927  0.00121464  0.00128113  0.00129513  0.00141402  0.00148207
    Gval  0.00158403  0.00171623  0.00178390  0.00191866  0.00228075  0.00233921  0.00239126  0.00239328
    Gval  0.00252153  0.00252632  0.00256071  0.00279113  0.00292212  0.00292908  0.00302352  0.00304203
    Gval  0.00308132  0.00309607  0.00367428  0.00367605  0.00372120  0.00372280  0.00394426  0.00410782
  8.323277470133667E-007  8.323277470133667E-007
  1.997575323688499E-006  8.323277470133667E-007
  2.425312214648991E-006  8.323277470133667E-007
  2.744157644733884E-006  8.323277470133667E-007
  6.154969497619814E-006  8.323277470133667E-007
  6.930116079431485E-006  8.323277470133667E-007
  8.043704792438731E-006  8.323277470133667E-007
  1.013454013680919E-005  8.323277470133667E-007
  1.097695294828788E-005  8.323277470133667E-007
  1.121296823284202E-005  8.323277470133667E-007
  1.552028715915396E-005  8.323277470133667E-007
  1.615247476358090E-005  8.323277470133667E-007
  1.717659514051373E-005  8.323277470133667E-007
  1.790895482682519E-005  8.323277470133667E-007
  1.837380258320200E-005  8.323277470133667E-007
  1.900911976568284E-005  8.323277470133667E-007
  2.156690447988980E-005  8.323277470133667E-007
  2.349248654846971E-005  8.323277470133667E-007
  2.403927953922367E-005  8.323277470133667E-007
  2.543528845771439E-005  8.323277470133667E-007
  2.985876098020965E-005  8.323277470133667E-007
  3.221787441674078E-005  8.323277470133667E-007
  3.281448587640947E-005  8.323277470133667E-007
  3.582609541468364E-005  8.323277470133667E-007
  3.994083436648219E-005  8.323277470133667E-007
  4.638750285396397E-005  8.323277470133667E-007
  4.884568652686147E-005  8.323277470133667E-007
  5.124897933451246E-005  8.323277470133667E-007
  5.293892316937327E-005  8.323277470133667E-007
  5.503198648259084E-005  8.323277470133667E-007
  5.868227966527267E-005  8.323277470133667E-007
  6.188284349205335E-005  8.323277470133667E-007
  6.195525083567677E-005  8.323277470133667E-007
  6.836304441786978E-005  8.323277470133667E-007
  7.124743510928220E-005  8.323277470133667E-007
  7.392000698566480E-005  8.323277470133667E-007
  8.136027496998997E-005  8.323277470133667E-007
  8.245137147766288E-005  8.323277470133667E-007
  8.381617155909055E-005  8.323277470133667E-007
  8.607843195091712E-005  8.323277470133667E-007
  8.863105449832610E-005  8.323277470133667E-007
  9.197176028858055E-005  8.323277470133667E-007
  9.370845437242978E-005  8.323277470133667E-007
  9.509802056898966E-005  8.323277470133667E-007
  1.069281928671899E-004  8.323277470133667E-007
  1.070279169632247E-004  8.323277470133667E-007
  1.158678480631031E-004  8.323277470133667E-007
  1.215352457736113E-004  8.323277470133667E-007
  1.224705667186238E-004  8.323277470133667E-007
  1.340254877466368E-004  8.323277470133667E-007
  1.367005954262837E-004  8.323277470133667E-007
  1.374291907621825E-004  8.323277470133667E-007
  1.407436683589899E-004  8.323277470133667E-007
  1.529626976020598E-004  8.323277470133667E-007
  1.589867214449017E-004  8.323277470133667E-007
  1.638781504632516E-004  8.323277470133667E-007
  1.650758447163017E-004  8.323277470133667E-007
  1.812474969437420E-004  8.323277470133667E-007
  1.933873194345827E-004  8.323277470133667E-007
  2.107625801746941E-004  8.323277470133667E-007
  2.146180644370397E-004  8.323277470133667E-007
  2.219948493402032E-004  8.323277470133667E-007
  2.289846265527618E-004  8.323277470133667E-007
  2.300789683988437E-004  8.323277470133667E-007
  2.676178462041732E-004  8.323277470133667E-007
  2.855974724288661E-004  8.323277470133667E-007
  2.862450223085126E-004  8.323277470133667E-007
  2.940463614479528E-004  8.323277470133667E-007
  3.369632298097606E-004  8.323277470133667E-007
  3.408562133335566E-004  8.323277470133667E-007
  3.593013509721577E-004  8.323277470133667E-007
  3.761341395446033E-004  8.323277470133667E-007
  3.824589119580424E-004  8.323277470133667E-007
  3.895745006943680E-004  8.323277470133667E-007
  3.925444178026352E-004  8.323277470133667E-007
  4.057794843878930E-004  8.323277470133667E-007
  4.246297746255424E-004  8.323277470133667E-007
  4.261701601618967E-004  8.323277470133667E-007
  4.317580853049285E-004  8.323277470133667E-007
  4.355655854927794E-004  8.323277470133667E-007
  4.406592981475077E-004  8.323277470133667E-007
  4.421722237372140E-004  8.323277470133667E-007
  4.621486740257180E-004  8.323277470133667E-007
  4.672097381699952E-004  8.323277470133667E-007
  4.674704522383868E-004  8.323277470133667E-007
  4.689193991793960E-004  8.323277470133667E-007
  4.956239292339002E-004  8.323277470133667E-007
  5.310812739151860E-004  8.323277470133667E-007
  5.311466381070043E-004  8.323277470133667E-007
  5.344196968101322E-004  8.323277470133667E-007
  5.371692490703516E-004  8.323277470133667E-007
  5.454245841453998E-004  8.323277470133667E-007
  5.540754645442668E-004  8.323277470133667E-007
  5.559351094229588E-004  8.323277470133667E-007
  5.560117461584996E-004  8.323277470133667E-007
  5.569741513612229E-004  8.323277470133667E-007
  5.719386083892253E-004  8.323277470133667E-007
  5.934850906436055E-004  8.323277470133667E-007
  5.984894700709801E-004  8.323277470133667E-007
  5.992319342675721E-004  8.323277470133667E-007
  5.995634949313100E-004  8.323277470133667E-007
  5.998439894109918E-004  8.323277470133667E-007
  6.021913506982291E-004  8.323277470133667E-007
  6.200709731429557E-004  8.323277470133667E-007
  6.206013198310600E-004  8.323277470133667E-007
  6.407621410082825E-004  8.323277470133667E-007
  6.442150618245939E-004  8.323277470133667E-007
  6.450403068967752E-004  8.323277470133667E-007
  6.468201290642334E-004  8.323277470133667E-007
  6.700733155409358E-004  8.323277470133667E-007
  6.919366384336002E-004  8.323277470133667E-007
  6.935654460881557E-004  8.323277470133667E-007
  6.977004039536343E-004  8.323277470133667E-007
  7.277582678990479E-004  8.323277470133667E-007
  7.935667419414297E-004  8.323277470133667E-007
  8.124940862987456E-004  8.323277470133667E-007
  9.311054904907705E-004  8.323277470133667E-007
  9.818837409220731E-004  8.323277470133667E-007
  1.072723454718058E-003  8.323277470133667E-007
  1.093259443522431E-003  8.323277470133667E-007
  1.094198369007156E-003  8.323277470133667E-007
  1.094894361414031E-003  8.323277470133667E-007
  1.095404712985651E-003  8.323277470133667E-007
  1.143148028829293E-003  8.323277470133667E-007
  1.155670819900023E-003  8.323277470133667E-007
  1.165332815848725E-003  8.323277470133667E-007
  1.165536834615061E-003  8.323277470133667E-007
  1.165829215870280E-003  8.323277470133667E-007
  1.166116823229785E-003  8.323277470133667E-007
  1.171138975788935E-003  8.323277470133667E-007
  1.171798573642579E-003  8.323277470133667E-007
  1.173140684069483E-003  8.323277470133667E-007
  1.199266173838448E-003  8.323277470133667E-007
  1.214639623410966E-003  8.323277470133667E-007
  1.281132957016935E-003  8.323277470133667E-007
  1.295131476650323E-003  8.323277470133667E-007
  1.414018063461418E-003  8.323277470133667E-007
  1.482066413822928E-003  8.323277470133667E-007
  1.584031806433627E-003  8.323277470133667E-007
  1.716230022981937E-003  8.323277470133667E-007
  1.783899240249467E-003  8.323277470133667E-007
  1.918660551865314E-003  8.323277470133667E-007
  2.280748431600756E-003  8.323277470133667E-007
  2.339210636177041E-003  8.323277470133667E-007
  2.391257107183736E-003  8.323277470133667E-007
  2.393281775097678E-003  8.323277470133667E-007
  2.521529323206997E-003  8.323277470133667E-007
  2.526322443959856E-003  8.323277470133667E-007
  2.560712370244972E-003  8.323277470133667E-007
  2.791133397989598E-003  8.323277470133667E-007
  2.922115647359837E-003  8.323277470133667E-007
  2.929079732789149E-003  8.323277470133667E-007
  3.023523338773234E-003  8.323277470133667E-007
  3.042025114646085E-003  8.323277470133667E-007
  3.081324999242429E-003  8.323277470133667E-007
  3.096071437036632E-003  8.323277470133667E-007
  3.674284712385648E-003  8.323277470133667E-007
  3.676052523055027E-003  8.323277470133667E-007
  3.721203346239863E-003  8.323277470133667E-007
  3.722803655508169E-003  8.323277470133667E-007
  3.944256075604981E-003  8.323277470133667E-007
  4.107817433590358E-003  8.323277470133667E-007
 cut=1d-8, nber non-redundant internal coords=         162
 Check on Eigenvals of non-red overlap matrix:
  0.00000083  0.00000200  0.00000243  0.00000274  0.00000615  0.00000693  0.00000804  0.00001013
  0.00001098  0.00001121  0.00001552  0.00001615  0.00001718  0.00001791  0.00001837  0.00001901
  0.00002157  0.00002349  0.00002404  0.00002544  0.00002986  0.00003222  0.00003281  0.00003583
  0.00003994  0.00004639  0.00004885  0.00005125  0.00005294  0.00005503  0.00005868  0.00006188
  0.00006196  0.00006836  0.00007125  0.00007392  0.00008136  0.00008245  0.00008382  0.00008608
  0.00008863  0.00009197  0.00009371  0.00009510  0.00010693  0.00010703  0.00011587  0.00012154
  0.00012247  0.00013403  0.00013670  0.00013743  0.00014074  0.00015296  0.00015899  0.00016388
  0.00016508  0.00018125  0.00019339  0.00021076  0.00021462  0.00022199  0.00022898  0.00023008
  0.00026762  0.00028560  0.00028625  0.00029405  0.00033696  0.00034086  0.00035930  0.00037613
  0.00038246  0.00038957  0.00039254  0.00040578  0.00042463  0.00042617  0.00043176  0.00043557
  0.00044066  0.00044217  0.00046215  0.00046721  0.00046747  0.00046892  0.00049562  0.00053108
  0.00053115  0.00053442  0.00053717  0.00054542  0.00055408  0.00055594  0.00055601  0.00055697
  0.00057194  0.00059349  0.00059849  0.00059923  0.00059956  0.00059984  0.00060219  0.00062007
  0.00062060  0.00064076  0.00064422  0.00064504  0.00064682  0.00067007  0.00069194  0.00069357
  0.00069770  0.00072776  0.00079357  0.00081249  0.00093111  0.00098188  0.00107272  0.00109326
  0.00109420  0.00109489  0.00109540  0.00114315  0.00115567  0.00116533  0.00116554  0.00116583
  0.00116612  0.00117114  0.00117180  0.00117314  0.00119927  0.00121464  0.00128113  0.00129513
  0.00141402  0.00148207  0.00158403  0.00171623  0.00178390  0.00191866  0.00228075  0.00233921
  0.00239126  0.00239328  0.00252153  0.00252632  0.00256071  0.00279113  0.00292212  0.00292908
  0.00302352  0.00304203  0.00308132  0.00309607  0.00367428  0.00367605  0.00372120  0.00372280
  0.00394426  0.00410782
 Checking for correct frequencies
 recalc frequencies=
    -0.0   -0.0   -0.0    0.0    0.0    0.0   18.6   28.6   36.2   55.0
    58.8   70.4   75.6   87.6   89.1  101.1  146.1  152.5  168.0  181.1
   183.4  192.7  208.7  211.7  218.1  234.2  235.4  256.0  275.7  285.9
   301.8  319.6  334.5  358.6  386.7  388.8  394.4  416.8  418.8  434.4
   440.0  443.1  447.4  466.3  480.1  483.9  498.1  501.1  505.7  515.9
   546.1  568.5  574.6  577.8  604.6  615.9  631.7  643.8  651.9  674.5
   700.1  707.3  717.0  728.8  746.7  750.5  757.3  763.2  801.9  806.7
   808.1  813.8  825.0  825.4  831.5  842.2  843.4  893.2  911.1  935.7
   943.0  945.4  956.7  971.3  974.1  976.3  987.1  988.5 1012.1 1039.5
  1062.0 1065.6 1086.8 1094.4 1109.7 1137.5 1155.5 1161.2 1168.2 1176.8
  1185.7 1196.6 1199.4 1224.2 1232.7 1242.6 1247.3 1262.4 1300.5 1315.2
  1320.8 1330.7 1352.9 1361.6 1367.0 1377.8 1382.2 1392.0 1400.2 1405.1
  1415.7 1416.1 1427.1 1432.7 1446.6 1452.9 1464.7 1478.4 1483.9 1485.0
  1493.9 1497.5 1505.0 1505.2 1520.2 1522.9 1547.0 1558.5 1575.2 1594.2
  1601.8 1613.6 1622.0 1685.6 1696.8 1724.7 1733.4 2034.7 3009.6 3034.1
  3038.2 3050.8 3092.0 3093.8 3095.3 3112.2 3132.5 3142.7 3197.6 3198.3
  3205.3 3205.8 3213.0 3213.4 3216.0 3223.2 3224.0 3239.4
 recalc symmetries=
                                                                       
                                                                       
                                                                       
                                                                       
                                                                       
                                                                       
                                                                       
                                                                       
                                                                       
                                                                       
                                                                       
                                                                       
                                                                       
                                                                       
                                                                       
                                                                       
                                                         
 recalc freqs check OK
 Zero-point lengths:
 10.0000 10.0000 10.0000 10.0000 10.0000 10.0000 57.5030 46.3831 41.1902 33.4417
 32.3229 29.5484 28.5093 26.4828 26.2703 24.6546 20.5120 20.0739 19.1289 18.4199
 18.3057 17.8602 17.1616 17.0399 16.7879 16.1979 16.1584 15.4932 14.9317 14.6612
 14.2708 13.8683 13.5545 13.0910 12.6065 12.5736 12.4825 12.1438 12.1142 11.8944
 11.8184 11.7778 11.7209 11.4804 11.3144 11.2702 11.1086 11.0747 11.0239 10.9152
 10.6083 10.3978 10.3424 10.3137 10.0820  9.9898  9.8637  9.7708  9.7099  9.5458
  9.3692  9.3215  9.2583  9.1830  9.0726  9.0494  9.0090  8.9739  8.7547  8.7285
  8.7208  8.6901  8.6313  8.6293  8.5975  8.5428  8.5363  8.2952  8.2132  8.1047
  8.0731  8.0629  8.0152  7.9546  7.9433  7.9342  7.8908  7.8853  7.7928  7.6891
  7.6074  7.5946  7.5201  7.4938  7.4420  7.3505  7.2930  7.2753  7.2533  7.2267
  7.1997  7.1667  7.1584  7.0855  7.0610  7.0327  7.0196  6.9774  6.8745  6.8360
  6.8215  6.7962  6.7401  6.7185  6.7053  6.6789  6.6683  6.6448  6.6253  6.6137
  6.5889  6.5879  6.5625  6.5497  6.5180  6.5040  6.4778  6.4476  6.4357  6.4333
  6.4142  6.4064  6.3905  6.3901  6.3583  6.3527  6.3031  6.2797  6.2464  6.2091
  6.1942  6.1716  6.1556  6.0383  6.0184  5.9696  5.9545  5.4960  4.5190  4.5007
  4.4976  4.4884  4.4583  4.4571  4.4560  4.4438  4.4295  4.4222  4.3841  4.3837
  4.3788  4.3785  4.3736  4.3733  4.3716  4.3667  4.3661  4.3558
 highest evec of mol 1
 -0.0041 -0.0135  0.0016
  0.0630 -0.2710  0.0347
  0.0317 -0.0385  0.0052
 -0.0019 -0.0014  0.0002
  0.0005 -0.0000  0.0000
  0.0046 -0.0016  0.0003
  0.0007  0.0003 -0.0000
  0.0005  0.0015 -0.0002
  0.0001  0.0013 -0.0002
 -0.0005 -0.0009  0.0001
  0.0005 -0.0002  0.0000
  0.0004  0.0015 -0.0002
 -0.0006  0.0014 -0.0002
  0.0005 -0.0002  0.0000
 -0.0009 -0.0003  0.0000
  0.0003 -0.0001  0.0000
  0.0001  0.0004 -0.0000
 -0.0001 -0.0001  0.0000
 -0.0001 -0.0001 -0.0000
 -0.0001 -0.0001  0.0000
  0.0002 -0.0003  0.0000
  0.0000  0.0001 -0.0000
 -0.0003  0.0000 -0.0000
  0.0002  0.0002 -0.0000
 -0.0004  0.0003 -0.0000
  0.0001  0.0003 -0.0000
  0.0002 -0.0006  0.0001
 -0.0001  0.0018 -0.0002
  0.0001  0.0012 -0.0001
 -0.0019 -0.0001 -0.0000
  0.0019  0.0007 -0.0001
 -0.0017 -0.0005  0.0000
 -0.0003 -0.0017  0.0002
  0.0002  0.0001 -0.0000
 -0.0002 -0.0005  0.0001
  0.0002 -0.0001  0.0000
  0.0105  0.0033 -0.0132
  0.0102  0.0065  0.0123
 -0.0151  0.0487 -0.0063
 -0.2693  0.8907 -0.1151
 -0.0578  0.1798 -0.0233
 -0.0022 -0.0042  0.0005
  0.0014 -0.0023  0.0003
 -0.0020 -0.0038  0.0005
  0.0023 -0.0034  0.0005
  0.0001  0.0004 -0.0000
 -0.0000  0.0003 -0.0001
 -0.0001  0.0000  0.0000
  0.0005  0.0001  0.0000
 -0.0000  0.0003  0.0000
  0.0005  0.0001 -0.0000
 -0.0001  0.0000 -0.0000
 -0.0003 -0.0006  0.0001
  0.0008 -0.0012  0.0002
 -0.0023 -0.0045  0.0005
  0.0016 -0.0024  0.0003
 generating redundant internal coords
         300        3600          56
 Adding extra bonds for z output only
           6           6           6           7           6           8
           6           6           6           6           6           6
           6           6           6           8           7           6
           6           6           6           8           6           6
           6           6           6           6           6           6
           6           8           6           6           6           6
           1           1           1           1           1           1
           1           1           1           1           1           1
           1           1           1           1           1           1
           1           1
 search for int coords
   1 str   2   1   1.500
   2 str   3   2   1.337
   3 str   4   3   1.427
   4 str   5   4   1.411
   5 str   6   5   1.219
   6 str   7   5   1.478
   7 str   8   7   1.400
   8 str   9   8   1.380
   9 str  10   9   1.421
  10 str  11  10   1.442
  11 str  12  11   1.422
  12 str  13  12   1.380
  13 str  14  13   1.400
  14 str  15  14   1.478
  15 str  16  15   1.222
  16 str  17  15   1.401
  17 str  18  17   1.498
  18 str  19  18   1.532
  19 str  20  18   1.532
  20 str  21  17   1.407
  21 str  22  21   1.222
  22 str  23  21   1.478
  23 str  24  23   1.400
  24 str  25  24   1.380
  25 str  26  25   1.422
  26 str  27  26   1.440
  27 str  28  27   1.424
  28 str  29  28   1.379
  29 str  30  29   1.402
  30 str  31   4   1.427
  31 str  31  30   1.470
  32 str  32  31   1.219
  33 str  33   7   1.408
  34 str  33  30   1.412
  35 str  34  10   1.427
  36 str  34  27   1.427
  37 str  34  33   1.428
  38 str  35  11   1.426
  39 str  35  26   1.428
  40 str  36  14   1.411
  41 str  36  23   1.410
  42 str  36  35   1.428
  43 str  37   1   1.096
  44 str  38   1   1.096
  45 str  39   1   1.092
  46 str  40   2   1.079
  47 str  41   3   1.081
  48 str  42   8   1.082
  49 str  43   9   1.081
  50 str  44  12   1.081
  51 str  45  13   1.082
  52 str  46  18   1.088
  53 str  47  19   1.089
  54 str  48  19   1.093
  55 str  49  19   1.093
  56 str  50  20   1.089
  57 str  51  20   1.093
  58 str  52  20   1.093
  59 str  53  24   1.082
  60 str  54  25   1.081
  61 str  55  28   1.081
  62 str  56  29   1.082
 nber stretches=          62
  63 ben   1   2   3
  64 prop tor   1   2   3   4
  65 prop tor   1   2   3  41
  66 ben   1   2  40
  67 ben   2   1  37
  68 ben   2   1  38
  69 ben   2   1  39
  70 ben   2   3   4
  71 prop tor   2   3   4   5
  72 prop tor   2   3   4  31
  73 ben   2   3  41
  74 ben   3   2  40
  75 ben   3   4   5
  76 prop tor   3   4   5   6
  77 prop tor   3   4   5   7
  78 ben   3   4  31
  79 prop tor   3   4  31  30
  80 prop tor   3   4  31  32
  81 ben   4   3  41
  82 ben   4   5   6
  83 ben   4   5   7
  84 prop tor   4   5   7   8
  85 prop tor   4   5   7  33
  86 ben   4  31  30
  87 ben   4  31  32
  88 ben   5   4  31
  89 prop tor   5   4  31  30
  90 prop tor   5   4  31  32
  91 ben   5   7   8
  92 prop tor   5   7   8   9
  93 prop tor   5   7   8  42
  94 ben   5   7  33
  95 prop tor   5   7  33  30
  96 prop tor   5   7  33  34
  97 ben   6   5   7
  98 prop tor   6   5   7   8
  99 prop tor   6   5   7  33
 100 ben   7   8   9
 101 prop tor   7   8   9  10
 102 prop tor   7   8   9  43
 103 ben   7   8  42
 104 ben   7  33  30
 105 ben   7  33  34
 106 prop tor   7  33  34  10
 107 prop tor   7  33  34  27
 108 ben   8   7  33
 109 prop tor   8   7  33  30
 110 prop tor   8   7  33  34
 111 ben   8   9  10
 112 prop tor   8   9  10  11
 113 prop tor   8   9  10  34
 114 ben   8   9  43
 115 ben   9   8  42
 116 ben   9  10  11
 117 prop tor   9  10  11  12
 118 prop tor   9  10  11  35
 119 ben   9  10  34
 120 prop tor   9  10  34  27
 121 prop tor   9  10  34  33
 122 ben  10   9  43
 123 ben  10  11  12
 124 prop tor  10  11  12  13
 125 prop tor  10  11  12  44
 126 ben  10  11  35
 127 prop tor  10  11  35  26
 128 prop tor  10  11  35  36
 129 ben  10  34  27
 130 ben  10  34  33
 131 ben  11  10  34
 132 prop tor  11  10  34  27
 133 prop tor  11  10  34  33
 134 ben  11  12  13
 135 prop tor  11  12  13  14
 136 prop tor  11  12  13  45
 137 ben  11  12  44
 138 ben  11  35  26
 139 ben  11  35  36
 140 prop tor  11  35  36  14
 141 prop tor  11  35  36  23
 142 ben  12  11  35
 143 prop tor  12  11  35  26
 144 prop tor  12  11  35  36
 145 ben  12  13  14
 146 prop tor  12  13  14  15
 147 prop tor  12  13  14  36
 148 ben  12  13  45
 149 ben  13  12  44
 150 ben  13  14  15
 151 prop tor  13  14  15  16
 152 prop tor  13  14  15  17
 153 ben  13  14  36
 154 prop tor  13  14  36  23
 155 prop tor  13  14  36  35
 156 ben  14  13  45
 157 ben  14  15  16
 158 ben  14  15  17
 159 prop tor  14  15  17  18
 160 prop tor  14  15  17  21
 161 ben  14  36  23
 162 ben  14  36  35
 163 ben  15  14  36
 164 prop tor  15  14  36  23
 165 prop tor  15  14  36  35
 166 ben  15  17  18
 167 prop tor  15  17  18  19
 168 prop tor  15  17  18  20
 169 prop tor  15  17  18  46
 170 ben  15  17  21
 171 prop tor  15  17  21  22
 172 prop tor  15  17  21  23
 173 ben  16  15  17
 174 prop tor  16  15  17  18
 175 prop tor  16  15  17  21
 176 ben  17  18  19
 177 prop tor  17  18  19  47
 178 prop tor  17  18  19  48
 179 prop tor  17  18  19  49
 180 ben  17  18  20
 181 prop tor  17  18  20  50
 182 prop tor  17  18  20  51
 183 prop tor  17  18  20  52
 184 ben  17  18  46
 185 ben  17  21  22
 186 ben  17  21  23
 187 prop tor  17  21  23  24
 188 prop tor  17  21  23  36
 189 ben  18  17  21
 190 prop tor  18  17  21  22
 191 prop tor  18  17  21  23
 192 ben  18  19  47
 193 ben  18  19  48
 194 ben  18  19  49
 195 ben  18  20  50
 196 ben  18  20  51
 197 ben  18  20  52
 198 ben  19  18  20
 199 prop tor  19  18  20  50
 200 prop tor  19  18  20  51
 201 prop tor  19  18  20  52
 202 ben  19  18  46
 203 prop tor  20  18  19  47
 204 prop tor  20  18  19  48
 205 prop tor  20  18  19  49
 206 ben  20  18  46
 207 prop tor  21  17  18  19
 208 prop tor  21  17  18  20
 209 prop tor  21  17  18  46
 210 ben  21  23  24
 211 prop tor  21  23  24  25
 212 prop tor  21  23  24  53
 213 ben  21  23  36
 214 prop tor  21  23  36  14
 215 prop tor  21  23  36  35
 216 ben  22  21  23
 217 prop tor  22  21  23  24
 218 prop tor  22  21  23  36
 219 ben  23  24  25
 220 prop tor  23  24  25  26
 221 prop tor  23  24  25  54
 222 ben  23  24  53
 223 ben  23  36  35
 224 ben  24  23  36
 225 prop tor  24  23  36  14
 226 prop tor  24  23  36  35
 227 ben  24  25  26
 228 prop tor  24  25  26  27
 229 prop tor  24  25  26  35
 230 ben  24  25  54
 231 ben  25  24  53
 232 ben  25  26  27
 233 prop tor  25  26  27  28
 234 prop tor  25  26  27  34
 235 ben  25  26  35
 236 prop tor  25  26  35  11
 237 prop tor  25  26  35  36
 238 ben  26  25  54
 239 ben  26  27  28
 240 prop tor  26  27  28  29
 241 prop tor  26  27  28  55
 242 ben  26  27  34
 243 prop tor  26  27  34  10
 244 prop tor  26  27  34  33
 245 ben  26  35  36
 246 prop tor  26  35  36  14
 247 prop tor  26  35  36  23
 248 ben  27  26  35
 249 prop tor  27  26  35  11
 250 prop tor  27  26  35  36
 251 ben  27  28  29
 252 prop tor  27  28  29  30
 253 prop tor  27  28  29  56
 254 ben  27  28  55
 255 ben  27  34  33
 256 ben  28  27  34
 257 prop tor  28  27  34  10
 258 prop tor  28  27  34  33
 259 ben  28  29  30
 260 prop tor  28  29  30  31
 261 prop tor  28  29  30  33
 262 ben  28  29  56
 263 ben  29  28  55
 264 ben  29  30  31
 265 prop tor  29  30  31   4
 266 prop tor  29  30  31  32
 267 ben  29  30  33
 268 prop tor  29  30  33   7
 269 prop tor  29  30  33  34
 270 ben  30  29  56
 271 ben  30  31  32
 272 ben  30  33  34
 273 prop tor  30  33  34  10
 274 prop tor  30  33  34  27
 275 prop tor  31   4   5   6
 276 prop tor  31   4   5   7
 277 ben  31  30  33
 278 prop tor  31  30  33   7
 279 prop tor  31  30  33  34
 280 prop tor  33   7   8   9
 281 prop tor  33   7   8  42
 282 prop tor  33  30  31   4
 283 prop tor  33  30  31  32
 284 prop tor  34  10  11  12
 285 prop tor  34  10  11  35
 286 prop tor  34  27  28  29
 287 prop tor  34  27  28  55
 288 prop tor  35  11  12  13
 289 prop tor  35  11  12  44
 290 prop tor  35  26  27  28
 291 prop tor  35  26  27  34
 292 prop tor  36  14  15  16
 293 prop tor  36  14  15  17
 294 prop tor  36  23  24  25
 295 prop tor  36  23  24  53
 296 prop tor  37   1   2   3
 297 prop tor  37   1   2  40
 298 ben  37   1  38
 299 ben  37   1  39
 300 prop tor  38   1   2   3
 301 prop tor  38   1   2  40
 302 ben  38   1  39
 303 prop tor  39   1   2   3
 304 prop tor  39   1   2  40
 305 prop tor  40   2   3   4
 306 prop tor  40   2   3  41
 307 prop tor  41   3   4   5
 308 prop tor  41   3   4  31
 309 prop tor  42   8   9  10
 310 prop tor  42   8   9  43
 311 prop tor  43   9  10  11
 312 prop tor  43   9  10  34
 313 prop tor  44  12  13  14
 314 prop tor  44  12  13  45
 315 prop tor  45  13  14  15
 316 prop tor  45  13  14  36
 317 prop tor  46  18  19  47
 318 prop tor  46  18  19  48
 319 prop tor  46  18  19  49
 320 prop tor  46  18  20  50
 321 prop tor  46  18  20  51
 322 prop tor  46  18  20  52
 323 ben  47  19  48
 324 ben  47  19  49
 325 ben  48  19  49
 326 ben  50  20  51
 327 ben  50  20  52
 328 ben  51  20  52
 329 prop tor  53  24  25  26
 330 prop tor  53  24  25  54
 331 prop tor  54  25  26  27
 332 prop tor  54  25  26  35
 333 prop tor  55  28  29  30
 334 prop tor  55  28  29  56
 335 prop tor  56  29  30  31
 336 prop tor  56  29  30  33
 nber bend=             108
 nber lin bend=           0
 nber prop tor=         166
 nber impr tor=           0
 nber tot redund int=         336
 Reading file: 
 ./PDI_3_C-1S0.log                                                              
                                          
  Entering Gaussian System, Link 0=g16                                          
  
 Gaussian format, type: g94, g98, g03= F F F
  #P Geom=AllCheck Guess=TCheck SCRF=Check GenChk UB3LYP/6-311G(d,p) Fre    
 energy type= B3LYP   
 Original G94 input coords:
  6  0.784010 -0.219486  0.466738
  6  2.245244 -0.553331  0.581719
  6  3.175985  0.405724  0.574099
  7  4.589544  0.308920  0.669605
  6  5.249503 -0.940394  0.797529
  8  4.609998 -1.986290  0.830023
  6  6.708801 -0.911571  0.886740
  6  7.404676 -2.119755  1.013838
  6  8.780796 -2.139590  1.101201
  6  9.548859 -0.951892  1.066968
  6 10.993766 -0.959838  1.157826
  6 11.738453 -2.155885  1.287253
  6 13.115459 -2.151021  1.373029
  6 13.833170 -0.950811  1.334738
  6 15.292924 -0.983269  1.428275
  8 15.927594 -2.031587  1.540444
  7 15.962975  0.253043  1.385026
  6 17.447805  0.275130  1.477141
  6 17.947381 -0.247285  2.829702
  6 18.108150 -0.423069  0.281990
  6 15.316100  1.505959  1.257473
  8 15.970712  2.545988  1.226504
  6 13.857243  1.488145  1.167082
  6 13.161897  2.696025  1.039624
  6 11.785456  2.715460  0.952197
  6 11.017115  1.527330  0.986839
  6  9.573249  1.534892  0.896425
  6  8.827928  2.731789  0.767479
  6  7.452413  2.727437  0.681935
  6  6.732475  1.525935  0.719770
  6  5.280101  1.566396  0.626237
  8  4.646260  2.610220  0.514754
  6  7.428796  0.302578  0.847738
  6  8.862296  0.295113  0.937768
  6 11.703974  0.279903  1.116262
  6 13.137215  0.272367  1.206384
  1  0.333886 -0.699725 -0.411114
  1  0.617595  0.858137  0.382077
  1  0.223734 -0.579263  1.338813
  1  2.522848 -1.592007  0.670906
  1  2.885937  1.443895  0.484310
  1  6.830276 -3.037338  1.041444
  1  9.274916 -3.096521  1.198290
  1 11.225456 -3.107217  1.321096
  1 13.672945 -3.074328  1.471847
  1 17.682433  1.336168  1.418740
  1 17.741117 -1.310672  2.944327
  1 17.468470  0.296283  3.648653
  1 19.027459 -0.084181  2.904697
  1 17.909442 -1.494031  0.289406
  1 19.190402 -0.261707  0.320635
  1 17.739550 -0.001424 -0.657078
  1 13.736298  3.613767  1.011811
  1 11.291079  3.672218  0.854679
  1  9.340977  3.683063  0.734150
  1  6.896496  3.651552  0.583617
 nber atoms=          56
  SCF Done:  E(UB3LYP) =  -1566.23585673     A.U. after    1 cycles             
  
          23          40 "  -1566.23585673"
After scan for Atom:   Atom  AN      X      Y      Z        X      Y      Z        X      Y      Z   
After scan for Atom:   Atom  AN      X      Y      Z        X      Y      Z        X      Y      Z   
After scan for Atom:   Atom  AN      X      Y      Z        X      Y      Z        X      Y      Z   
After scan for Atom:   Atom  AN      X      Y      Z        X      Y      Z        X      Y      Z   
After scan for Atom:   Atom  AN      X      Y      Z        X      Y      Z        X      Y      Z   
After scan for Atom:   Atom  AN      X      Y      Z        X      Y      Z        X      Y      Z   
After scan for Atom:   Atom  AN      X      Y      Z        X      Y      Z        X      Y      Z   
After scan for Atom:   Atom  AN      X      Y      Z        X      Y      Z        X      Y      Z   
After scan for Atom:   Atom  AN      X      Y      Z        X      Y      Z        X      Y      Z   
After scan for Atom:   Atom  AN      X      Y      Z        X      Y      Z        X      Y      Z   
After scan for Atom:   Atom  AN      X      Y      Z        X      Y      Z        X      Y      Z   
After scan for Atom:   Atom  AN      X      Y      Z        X      Y      Z        X      Y      Z   
After scan for Atom:   Atom  AN      X      Y      Z        X      Y      Z        X      Y      Z   
After scan for Atom:   Atom  AN      X      Y      Z        X      Y      Z        X      Y      Z   
After scan for Atom:   Atom  AN      X      Y      Z        X      Y      Z        X      Y      Z   
After scan for Atom:   Atom  AN      X      Y      Z        X      Y      Z        X      Y      Z   
After scan for Atom:   Atom  AN      X      Y      Z        X      Y      Z        X      Y      Z   
After scan for Atom:   Atom  AN      X      Y      Z        X      Y      Z        X      Y      Z   
After scan for Atom:   Atom  AN      X      Y      Z        X      Y      Z        X      Y      Z   
After scan for Atom:   Atom  AN      X      Y      Z        X      Y      Z        X      Y      Z   
After scan for Atom:   Atom  AN      X      Y      Z        X      Y      Z        X      Y      Z   
After scan for Atom:   Atom  AN      X      Y      Z        X      Y      Z        X      Y      Z   
After scan for Atom:   Atom  AN      X      Y      Z        X      Y      Z        X      Y      Z   
After scan for Atom:   Atom  AN      X      Y      Z        X      Y      Z        X      Y      Z   
After scan for Atom:   Atom  AN      X      Y      Z        X      Y      Z        X      Y      Z   
After scan for Atom:   Atom  AN      X      Y      Z        X      Y      Z        X      Y      Z   
After scan for Atom:   Atom  AN      X      Y      Z        X      Y      Z        X      Y      Z   
After scan for Atom:   Atom  AN      X      Y      Z        X      Y      Z        X      Y      Z   
After scan for Atom:   Atom  AN      X      Y      Z        X      Y      Z        X      Y      Z   
After scan for Atom:   Atom  AN      X      Y      Z        X      Y      Z        X      Y      Z   
After scan for Atom:   Atom  AN      X      Y      Z        X      Y      Z        X      Y      Z   
After scan for Atom:   Atom  AN      X      Y      Z        X      Y      Z        X      Y      Z   
After scan for Atom:   Atom  AN      X      Y      Z        X      Y      Z        X      Y      Z   
After scan for Atom:   Atom  AN      X      Y      Z        X      Y      Z        X      Y      Z   
After scan for Atom:   Atom  AN      X      Y      Z        X      Y      Z        X      Y      Z   
After scan for Atom:   Atom  AN      X      Y      Z        X      Y      Z        X      Y      Z   
After scan for Atom:   Atom  AN      X      Y      Z        X      Y      Z        X      Y      Z   
After scan for Atom:   Atom  AN      X      Y      Z        X      Y      Z        X      Y      Z   
After scan for Atom:   Atom  AN      X      Y      Z        X      Y      Z        X      Y      Z   
After scan for Atom:   Atom  AN      X      Y      Z        X      Y      Z        X      Y      Z   
After scan for Atom:   Atom  AN      X      Y      Z        X      Y      Z        X      Y      Z   
After scan for Atom:   Atom  AN      X      Y      Z        X      Y      Z        X      Y      Z   
After scan for Atom:   Atom  AN      X      Y      Z        X      Y      Z        X      Y      Z   
After scan for Atom:   Atom  AN      X      Y      Z        X      Y      Z        X      Y      Z   
After scan for Atom:   Atom  AN      X      Y      Z        X      Y      Z        X      Y      Z   
After scan for Atom:   Atom  AN      X      Y      Z        X      Y      Z        X      Y      Z   
After scan for Atom:   Atom  AN      X      Y      Z        X      Y      Z        X      Y      Z   
After scan for Atom:   Atom  AN      X      Y      Z        X      Y      Z        X      Y      Z   
After scan for Atom:   Atom  AN      X      Y      Z        X      Y      Z        X      Y      Z   
After scan for Atom:   Atom  AN      X      Y      Z        X      Y      Z        X      Y      Z   
After scan for Atom:   Atom  AN      X      Y      Z        X      Y      Z        X      Y      Z   
After scan for Atom:   Atom  AN      X      Y      Z        X      Y      Z        X      Y      Z   
After scan for Atom:   Atom  AN      X      Y      Z        X      Y      Z        X      Y      Z   
After scan for Atom:   Atom  AN      X      Y      Z        X      Y      Z        X      Y      Z   
 g94    frequencies=
     0.0    0.0    0.0    0.0    0.0    0.0   19.8   25.5   37.8   58.7
    63.6   75.2   89.2   91.0   98.6  103.3  148.0  156.7  170.8  182.2
   190.5  197.2  211.5  215.5  222.9  235.4  236.0  264.5  277.7  286.7
   300.8  335.4  338.0  363.2  388.7  391.3  394.3  417.6  421.0  437.1
   444.7  446.0  454.4  466.8  476.7  499.8  503.9  510.6  512.4  516.6
   541.8  579.8  581.7  587.9  622.7  624.0  645.7  651.7  663.7  711.4
   720.3  730.2  743.3  747.0  751.4  764.2  772.6  792.0  805.0  808.6
   809.1  815.5  826.7  827.2  828.9  845.3  846.5  897.3  916.3  938.7
   941.6  953.6  963.8  967.3  972.4  976.5  979.1  980.2 1024.1 1042.9
  1064.1 1065.8 1074.8 1083.8 1107.1 1144.3 1154.2 1157.5 1162.9 1173.7
  1184.0 1195.0 1199.4 1223.3 1233.2 1242.8 1245.5 1254.1 1294.0 1301.8
  1312.7 1318.2 1339.5 1355.2 1362.5 1370.0 1382.9 1387.9 1390.3 1392.4
  1396.6 1405.9 1411.6 1422.4 1436.9 1465.0 1468.8 1473.7 1480.0 1482.3
  1483.2 1493.6 1496.4 1507.7 1524.1 1529.2 1561.0 1571.5 1576.6 1592.3
  1609.4 1616.6 1626.9 1664.7 1676.8 1699.8 1706.4 1724.8 2994.0 3021.9
  3027.4 3029.1 3075.7 3080.2 3083.1 3104.1 3129.6 3138.6 3182.0 3182.2
  3190.3 3190.5 3200.0 3200.1 3200.4 3211.4 3211.8 3236.5
 g94    symmetries=
                                                 A      A      A      A
       A      A      A      A      A      A      A      A      A      A
       A      A      A      A      A      A      A      A      A      A
       A      A      A      A      A      A      A      A      A      A
       A      A      A      A      A      A      A      A      A      A
       A      A      A      A      A      A      A      A      A      A
       A      A      A      A      A      A      A      A      A      A
       A      A      A      A      A      A      A      A      A      A
       A      A      A      A      A      A      A      A      A      A
       A      A      A      A      A      A      A      A      A      A
       A      A      A      A      A      A      A      A      A      A
       A      A      A      A      A      A      A      A      A      A
       A      A      A      A      A      A      A      A      A      A
       A      A      A      A      A      A      A      A      A      A
       A      A      A      A      A      A      A      A      A      A
       A      A      A      A      A      A      A      A      A      A
       A      A      A      A      A      A      A      A
 atomic masses:
 12.0000 12.0000 12.0000 14.0031 12.0000 15.9949 12.0000 12.0000 12.0000 12.0000
 12.0000 12.0000 12.0000 12.0000 12.0000 15.9949 14.0031 12.0000 12.0000 12.0000
 12.0000 15.9949 12.0000 12.0000 12.0000 12.0000 12.0000 12.0000 12.0000 12.0000
 12.0000 15.9949 12.0000 12.0000 12.0000 12.0000  1.0078  1.0078  1.0078  1.0078
  1.0078  1.0078  1.0078  1.0078  1.0078  1.0078  1.0078  1.0078  1.0078  1.0078
  1.0078  1.0078  1.0078  1.0078  1.0078  1.0078
 looking for force constants in 
 ./PDI_3_C-1S0.fchk                                                             
  
 Cartesian Force Constants                  R   N=       14196                  
  
 n3=         168       14196
 g94-fc frequencies=
    -2.0   -0.9   -0.0    0.0    0.0    1.3   19.8   25.5   37.8   58.7
    63.6   75.2   89.2   91.0   98.6  103.3  148.0  156.7  170.8  182.2
   190.5  197.2  211.5  215.5  222.9  235.4  236.0  264.5  277.7  286.7
   300.8  335.4  338.1  363.2  388.7  391.3  394.3  417.6  421.0  437.1
   444.7  446.0  454.4  466.8  476.7  499.9  503.9  510.6  512.4  516.7
   541.8  579.8  581.7  587.9  622.8  624.0  645.7  651.8  663.8  711.4
   720.4  730.2  743.4  747.1  751.5  764.3  772.6  792.0  805.0  808.6
   809.1  815.5  826.8  827.3  828.9  845.3  846.5  897.3  916.3  938.7
   941.6  953.6  963.8  967.4  972.4  976.6  979.1  980.2 1024.2 1043.0
  1064.1 1065.8 1074.8 1083.8 1107.1 1144.3 1154.2 1157.5 1162.9 1173.7
  1184.0 1195.0 1199.4 1223.4 1233.3 1242.8 1245.6 1254.1 1294.0 1301.9
  1312.7 1318.2 1339.5 1355.2 1362.6 1370.0 1382.9 1388.0 1390.3 1392.4
  1396.7 1405.9 1411.6 1422.4 1436.9 1465.0 1468.9 1473.7 1480.0 1482.3
  1483.3 1493.6 1496.5 1507.7 1524.1 1529.2 1561.0 1571.5 1576.6 1592.3
  1609.4 1616.7 1626.9 1664.8 1676.8 1699.8 1706.5 1724.8 2994.0 3022.0
  3027.5 3029.2 3075.7 3080.2 3083.2 3104.1 3129.7 3138.7 3182.1 3182.3
  3190.4 3190.6 3200.0 3200.1 3200.4 3211.5 3211.9 3236.5
 at 99999: n3=         168
 symm operator            1 :  F  nop=           0
 symm operator            2 :  F  nop=           0
 symm operator            3 :  F  nop=           0
 symm operator            4 :  F  nop=           0
 symm operator            5 :  F  nop=           0
 symm operator            6 :  F  nop=           0
 symm operator            7 :  F  nop=           0
 The point group of the molecule is  C1
 Symmetry rotation matrix:
   1.00000   0.00000   0.00000
   0.00000   1.00000   0.00000
   0.00000   0.00000   1.00000

 Projecting out zero-frequency components
 generating redundant internal coords
         300        3600          56
 search for int coords
   1 str   2   1   1.503
   2 str   3   2   1.336
   3 str   4   3   1.420
   4 str   5   4   1.419
   5 str   6   5   1.226
   6 str   7   5   1.462
   7 str   8   7   1.400
   8 str   9   8   1.379
   9 str  10   9   1.415
  10 str  11  10   1.448
  11 str  12  11   1.415
  12 str  13  12   1.380
  13 str  14  13   1.399
  14 str  15  14   1.463
  15 str  16  15   1.231
  16 str  17  15   1.407
  17 str  18  17   1.488
  18 str  19  18   1.534
  19 str  20  18   1.534
  20 str  21  17   1.416
  21 str  22  21   1.229
  22 str  23  21   1.462
  23 str  24  23   1.400
  24 str  25  24   1.379
  25 str  26  25   1.415
  26 str  27  26   1.447
  27 str  28  27   1.416
  28 str  29  28   1.378
  29 str  30  29   1.401
  30 str  31   4   1.435
  31 str  31  30   1.456
  32 str  32  31   1.226
  33 str  33   7   1.412
  34 str  33  30   1.413
  35 str  34  10   1.429
  36 str  34  27   1.430
  37 str  34  33   1.436
  38 str  35  11   1.429
  39 str  35  26   1.430
  40 str  36  14   1.413
  41 str  36  23   1.414
  42 str  36  35   1.436
  43 str  37   1   1.097
  44 str  38   1   1.094
  45 str  39   1   1.097
  46 str  40   2   1.079
  47 str  41   3   1.082
  48 str  42   8   1.083
  49 str  43   9   1.081
  50 str  44  12   1.081
  51 str  45  13   1.083
  52 str  46  18   1.088
  53 str  47  19   1.089
  54 str  48  19   1.093
  55 str  49  19   1.095
  56 str  50  20   1.089
  57 str  51  20   1.095
  58 str  52  20   1.093
  59 str  53  24   1.083
  60 str  54  25   1.081
  61 str  55  28   1.081
  62 str  56  29   1.083
 nber stretches=          62
  63 ben   1   2   3
  64 prop tor   1   2   3   4
  65 prop tor   1   2   3  41
  66 ben   1   2  40
  67 ben   2   1  37
  68 ben   2   1  38
  69 ben   2   1  39
  70 ben   2   3   4
  71 prop tor   2   3   4   5
  72 prop tor   2   3   4  31
  73 ben   2   3  41
  74 ben   3   2  40
  75 ben   3   4   5
  76 prop tor   3   4   5   6
  77 prop tor   3   4   5   7
  78 ben   3   4  31
  79 prop tor   3   4  31  30
  80 prop tor   3   4  31  32
  81 ben   4   3  41
  82 ben   4   5   6
  83 ben   4   5   7
  84 prop tor   4   5   7   8
  85 prop tor   4   5   7  33
  86 ben   4  31  30
  87 ben   4  31  32
  88 ben   5   4  31
  89 prop tor   5   4  31  30
  90 prop tor   5   4  31  32
  91 ben   5   7   8
  92 prop tor   5   7   8   9
  93 prop tor   5   7   8  42
  94 ben   5   7  33
  95 prop tor   5   7  33  30
  96 prop tor   5   7  33  34
  97 ben   6   5   7
  98 prop tor   6   5   7   8
  99 prop tor   6   5   7  33
 100 ben   7   8   9
 101 prop tor   7   8   9  10
 102 prop tor   7   8   9  43
 103 ben   7   8  42
 104 ben   7  33  30
 105 ben   7  33  34
 106 prop tor   7  33  34  10
 107 prop tor   7  33  34  27
 108 ben   8   7  33
 109 prop tor   8   7  33  30
 110 prop tor   8   7  33  34
 111 ben   8   9  10
 112 prop tor   8   9  10  11
 113 prop tor   8   9  10  34
 114 ben   8   9  43
 115 ben   9   8  42
 116 ben   9  10  11
 117 prop tor   9  10  11  12
 118 prop tor   9  10  11  35
 119 ben   9  10  34
 120 prop tor   9  10  34  27
 121 prop tor   9  10  34  33
 122 ben  10   9  43
 123 ben  10  11  12
 124 prop tor  10  11  12  13
 125 prop tor  10  11  12  44
 126 ben  10  11  35
 127 prop tor  10  11  35  26
 128 prop tor  10  11  35  36
 129 ben  10  34  27
 130 ben  10  34  33
 131 ben  11  10  34
 132 prop tor  11  10  34  27
 133 prop tor  11  10  34  33
 134 ben  11  12  13
 135 prop tor  11  12  13  14
 136 prop tor  11  12  13  45
 137 ben  11  12  44
 138 ben  11  35  26
 139 ben  11  35  36
 140 prop tor  11  35  36  14
 141 prop tor  11  35  36  23
 142 ben  12  11  35
 143 prop tor  12  11  35  26
 144 prop tor  12  11  35  36
 145 ben  12  13  14
 146 prop tor  12  13  14  15
 147 prop tor  12  13  14  36
 148 ben  12  13  45
 149 ben  13  12  44
 150 ben  13  14  15
 151 prop tor  13  14  15  16
 152 prop tor  13  14  15  17
 153 ben  13  14  36
 154 prop tor  13  14  36  23
 155 prop tor  13  14  36  35
 156 ben  14  13  45
 157 ben  14  15  16
 158 ben  14  15  17
 159 prop tor  14  15  17  18
 160 prop tor  14  15  17  21
 161 ben  14  36  23
 162 ben  14  36  35
 163 ben  15  14  36
 164 prop tor  15  14  36  23
 165 prop tor  15  14  36  35
 166 ben  15  17  18
 167 prop tor  15  17  18  19
 168 prop tor  15  17  18  20
 169 prop tor  15  17  18  46
 170 ben  15  17  21
 171 prop tor  15  17  21  22
 172 prop tor  15  17  21  23
 173 ben  16  15  17
 174 prop tor  16  15  17  18
 175 prop tor  16  15  17  21
 176 ben  17  18  19
 177 prop tor  17  18  19  47
 178 prop tor  17  18  19  48
 179 prop tor  17  18  19  49
 180 ben  17  18  20
 181 prop tor  17  18  20  50
 182 prop tor  17  18  20  51
 183 prop tor  17  18  20  52
 184 ben  17  18  46
 185 ben  17  21  22
 186 ben  17  21  23
 187 prop tor  17  21  23  24
 188 prop tor  17  21  23  36
 189 ben  18  17  21
 190 prop tor  18  17  21  22
 191 prop tor  18  17  21  23
 192 ben  18  19  47
 193 ben  18  19  48
 194 ben  18  19  49
 195 ben  18  20  50
 196 ben  18  20  51
 197 ben  18  20  52
 198 ben  19  18  20
 199 prop tor  19  18  20  50
 200 prop tor  19  18  20  51
 201 prop tor  19  18  20  52
 202 ben  19  18  46
 203 prop tor  20  18  19  47
 204 prop tor  20  18  19  48
 205 prop tor  20  18  19  49
 206 ben  20  18  46
 207 prop tor  21  17  18  19
 208 prop tor  21  17  18  20
 209 prop tor  21  17  18  46
 210 ben  21  23  24
 211 prop tor  21  23  24  25
 212 prop tor  21  23  24  53
 213 ben  21  23  36
 214 prop tor  21  23  36  14
 215 prop tor  21  23  36  35
 216 ben  22  21  23
 217 prop tor  22  21  23  24
 218 prop tor  22  21  23  36
 219 ben  23  24  25
 220 prop tor  23  24  25  26
 221 prop tor  23  24  25  54
 222 ben  23  24  53
 223 ben  23  36  35
 224 ben  24  23  36
 225 prop tor  24  23  36  14
 226 prop tor  24  23  36  35
 227 ben  24  25  26
 228 prop tor  24  25  26  27
 229 prop tor  24  25  26  35
 230 ben  24  25  54
 231 ben  25  24  53
 232 ben  25  26  27
 233 prop tor  25  26  27  28
 234 prop tor  25  26  27  34
 235 ben  25  26  35
 236 prop tor  25  26  35  11
 237 prop tor  25  26  35  36
 238 ben  26  25  54
 239 ben  26  27  28
 240 prop tor  26  27  28  29
 241 prop tor  26  27  28  55
 242 ben  26  27  34
 243 prop tor  26  27  34  10
 244 prop tor  26  27  34  33
 245 ben  26  35  36
 246 prop tor  26  35  36  14
 247 prop tor  26  35  36  23
 248 ben  27  26  35
 249 prop tor  27  26  35  11
 250 prop tor  27  26  35  36
 251 ben  27  28  29
 252 prop tor  27  28  29  30
 253 prop tor  27  28  29  56
 254 ben  27  28  55
 255 ben  27  34  33
 256 ben  28  27  34
 257 prop tor  28  27  34  10
 258 prop tor  28  27  34  33
 259 ben  28  29  30
 260 prop tor  28  29  30  31
 261 prop tor  28  29  30  33
 262 ben  28  29  56
 263 ben  29  28  55
 264 ben  29  30  31
 265 prop tor  29  30  31   4
 266 prop tor  29  30  31  32
 267 ben  29  30  33
 268 prop tor  29  30  33   7
 269 prop tor  29  30  33  34
 270 ben  30  29  56
 271 ben  30  31  32
 272 ben  30  33  34
 273 prop tor  30  33  34  10
 274 prop tor  30  33  34  27
 275 prop tor  31   4   5   6
 276 prop tor  31   4   5   7
 277 ben  31  30  33
 278 prop tor  31  30  33   7
 279 prop tor  31  30  33  34
 280 prop tor  33   7   8   9
 281 prop tor  33   7   8  42
 282 prop tor  33  30  31   4
 283 prop tor  33  30  31  32
 284 prop tor  34  10  11  12
 285 prop tor  34  10  11  35
 286 prop tor  34  27  28  29
 287 prop tor  34  27  28  55
 288 prop tor  35  11  12  13
 289 prop tor  35  11  12  44
 290 prop tor  35  26  27  28
 291 prop tor  35  26  27  34
 292 prop tor  36  14  15  16
 293 prop tor  36  14  15  17
 294 prop tor  36  23  24  25
 295 prop tor  36  23  24  53
 296 prop tor  37   1   2   3
 297 prop tor  37   1   2  40
 298 ben  37   1  38
 299 ben  37   1  39
 300 prop tor  38   1   2   3
 301 prop tor  38   1   2  40
 302 ben  38   1  39
 303 prop tor  39   1   2   3
 304 prop tor  39   1   2  40
 305 prop tor  40   2   3   4
 306 prop tor  40   2   3  41
 307 prop tor  41   3   4   5
 308 prop tor  41   3   4  31
 309 prop tor  42   8   9  10
 310 prop tor  42   8   9  43
 311 prop tor  43   9  10  11
 312 prop tor  43   9  10  34
 313 prop tor  44  12  13  14
 314 prop tor  44  12  13  45
 315 prop tor  45  13  14  15
 316 prop tor  45  13  14  36
 317 prop tor  46  18  19  47
 318 prop tor  46  18  19  48
 319 prop tor  46  18  19  49
 320 prop tor  46  18  20  50
 321 prop tor  46  18  20  51
 322 prop tor  46  18  20  52
 323 ben  47  19  48
 324 ben  47  19  49
 325 ben  48  19  49
 326 ben  50  20  51
 327 ben  50  20  52
 328 ben  51  20  52
 329 prop tor  53  24  25  26
 330 prop tor  53  24  25  54
 331 prop tor  54  25  26  27
 332 prop tor  54  25  26  35
 333 prop tor  55  28  29  30
 334 prop tor  55  28  29  56
 335 prop tor  56  29  30  31
 336 prop tor  56  29  30  33
 nber bend=             108
 nber lin bend=           0
 nber prop tor=         166
 nber impr tor=           0
 nber tot redund int=         336
 Eigenvalues of G in red int coords
    Gval -0.00000000 -0.00000000 -0.00000000 -0.00000000 -0.00000000 -0.00000000 -0.00000000 -0.00000000
    Gval -0.00000000 -0.00000000 -0.00000000 -0.00000000 -0.00000000 -0.00000000 -0.00000000 -0.00000000
    Gval -0.00000000 -0.00000000 -0.00000000 -0.00000000 -0.00000000 -0.00000000 -0.00000000 -0.00000000
    Gval -0.00000000 -0.00000000 -0.00000000 -0.00000000 -0.00000000 -0.00000000 -0.00000000 -0.00000000
    Gval -0.00000000 -0.00000000 -0.00000000 -0.00000000 -0.00000000 -0.00000000 -0.00000000 -0.00000000
    Gval -0.00000000 -0.00000000 -0.00000000 -0.00000000 -0.00000000 -0.00000000 -0.00000000 -0.00000000
    Gval -0.00000000 -0.00000000 -0.00000000 -0.00000000 -0.00000000 -0.00000000 -0.00000000 -0.00000000
    Gval -0.00000000 -0.00000000 -0.00000000 -0.00000000 -0.00000000 -0.00000000 -0.00000000 -0.00000000
    Gval -0.00000000 -0.00000000 -0.00000000 -0.00000000 -0.00000000 -0.00000000 -0.00000000 -0.00000000
    Gval -0.00000000 -0.00000000 -0.00000000 -0.00000000 -0.00000000 -0.00000000 -0.00000000 -0.00000000
    Gval -0.00000000 -0.00000000 -0.00000000 -0.00000000 -0.00000000 -0.00000000 -0.00000000 -0.00000000
    Gval -0.00000000 -0.00000000 -0.00000000 -0.00000000  0.00000000  0.00000000  0.00000000  0.00000000
    Gval  0.00000000  0.00000000  0.00000000  0.00000000  0.00000000  0.00000000  0.00000000  0.00000000
    Gval  0.00000000  0.00000000  0.00000000  0.00000000  0.00000000  0.00000000  0.00000000  0.00000000
    Gval  0.00000000  0.00000000  0.00000000  0.00000000  0.00000000  0.00000000  0.00000000  0.00000000
    Gval  0.00000000  0.00000000  0.00000000  0.00000000  0.00000000  0.00000000  0.00000000  0.00000000
    Gval  0.00000000  0.00000000  0.00000000  0.00000000  0.00000000  0.00000000  0.00000000  0.00000000
    Gval  0.00000000  0.00000000  0.00000000  0.00000000  0.00000000  0.00000000  0.00000000  0.00000000
    Gval  0.00000000  0.00000000  0.00000000  0.00000000  0.00000000  0.00000000  0.00000000  0.00000000
    Gval  0.00000000  0.00000000  0.00000000  0.00000000  0.00000000  0.00000000  0.00000000  0.00000000
    Gval  0.00000000  0.00000000  0.00000000  0.00000000  0.00000000  0.00000000  0.00000000  0.00000000
    Gval  0.00000000  0.00000000  0.00000000  0.00000000  0.00000000  0.00000000  0.00000083  0.00000201
    Gval  0.00000243  0.00000275  0.00000615  0.00000693  0.00000807  0.00001010  0.00001094  0.00001118
    Gval  0.00001549  0.00001610  0.00001716  0.00001789  0.00001834  0.00001902  0.00002153  0.00002355
    Gval  0.00002401  0.00002537  0.00002986  0.00003224  0.00003288  0.00003584  0.00003996  0.00004635
    Gval  0.00004894  0.00005113  0.00005288  0.00005478  0.00005864  0.00006169  0.00006193  0.00006843
    Gval  0.00007124  0.00007396  0.00008143  0.00008239  0.00008378  0.00008590  0.00008864  0.00009191
    Gval  0.00009368  0.00009492  0.00010619  0.00010708  0.00011596  0.00012136  0.00012249  0.00013395
    Gval  0.00013667  0.00013738  0.00014073  0.00015286  0.00015909  0.00016352  0.00016489  0.00018151
    Gval  0.00019517  0.00021264  0.00021344  0.00022165  0.00022709  0.00023091  0.00026701  0.00028565
    Gval  0.00028686  0.00029478  0.00033779  0.00034212  0.00036006  0.00037886  0.00038460  0.00038924
    Gval  0.00039267  0.00040714  0.00042383  0.00042513  0.00042976  0.00043620  0.00043992  0.00044208
    Gval  0.00046239  0.00046705  0.00046793  0.00047360  0.00049395  0.00053163  0.00053172  0.00053331
    Gval  0.00053739  0.00054570  0.00055317  0.00055579  0.00055584  0.00055723  0.00057676  0.00059346
    Gval  0.00059853  0.00059926  0.00059959  0.00059987  0.00060221  0.00061482  0.00062039  0.00064139
    Gval  0.00064485  0.00064573  0.00064748  0.00066883  0.00069204  0.00069417  0.00069603  0.00072824
    Gval  0.00079002  0.00082005  0.00093558  0.00098583  0.00107173  0.00109227  0.00109323  0.00109388
    Gval  0.00109440  0.00114764  0.00115233  0.00116361  0.00116383  0.00116408  0.00116438  0.00116546
    Gval  0.00116602  0.00117227  0.00120305  0.00121571  0.00127655  0.00128928  0.00141248  0.00149152
    Gval  0.00157682  0.00172363  0.00177707  0.00191151  0.00227341  0.00233677  0.00238040  0.00239049
    Gval  0.00251893  0.00252621  0.00255724  0.00277973  0.00291580  0.00292492  0.00302038  0.00304159
    Gval  0.00308341  0.00308721  0.00365898  0.00366076  0.00370720  0.00370868  0.00392494  0.00411903
  8.347754161830542E-007  8.347754161830542E-007
  2.008870677190841E-006  8.347754161830542E-007
  2.426862959439763E-006  8.347754161830542E-007
  2.747963024952120E-006  8.347754161830542E-007
  6.153889381116690E-006  8.347754161830542E-007
  6.927472821380649E-006  8.347754161830542E-007
  8.071334855474757E-006  8.347754161830542E-007
  1.010060325028985E-005  8.347754161830542E-007
  1.093510310313897E-005  8.347754161830542E-007
  1.118111428501741E-005  8.347754161830542E-007
  1.549473457728611E-005  8.347754161830542E-007
  1.609872763096848E-005  8.347754161830542E-007
  1.716408128387839E-005  8.347754161830542E-007
  1.788709735696165E-005  8.347754161830542E-007
  1.834071041394214E-005  8.347754161830542E-007
  1.902040834355807E-005  8.347754161830542E-007
  2.153393997081285E-005  8.347754161830542E-007
  2.354602178134728E-005  8.347754161830542E-007
  2.401081322207478E-005  8.347754161830542E-007
  2.537466070062829E-005  8.347754161830542E-007
  2.985982902235967E-005  8.347754161830542E-007
  3.224274793800203E-005  8.347754161830542E-007
  3.288335944213356E-005  8.347754161830542E-007
  3.584229677446150E-005  8.347754161830542E-007
  3.996437405649503E-005  8.347754161830542E-007
  4.634759554748350E-005  8.347754161830542E-007
  4.893925829885367E-005  8.347754161830542E-007
  5.113240002066573E-005  8.347754161830542E-007
  5.288222188429378E-005  8.347754161830542E-007
  5.477525347325131E-005  8.347754161830542E-007
  5.863990679610734E-005  8.347754161830542E-007
  6.169179936330671E-005  8.347754161830542E-007
  6.193384870122935E-005  8.347754161830542E-007
  6.842700309566877E-005  8.347754161830542E-007
  7.124046146247694E-005  8.347754161830542E-007
  7.395831034811858E-005  8.347754161830542E-007
[...]
 nber times 1st assigned=         100           0
 nber times 1st assigned=         101           0
 nber times 1st assigned=         102           0
 nber times 1st assigned=         103           0
 nber times 1st assigned=         104           0
 nber times 1st assigned=         105           0
 nber times 1st assigned=         106           0
 nber times 1st assigned=         107           0
 nber times 1st assigned=         108           0
 nber times 1st assigned=         109           0
 nber times 1st assigned=         110           0
 nber times 1st assigned=         111           0
 nber times 1st assigned=         112           0
 nber times 1st assigned=         113           0
 nber times 1st assigned=         114           0
 nber times 1st assigned=         115           0
 nber times 1st assigned=         116           0
 nber times 1st assigned=         117           0
 nber times 1st assigned=         118           0
 nber times 1st assigned=         119           0
 nber times 1st assigned=         120           0
 nber times 1st assigned=         121           0
 nber times 1st assigned=         122           0
 nber times 1st assigned=         123           0
 nber times 1st assigned=         124           0
 nber times 1st assigned=         125           0
 nber times 1st assigned=         126           0
 nber times 1st assigned=         127           0
 nber times 1st assigned=         128           0
 nber times 1st assigned=         129           0
 nber times 1st assigned=         130           0
 nber times 1st assigned=         131           0
 nber times 1st assigned=         132           0
 nber times 1st assigned=         133           0
 nber times 1st assigned=         134           0
 nber times 1st assigned=         135           0
 nber times 1st assigned=         136           0
 nber times 1st assigned=         137           0
 nber times 1st assigned=         138           0
 nber times 1st assigned=         139           0
 nber times 1st assigned=         140           0
 nber times 1st assigned=         141           0
 nber times 1st assigned=         142           0
 nber times 1st assigned=         143           0
 nber times 1st assigned=         144           0
 nber times 1st assigned=         145           0
 nber times 1st assigned=         146           0
 nber times 1st assigned=         147           0
 nber times 1st assigned=         148           0
 nber times 1st assigned=         149           0
 nber times 1st assigned=         150           0
 nber times 1st assigned=         151           0
 nber times 1st assigned=         152           0
 nber times 1st assigned=         153           0
 nber times 1st assigned=         154           0
 nber times 1st assigned=         155           0
 nber times 1st assigned=         156           0
 nber times 1st assigned=         157           0
 nber times 1st assigned=         158           0
 nber times 1st assigned=         159           0
 nber times 1st assigned=         160           0
 nber times 1st assigned=         161           0
 nber times 1st assigned=         162           0
 nber times 1st assigned=         163           0
 nber times 1st assigned=         164           0
 nber times 1st assigned=         165           0
 nber times 1st assigned=         166           0
 nber times 1st assigned=         167           0
 nber times 1st assigned=         168           0
 modes represented=   164.913738192512     
 p1=
    0.   -0.    0.    0.   -0.   -0.    4.   12.  -11.   -9.  -39.  -55.  -38.   -2.    9.   -7.    4.   18.    0.    2.
  -23.   68.  -64.   -1.  -93.   -4.   -2.   -1.   -3.   -1.   -0.  -10.   -5.    3.    1.  -18.    0.   -0.    0.   -5.
   -1.   -1.   -0.    1.    2.   -1.    2.   -0.    1.    1.   -2.   -2.   -0.    2.   -0.   -0.    1.    2.    0.   -0.
   -1.   -0.    0.   -1.    0.   -2.    0.    0.    1.   -1.    1.   -0.   -1.   -1.    0.    4.    1.    1.    0.    1.
   -1.    0.    0.    0.   -0.   -0.   -0.    0.   -1.    1.   -0.    1.    0.    1.    1.    0.   -0.    0.    0.    0.
   -0.    0.    0.    1.    0.   -0.    0.    1.   -1.    1.    0.   -0.    0.   -0.   -0.    1.   -0.   -0.    0.   -0.
    0.    0.   -0.    0.   -0.    1.    0.    2.   -1.   -0.   -1.   -0.   -0.   -0.    0.    0.   -0.    1.   -0.   -0.
   -0.    1.   -0.   -0.    0.    1.    1.   -1.   -0.    0.   -0.    1.   -0.   -0.   -0.    0.    0.    0.    0.   -0.
   -0.   -0.    0.    0.    0.   -0.    0.    0.
 p2=
    0.    0.   -0.   -0.    0.   -0.    1.    9.   -3.   -7.  -11.   35.   -2.  -30.   72.    4.   -3.  -11.   -5.    2.
  -60.  -21.   63.   -1.  -94.    2.    6.    0.    3.   -1.   -0.   -5.  -10.    3.    1.  -18.    0.    0.    1.    5.
    1.    2.    0.   -1.    2.   -0.   -1.    0.   -1.   -0.   -2.   -0.   -2.    1.   -0.    1.    2.   -1.   -0.    0.
    0.   -2.    1.   -1.   -0.   -0.    1.    1.    1.   -0.    0.   -0.    0.   -1.   -1.    1.   -4.    1.   -0.    0.
   -0.    0.   -0.   -0.    0.    0.   -1.   -0.    1.   -0.   -2.    0.   -1.   -1.    1.   -0.    0.   -0.   -1.    0.
    0.   -0.   -0.    0.   -0.    0.   -0.   -0.   -2.   -1.    0.   -0.   -0.    0.   -0.    1.   -0.   -1.   -1.    0.
   -0.   -0.   -0.   -0.    1.    0.   -0.   -0.   -2.   -0.    0.    0.    1.   -0.   -0.    0.   -0.    1.    0.    0.
    0.   -0.   -0.   -0.   -0.    0.   -2.   -1.   -0.    0.    0.   -1.    0.   -0.    0.    0.   -0.    0.    0.   -0.
   -0.    0.   -0.   -0.    0.   -0.    0.   -0.

 Displacement: in terms of nc of 1 THEN of nc of 2

   1     freq=    -0. Q=  0.000 lam=    -0.0     freq=    -0. Q=  0.000 lam=    -0.0
   2     freq=    -0. Q= -0.000 lam=    -0.0     freq=    -0. Q= -0.000 lam=    -0.0
   3     freq=    -0. Q=  0.000 lam=    -0.0     freq=    -0. Q=  0.000 lam=    -0.0
   4     freq=     0. Q=  0.000 lam=     0.0     freq=     0. Q=  0.000 lam=     0.0
   5     freq=     0. Q= -0.000 lam=     0.0     freq=     0. Q= -0.000 lam=     0.0
   6     freq=     0. Q= -0.000 lam=     0.0     freq=     0. Q= -0.000 lam=     0.0
   7     freq=    19. Q=  0.076 lam=     0.1     freq=    20. Q=  0.027 lam=     0.0
   8     freq=    29. Q=  0.262 lam=     1.0     freq=    25. Q=  0.192 lam=     0.5
   9     freq=    36. Q= -0.256 lam=     1.2     freq=    38. Q= -0.062 lam=     0.1
  10     freq=    55. Q= -0.255 lam=     1.8     freq=    59. Q= -0.206 lam=     1.2
  11     freq=    59. Q= -1.199 lam=    42.3     freq=    64. Q= -0.360 lam=     4.1
  12     freq=    70. Q= -1.855 lam=   121.1     freq=    75. Q= -1.209 lam=    55.0
  13     freq=    76. Q= -1.348 lam=    68.7     freq=    89. Q= -0.067 lam=     0.2
  14     freq=    88. Q= -0.066 lam=     0.2     freq=    91. Q= -1.171 lam=    62.4
  15     freq=    89. Q=  0.359 lam=     5.7     freq=    99. Q=  2.886 lam=   410.5
  16     freq=   101. Q= -0.293 lam=     4.3     freq=   103. Q= -0.181 lam=     1.7
  17     freq=   146. Q=  0.176 lam=     2.3     freq=   148. Q=  0.127 lam=     1.2
  18     freq=   153. Q=  0.887 lam=    60.0     freq=   157. Q=  0.554 lam=    24.1
  19     freq=   168. Q=  0.000 lam=     0.0     freq=   171. Q=  0.272 lam=     6.3
  20     freq=   181. Q=  0.127 lam=     1.5     freq=   182. Q=  0.117 lam=     1.2
  21     freq=   183. Q= -1.255 lam=   144.3     freq=   190. Q= -3.319 lam=  1049.0
  22     freq=   193. Q=  3.799 lam=  1390.5     freq=   197. Q=  1.192 lam=   140.2
  23     freq=   209. Q= -3.717 lam=  1441.5     freq=   211. Q= -3.698 lam=  1445.7
  24     freq=   212. Q= -0.046 lam=     0.2     freq=   216. Q= -0.036 lam=     0.1
  25     freq=   218. Q= -5.518 lam=  3320.1     freq=   223. Q= -5.660 lam=  3571.3
  26     freq=   234. Q= -0.261 lam=     8.0     freq=   235. Q= -0.148 lam=     2.6
  27     freq=   235. Q= -0.098 lam=     1.1     freq=   236. Q= -0.349 lam=    14.4
  28     freq=   256. Q= -0.047 lam=     0.3     freq=   265. Q= -0.010 lam=     0.0
  29     freq=   276. Q= -0.207 lam=     5.9     freq=   278. Q= -0.196 lam=     5.3
  30     freq=   286. Q= -0.089 lam=     1.1     freq=   287. Q= -0.078 lam=     0.9
  31     freq=   302. Q= -0.029 lam=     0.1     freq=   301. Q= -0.007 lam=     0.0
  32     freq=   320. Q= -0.732 lam=    85.6     freq=   335. Q= -0.345 lam=    19.9
  33     freq=   335. Q= -0.364 lam=    22.2     freq=   338. Q= -0.762 lam=    98.2
  34     freq=   359. Q=  0.224 lam=     9.0     freq=   363. Q=  0.205 lam=     7.6
  35     freq=   387. Q=  0.046 lam=     0.4     freq=   389. Q=  0.043 lam=     0.4
  36     freq=   389. Q= -1.400 lam=   380.8     freq=   391. Q= -1.423 lam=   395.9
  37     freq=   394. Q=  0.032 lam=     0.2     freq=   394. Q=  0.015 lam=     0.0
  38     freq=   417. Q= -0.034 lam=     0.2     freq=   418. Q= -0.006 lam=     0.0
  39     freq=   419. Q=  0.039 lam=     0.3     freq=   421. Q=  0.080 lam=     1.3
  40     freq=   434. Q= -0.434 lam=    40.9     freq=   437. Q= -0.440 lam=    42.2
  41     freq=   440. Q= -0.083 lam=     1.5     freq=   445. Q= -0.051 lam=     0.6
  42     freq=   443. Q= -0.077 lam=     1.3     freq=   446. Q= -0.135 lam=     4.1
  43     freq=   447. Q= -0.036 lam=     0.3     freq=   454. Q= -0.026 lam=     0.1
  44     freq=   466. Q=  0.065 lam=     1.0     freq=   467. Q=  0.092 lam=     2.0
  45     freq=   480. Q=  0.184 lam=     8.1     freq=   477. Q=  0.185 lam=     8.2
  46     freq=   484. Q= -0.129 lam=     4.0     freq=   500. Q= -0.043 lam=     0.5
  47     freq=   498. Q=  0.170 lam=     7.2     freq=   504. Q=  0.108 lam=     2.9
  48     freq=   501. Q= -0.017 lam=     0.1     freq=   511. Q= -0.039 lam=     0.4
  49     freq=   506. Q=  0.047 lam=     0.6     freq=   512. Q=  0.132 lam=     4.5
  50     freq=   516. Q=  0.078 lam=     1.6     freq=   517. Q=  0.015 lam=     0.1
  51     freq=   546. Q= -0.147 lam=     5.9     freq=   542. Q= -0.145 lam=     5.7
  52     freq=   568. Q= -0.171 lam=     8.3     freq=   580. Q= -0.023 lam=     0.2
  53     freq=   575. Q= -0.016 lam=     0.1     freq=   582. Q= -0.206 lam=    12.3
  54     freq=   578. Q=  0.191 lam=    10.6     freq=   588. Q=  0.134 lam=     5.3
  55     freq=   605. Q= -0.023 lam=     0.2     freq=   623. Q= -0.008 lam=     0.0
  56     freq=   616. Q= -0.027 lam=     0.2     freq=   624. Q= -0.064 lam=     1.3
  57     freq=   632. Q=  0.105 lam=     3.5     freq=   646. Q=  0.244 lam=    19.2
  58     freq=   644. Q=  0.196 lam=    12.4     freq=   652. Q=  0.086 lam=     2.4
  59     freq=   652. Q=  0.019 lam=     0.1     freq=   664. Q=  0.011 lam=     0.0
  60     freq=   674. Q= -0.039 lam=     0.5     freq=   711. Q= -0.023 lam=     0.2
  61     freq=   700. Q= -0.065 lam=     1.5     freq=   720. Q= -0.027 lam=     0.3
  62     freq=   707. Q= -0.010 lam=     0.0     freq=   730. Q= -0.164 lam=     9.9
  63     freq=   717. Q=  0.007 lam=     0.0     freq=   743. Q=  0.147 lam=     8.0
  64     freq=   729. Q= -0.158 lam=     9.0     freq=   747. Q= -0.070 lam=     1.8
  65     freq=   747. Q=  0.002 lam=     0.0     freq=   751. Q=  0.017 lam=     0.1
  66     freq=   750. Q= -0.192 lam=    13.9     freq=   764. Q= -0.007 lam=     0.0
  67     freq=   757. Q=  0.010 lam=     0.0     freq=   773. Q=  0.120 lam=     5.5
  68     freq=   763. Q=  0.041 lam=     0.7     freq=   792. Q=  0.062 lam=     1.5
  69     freq=   802. Q=  0.073 lam=     2.1     freq=   805. Q=  0.076 lam=     2.3
  70     freq=   807. Q= -0.089 lam=     3.2     freq=   809. Q= -0.013 lam=     0.1
  71     freq=   808. Q=  0.085 lam=     2.9     freq=   809. Q=  0.049 lam=     1.0
  72     freq=   814. Q= -0.000 lam=     0.0     freq=   815. Q= -0.055 lam=     1.2
  73     freq=   825. Q= -0.065 lam=     1.7     freq=   827. Q= -0.022 lam=     0.2
  74     freq=   825. Q= -0.087 lam=     3.1     freq=   827. Q= -0.058 lam=     1.4
  75     freq=   831. Q=  0.016 lam=     0.1     freq=   829. Q=  0.061 lam=     1.6
  76     freq=   842. Q=  0.486 lam=    99.6     freq=   845. Q=  0.148 lam=     9.2
  77     freq=   843. Q=  0.125 lam=     6.6     freq=   846. Q=  0.438 lam=    81.2
  78     freq=   893. Q=  0.171 lam=    13.1     freq=   897. Q=  0.083 lam=     3.1
  79     freq=   911. Q=  0.015 lam=     0.1     freq=   916. Q=  0.045 lam=     0.9
  80     freq=   936. Q=  0.164 lam=    12.6     freq=   939. Q=  0.060 lam=     1.7
  81     freq=   943. Q= -0.127 lam=     7.6     freq=   942. Q= -0.001 lam=     0.0
  82     freq=   945. Q=  0.000 lam=     0.0     freq=   954. Q=  0.000 lam=     0.0
  83     freq=   957. Q=  0.000 lam=     0.0     freq=   964. Q=  0.002 lam=     0.0
  84     freq=   971. Q=  0.005 lam=     0.0     freq=   967. Q=  0.000 lam=     0.0
  85     freq=   974. Q= -0.002 lam=     0.0     freq=   972. Q= -0.050 lam=     1.2
  86     freq=   976. Q= -0.002 lam=     0.0     freq=   977. Q= -0.003 lam=     0.0
  87     freq=   987. Q= -0.003 lam=     0.0     freq=   979. Q= -0.088 lam=     3.8
  88     freq=   988. Q=  0.003 lam=     0.0     freq=   980. Q=  0.001 lam=     0.0
  89     freq=  1012. Q= -0.117 lam=     6.9     freq=  1024. Q= -0.072 lam=     2.7
  90     freq=  1040. Q=  0.071 lam=     2.6     freq=  1043. Q=  0.001 lam=     0.0
  91     freq=  1062. Q= -0.012 lam=     0.1     freq=  1064. Q= -0.276 lam=    40.6
  92     freq=  1066. Q=  0.183 lam=    17.8     freq=  1066. Q=  0.060 lam=     1.9
  93     freq=  1087. Q=  0.043 lam=     1.0     freq=  1075. Q=  0.091 lam=     4.5
  94     freq=  1094. Q=  0.134 lam=     9.8     freq=  1084. Q=  0.085 lam=     4.0
  95     freq=  1110. Q=  0.142 lam=    11.1     freq=  1107. Q=  0.113 lam=     7.1
  96     freq=  1137. Q=  0.012 lam=     0.1     freq=  1144. Q=  0.026 lam=     0.4
  97     freq=  1155. Q= -0.000 lam=     0.0     freq=  1154. Q= -0.000 lam=     0.0
  98     freq=  1161. Q=  0.004 lam=     0.0     freq=  1158. Q=  0.065 lam=     2.5
  99     freq=  1168. Q=  0.013 lam=     0.1     freq=  1163. Q=  0.140 lam=    11.4
 100     freq=  1177. Q=  0.006 lam=     0.0     freq=  1174. Q=  0.007 lam=     0.0
 101     freq=  1186. Q= -0.025 lam=     0.4     freq=  1184. Q= -0.034 lam=     0.7
 102     freq=  1197. Q=  0.005 lam=     0.0     freq=  1195. Q=  0.039 lam=     0.9
 103     freq=  1199. Q=  0.024 lam=     0.4     freq=  1199. Q=  0.033 lam=     0.7
 104     freq=  1224. Q=  0.072 lam=     3.2     freq=  1223. Q=  0.058 lam=     2.1
 105     freq=  1233. Q=  0.044 lam=     1.2     freq=  1233. Q=  0.047 lam=     1.4
 106     freq=  1243. Q= -0.015 lam=     0.1     freq=  1243. Q= -0.058 lam=     2.1
 107     freq=  1247. Q=  0.006 lam=     0.0     freq=  1246. Q=  0.002 lam=     0.0
 108     freq=  1262. Q=  0.077 lam=     3.7     freq=  1254. Q=  0.013 lam=     0.1
 109     freq=  1300. Q= -0.199 lam=    25.9     freq=  1294. Q= -0.228 lam=    33.7
 110     freq=  1315. Q=  0.091 lam=     5.5     freq=  1302. Q=  0.075 lam=     3.7
 111     freq=  1321. Q=  0.030 lam=     0.6     freq=  1313. Q=  0.033 lam=     0.7
 112     freq=  1331. Q= -0.011 lam=     0.1     freq=  1318. Q= -0.056 lam=     2.1
 113     freq=  1353. Q=  0.005 lam=     0.0     freq=  1339. Q=  0.018 lam=     0.2
 114     freq=  1362. Q= -0.073 lam=     3.7     freq=  1355. Q= -0.006 lam=     0.0
 115     freq=  1367. Q= -0.044 lam=     1.3     freq=  1363. Q= -0.055 lam=     2.0
 116     freq=  1378. Q=  0.177 lam=    21.7     freq=  1370. Q=  0.178 lam=    21.8
 117     freq=  1382. Q= -0.001 lam=     0.0     freq=  1383. Q= -0.001 lam=     0.0
 118     freq=  1392. Q= -0.033 lam=     0.8     freq=  1388. Q= -0.075 lam=     4.0
 119     freq=  1400. Q=  0.000 lam=     0.0     freq=  1390. Q=  0.118 lam=     9.7
 120     freq=  1405. Q= -0.031 lam=     0.7     freq=  1392. Q= -0.011 lam=     0.1
 121     freq=  1416. Q=  0.001 lam=     0.0     freq=  1397. Q=  0.001 lam=     0.0
 122     freq=  1416. Q=  0.043 lam=     1.3     freq=  1406. Q=  0.057 lam=     2.3
 123     freq=  1427. Q= -0.040 lam=     1.2     freq=  1412. Q= -0.050 lam=     1.8
 124     freq=  1433. Q=  0.028 lam=     0.6     freq=  1422. Q=  0.044 lam=     1.4
 125     freq=  1447. Q= -0.034 lam=     0.8     freq=  1437. Q= -0.138 lam=    13.7
 126     freq=  1453. Q=  0.161 lam=    18.8     freq=  1465. Q=  0.015 lam=     0.2
 127     freq=  1465. Q=  0.023 lam=     0.4     freq=  1469. Q=  0.008 lam=     0.0
 128     freq=  1478. Q=  0.298 lam=    65.7     freq=  1474. Q=  0.003 lam=     0.0
 129     freq=  1484. Q= -0.122 lam=    11.1     freq=  1480. Q= -0.295 lam=    64.3
 130     freq=  1485. Q= -0.000 lam=     0.0     freq=  1482. Q= -0.000 lam=     0.0
 131     freq=  1494. Q= -0.111 lam=     9.2     freq=  1483. Q= -0.041 lam=     1.2
 132     freq=  1497. Q= -0.046 lam=     1.6     freq=  1494. Q= -0.039 lam=     1.1
 133     freq=  1505. Q= -0.009 lam=     0.1     freq=  1496. Q= -0.099 lam=     7.3
 134     freq=  1505. Q= -0.000 lam=     0.0     freq=  1508. Q= -0.000 lam=     0.0
 135     freq=  1520. Q=  0.022 lam=     0.4     freq=  1524. Q=  0.026 lam=     0.5
 136     freq=  1523. Q=  0.036 lam=     1.0     freq=  1529. Q=  0.005 lam=     0.0
 137     freq=  1547. Q= -0.012 lam=     0.1     freq=  1561. Q= -0.009 lam=     0.1
 138     freq=  1558. Q=  0.202 lam=    31.9     freq=  1571. Q=  0.189 lam=    28.1
 139     freq=  1575. Q= -0.033 lam=     0.8     freq=  1577. Q= -0.014 lam=     0.2
 140     freq=  1594. Q= -0.049 lam=     1.9     freq=  1592. Q= -0.003 lam=     0.0
 141     freq=  1602. Q= -0.010 lam=     0.1     freq=  1609. Q= -0.009 lam=     0.1
 142     freq=  1614. Q=  0.081 lam=     5.3     freq=  1617. Q=  0.057 lam=     2.7
 143     freq=  1622. Q= -0.049 lam=     1.9     freq=  1627. Q= -0.005 lam=     0.0
 144     freq=  1686. Q= -0.004 lam=     0.0     freq=  1665. Q= -0.004 lam=     0.0
 145     freq=  1697. Q=  0.015 lam=     0.2     freq=  1677. Q=  0.005 lam=     0.0
 146     freq=  1725. Q=  0.152 lam=    20.1     freq=  1700. Q=  0.072 lam=     4.4
 147     freq=  1733. Q=  0.233 lam=    47.1     freq=  1706. Q=  0.251 lam=    53.6
 148     freq=  2035. Q= -0.213 lam=    46.0     freq=  1725. Q= -0.182 lam=    28.6
 149     freq=  3010. Q= -0.015 lam=     0.3     freq=  2994. Q= -0.021 lam=     0.7
 150     freq=  3034. Q=  0.000 lam=     0.0     freq=  3022. Q=  0.000 lam=     0.0
 151     freq=  3038. Q= -0.018 lam=     0.5     freq=  3027. Q= -0.018 lam=     0.5
 152     freq=  3051. Q=  0.142 lam=    31.0     freq=  3029. Q=  0.132 lam=    26.4
 153     freq=  3092. Q= -0.000 lam=     0.0     freq=  3076. Q= -0.028 lam=     1.2
 154     freq=  3094. Q= -0.031 lam=     1.5     freq=  3080. Q= -0.000 lam=     0.0
 155     freq=  3095. Q= -0.013 lam=     0.3     freq=  3083. Q= -0.012 lam=     0.2
 156     freq=  3112. Q=  0.007 lam=     0.1     freq=  3104. Q=  0.009 lam=     0.1
 157     freq=  3132. Q=  0.000 lam=     0.0     freq=  3130. Q=  0.000 lam=     0.0
 158     freq=  3143. Q=  0.009 lam=     0.1     freq=  3139. Q=  0.007 lam=     0.1
 159     freq=  3198. Q=  0.000 lam=     0.0     freq=  3182. Q=  0.001 lam=     0.0
 160     freq=  3198. Q= -0.000 lam=     0.0     freq=  3182. Q= -0.000 lam=     0.0
 161     freq=  3205. Q= -0.005 lam=     0.0     freq=  3190. Q= -0.003 lam=     0.0
 162     freq=  3206. Q= -0.006 lam=     0.1     freq=  3191. Q= -0.007 lam=     0.1
 163     freq=  3213. Q=  0.001 lam=     0.0     freq=  3200. Q=  0.001 lam=     0.0
 164     freq=  3213. Q=  0.001 lam=     0.0     freq=  3200. Q=  0.006 lam=     0.1
 165     freq=  3216. Q=  0.014 lam=     0.3     freq=  3200. Q=  0.012 lam=     0.2
 166     freq=  3223. Q= -0.012 lam=     0.2     freq=  3211. Q= -0.007 lam=     0.1
 167     freq=  3224. Q=  0.013 lam=     0.3     freq=  3212. Q=  0.017 lam=     0.4
 168     freq=  3239. Q=  0.004 lam=     0.0     freq=  3236. Q=  0.001 lam=     0.0

 total reorg energy (cm**-1, kcal/mol)=     7829.     7972.     22.38     22.79
 Nber of molecules processed=           2
