 Enter ifcurve (0=recti, 1=orth curvi, 2=apprx curvi, -1 = skip
 And atom ordering flag, 0= never changes, 1= use the first order thenceforth,
  2= deduce it (does read on fail), 3= always read it
 Reading file: 
 ./Non-cov-phenyl-N_2_C0S0.log                                                  
                                          
  Entering Gaussian System, Link 0=g16                                          
  
 Gaussian format, type: g94, g98, g03= F F F
  #P Geom=AllCheck Guess=TCheck SCRF=Check GenChk RB3LYP/6-311G(d,p) Fre    
 energy type= B3LYP   
 Original G94 input coords:
  6  7.482966  0.000000  0.000000
  6  6.776026 -1.199154  0.000000
  6  5.385820 -1.197805  0.000000
  6  4.649542  0.000000  0.000000
  6  3.158659  0.000000  0.000000
  6  2.419303  1.196911  0.000000
  6  1.033388  1.200949  0.000000
  6  0.313217  0.000000  0.000000
  6 -1.163980  0.000000  0.000000
  7 -1.788210  1.191967  0.000000
  6 -3.115764  1.182695  0.000000
  6 -3.864072  0.000000  0.000000
  6 -5.339610  0.000000  0.000000
  7 -5.956436  1.192962  0.000000
  6 -7.288318  1.180727  0.000000
  6 -8.023925  0.000000  0.000000
  6 -7.288318 -1.180727  0.000000
  7 -5.956436 -1.192962  0.000000
  6 -3.115764 -1.182695  0.000000
  7 -1.788210 -1.191967  0.000000
  6  1.033388 -1.200949  0.000000
  6  2.419303 -1.196911  0.000000
  6  5.385820  1.197805  0.000000
  6  6.776026  1.199154  0.000000
  1  8.567219  0.000000  0.000000
  1  7.308026 -2.144374  0.000000
  1  4.876275 -2.151974  0.000000
  1  2.925648  2.152500  0.000000
  1  0.487685  2.135222  0.000000
  1 -3.621024  2.142174  0.000000
  1 -7.779347  2.150242  0.000000
  1 -9.106159  0.000000  0.000000
  1 -7.779347 -2.150242  0.000000
  1 -3.621024 -2.142174  0.000000
  1  0.487685 -2.135222  0.000000
  1  2.925648 -2.152500  0.000000
  1  4.876275  2.151974  0.000000
  1  7.308026  2.144374  0.000000
 nber atoms=          38
 Original standard coords:
  6  0.000000  0.000000  7.821035
  6  0.000000  1.199154  7.114095
  6  0.000000  1.197805  5.723889
  6  0.000000  0.000000  4.987611
  6  0.000000  0.000000  3.496729
  6  0.000000 -1.196911  2.757372
  6  0.000000 -1.200949  1.371457
  6  0.000000  0.000000  0.651286
  6  0.000000  0.000000 -0.825910
  7  0.000000 -1.191967 -1.450140
  6  0.000000 -1.182695 -2.777694
  6  0.000000  0.000000 -3.526002
  6  0.000000  0.000000 -5.001541
  7  0.000000 -1.192962 -5.618367
  6  0.000000 -1.180727 -6.950249
  6  0.000000  0.000000 -7.685856
  6  0.000000  1.180727 -6.950249
  7  0.000000  1.192962 -5.618367
  6  0.000000  1.182695 -2.777694
  7  0.000000  1.191967 -1.450140
  6  0.000000  1.200949  1.371457
  6  0.000000  1.196911  2.757372
  6  0.000000 -1.197805  5.723889
  6  0.000000 -1.199154  7.114095
  1  0.000000  0.000000  8.905288
  1  0.000000  2.144374  7.646095
  1  0.000000  2.151974  5.214345
  1  0.000000 -2.152500  3.263717
  1  0.000000 -2.135222  0.825754
  1  0.000000 -2.142174 -3.282955
  1  0.000000 -2.150242 -7.441278
  1  0.000000  0.000000 -8.768090
  1  0.000000  2.150242 -7.441278
  1  0.000000  2.142174 -3.282955
  1  0.000000  2.135222  0.825754
  1  0.000000  2.152500  3.263717
  1  0.000000 -2.151974  5.214345
  1  0.000000 -2.144374  7.646095
  SCF Done:  E(RB3LYP) =  -989.811722137     A.U. after    1 cycles             
  
          23          40 "  -989.811722137"
After scan for Atom:   Atom  AN      X      Y      Z        X      Y      Z        X      Y      Z   
After scan for Atom:   Atom  AN      X      Y      Z        X      Y      Z        X      Y      Z   
After scan for Atom:   Atom  AN      X      Y      Z        X      Y      Z        X      Y      Z   
After scan for Atom:   Atom  AN      X      Y      Z        X      Y      Z        X      Y      Z   
After scan for Atom:   Atom  AN      X      Y      Z        X      Y      Z        X      Y      Z   
After scan for Atom:   Atom  AN      X      Y      Z        X      Y      Z        X      Y      Z   
After scan for Atom:   Atom  AN      X      Y      Z        X      Y      Z        X      Y      Z   
After scan for Atom:   Atom  AN      X      Y      Z        X      Y      Z        X      Y      Z   
After scan for Atom:   Atom  AN      X      Y      Z        X      Y      Z        X      Y      Z   
After scan for Atom:   Atom  AN      X      Y      Z        X      Y      Z        X      Y      Z   
After scan for Atom:   Atom  AN      X      Y      Z        X      Y      Z        X      Y      Z   
After scan for Atom:   Atom  AN      X      Y      Z        X      Y      Z        X      Y      Z   
After scan for Atom:   Atom  AN      X      Y      Z        X      Y      Z        X      Y      Z   
After scan for Atom:   Atom  AN      X      Y      Z        X      Y      Z        X      Y      Z   
After scan for Atom:   Atom  AN      X      Y      Z        X      Y      Z        X      Y      Z   
After scan for Atom:   Atom  AN      X      Y      Z        X      Y      Z        X      Y      Z   
After scan for Atom:   Atom  AN      X      Y      Z        X      Y      Z        X      Y      Z   
After scan for Atom:   Atom  AN      X      Y      Z        X      Y      Z        X      Y      Z   
After scan for Atom:   Atom  AN      X      Y      Z        X      Y      Z        X      Y      Z   
After scan for Atom:   Atom  AN      X      Y      Z        X      Y      Z        X      Y      Z   
After scan for Atom:   Atom  AN      X      Y      Z        X      Y      Z        X      Y      Z   
After scan for Atom:   Atom  AN      X      Y      Z        X      Y      Z        X      Y      Z   
After scan for Atom:   Atom  AN      X      Y      Z        X      Y      Z        X      Y      Z   
After scan for Atom:   Atom  AN      X      Y      Z        X      Y      Z        X      Y      Z   
After scan for Atom:   Atom  AN      X      Y      Z        X      Y      Z        X      Y      Z   
After scan for Atom:   Atom  AN      X      Y      Z        X      Y      Z        X      Y      Z   
After scan for Atom:   Atom  AN      X      Y      Z        X      Y      Z        X      Y      Z   
After scan for Atom:   Atom  AN      X      Y      Z        X      Y      Z        X      Y      Z   
After scan for Atom:   Atom  AN      X      Y      Z        X      Y      Z        X      Y      Z   
After scan for Atom:   Atom  AN      X      Y      Z        X      Y      Z        X      Y      Z   
After scan for Atom:   Atom  AN      X      Y      Z        X      Y      Z        X      Y      Z   
After scan for Atom:   Atom  AN      X      Y      Z        X      Y      Z        X      Y      Z   
After scan for Atom:   Atom  AN      X      Y      Z        X      Y      Z        X      Y      Z   
After scan for Atom:   Atom  AN      X      Y      Z        X      Y      Z        X      Y      Z   
After scan for Atom:   Atom  AN      X      Y      Z        X      Y      Z        X      Y      Z   
After scan for Atom:   Atom  AN      X      Y      Z        X      Y      Z        X      Y      Z   
 g94    frequencies=
     0.0    0.0    0.0    0.0    0.0    0.0  -78.9   20.8   33.5   52.6
    59.3   66.8  119.2  132.9  165.8  173.7  212.6  258.5  336.8  338.2
   380.7  396.1  406.9  413.5  417.7  441.7  445.8  481.0  508.5  514.7
   560.6  593.4  631.1  645.4  655.5  656.1  671.1  695.9  721.2  739.9
   775.9  779.2  819.2  823.7  827.5  830.1  843.3  854.1  879.4  922.8
   970.5  992.9  997.5  999.3 1003.0 1004.2 1008.5 1012.8 1014.3 1015.9
  1022.4 1032.9 1045.1 1064.0 1074.7 1092.8 1111.7 1113.8 1129.2 1147.0
  1187.7 1204.0 1224.8 1235.4 1237.6 1271.9 1285.7 1289.9 1303.0 1330.6
  1341.1 1345.7 1357.2 1373.3 1412.5 1434.0 1438.0 1467.3 1483.9 1485.9
  1523.8 1557.7 1561.7 1598.8 1605.7 1607.9 1624.5 1629.5 1642.1 1655.7
  3148.0 3150.1 3159.0 3167.8 3182.0 3182.3 3182.6 3190.1 3191.3 3203.8
  3204.2 3204.7 3213.1 3215.2
 g94    symmetries=
                                                A2     B1     A2     B2
      B1     A2     B1     B2     B1     A1     B2     B1     B1     A1
      B2     A2     A2     A2     A2     B2     B1     A1     B2     B1
      B1     B1     B2     B2     B2     A1     B2     B1     A1     B1
      A1     B1     B1     A2     B1     A1     B1     A2     B1     B1
      A2     B1     A2     B1     B1     A2     A1     B1     A1     A2
      A1     A1     A1     A1     A1     A1     B2     B2     A1     B2
      B2     A1     B2     A1     B2     B2     A1     B2     B2     B2
      B2     A1     A1     B2     B2     A1     B2     B2     B2     A1
      A1     A1     B2     B2     A1     B2     B2     A1     A1     A1
      A1     B2     A1     B2     B2     A1     A1     B2     A1     A1
      B2     A1     B2     A1
 atomic masses:
 12.0000 12.0000 12.0000 12.0000 12.0000 12.0000 12.0000 12.0000 12.0000 14.0031
 12.0000 12.0000 12.0000 14.0031 12.0000 12.0000 12.0000 14.0031 12.0000 14.0031
 12.0000 12.0000 12.0000 12.0000  1.0078  1.0078  1.0078  1.0078  1.0078  1.0078
  1.0078  1.0078  1.0078  1.0078  1.0078  1.0078  1.0078  1.0078
 looking for force constants in 
 ./Non-cov-phenyl-N_2_C0S0.fchk                                                 
  
 Cartesian Force Constants                  R   N=        6555                  
  
 n3=         114        6555
 g94-fc frequencies=
   -78.9   -8.6   -2.1   -0.0   -0.0    0.0    0.2   20.8   33.5   52.6
    59.3   66.8  119.2  132.9  165.8  173.7  212.6  258.5  336.8  338.2
   380.7  396.1  406.9  413.5  417.8  441.7  445.8  481.0  508.5  514.7
   560.6  593.4  631.1  645.4  655.6  656.1  671.1  695.9  721.2  739.9
   775.9  779.2  819.2  823.7  827.5  830.1  843.3  854.1  879.4  922.8
   970.5  992.9  997.6  999.3 1003.1 1004.2 1008.5 1012.8 1014.3 1015.9
  1022.5 1032.9 1045.1 1064.0 1074.8 1092.8 1111.7 1113.8 1129.2 1147.1
  1187.7 1204.0 1224.8 1235.4 1237.6 1271.9 1285.8 1289.9 1303.0 1330.6
  1341.1 1345.7 1357.2 1373.3 1412.5 1434.1 1438.0 1467.3 1483.9 1485.9
  1523.8 1557.8 1561.7 1598.8 1605.8 1607.9 1624.5 1629.6 1642.1 1655.7
  3148.1 3150.2 3159.1 3167.8 3182.1 3182.3 3182.7 3190.2 3191.3 3203.9
  3204.2 3204.7 3213.2 3215.2
 at 99999: n3=         114
 symm operator            1 :  T  nop=           1
 symm operator            2 :  F  nop=           1
 symm operator            3 :  F  nop=           1
 symm operator            4 :  F  nop=           1
 symm operator            5 :  F  nop=           1
 symm operator            6 :  T  nop=           2
 symm operator            7 :  T  nop=           3
 The point group of the molecule is C2V
 enforcing symm op           1  jsymt=          -1          -1           1
 enforcing symm op           6  jsymt=           1          -1           1
 enforcing symm op           7  jsymt=          -1           1           1
 cartesian coord symmetries:
 A1 :   38 A2 :   14 B1 :   24 B2 :   38
 Symmetry rotation matrix:
   1.00000   0.00000   0.00000
   0.00000   1.00000   0.00000
   0.00000   0.00000   1.00000

 Projecting out zero-frequency components
 generating redundant internal coords
         300        3600          38
 search for int coords
   1 str   2   1   1.392
   2 str   3   2   1.390
   3 str   4   3   1.406
   4 str   5   4   1.491
   5 str   6   5   1.407
   6 str   7   6   1.386
   7 str   8   7   1.400
   8 str   9   8   1.477
   9 str  10   9   1.346
  10 str  11  10   1.328
  11 str  12  11   1.400
  12 str  13  12   1.476
  13 str  14  13   1.343
  14 str  15  14   1.332
  15 str  16  15   1.391
  16 str  17  16   1.391
  17 str  18  13   1.343
  18 str  18  17   1.332
  19 str  19  12   1.400
  20 str  20   9   1.346
  21 str  20  19   1.328
  22 str  21   8   1.400
  23 str  22   5   1.407
  24 str  22  21   1.386
  25 str  23   4   1.406
  26 str  24   1   1.392
  27 str  24  23   1.390
  28 str  25   1   1.084
  29 str  26   2   1.085
  30 str  27   3   1.082
  31 str  28   6   1.081
  32 str  29   7   1.082
  33 str  30  11   1.084
  34 str  31  15   1.087
  35 str  32  16   1.082
  36 str  33  17   1.087
  37 str  34  19   1.084
  38 str  35  21   1.082
  39 str  36  22   1.081
  40 str  37  23   1.082
  41 str  38  24   1.085
 nber stretches=          41
  42 ben   1   2   3
  43 prop tor   1   2   3   4
  44 prop tor   1   2   3  27
  45 ben   1   2  26
  46 ben   1  24  23
  47 ben   1  24  38
  48 ben   2   1  24
  49 prop tor   2   1  24  23
  50 prop tor   2   1  24  38
  51 ben   2   1  25
  52 ben   2   3   4
  53 prop tor   2   3   4   5
  54 prop tor   2   3   4  23
  55 ben   2   3  27
  56 ben   3   2  26
  57 ben   3   4   5
  58 prop tor   3   4   5   6
  59 prop tor   3   4   5  22
  60 ben   3   4  23
  61 prop tor   3   4  23  24
  62 prop tor   3   4  23  37
  63 ben   4   3  27
  64 ben   4   5   6
  65 prop tor   4   5   6   7
  66 prop tor   4   5   6  28
  67 ben   4   5  22
  68 prop tor   4   5  22  21
  69 prop tor   4   5  22  36
  70 ben   4  23  24
  71 prop tor   4  23  24   1
  72 prop tor   4  23  24  38
  73 ben   4  23  37
  74 ben   5   4  23
  75 prop tor   5   4  23  24
  76 prop tor   5   4  23  37
  77 ben   5   6   7
  78 prop tor   5   6   7   8
  79 prop tor   5   6   7  29
  80 ben   5   6  28
  81 ben   5  22  21
  82 ben   5  22  36
  83 ben   6   5  22
  84 prop tor   6   5  22  21
  85 prop tor   6   5  22  36
  86 ben   6   7   8
  87 prop tor   6   7   8   9
  88 prop tor   6   7   8  21
  89 ben   6   7  29
  90 ben   7   6  28
  91 ben   7   8   9
  92 prop tor   7   8   9  10
  93 prop tor   7   8   9  20
  94 ben   7   8  21
  95 prop tor   7   8  21  22
  96 prop tor   7   8  21  35
  97 ben   8   7  29
  98 ben   8   9  10
  99 prop tor   8   9  10  11
 100 ben   8   9  20
 101 prop tor   8   9  20  19
 102 ben   8  21  22
 103 prop tor   8  21  22   5
 104 prop tor   8  21  22  36
 105 ben   8  21  35
 106 ben   9   8  21
 107 prop tor   9   8  21  22
 108 prop tor   9   8  21  35
 109 ben   9  10  11
 110 prop tor   9  10  11  12
 111 prop tor   9  10  11  30
 112 ben   9  20  19
 113 ben  10   9  20
 114 prop tor  10   9  20  19
 115 ben  10  11  12
 116 prop tor  10  11  12  13
 117 prop tor  10  11  12  19
 118 ben  10  11  30
 119 ben  11  12  13
 120 prop tor  11  12  13  14
 121 prop tor  11  12  13  18
 122 ben  11  12  19
 123 prop tor  11  12  19  20
 124 prop tor  11  12  19  34
 125 ben  12  11  30
 126 ben  12  13  14
 127 prop tor  12  13  14  15
 128 ben  12  13  18
 129 prop tor  12  13  18  17
 130 ben  12  19  20
 131 prop tor  12  19  20   9
 132 ben  12  19  34
 133 ben  13  12  19
 134 prop tor  13  12  19  20
 135 prop tor  13  12  19  34
 136 ben  13  14  15
 137 prop tor  13  14  15  16
 138 prop tor  13  14  15  31
 139 ben  13  18  17
 140 ben  14  13  18
 141 prop tor  14  13  18  17
 142 ben  14  15  16
 143 prop tor  14  15  16  17
 144 prop tor  14  15  16  32
 145 ben  14  15  31
 146 ben  15  16  17
 147 prop tor  15  16  17  18
 148 prop tor  15  16  17  33
 149 ben  15  16  32
 150 ben  16  15  31
 151 ben  16  17  18
 152 prop tor  16  17  18  13
 153 ben  16  17  33
 154 ben  17  16  32
 155 prop tor  18  13  14  15
 156 ben  18  17  33
 157 prop tor  19  12  13  14
 158 prop tor  19  12  13  18
 159 prop tor  20   9  10  11
 160 ben  20  19  34
 161 prop tor  21   8   9  10
 162 prop tor  21   8   9  20
 163 ben  21  22  36
 164 prop tor  22   5   6   7
 165 prop tor  22   5   6  28
 166 ben  22  21  35
 167 prop tor  23   4   5   6
 168 prop tor  23   4   5  22
 169 ben  23  24  38
 170 prop tor  24   1   2   3
 171 prop tor  24   1   2  26
 172 ben  24   1  25
 173 ben  24  23  37
 174 prop tor  25   1   2   3
 175 prop tor  25   1   2  26
 176 prop tor  25   1  24  23
 177 prop tor  25   1  24  38
 178 prop tor  26   2   3   4
 179 prop tor  26   2   3  27
 180 prop tor  27   3   4   5
 181 prop tor  27   3   4  23
 182 prop tor  28   6   7   8
 183 prop tor  28   6   7  29
 184 prop tor  29   7   8   9
 185 prop tor  29   7   8  21
 186 prop tor  30  11  12  13
 187 prop tor  30  11  12  19
 188 prop tor  31  15  16  17
 189 prop tor  31  15  16  32
 190 prop tor  32  16  17  18
 191 prop tor  32  16  17  33
 192 prop tor  33  17  18  13
 193 prop tor  34  19  20   9
 194 prop tor  35  21  22   5
 195 prop tor  35  21  22  36
 196 prop tor  37  23  24   1
 197 prop tor  37  23  24  38
 nber bend=              64
 nber lin bend=           0
 nber prop tor=          92
 nber impr tor=           0
 nber tot redund int=         197
 Eigenvalues of G in red int coords
    Gval -0.00000000 -0.00000000 -0.00000000 -0.00000000 -0.00000000 -0.00000000 -0.00000000 -0.00000000
    Gval -0.00000000 -0.00000000 -0.00000000 -0.00000000 -0.00000000 -0.00000000 -0.00000000 -0.00000000
    Gval -0.00000000 -0.00000000 -0.00000000 -0.00000000 -0.00000000 -0.00000000 -0.00000000 -0.00000000
    Gval -0.00000000 -0.00000000 -0.00000000 -0.00000000 -0.00000000 -0.00000000 -0.00000000 -0.00000000
    Gval -0.00000000 -0.00000000 -0.00000000 -0.00000000 -0.00000000 -0.00000000 -0.00000000 -0.00000000
    Gval -0.00000000 -0.00000000 -0.00000000 -0.00000000  0.00000000  0.00000000  0.00000000  0.00000000
    Gval  0.00000000  0.00000000  0.00000000  0.00000000  0.00000000  0.00000000  0.00000000  0.00000000
    Gval  0.00000000  0.00000000  0.00000000  0.00000000  0.00000000  0.00000000  0.00000000  0.00000000
    Gval  0.00000000  0.00000000  0.00000000  0.00000000  0.00000000  0.00000000  0.00000000  0.00000000
    Gval  0.00000000  0.00000000  0.00000000  0.00000000  0.00000000  0.00000000  0.00000000  0.00000000
    Gval  0.00000000  0.00000000  0.00000000  0.00000000  0.00000000  0.00000000  0.00000000  0.00000000
    Gval  0.00000000  0.00000049  0.00000168  0.00000205  0.00000303  0.00000769  0.00000853  0.00001276
    Gval  0.00001395  0.00001542  0.00001983  0.00002829  0.00002990  0.00004209  0.00004522  0.00004601
    Gval  0.00004727  0.00004790  0.00004994  0.00005521  0.00005548  0.00005883  0.00005901  0.00006688
    Gval  0.00006785  0.00007769  0.00008438  0.00008791  0.00010048  0.00010561  0.00010585  0.00011526
    Gval  0.00011701  0.00011837  0.00012075  0.00012229  0.00012604  0.00013298  0.00017267  0.00020898
    Gval  0.00022617  0.00025177  0.00026233  0.00027600  0.00027989  0.00028879  0.00031489  0.00034990
    Gval  0.00036397  0.00037929  0.00037954  0.00039176  0.00039181  0.00041536  0.00042926  0.00050511
    Gval  0.00053270  0.00056549  0.00059138  0.00059307  0.00059343  0.00059364  0.00059772  0.00060012
    Gval  0.00060407  0.00060415  0.00060687  0.00062012  0.00062340  0.00062671  0.00063869  0.00064167
    Gval  0.00065004  0.00066110  0.00071714  0.00091322  0.00104104  0.00104812  0.00106093  0.00107903
    Gval  0.00110712  0.00110983  0.00111175  0.00112949  0.00113119  0.00113896  0.00115448  0.00116982
    Gval  0.00117242  0.00117247  0.00117488  0.00140186  0.00143031  0.00144781  0.00154820  0.00165681
    Gval  0.00192757  0.00225699  0.00226610  0.00234291  0.00235748  0.00236871  0.00251330  0.00314089
    Gval  0.00363348  0.00370560  0.00372750  0.00373439  0.00406488
  4.899829773716455E-007  4.899829773716455E-007
  1.679908469554318E-006  4.899829773716455E-007
  2.050899423510303E-006  4.899829773716455E-007
  3.027004531706432E-006  4.899829773716455E-007
  7.693429389310314E-006  4.899829773716455E-007
  8.533065555520569E-006  4.899829773716455E-007
  1.275615142730835E-005  4.899829773716455E-007
  1.395229618310758E-005  4.899829773716455E-007
  1.541976576587530E-005  4.899829773716455E-007
  1.983101588001260E-005  4.899829773716455E-007
  2.828972579420557E-005  4.899829773716455E-007
  2.989643262479264E-005  4.899829773716455E-007
  4.209088739582471E-005  4.899829773716455E-007
  4.522372155957671E-005  4.899829773716455E-007
  4.601337182529025E-005  4.899829773716455E-007
  4.727183437570080E-005  4.899829773716455E-007
  4.790074877775426E-005  4.899829773716455E-007
  4.993560418084425E-005  4.899829773716455E-007
  5.520935404237117E-005  4.899829773716455E-007
  5.547823619477048E-005  4.899829773716455E-007
  5.883299875546045E-005  4.899829773716455E-007
  5.900795006934563E-005  4.899829773716455E-007
  6.687677043540067E-005  4.899829773716455E-007
  6.784506423026981E-005  4.899829773716455E-007
  7.768820083122226E-005  4.899829773716455E-007
  8.437594699390924E-005  4.899829773716455E-007
  8.791120563494473E-005  4.899829773716455E-007
  1.004785261167936E-004  4.899829773716455E-007
  1.056080582704210E-004  4.899829773716455E-007
  1.058514651837545E-004  4.899829773716455E-007
  1.152555670667434E-004  4.899829773716455E-007
  1.170138667932904E-004  4.899829773716455E-007
  1.183707816639255E-004  4.899829773716455E-007
  1.207494934272602E-004  4.899829773716455E-007
  1.222943644285595E-004  4.899829773716455E-007
  1.260409498161428E-004  4.899829773716455E-007
  1.329755232586345E-004  4.899829773716455E-007
  1.726734267692626E-004  4.899829773716455E-007
  2.089794391226187E-004  4.899829773716455E-007
  2.261743016848535E-004  4.899829773716455E-007
  2.517721042865430E-004  4.899829773716455E-007
  2.623308567514648E-004  4.899829773716455E-007
  2.759991970446973E-004  4.899829773716455E-007
  2.798851340832316E-004  4.899829773716455E-007
  2.887913071983469E-004  4.899829773716455E-007
  3.148906888562920E-004  4.899829773716455E-007
  3.499036563258431E-004  4.899829773716455E-007
  3.639709253268615E-004  4.899829773716455E-007
  3.792897704351127E-004  4.899829773716455E-007
  3.795438122969706E-004  4.899829773716455E-007
  3.917613603735703E-004  4.899829773716455E-007
  3.918133348974153E-004  4.899829773716455E-007
  4.153602096558792E-004  4.899829773716455E-007
  4.292627219467877E-004  4.899829773716455E-007
  5.051119938902036E-004  4.899829773716455E-007
  5.326969718716987E-004  4.899829773716455E-007
  5.654884615435271E-004  4.899829773716455E-007
  5.913822612623102E-004  4.899829773716455E-007
  5.930735513433257E-004  4.899829773716455E-007
  5.934347449356433E-004  4.899829773716455E-007
  5.936437824580888E-004  4.899829773716455E-007
  5.977196814288086E-004  4.899829773716455E-007
  6.001244182955460E-004  4.899829773716455E-007
  6.040666971331495E-004  4.899829773716455E-007
  6.041487243706006E-004  4.899829773716455E-007
  6.068675167351443E-004  4.899829773716455E-007
  6.201247184654978E-004  4.899829773716455E-007
  6.234049160233602E-004  4.899829773716455E-007
  6.267068962697488E-004  4.899829773716455E-007
  6.386874569672466E-004  4.899829773716455E-007
  6.416699283689206E-004  4.899829773716455E-007
  6.500411198973243E-004  4.899829773716455E-007
  6.611012915370370E-004  4.899829773716455E-007
  7.171355173539058E-004  4.899829773716455E-007
  9.132186030571021E-004  4.899829773716455E-007
  1.041043465508513E-003  4.899829773716455E-007
  1.048116013178089E-003  4.899829773716455E-007
  1.060930403489531E-003  4.899829773716455E-007
  1.079030369913362E-003  4.899829773716455E-007
  1.107116587271456E-003  4.899829773716455E-007
  1.109833531314349E-003  4.899829773716455E-007
  1.111754437701234E-003  4.899829773716455E-007
  1.129487735125183E-003  4.899829773716455E-007
  1.131189527173734E-003  4.899829773716455E-007
  1.138963623665418E-003  4.899829773716455E-007
  1.154479940747954E-003  4.899829773716455E-007
  1.169823600131360E-003  4.899829773716455E-007
  1.172422110153703E-003  4.899829773716455E-007
  1.172473932721457E-003  4.899829773716455E-007
  1.174876713308246E-003  4.899829773716455E-007
  1.401860515218710E-003  4.899829773716455E-007
  1.430311475049792E-003  4.899829773716455E-007
  1.447814835868288E-003  4.899829773716455E-007
  1.548203902209257E-003  4.899829773716455E-007
  1.656808323469491E-003  4.899829773716455E-007
  1.927567126746294E-003  4.899829773716455E-007
  2.256992661616349E-003  4.899829773716455E-007
  2.266095465660180E-003  4.899829773716455E-007
  2.342912929851592E-003  4.899829773716455E-007
  2.357484361200718E-003  4.899829773716455E-007
  2.368710063787785E-003  4.899829773716455E-007
  2.513300127786223E-003  4.899829773716455E-007
  3.140891824892573E-003  4.899829773716455E-007
  3.633477045308981E-003  4.899829773716455E-007
  3.705599061081124E-003  4.899829773716455E-007
  3.727496749360020E-003  4.899829773716455E-007
  3.734394848593072E-003  4.899829773716455E-007
  4.064881506297522E-003  4.899829773716455E-007
 cut=1d-8, nber non-redundant internal coords=         108
 Check on Eigenvals of non-red overlap matrix:
  0.00000049  0.00000168  0.00000205  0.00000303  0.00000769  0.00000853  0.00001276  0.00001395
  0.00001542  0.00001983  0.00002829  0.00002990  0.00004209  0.00004522  0.00004601  0.00004727
  0.00004790  0.00004994  0.00005521  0.00005548  0.00005883  0.00005901  0.00006688  0.00006785
  0.00007769  0.00008438  0.00008791  0.00010048  0.00010561  0.00010585  0.00011526  0.00011701
  0.00011837  0.00012075  0.00012229  0.00012604  0.00013298  0.00017267  0.00020898  0.00022617
  0.00025177  0.00026233  0.00027600  0.00027989  0.00028879  0.00031489  0.00034990  0.00036397
  0.00037929  0.00037954  0.00039176  0.00039181  0.00041536  0.00042926  0.00050511  0.00053270
  0.00056549  0.00059138  0.00059307  0.00059343  0.00059364  0.00059772  0.00060012  0.00060407
  0.00060415  0.00060687  0.00062012  0.00062340  0.00062671  0.00063869  0.00064167  0.00065004
  0.00066110  0.00071714  0.00091322  0.00104104  0.00104812  0.00106093  0.00107903  0.00110712
  0.00110983  0.00111175  0.00112949  0.00113119  0.00113896  0.00115448  0.00116982  0.00117242
  0.00117247  0.00117488  0.00140186  0.00143031  0.00144781  0.00154820  0.00165681  0.00192757
  0.00225699  0.00226610  0.00234291  0.00235748  0.00236871  0.00251330  0.00314089  0.00363348
  0.00370560  0.00372750  0.00373439  0.00406488
 Checking for correct frequencies
 recalc frequencies=
   -78.9   -0.0   -0.0   -0.0    0.0    0.0    0.0   20.8   33.5   52.6
    59.3   66.8  119.2  132.9  165.8  173.7  212.6  258.5  336.8  338.2
   380.7  396.1  406.9  413.5  417.8  441.7  445.8  481.0  508.5  514.7
   560.6  593.4  631.1  645.4  655.6  656.1  671.1  695.9  721.2  739.9
   775.9  779.2  819.2  823.7  827.5  830.1  843.3  854.1  879.4  922.8
   970.5  992.9  997.6  999.3 1003.1 1004.2 1008.5 1012.8 1014.3 1015.9
  1022.5 1032.9 1045.1 1064.0 1074.8 1092.8 1111.7 1113.8 1129.2 1147.1
  1187.7 1204.0 1224.8 1235.4 1237.6 1271.9 1285.8 1289.9 1303.0 1330.6
  1341.1 1345.7 1357.2 1373.3 1412.5 1434.1 1438.0 1467.3 1483.9 1485.9
  1523.8 1557.8 1561.7 1598.8 1605.8 1607.9 1624.5 1629.6 1642.1 1655.7
  3148.1 3150.2 3159.1 3167.8 3182.1 3182.3 3182.7 3190.2 3191.3 3203.9
  3204.2 3204.7 3213.2 3215.2
 recalc symmetries=
     A2     A1     B2     B1     B2     A2     B1     B1     A2     B2 
     B1     A2     B1     B2     B1     A1     B2     B1     B1     A1 
     B2     A2     A2     A2     A2     B2     B1     A1     B2     B1 
     B1     B1     B2     B2     B2     A1     B2     B1     A1     B1 
     A1     B1     B1     A2     B1     A1     B1     A2     B1     B1 
     A2     B1     A2     B1     B1     A2     A1     B1     A1     A2 
     A1     A1     A1     A1     A1     A1     B2     B2     A1     B2 
     B2     A1     B2     A1     B2     B2     A1     B2     B2     B2 
     B2     A1     A1     B2     B2     A1     B2     B2     B2     A1 
     A1     A1     B2     B2     A1     B2     B2     A1     A1     A1 
     A1     B2     A1     B2     B2     A1     A1     B2     A1     A1 
     B2     A1     B2     A1 
 recalc freqs check OK
 Zero-point lengths:
 27.9013 10.0000 10.0000 10.0000 10.0000 10.0000 10.0000 54.3812 42.8421 34.1703
 32.1900 30.3308 22.7105 21.5050 19.2519 18.8109 17.0012 15.4194 13.5092 13.4810
 12.7059 12.4560 12.2895 12.1910 12.1292 11.7964 11.7418 11.3041 10.9933 10.9276
 10.4709 10.1774  9.8683  9.7582  9.6826  9.6783  9.5700  9.3976  9.2311  9.1138
  8.9001  8.8809  8.6616  8.6377  8.6180  8.6046  8.5369  8.4828  8.3600  8.1610
  7.9578  7.8677  7.8492  7.8425  7.8277  7.8232  7.8064  7.7898  7.7842  7.7779
  7.7531  7.7136  7.6686  7.6000  7.5620  7.4994  7.4353  7.4282  7.3774  7.3198
  7.1935  7.1445  7.0836  7.0532  7.0469  6.9513  6.9138  6.9026  6.8679  6.7963
  6.7697  6.7580  6.7292  6.6897  6.5963  6.5465  6.5375  6.4719  6.4356  6.4313
  6.3508  6.2813  6.2732  6.2001  6.1866  6.1825  6.1509  6.1413  6.1178  6.0926
  4.4185  4.4170  4.4108  4.4047  4.3948  4.3946  4.3944  4.3892  4.3884  4.3798
  4.3796  4.3792  4.3735  4.3721
 highest evec of mol 1
  0.0000  0.0000  0.0095
  0.0000  0.0182  0.0125
  0.0000  0.0782 -0.0418
  0.0000  0.0000 -0.0031
  0.0000  0.0000  0.0061
  0.0000 -0.1151  0.0654
  0.0000 -0.1094 -0.0656
  0.0000  0.0000 -0.0056
  0.0000  0.0000 -0.0016
  0.0000  0.0008  0.0000
  0.0000  0.0007  0.0001
  0.0000  0.0000  0.0002
  0.0000  0.0000 -0.0003
  0.0000  0.0001  0.0001
  0.0000 -0.0003 -0.0002
  0.0000  0.0000 -0.0004
  0.0000  0.0003 -0.0002
  0.0000 -0.0001  0.0001
  0.0000 -0.0007  0.0001
  0.0000 -0.0008  0.0000
  0.0000  0.1094 -0.0656
  0.0000  0.1151  0.0654
  0.0000 -0.0782 -0.0418
  0.0000 -0.0182  0.0125
  0.0000  0.0000 -0.0277
  0.0000 -0.0573 -0.0332
  0.0000 -0.2617  0.1454
  0.0000  0.3842 -0.2118
  0.0000  0.3584  0.2060
  0.0000 -0.0016 -0.0008
  0.0000  0.0010  0.0005
  0.0000  0.0000  0.0016
  0.0000 -0.0010  0.0005
  0.0000  0.0016 -0.0008
  0.0000 -0.3584  0.2060
  0.0000 -0.3842 -0.2118
  0.0000  0.2617  0.1454
  0.0000  0.0573 -0.0332
 generating redundant internal coords
         300        3600          38
 Adding extra bonds for z output only
           6           6           6           6           6           6
           6           6           6           7           6           6
           6           7           6           6           6           7
           6           7           6           6           6           6
           1           1           1           1           1           1
           1           1           1           1           1           1
           1           1
 search for int coords
   1 str   2   1   1.392
   2 str   3   2   1.390
   3 str   4   3   1.406
   4 str   5   4   1.491
   5 str   6   5   1.407
   6 str   7   6   1.386
   7 str   8   7   1.400
   8 str   9   8   1.477
   9 str  10   9   1.346
  10 str  11  10   1.328
  11 str  12  11   1.400
  12 str  13  12   1.476
  13 str  14  13   1.343
  14 str  15  14   1.332
  15 str  16  15   1.391
  16 str  17  16   1.391
  17 str  18  13   1.343
  18 str  18  17   1.332
  19 str  19  12   1.400
  20 str  20   9   1.346
  21 str  20  19   1.328
  22 str  21   8   1.400
  23 str  22   5   1.407
  24 str  22  21   1.386
  25 str  23   4   1.406
  26 str  24   1   1.392
  27 str  24  23   1.390
  28 str  25   1   1.084
  29 str  26   2   1.085
  30 str  27   3   1.082
  31 str  28   6   1.081
  32 str  29   7   1.082
  33 str  30  11   1.084
  34 str  31  15   1.087
  35 str  32  16   1.082
  36 str  33  17   1.087
  37 str  34  19   1.084
  38 str  35  21   1.082
  39 str  36  22   1.081
  40 str  37  23   1.082
  41 str  38  24   1.085
 nber stretches=          41
  42 ben   1   2   3
  43 prop tor   1   2   3   4
  44 prop tor   1   2   3  27
  45 ben   1   2  26
  46 ben   1  24  23
  47 ben   1  24  38
  48 ben   2   1  24
  49 prop tor   2   1  24  23
  50 prop tor   2   1  24  38
  51 ben   2   1  25
  52 ben   2   3   4
  53 prop tor   2   3   4   5
  54 prop tor   2   3   4  23
  55 ben   2   3  27
  56 ben   3   2  26
  57 ben   3   4   5
  58 prop tor   3   4   5   6
  59 prop tor   3   4   5  22
  60 ben   3   4  23
  61 prop tor   3   4  23  24
  62 prop tor   3   4  23  37
  63 ben   4   3  27
  64 ben   4   5   6
  65 prop tor   4   5   6   7
  66 prop tor   4   5   6  28
  67 ben   4   5  22
  68 prop tor   4   5  22  21
  69 prop tor   4   5  22  36
  70 ben   4  23  24
  71 prop tor   4  23  24   1
  72 prop tor   4  23  24  38
  73 ben   4  23  37
  74 ben   5   4  23
  75 prop tor   5   4  23  24
  76 prop tor   5   4  23  37
  77 ben   5   6   7
  78 prop tor   5   6   7   8
  79 prop tor   5   6   7  29
  80 ben   5   6  28
  81 ben   5  22  21
  82 ben   5  22  36
  83 ben   6   5  22
  84 prop tor   6   5  22  21
  85 prop tor   6   5  22  36
  86 ben   6   7   8
  87 prop tor   6   7   8   9
  88 prop tor   6   7   8  21
  89 ben   6   7  29
  90 ben   7   6  28
  91 ben   7   8   9
  92 prop tor   7   8   9  10
  93 prop tor   7   8   9  20
  94 ben   7   8  21
  95 prop tor   7   8  21  22
  96 prop tor   7   8  21  35
  97 ben   8   7  29
  98 ben   8   9  10
  99 prop tor   8   9  10  11
 100 ben   8   9  20
 101 prop tor   8   9  20  19
 102 ben   8  21  22
 103 prop tor   8  21  22   5
 104 prop tor   8  21  22  36
 105 ben   8  21  35
 106 ben   9   8  21
 107 prop tor   9   8  21  22
 108 prop tor   9   8  21  35
 109 ben   9  10  11
 110 prop tor   9  10  11  12
 111 prop tor   9  10  11  30
 112 ben   9  20  19
 113 ben  10   9  20
 114 prop tor  10   9  20  19
 115 ben  10  11  12
 116 prop tor  10  11  12  13
 117 prop tor  10  11  12  19
 118 ben  10  11  30
 119 ben  11  12  13
 120 prop tor  11  12  13  14
 121 prop tor  11  12  13  18
 122 ben  11  12  19
 123 prop tor  11  12  19  20
 124 prop tor  11  12  19  34
 125 ben  12  11  30
 126 ben  12  13  14
 127 prop tor  12  13  14  15
 128 ben  12  13  18
 129 prop tor  12  13  18  17
 130 ben  12  19  20
 131 prop tor  12  19  20   9
 132 ben  12  19  34
 133 ben  13  12  19
 134 prop tor  13  12  19  20
 135 prop tor  13  12  19  34
 136 ben  13  14  15
 137 prop tor  13  14  15  16
 138 prop tor  13  14  15  31
 139 ben  13  18  17
 140 ben  14  13  18
 141 prop tor  14  13  18  17
 142 ben  14  15  16
 143 prop tor  14  15  16  17
 144 prop tor  14  15  16  32
 145 ben  14  15  31
 146 ben  15  16  17
 147 prop tor  15  16  17  18
 148 prop tor  15  16  17  33
 149 ben  15  16  32
 150 ben  16  15  31
 151 ben  16  17  18
 152 prop tor  16  17  18  13
 153 ben  16  17  33
 154 ben  17  16  32
 155 prop tor  18  13  14  15
 156 ben  18  17  33
 157 prop tor  19  12  13  14
 158 prop tor  19  12  13  18
 159 prop tor  20   9  10  11
 160 ben  20  19  34
 161 prop tor  21   8   9  10
 162 prop tor  21   8   9  20
 163 ben  21  22  36
 164 prop tor  22   5   6   7
 165 prop tor  22   5   6  28
 166 ben  22  21  35
 167 prop tor  23   4   5   6
 168 prop tor  23   4   5  22
 169 ben  23  24  38
 170 prop tor  24   1   2   3
 171 prop tor  24   1   2  26
 172 ben  24   1  25
 173 ben  24  23  37
 174 prop tor  25   1   2   3
 175 prop tor  25   1   2  26
 176 prop tor  25   1  24  23
 177 prop tor  25   1  24  38
 178 prop tor  26   2   3   4
 179 prop tor  26   2   3  27
 180 prop tor  27   3   4   5
 181 prop tor  27   3   4  23
 182 prop tor  28   6   7   8
 183 prop tor  28   6   7  29
 184 prop tor  29   7   8   9
 185 prop tor  29   7   8  21
 186 prop tor  30  11  12  13
 187 prop tor  30  11  12  19
 188 prop tor  31  15  16  17
 189 prop tor  31  15  16  32
 190 prop tor  32  16  17  18
 191 prop tor  32  16  17  33
 192 prop tor  33  17  18  13
 193 prop tor  34  19  20   9
 194 prop tor  35  21  22   5
 195 prop tor  35  21  22  36
 196 prop tor  37  23  24   1
 197 prop tor  37  23  24  38
 nber bend=              64
 nber lin bend=           0
 nber prop tor=          92
 nber impr tor=           0
 nber tot redund int=         197
 Reading file: 
 ./Non-cov-phenyl-N_2_C-1S0.log                                                 
                                          
  Entering Gaussian System, Link 0=g16                                          
  
 Gaussian format, type: g94, g98, g03= F F F
  #P Geom=AllCheck Guess=TCheck SCRF=Check GenChk UB3LYP/6-311G(d,p) Fre    
 energy type= B3LYP   
 Original G94 input coords:
  6  7.506372  0.000000  0.000000
  6  6.789482 -1.197463  0.000000
  6  5.400948 -1.198156  0.000000
  6  4.647059  0.000000  0.000000
  6  3.175721  0.000000  0.000000
  6  2.418951  1.198198  0.000000
  6  1.039284  1.203918  0.000000
  6  0.292980  0.000000  0.000000
  6 -1.152587  0.000000  0.000000
  7 -1.801353  1.204146  0.000000
  6 -3.115506  1.190858  0.000000
  6 -3.891917  0.000000  0.000000
  6 -5.327191  0.000000  0.000000
  7 -5.976009  1.206835  0.000000
  6 -7.296317  1.181102  0.000000
  6 -8.046962  0.000000  0.000000
  6 -7.296317 -1.181102  0.000000
  7 -5.976009 -1.206835  0.000000
  6 -3.115506 -1.190858  0.000000
  7 -1.801353 -1.204146  0.000000
  6  1.039284 -1.203918  0.000000
  6  2.418951 -1.198198  0.000000
  6  5.400948  1.198156  0.000000
  6  6.789482  1.197463  0.000000
  1  8.590708  0.000000  0.000000
  1  7.318807 -2.145714  0.000000
  1  4.891131 -2.152482  0.000000
  1  2.923949  2.156901  0.000000
  1  0.494060  2.139450  0.000000
  1 -3.625210  2.150598  0.000000
  1 -7.794417  2.151814  0.000000
  1 -9.129787  0.000000  0.000000
  1 -7.794417 -2.151814  0.000000
  1 -3.625210 -2.150598  0.000000
  1  0.494060 -2.139450  0.000000
  1  2.923949 -2.156901  0.000000
  1  4.891131  2.152482  0.000000
  1  7.318807  2.145714  0.000000
 nber atoms=          38
 Original standard coords:
  6  0.000000  0.000000  7.845524
  6  0.000000  1.197463  7.128634
  6  0.000000  1.198156  5.740100
  6  0.000000  0.000000  4.986211
  6  0.000000  0.000000  3.514873
  6  0.000000 -1.198198  2.758103
  6  0.000000 -1.203918  1.378435
  6  0.000000  0.000000  0.632132
  6  0.000000  0.000000 -0.813436
  7  0.000000 -1.204146 -1.462201
  6  0.000000 -1.190858 -2.776354
  6  0.000000  0.000000 -3.552766
  6  0.000000  0.000000 -4.988040
  7  0.000000 -1.206835 -5.636858
  6  0.000000 -1.181102 -6.957165
  6  0.000000  0.000000 -7.707811
  6  0.000000  1.181102 -6.957165
  7  0.000000  1.206835 -5.636858
  6  0.000000  1.190858 -2.776354
  7  0.000000  1.204146 -1.462201
  6  0.000000  1.203918  1.378435
  6  0.000000  1.198198  2.758103
  6  0.000000 -1.198156  5.740100
  6  0.000000 -1.197463  7.128634
  1  0.000000  0.000000  8.929860
  1  0.000000  2.145714  7.657958
  1  0.000000  2.152482  5.230283
  1  0.000000 -2.156901  3.263101
  1  0.000000 -2.139450  0.833212
  1  0.000000 -2.150598 -3.286059
  1  0.000000 -2.151814 -7.455265
  1  0.000000  0.000000 -8.790636
  1  0.000000  2.151814 -7.455265
  1  0.000000  2.150598 -3.286059
  1  0.000000  2.139450  0.833212
  1  0.000000  2.156901  3.263101
  1  0.000000 -2.152482  5.230283
  1  0.000000 -2.145714  7.657958
  SCF Done:  E(UB3LYP) =  -989.853901953     A.U. after    1 cycles             
  
          23          40 "  -989.853901953"
After scan for Atom:   Atom  AN      X      Y      Z        X      Y      Z        X      Y      Z   
After scan for Atom:   Atom  AN      X      Y      Z        X      Y      Z        X      Y      Z   
After scan for Atom:   Atom  AN      X      Y      Z        X      Y      Z        X      Y      Z   
After scan for Atom:   Atom  AN      X      Y      Z        X      Y      Z        X      Y      Z   
After scan for Atom:   Atom  AN      X      Y      Z        X      Y      Z        X      Y      Z   
After scan for Atom:   Atom  AN      X      Y      Z        X      Y      Z        X      Y      Z   
After scan for Atom:   Atom  AN      X      Y      Z        X      Y      Z        X      Y      Z   
After scan for Atom:   Atom  AN      X      Y      Z        X      Y      Z        X      Y      Z   
After scan for Atom:   Atom  AN      X      Y      Z        X      Y      Z        X      Y      Z   
After scan for Atom:   Atom  AN      X      Y      Z        X      Y      Z        X      Y      Z   
After scan for Atom:   Atom  AN      X      Y      Z        X      Y      Z        X      Y      Z   
After scan for Atom:   Atom  AN      X      Y      Z        X      Y      Z        X      Y      Z   
After scan for Atom:   Atom  AN      X      Y      Z        X      Y      Z        X      Y      Z   
After scan for Atom:   Atom  AN      X      Y      Z        X      Y      Z        X      Y      Z   
After scan for Atom:   Atom  AN      X      Y      Z        X      Y      Z        X      Y      Z   
After scan for Atom:   Atom  AN      X      Y      Z        X      Y      Z        X      Y      Z   
After scan for Atom:   Atom  AN      X      Y      Z        X      Y      Z        X      Y      Z   
After scan for Atom:   Atom  AN      X      Y      Z        X      Y      Z        X      Y      Z   
After scan for Atom:   Atom  AN      X      Y      Z        X      Y      Z        X      Y      Z   
After scan for Atom:   Atom  AN      X      Y      Z        X      Y      Z        X      Y      Z   
After scan for Atom:   Atom  AN      X      Y      Z        X      Y      Z        X      Y      Z   
After scan for Atom:   Atom  AN      X      Y      Z        X      Y      Z        X      Y      Z   
After scan for Atom:   Atom  AN      X      Y      Z        X      Y      Z        X      Y      Z   
After scan for Atom:   Atom  AN      X      Y      Z        X      Y      Z        X      Y      Z   
After scan for Atom:   Atom  AN      X      Y      Z        X      Y      Z        X      Y      Z   
After scan for Atom:   Atom  AN      X      Y      Z        X      Y      Z        X      Y      Z   
After scan for Atom:   Atom  AN      X      Y      Z        X      Y      Z        X      Y      Z   
After scan for Atom:   Atom  AN      X      Y      Z        X      Y      Z        X      Y      Z   
After scan for Atom:   Atom  AN      X      Y      Z        X      Y      Z        X      Y      Z   
After scan for Atom:   Atom  AN      X      Y      Z        X      Y      Z        X      Y      Z   
After scan for Atom:   Atom  AN      X      Y      Z        X      Y      Z        X      Y      Z   
After scan for Atom:   Atom  AN      X      Y      Z        X      Y      Z        X      Y      Z   
After scan for Atom:   Atom  AN      X      Y      Z        X      Y      Z        X      Y      Z   
After scan for Atom:   Atom  AN      X      Y      Z        X      Y      Z        X      Y      Z   
After scan for Atom:   Atom  AN      X      Y      Z        X      Y      Z        X      Y      Z   
After scan for Atom:   Atom  AN      X      Y      Z        X      Y      Z        X      Y      Z   
 g94    frequencies=
     0.0    0.0    0.0    0.0    0.0    0.0  -62.6   19.7   51.9   52.4
    56.5  102.7  110.7  131.6  153.9  173.9  209.5  238.4  309.4  338.5
   382.2  405.5  408.3  423.2  428.5  439.9  450.8  482.1  491.6  502.2
   532.7  555.0  630.1  643.2  643.7  653.6  668.6  689.7  700.8  724.5
   743.8  757.2  760.0  787.5  798.9  799.3  808.2  831.0  845.0  875.7
   947.2  951.9  961.4  964.5  975.2  976.0  978.6  981.2  984.3  999.1
  1010.8 1018.6 1023.0 1049.5 1053.1 1067.1 1087.0 1099.2 1102.0 1135.8
  1174.5 1192.2 1193.5 1211.1 1219.5 1284.0 1290.4 1295.8 1321.1 1330.1
  1332.9 1360.5 1364.9 1384.7 1397.2 1418.0 1454.3 1459.6 1471.5 1475.0
  1488.5 1505.5 1509.9 1542.1 1551.2 1591.6 1602.0 1617.2 1629.6 1647.1
  3087.2 3087.5 3139.1 3143.8 3146.0 3146.3 3164.2 3164.3 3172.7 3184.8
  3192.2 3193.7 3198.0 3200.5
 g94    symmetries=
                                                A2     B1     B2     A2
      B1     A2     B1     B2     B1     A1     B2     B1     B1     A1
      B2     B1     A2     A2     A2     B2     A2     A1     B1     B2
      B1     B1     B2     B2     A1     B2     B2     B1     A1     B1
      B1     B1     A1     B1     A1     A2     B1     A2     B1     B1
      A2     B1     B1     B1     A1     A2     B1     A2     A2     A1
      A1     A1     A1     A1     A1     A1     B2     A1     B2     B2
      B2     B2     A1     B2     A1     B2     B2     A1     B2     B2
      B2     A1     B2     A1     B2     A1     B2     B2     A1     B2
      B2     B2     A1     A1     B2     B2     A1     A1     A1     A1
      B2     A1     A1     B2     B2     A1     A1     B2     A1     A1
      B2     A1     B2     A1
 atomic masses:
 12.0000 12.0000 12.0000 12.0000 12.0000 12.0000 12.0000 12.0000 12.0000 14.0031
 12.0000 12.0000 12.0000 14.0031 12.0000 12.0000 12.0000 14.0031 12.0000 14.0031
 12.0000 12.0000 12.0000 12.0000  1.0078  1.0078  1.0078  1.0078  1.0078  1.0078
  1.0078  1.0078  1.0078  1.0078  1.0078  1.0078  1.0078  1.0078
 looking for force constants in 
 ./Non-cov-phenyl-N_2_C-1S0.fchk                                                
  
 Cartesian Force Constants                  R   N=        6555                  
  
 n3=         114        6555
 g94-fc frequencies=
   -62.6   -0.7   -0.4   -0.0    0.0    0.0    2.9   19.7   51.9   52.4
    56.5  102.7  110.8  131.6  153.9  173.9  209.5  238.4  309.4  338.5
   382.2  405.5  408.3  423.2  428.5  439.9  450.8  482.1  491.6  502.2
   532.8  555.0  630.2  643.2  643.7  653.6  668.6  689.7  700.9  724.5
   743.8  757.2  760.0  787.6  798.9  799.4  808.2  831.0  845.1  875.8
   947.2  952.0  961.4  964.5  975.2  976.1  978.6  981.2  984.4  999.2
  1010.8 1018.6 1023.0 1049.6 1053.1 1067.1 1087.0 1099.2 1102.0 1135.9
  1174.6 1192.3 1193.6 1211.1 1219.5 1284.0 1290.4 1295.8 1321.1 1330.1
  1332.9 1360.5 1364.9 1384.7 1397.2 1418.0 1454.4 1459.7 1471.5 1475.1
  1488.5 1505.5 1510.0 1542.1 1551.2 1591.6 1602.1 1617.2 1629.6 1647.1
  3087.3 3087.5 3139.2 3143.8 3146.1 3146.3 3164.3 3164.4 3172.8 3184.9
  3192.3 3193.8 3198.1 3200.5
 at 99999: n3=         114
 symm operator            1 :  T  nop=           1
 symm operator            2 :  F  nop=           1
 symm operator            3 :  F  nop=           1
 symm operator            4 :  F  nop=           1
 symm operator            5 :  F  nop=           1
 symm operator            6 :  T  nop=           2
 symm operator            7 :  T  nop=           3
 The point group of the molecule is C2V
 enforcing symm op           1  jsymt=          -1          -1           1
 enforcing symm op           6  jsymt=           1          -1           1
 enforcing symm op           7  jsymt=          -1           1           1
 cartesian coord symmetries:
 A1 :   38 A2 :   14 B1 :   24 B2 :   38
 Symmetry rotation matrix:
   1.00000   0.00000   0.00000
   0.00000   1.00000   0.00000
   0.00000   0.00000   1.00000

 Projecting out zero-frequency components
 generating redundant internal coords
         300        3600          38
 search for int coords
   1 str   2   1   1.396
   2 str   3   2   1.389
   3 str   4   3   1.416
   4 str   5   4   1.471
   5 str   6   5   1.417
   6 str   7   6   1.380
   7 str   8   7   1.416
   8 str   9   8   1.446
   9 str  10   9   1.368
  10 str  11  10   1.314
  11 str  12  11   1.422
  12 str  13  12   1.435
  13 str  14  13   1.370
  14 str  15  14   1.321
  15 str  16  15   1.399
  16 str  17  16   1.399
  17 str  18  13   1.370
  18 str  18  17   1.321
  19 str  19  12   1.422
  20 str  20   9   1.368
  21 str  20  19   1.314
  22 str  21   8   1.416
  23 str  22   5   1.417
  24 str  22  21   1.380
  25 str  23   4   1.416
  26 str  24   1   1.396
  27 str  24  23   1.389
  28 str  25   1   1.084
  29 str  26   2   1.086
  30 str  27   3   1.082
  31 str  28   6   1.084
  32 str  29   7   1.083
  33 str  30  11   1.087
  34 str  31  15   1.091
  35 str  32  16   1.083
  36 str  33  17   1.091
  37 str  34  19   1.087
  38 str  35  21   1.083
  39 str  36  22   1.084
  40 str  37  23   1.082
  41 str  38  24   1.086
 nber stretches=          41
  42 ben   1   2   3
  43 prop tor   1   2   3   4
  44 prop tor   1   2   3  27
  45 ben   1   2  26
  46 ben   1  24  23
  47 ben   1  24  38
  48 ben   2   1  24
  49 prop tor   2   1  24  23
  50 prop tor   2   1  24  38
  51 ben   2   1  25
  52 ben   2   3   4
  53 prop tor   2   3   4   5
  54 prop tor   2   3   4  23
  55 ben   2   3  27
  56 ben   3   2  26
  57 ben   3   4   5
  58 prop tor   3   4   5   6
  59 prop tor   3   4   5  22
  60 ben   3   4  23
  61 prop tor   3   4  23  24
  62 prop tor   3   4  23  37
  63 ben   4   3  27
  64 ben   4   5   6
  65 prop tor   4   5   6   7
  66 prop tor   4   5   6  28
  67 ben   4   5  22
  68 prop tor   4   5  22  21
  69 prop tor   4   5  22  36
  70 ben   4  23  24
  71 prop tor   4  23  24   1
  72 prop tor   4  23  24  38
  73 ben   4  23  37
  74 ben   5   4  23
  75 prop tor   5   4  23  24
  76 prop tor   5   4  23  37
  77 ben   5   6   7
  78 prop tor   5   6   7   8
  79 prop tor   5   6   7  29
  80 ben   5   6  28
  81 ben   5  22  21
  82 ben   5  22  36
  83 ben   6   5  22
  84 prop tor   6   5  22  21
  85 prop tor   6   5  22  36
  86 ben   6   7   8
  87 prop tor   6   7   8   9
  88 prop tor   6   7   8  21
  89 ben   6   7  29
  90 ben   7   6  28
  91 ben   7   8   9
  92 prop tor   7   8   9  10
  93 prop tor   7   8   9  20
  94 ben   7   8  21
  95 prop tor   7   8  21  22
  96 prop tor   7   8  21  35
  97 ben   8   7  29
  98 ben   8   9  10
  99 prop tor   8   9  10  11
 100 ben   8   9  20
 101 prop tor   8   9  20  19
 102 ben   8  21  22
 103 prop tor   8  21  22   5
 104 prop tor   8  21  22  36
 105 ben   8  21  35
 106 ben   9   8  21
 107 prop tor   9   8  21  22
 108 prop tor   9   8  21  35
 109 ben   9  10  11
 110 prop tor   9  10  11  12
 111 prop tor   9  10  11  30
 112 ben   9  20  19
 113 ben  10   9  20
 114 prop tor  10   9  20  19
 115 ben  10  11  12
 116 prop tor  10  11  12  13
 117 prop tor  10  11  12  19
 118 ben  10  11  30
 119 ben  11  12  13
 120 prop tor  11  12  13  14
 121 prop tor  11  12  13  18
 122 ben  11  12  19
 123 prop tor  11  12  19  20
 124 prop tor  11  12  19  34
 125 ben  12  11  30
 126 ben  12  13  14
 127 prop tor  12  13  14  15
 128 ben  12  13  18
 129 prop tor  12  13  18  17
 130 ben  12  19  20
 131 prop tor  12  19  20   9
 132 ben  12  19  34
 133 ben  13  12  19
 134 prop tor  13  12  19  20
 135 prop tor  13  12  19  34
 136 ben  13  14  15
 137 prop tor  13  14  15  16
 138 prop tor  13  14  15  31
 139 ben  13  18  17
 140 ben  14  13  18
 141 prop tor  14  13  18  17
 142 ben  14  15  16
 143 prop tor  14  15  16  17
 144 prop tor  14  15  16  32
 145 ben  14  15  31
 146 ben  15  16  17
 147 prop tor  15  16  17  18
 148 prop tor  15  16  17  33
 149 ben  15  16  32
 150 ben  16  15  31
 151 ben  16  17  18
 152 prop tor  16  17  18  13
 153 ben  16  17  33
 154 ben  17  16  32
 155 prop tor  18  13  14  15
 156 ben  18  17  33
 157 prop tor  19  12  13  14
 158 prop tor  19  12  13  18
 159 prop tor  20   9  10  11
 160 ben  20  19  34
 161 prop tor  21   8   9  10
 162 prop tor  21   8   9  20
 163 ben  21  22  36
 164 prop tor  22   5   6   7
 165 prop tor  22   5   6  28
 166 ben  22  21  35
 167 prop tor  23   4   5   6
 168 prop tor  23   4   5  22
 169 ben  23  24  38
 170 prop tor  24   1   2   3
 171 prop tor  24   1   2  26
 172 ben  24   1  25
 173 ben  24  23  37
 174 prop tor  25   1   2   3
 175 prop tor  25   1   2  26
 176 prop tor  25   1  24  23
 177 prop tor  25   1  24  38
 178 prop tor  26   2   3   4
 179 prop tor  26   2   3  27
 180 prop tor  27   3   4   5
 181 prop tor  27   3   4  23
 182 prop tor  28   6   7   8
 183 prop tor  28   6   7  29
 184 prop tor  29   7   8   9
 185 prop tor  29   7   8  21
 186 prop tor  30  11  12  13
 187 prop tor  30  11  12  19
 188 prop tor  31  15  16  17
 189 prop tor  31  15  16  32
 190 prop tor  32  16  17  18
 191 prop tor  32  16  17  33
 192 prop tor  33  17  18  13
 193 prop tor  34  19  20   9
 194 prop tor  35  21  22   5
 195 prop tor  35  21  22  36
 196 prop tor  37  23  24   1
 197 prop tor  37  23  24  38
 nber bend=              64
 nber lin bend=           0
 nber prop tor=          92
 nber impr tor=           0
 nber tot redund int=         197
 Eigenvalues of G in red int coords
    Gval -0.00000000 -0.00000000 -0.00000000 -0.00000000 -0.00000000 -0.00000000 -0.00000000 -0.00000000
    Gval -0.00000000 -0.00000000 -0.00000000 -0.00000000 -0.00000000 -0.00000000 -0.00000000 -0.00000000
    Gval -0.00000000 -0.00000000 -0.00000000 -0.00000000 -0.00000000 -0.00000000 -0.00000000 -0.00000000
    Gval -0.00000000 -0.00000000 -0.00000000 -0.00000000 -0.00000000 -0.00000000 -0.00000000 -0.00000000
    Gval -0.00000000 -0.00000000 -0.00000000 -0.00000000 -0.00000000 -0.00000000 -0.00000000 -0.00000000
    Gval -0.00000000 -0.00000000 -0.00000000 -0.00000000 -0.00000000 -0.00000000 -0.00000000  0.00000000
    Gval  0.00000000  0.00000000  0.00000000  0.00000000  0.00000000  0.00000000  0.00000000  0.00000000
    Gval  0.00000000  0.00000000  0.00000000  0.00000000  0.00000000  0.00000000  0.00000000  0.00000000
    Gval  0.00000000  0.00000000  0.00000000  0.00000000  0.00000000  0.00000000  0.00000000  0.00000000
    Gval  0.00000000  0.00000000  0.00000000  0.00000000  0.00000000  0.00000000  0.00000000  0.00000000
    Gval  0.00000000  0.00000000  0.00000000  0.00000000  0.00000000  0.00000000  0.00000000  0.00000000
    Gval  0.00000000  0.00000049  0.00000171  0.00000204  0.00000301  0.00000765  0.00000849  0.00001276
    Gval  0.00001416  0.00001533  0.00001999  0.00002828  0.00002979  0.00004213  0.00004529  0.00004587
    Gval  0.00004738  0.00004871  0.00005013  0.00005484  0.00005541  0.00005858  0.00005904  0.00006678
    Gval  0.00006785  0.00007762  0.00008372  0.00008805  0.00010083  0.00010637  0.00010684  0.00011508
    Gval  0.00011687  0.00011917  0.00012066  0.00012179  0.00012726  0.00013242  0.00017446  0.00021048
    Gval  0.00022825  0.00025307  0.00025934  0.00027396  0.00027696  0.00028426  0.00030950  0.00034435
    Gval  0.00036070  0.00037389  0.00038258  0.00038735  0.00039922  0.00042252  0.00043615  0.00052015
    Gval  0.00054413  0.00057434  0.00057866  0.00059308  0.00059341  0.00059360  0.00059771  0.00059992
    Gval  0.00060386  0.00060434  0.00062062  0.00062072  0.00062357  0.00062604  0.00063947  0.00064154
    Gval  0.00064906  0.00066044  0.00072172  0.00091174  0.00103949  0.00104606  0.00105596  0.00107520
    Gval  0.00110179  0.00110470  0.00110788  0.00111931  0.00112372  0.00113823  0.00115128  0.00116692
    Gval  0.00116824  0.00117047  0.00117112  0.00139608  0.00142105  0.00142996  0.00152912  0.00164763
    Gval  0.00192994  0.00221692  0.00222029  0.00231983  0.00233828  0.00235651  0.00251005  0.00314121
    Gval  0.00361301  0.00368152  0.00369748  0.00372915  0.00406194
  4.877754101725081E-007  4.877754101725081E-007
  1.707806919680152E-006  4.877754101725081E-007
  2.036769510394025E-006  4.877754101725081E-007
  3.014955745406704E-006  4.877754101725081E-007
  7.645444485121488E-006  4.877754101725081E-007
  8.487323304854842E-006  4.877754101725081E-007
  1.275915955431462E-005  4.877754101725081E-007
  1.415818918393608E-005  4.877754101725081E-007
  1.532638797094708E-005  4.877754101725081E-007
  1.998587271651975E-005  4.877754101725081E-007
  2.828467873063646E-005  4.877754101725081E-007
  2.979458589296750E-005  4.877754101725081E-007
  4.212711336101809E-005  4.877754101725081E-007
  4.529087012970612E-005  4.877754101725081E-007
  4.587436109293436E-005  4.877754101725081E-007
  4.738257689933589E-005  4.877754101725081E-007
  4.871459428084939E-005  4.877754101725081E-007
  5.013121362188550E-005  4.877754101725081E-007
  5.484314292248709E-005  4.877754101725081E-007
  5.540680634853320E-005  4.877754101725081E-007
  5.857876513779157E-005  4.877754101725081E-007
  5.904179800380673E-005  4.877754101725081E-007
  6.677959511459118E-005  4.877754101725081E-007
  6.785086871010835E-005  4.877754101725081E-007
  7.762488045172880E-005  4.877754101725081E-007
  8.371796500959659E-005  4.877754101725081E-007
  8.804517775772808E-005  4.877754101725081E-007
  1.008250887561447E-004  4.877754101725081E-007
  1.063651647727607E-004  4.877754101725081E-007
  1.068372359426935E-004  4.877754101725081E-007
  1.150848037601752E-004  4.877754101725081E-007
  1.168685377708001E-004  4.877754101725081E-007
  1.191660813031244E-004  4.877754101725081E-007
  1.206580779108381E-004  4.877754101725081E-007
  1.217948874399709E-004  4.877754101725081E-007
  1.272562989468915E-004  4.877754101725081E-007
  1.324206695607622E-004  4.877754101725081E-007
  1.744616986335087E-004  4.877754101725081E-007
  2.104752876827050E-004  4.877754101725081E-007
  2.282503295002409E-004  4.877754101725081E-007
  2.530738406823161E-004  4.877754101725081E-007
  2.593436338557534E-004  4.877754101725081E-007
  2.739606768112178E-004  4.877754101725081E-007
  2.769641957961836E-004  4.877754101725081E-007
  2.842570379268114E-004  4.877754101725081E-007
  3.094960727506750E-004  4.877754101725081E-007
  3.443492187863204E-004  4.877754101725081E-007
  3.606965542926375E-004  4.877754101725081E-007
  3.738853466119434E-004  4.877754101725081E-007
  3.825819931067115E-004  4.877754101725081E-007
  3.873497523226575E-004  4.877754101725081E-007
  3.992227681036235E-004  4.877754101725081E-007
  4.225213219042547E-004  4.877754101725081E-007
  4.361496799220699E-004  4.877754101725081E-007
  5.201460481648611E-004  4.877754101725081E-007
  5.441342934448101E-004  4.877754101725081E-007
  5.743407023492677E-004  4.877754101725081E-007
  5.786605771811577E-004  4.877754101725081E-007
  5.930805169485733E-004  4.877754101725081E-007
  5.934075628937002E-004  4.877754101725081E-007
  5.935971307295218E-004  4.877754101725081E-007
  5.977075474771680E-004  4.877754101725081E-007
  5.999164339327422E-004  4.877754101725081E-007
  6.038646426215167E-004  4.877754101725081E-007
  6.043375401423928E-004  4.877754101725081E-007
  6.206160065220292E-004  4.877754101725081E-007
  6.207195867469345E-004  4.877754101725081E-007
  6.235716005191913E-004  4.877754101725081E-007
  6.260366773396486E-004  4.877754101725081E-007
  6.394686915598332E-004  4.877754101725081E-007
  6.415425649803468E-004  4.877754101725081E-007
  6.490610053205331E-004  4.877754101725081E-007
  6.604383951046188E-004  4.877754101725081E-007
  7.217219179768800E-004  4.877754101725081E-007
  9.117396871044780E-004  4.877754101725081E-007
  1.039490651732796E-003  4.877754101725081E-007
  1.046062511540692E-003  4.877754101725081E-007
  1.055957551163946E-003  4.877754101725081E-007
  1.075196580905450E-003  4.877754101725081E-007
  1.101790368959748E-003  4.877754101725081E-007
  1.104700356420629E-003  4.877754101725081E-007
  1.107875218994538E-003  4.877754101725081E-007
  1.119307304155448E-003  4.877754101725081E-007
  1.123719223059282E-003  4.877754101725081E-007
  1.138229812742270E-003  4.877754101725081E-007
  1.151283882950467E-003  4.877754101725081E-007
  1.166923431887389E-003  4.877754101725081E-007
  1.168238066480953E-003  4.877754101725081E-007
  1.170473857216003E-003  4.877754101725081E-007
  1.171116010572819E-003  4.877754101725081E-007
  1.396083262207367E-003  4.877754101725081E-007
  1.421054095373202E-003  4.877754101725081E-007
  1.429964019574900E-003  4.877754101725081E-007
  1.529115334307298E-003  4.877754101725081E-007
  1.647630959655365E-003  4.877754101725081E-007
  1.929942990611174E-003  4.877754101725081E-007
  2.216921596836281E-003  4.877754101725081E-007
  2.220285928063847E-003  4.877754101725081E-007
  2.319831892041210E-003  4.877754101725081E-007
  2.338276238644909E-003  4.877754101725081E-007
  2.356509204597519E-003  4.877754101725081E-007
  2.510053240580961E-003  4.877754101725081E-007
  3.141211339013981E-003  4.877754101725081E-007
  3.613011216596259E-003  4.877754101725081E-007
  3.681523396664080E-003  4.877754101725081E-007
  3.697481227899640E-003  4.877754101725081E-007
  3.729148419575662E-003  4.877754101725081E-007
  4.061941133724283E-003  4.877754101725081E-007
 cut=1d-8, nber non-redundant internal coords=         108
 Check on Eigenvals of non-red overlap matrix:
  0.00000049  0.00000171  0.00000204  0.00000301  0.00000765  0.00000849  0.00001276  0.00001416
  0.00001533  0.00001999  0.00002828  0.00002979  0.00004213  0.00004529  0.00004587  0.00004738
  0.00004871  0.00005013  0.00005484  0.00005541  0.00005858  0.00005904  0.00006678  0.00006785
  0.00007762  0.00008372  0.00008805  0.00010083  0.00010637  0.00010684  0.00011508  0.00011687
  0.00011917  0.00012066  0.00012179  0.00012726  0.00013242  0.00017446  0.00021048  0.00022825
  0.00025307  0.00025934  0.00027396  0.00027696  0.00028426  0.00030950  0.00034435  0.00036070
  0.00037389  0.00038258  0.00038735  0.00039922  0.00042252  0.00043615  0.00052015  0.00054413
  0.00057434  0.00057866  0.00059308  0.00059341  0.00059360  0.00059771  0.00059992  0.00060386
  0.00060434  0.00062062  0.00062072  0.00062357  0.00062604  0.00063947  0.00064154  0.00064906
  0.00066044  0.00072172  0.00091174  0.00103949  0.00104606  0.00105596  0.00107520  0.00110179
  0.00110470  0.00110788  0.00111931  0.00112372  0.00113823  0.00115128  0.00116692  0.00116824
  0.00117047  0.00117112  0.00139608  0.00142105  0.00142996  0.00152912  0.00164763  0.00192994
  0.00221692  0.00222029  0.00231983  0.00233828  0.00235651  0.00251005  0.00314121  0.00361301
  0.00368152  0.00369748  0.00372915  0.00406194
 Checking for correct frequencies
 recalc frequencies=
   -62.6   -0.0   -0.0   -0.0    0.0    0.0    0.0   19.7   51.9   52.4
    56.5  102.7  110.8  131.6  153.9  173.9  209.5  238.4  309.4  338.5
   382.2  405.5  408.3  423.2  428.5  439.9  450.8  482.1  491.6  502.2
   532.8  555.0  630.2  643.2  643.7  653.6  668.6  689.7  700.9  724.5
   743.8  757.2  760.0  787.6  798.9  799.4  808.2  831.0  845.1  875.8
   947.2  952.0  961.4  964.5  975.2  976.1  978.6  981.2  984.4  999.2
  1010.8 1018.6 1023.0 1049.6 1053.1 1067.1 1087.0 1099.2 1102.0 1135.9
  1174.6 1192.3 1193.6 1211.1 1219.5 1284.0 1290.4 1295.8 1321.1 1330.1
  1332.9 1360.5 1364.9 1384.7 1397.2 1418.0 1454.4 1459.7 1471.5 1475.1
  1488.5 1505.5 1510.0 1542.1 1551.2 1591.6 1602.1 1617.2 1629.6 1647.1
  3087.3 3087.5 3139.2 3143.8 3146.1 3146.3 3164.3 3164.4 3172.8 3184.9
  3192.3 3193.8 3198.1 3200.5
 recalc symmetries=
     A2     B2     B1     A2     B1     B2     A1     B1     B2     A2 
     B1     A2     B1     B2     B1     A1     B2     B1     B1     A1 
     B2     B1     A2     A2     A2     B2     A2     A1     B1     B2 
     B1     B1     B2     B2     A1     B2     B2     B1     A1     B1 
     B1     B1     A1     B1     A1     A2     B1     A2     B1     B1 
     A2     B1     B1     B1     A1     A2     B1     A2     A2     A1 
     A1     A1     A1     A1     A1     A1     B2     A1     B2     B2 
     B2     B2     A1     B2     A1     B2     B2     A1     B2     B2 
     B2     A1     B2     A1     B2     A1     B2     B2     A1     B2 
     B2     B2     A1     A1     B2     B2     A1     A1     A1     A1 
     B2     A1     A1     B2     B2     A1     A1     B2     A1     A1 
     B2     A1     B2     A1 
 recalc freqs check OK
 Zero-point lengths:
 31.3323 10.0000 10.0000 10.0000 10.0000 10.0000 10.0000 55.8886 34.3974 34.2344
 32.9756 24.4671 23.5572 21.6107 19.9856 18.7985 17.1276 16.0571 14.0942 13.4744
 12.6816 12.3107 12.2693 12.0503 11.9764 11.8200 11.6765 11.2907 11.1810 11.0626
 10.7406 10.5235  9.8757  9.7752  9.7710  9.6972  9.5876  9.4397  9.3644  9.2101
  9.0899  9.0091  8.9929  8.8340  8.7709  8.7685  8.7205  8.5999  8.5281  8.3773
  8.0551  8.0350  7.9954  7.9824  7.9385  7.9352  7.9248  7.9145  7.9017  7.8429
  7.7975  7.7678  7.7508  7.6523  7.6395  7.5892  7.5193  7.4775  7.4680  7.3558
  7.2337  7.1798  7.1759  7.1236  7.0990  6.9184  6.9012  6.8868  6.8207  6.7975
  6.7905  6.7211  6.7103  6.6622  6.6323  6.5835  6.5007  6.4888  6.4627  6.4549
  6.4257  6.3893  6.3799  6.3130  6.2945  6.2140  6.1938  6.1647  6.1412  6.1085
  4.4618  4.4616  4.4247  4.4215  4.4199  4.4197  4.4072  4.4071  4.4012  4.3929
  4.3878  4.3868  4.3838  4.3821
 highest evec of mol 2
  0.0000  0.0000  0.0250
  0.0000  0.0326  0.0218
  0.0000  0.1317 -0.0711
  0.0000  0.0000 -0.0063
  0.0000  0.0000  0.0039
  0.0000 -0.0726  0.0419
  0.0000 -0.0870 -0.0518
  0.0000  0.0000 -0.0046
  0.0000  0.0000 -0.0010
  0.0000  0.0005 -0.0002
  0.0000  0.0004  0.0001
  0.0000  0.0000  0.0003
  0.0000  0.0000 -0.0005
  0.0000  0.0002  0.0003
  0.0000 -0.0003 -0.0004
  0.0000  0.0000 -0.0002
  0.0000  0.0003 -0.0004
  0.0000 -0.0002  0.0003
  0.0000 -0.0004  0.0001
  0.0000 -0.0005 -0.0002
  0.0000  0.0870 -0.0518
  0.0000  0.0726  0.0419
  0.0000 -0.1317 -0.0711
  0.0000 -0.0326  0.0218
  0.0000  0.0000 -0.0755
  0.0000 -0.1019 -0.0581
  0.0000 -0.4413  0.2421
  0.0000  0.2452 -0.1358
  0.0000  0.2880  0.1644
  0.0000 -0.0008 -0.0003
  0.0000  0.0011  0.0005
  0.0000  0.0000  0.0012
  0.0000 -0.0011  0.0005
  0.0000  0.0008 -0.0003
  0.0000 -0.2880  0.1644
  0.0000 -0.2452 -0.1358
  0.0000  0.4413  0.2421
  0.0000  0.1019 -0.0581
 Enter nber and list of atoms to keep of mol #2
 keep list:          38           1           2           3           4
           5           6           7           8           9          10
          11          12          13          14          15          16
          17          18          19          20          21          22
          23          24          25          26          27          28
          29          30          31          32          33          34
          35          36          37          38
 reordering atoms
           1   7.93097627996034     
           2   7.21408627996034     
           3   5.82555227996034     
           4   5.07166327996034     
           5   3.60032527996034     
           6   2.84355527996034     
           7   1.46388727996035     
           8  0.717584279960345     
           9 -0.727983720039655     
          10  -1.37674872003966     
          11  -2.69090172003966     
          12  -3.46731372003966     
          13  -4.90258772003966     
          14  -5.55140572003966     
          15  -6.87171272003966     
          16  -7.62235872003966     
          17  -6.87171272003966     
          18  -5.55140572003966     
          19  -2.69090172003966     
          20  -1.37674872003966     
          21   1.46388727996035     
          22   2.84355527996034     
          23   5.82555227996034     
          24   7.21408627996034     
          25   9.01531227996034     
          26   7.74341027996034     
          27   5.31573527996034     
          28   3.34855327996034     
          29  0.918664279960345     
          30  -3.20060672003966     
          31  -7.36981272003966     
          32  -8.70518372003965     
          33  -7.36981272003966     
          34  -3.20060672003966     
          35  0.918664279960345     
          36   3.34855327996034     
          37   5.31573527996034     
          38   7.74341027996034     
           1           1
           2           2
           3           3
           4           4
           5           5
           6           6
           7           7
           8           8
           9           9
          10          10
          11          11
          12          12
          13          13
          14          14
          15          15
          16          16
          17          17
          18          18
          19          19
          20          20
          21          21
          22          22
          23          23
          24          24
          25          25
          26          26
          27          27
          28          28
          29          29
          30          30
          31          31
          32          32
          33          33
          34          34
          35          35
          36          36
          37          37
          38          38
 initial cartes coords mol 1
   6   0.00000  -0.00000   7.90624
   6   0.00000  -1.19915   7.19930
   6   0.00000  -1.19781   5.80909
   6   0.00000  -0.00000   5.07281
   6   0.00000  -0.00000   3.58193
   6   0.00000   1.19691   2.84257
   6   0.00000   1.20095   1.45666
   6   0.00000  -0.00000   0.73649
   6   0.00000  -0.00000  -0.74071
   7   0.00000   1.19197  -1.36494
   6   0.00000   1.18270  -2.69249
   6   0.00000  -0.00000  -3.44080
   6   0.00000  -0.00000  -4.91634
   7   0.00000   1.19296  -5.53317
   6   0.00000   1.18073  -6.86505
   6   0.00000  -0.00000  -7.60066
   6   0.00000  -1.18073  -6.86505
   7   0.00000  -1.19296  -5.53317
   6   0.00000  -1.18270  -2.69249
   7   0.00000  -1.19197  -1.36494
   6   0.00000  -1.20095   1.45666
   6   0.00000  -1.19691   2.84257
   6   0.00000   1.19781   5.80909
   6   0.00000   1.19915   7.19930
   1   0.00000  -0.00000   8.99049
   1   0.00000  -2.14437   7.73130
   1   0.00000  -2.15197   5.29955
   1   0.00000   2.15250   3.34892
   1   0.00000   2.13522   0.91095
   1   0.00000   2.14217  -3.19775
   1   0.00000   2.15024  -7.35608
   1   0.00000  -0.00000  -8.68289
   1   0.00000  -2.15024  -7.35608
   1   0.00000  -2.14217  -3.19775
   1   0.00000  -2.13522   0.91095
   1   0.00000  -2.15250   3.34892
   1   0.00000   2.15197   5.29955
   1   0.00000   2.14437   7.73130
 initial cartes coords mol 2
   6   0.00000   0.00000   7.93098
   6   0.00000  -1.19746   7.21409
   6   0.00000  -1.19816   5.82555
   6   0.00000   0.00000   5.07166
   6   0.00000   0.00000   3.60033
   6   0.00000   1.19820   2.84356
   6   0.00000   1.20392   1.46389
   6   0.00000   0.00000   0.71758
   6   0.00000   0.00000  -0.72798
   7   0.00000   1.20415  -1.37675
   6   0.00000   1.19086  -2.69090
   6   0.00000   0.00000  -3.46731
   6   0.00000   0.00000  -4.90259
   7   0.00000   1.20684  -5.55141
   6   0.00000   1.18110  -6.87171
   6   0.00000   0.00000  -7.62236
   6   0.00000  -1.18110  -6.87171
   7   0.00000  -1.20684  -5.55141
   6   0.00000  -1.19086  -2.69090
   7   0.00000  -1.20415  -1.37675
   6   0.00000  -1.20392   1.46389
   6   0.00000  -1.19820   2.84356
   6   0.00000   1.19816   5.82555
   6   0.00000   1.19746   7.21409
   1   0.00000   0.00000   9.01531
   1   0.00000  -2.14571   7.74341
   1   0.00000  -2.15248   5.31574
   1   0.00000   2.15690   3.34855
   1   0.00000   2.13945   0.91866
   1   0.00000   2.15060  -3.20061
   1   0.00000   2.15181  -7.36981
   1   0.00000   0.00000  -8.70518
   1   0.00000  -2.15181  -7.36981
   1   0.00000  -2.15060  -3.20061
   1   0.00000  -2.13945   0.91866
   1   0.00000  -2.15690   3.34855
   1   0.00000   2.15248   5.31574
   1   0.00000   2.14571   7.74341
 loop 1 0
 mod cartes coords mol 2
   6   0.00000   0.00000   7.93098
   6   0.00000  -1.19746   7.21409
   6   0.00000  -1.19816   5.82555
   6   0.00000   0.00000   5.07166
   6   0.00000   0.00000   3.60033
   6   0.00000   1.19820   2.84356
   6   0.00000   1.20392   1.46389
   6   0.00000   0.00000   0.71758
   6   0.00000   0.00000  -0.72798
   7   0.00000   1.20415  -1.37675
   6   0.00000   1.19086  -2.69090
   6   0.00000   0.00000  -3.46731
   6   0.00000   0.00000  -4.90259
   7   0.00000   1.20684  -5.55141
   6   0.00000   1.18110  -6.87171
   6   0.00000   0.00000  -7.62236
   6   0.00000  -1.18110  -6.87171
   7   0.00000  -1.20684  -5.55141
   6   0.00000  -1.19086  -2.69090
   7   0.00000  -1.20415  -1.37675
   6   0.00000  -1.20392   1.46389
   6   0.00000  -1.19820   2.84356
   6   0.00000   1.19816   5.82555
   6   0.00000   1.19746   7.21409
   1   0.00000   0.00000   9.01531
   1   0.00000  -2.14571   7.74341
   1   0.00000  -2.15248   5.31574
   1   0.00000   2.15690   3.34855
   1   0.00000   2.13945   0.91866
   1   0.00000   2.15060  -3.20061
   1   0.00000   2.15181  -7.36981
   1   0.00000   0.00000  -8.70518
   1   0.00000  -2.15181  -7.36981
   1   0.00000  -2.15060  -3.20061
   1   0.00000  -2.13945   0.91866
   1   0.00000  -2.15690   3.34855
   1   0.00000   2.15248   5.31574
   1   0.00000   2.14571   7.74341
 read in order, maxerr=  0.03 for atom  12
 final axis swaps:           1           1           1
 final xyz swap pattern=           1
 reorder list:
   1   2   3   4   5   6   7   8   9  10  11  12  13  14  15  16  17  18  19  20
  21  22  23  24  25  26  27  28  29  30  31  32  33  34  35  36  37  38
 axis signs=           1           1           1
  6     0.000000  0.000000  7.930976     0.000000 -0.000000  7.906236
  6     0.000000 -1.197463  7.214086     0.000000 -1.199154  7.199296
  6     0.000000 -1.198156  5.825552     0.000000 -1.197805  5.809090
  6     0.000000  0.000000  5.071663     0.000000 -0.000000  5.072812
  6     0.000000  0.000000  3.600325     0.000000 -0.000000  3.581930
  6     0.000000  1.198198  2.843555     0.000000  1.196911  2.842573
  6     0.000000  1.203918  1.463887     0.000000  1.200949  1.456658
  6     0.000000  0.000000  0.717584     0.000000 -0.000000  0.736487
  6     0.000000  0.000000 -0.727984     0.000000 -0.000000 -0.740709
  7     0.000000  1.204146 -1.376749     0.000000  1.191967 -1.364939
  6     0.000000  1.190858 -2.690902     0.000000  1.182695 -2.692493
  6     0.000000  0.000000 -3.467314     0.000000 -0.000000 -3.440801
  6     0.000000  0.000000 -4.902588     0.000000 -0.000000 -4.916340
  7     0.000000  1.206835 -5.551406     0.000000  1.192962 -5.533166
  6     0.000000  1.181102 -6.871713     0.000000  1.180727 -6.865048
  6     0.000000  0.000000 -7.622359     0.000000 -0.000000 -7.600655
  6     0.000000 -1.181102 -6.871713     0.000000 -1.180727 -6.865048
  7     0.000000 -1.206835 -5.551406     0.000000 -1.192962 -5.533166
  6     0.000000 -1.190858 -2.690902     0.000000 -1.182695 -2.692493
  7     0.000000 -1.204146 -1.376749     0.000000 -1.191967 -1.364939
  6     0.000000 -1.203918  1.463887     0.000000 -1.200949  1.456658
  6     0.000000 -1.198198  2.843555     0.000000 -1.196911  2.842573
  6     0.000000  1.198156  5.825552     0.000000  1.197805  5.809090
  6     0.000000  1.197463  7.214086     0.000000  1.199154  7.199296
  1     0.000000  0.000000  9.015312     0.000000 -0.000000  8.990489
  1     0.000000 -2.145714  7.743410     0.000000 -2.144374  7.731296
  1     0.000000 -2.152482  5.315735     0.000000 -2.151974  5.299546
  1     0.000000  2.156901  3.348553     0.000000  2.152500  3.348918
  1     0.000000  2.139450  0.918664     0.000000  2.135222  0.910955
  1     0.000000  2.150598 -3.200607     0.000000  2.142174 -3.197754
  1     0.000000  2.151814 -7.369813     0.000000  2.150242 -7.356077
  1     0.000000  0.000000 -8.705184     0.000000 -0.000000 -8.682889
  1     0.000000 -2.151814 -7.369813     0.000000 -2.150242 -7.356077
  1     0.000000 -2.150598 -3.200607     0.000000 -2.142174 -3.197754
  1     0.000000 -2.139450  0.918664     0.000000 -2.135222  0.910955
  1     0.000000 -2.156901  3.348553     0.000000 -2.152500  3.348918
  1     0.000000  2.152482  5.315735     0.000000  2.151974  5.299546
  1     0.000000  2.145714  7.743410     0.000000  2.144374  7.731296
 generating redundant internal coords
         300        3600          38
 Adding extra bonds for z output only
           6           6           6           6           6           6
           6           6           6           7           6           6
           6           7           6           6           6           7
           6           7           6           6           6           6
           1           1           1           1           1           1
           1           1           1           1           1           1
           1           1
 search for int coords
   1 str   2   1   1.396
   2 str   3   2   1.389
   3 str   4   3   1.416
   4 str   5   4   1.471
   5 str   6   5   1.417
   6 str   7   6   1.380
   7 str   8   7   1.416
   8 str   9   8   1.446
   9 str  10   9   1.368
  10 str  11  10   1.314
  11 str  12  11   1.422
  12 str  13  12   1.435
  13 str  14  13   1.370
  14 str  15  14   1.321
  15 str  16  15   1.399
  16 str  17  16   1.399
  17 str  18  13   1.370
  18 str  18  17   1.321
  19 str  19  12   1.422
  20 str  20   9   1.368
  21 str  20  19   1.314
  22 str  21   8   1.416
  23 str  22   5   1.417
  24 str  22  21   1.380
  25 str  23   4   1.416
  26 str  24   1   1.396
  27 str  24  23   1.389
  28 str  25   1   1.084
  29 str  26   2   1.086
  30 str  27   3   1.082
  31 str  28   6   1.084
  32 str  29   7   1.083
  33 str  30  11   1.087
  34 str  31  15   1.091
  35 str  32  16   1.083
  36 str  33  17   1.091
  37 str  34  19   1.087
  38 str  35  21   1.083
  39 str  36  22   1.084
  40 str  37  23   1.082
  41 str  38  24   1.086
 nber stretches=          41
  42 ben   1   2   3
  43 prop tor   1   2   3   4
  44 prop tor   1   2   3  27
  45 ben   1   2  26
  46 ben   1  24  23
  47 ben   1  24  38
  48 ben   2   1  24
  49 prop tor   2   1  24  23
  50 prop tor   2   1  24  38
  51 ben   2   1  25
  52 ben   2   3   4
  53 prop tor   2   3   4   5
  54 prop tor   2   3   4  23
  55 ben   2   3  27
  56 ben   3   2  26
  57 ben   3   4   5
  58 prop tor   3   4   5   6
  59 prop tor   3   4   5  22
  60 ben   3   4  23
  61 prop tor   3   4  23  24
  62 prop tor   3   4  23  37
  63 ben   4   3  27
  64 ben   4   5   6
  65 prop tor   4   5   6   7
  66 prop tor   4   5   6  28
  67 ben   4   5  22
  68 prop tor   4   5  22  21
  69 prop tor   4   5  22  36
  70 ben   4  23  24
  71 prop tor   4  23  24   1
  72 prop tor   4  23  24  38
  73 ben   4  23  37
  74 ben   5   4  23
  75 prop tor   5   4  23  24
  76 prop tor   5   4  23  37
  77 ben   5   6   7
  78 prop tor   5   6   7   8
  79 prop tor   5   6   7  29
  80 ben   5   6  28
  81 ben   5  22  21
  82 ben   5  22  36
  83 ben   6   5  22
  84 prop tor   6   5  22  21
  85 prop tor   6   5  22  36
  86 ben   6   7   8
  87 prop tor   6   7   8   9
  88 prop tor   6   7   8  21
  89 ben   6   7  29
  90 ben   7   6  28
  91 ben   7   8   9
  92 prop tor   7   8   9  10
  93 prop tor   7   8   9  20
  94 ben   7   8  21
  95 prop tor   7   8  21  22
  96 prop tor   7   8  21  35
  97 ben   8   7  29
  98 ben   8   9  10
  99 prop tor   8   9  10  11
 100 ben   8   9  20
 101 prop tor   8   9  20  19
 102 ben   8  21  22
 103 prop tor   8  21  22   5
 104 prop tor   8  21  22  36
 105 ben   8  21  35
 106 ben   9   8  21
 107 prop tor   9   8  21  22
 108 prop tor   9   8  21  35
 109 ben   9  10  11
 110 prop tor   9  10  11  12
 111 prop tor   9  10  11  30
 112 ben   9  20  19
 113 ben  10   9  20
 114 prop tor  10   9  20  19
 115 ben  10  11  12
 116 prop tor  10  11  12  13
 117 prop tor  10  11  12  19
 118 ben  10  11  30
 119 ben  11  12  13
 120 prop tor  11  12  13  14
 121 prop tor  11  12  13  18
 122 ben  11  12  19
 123 prop tor  11  12  19  20
 124 prop tor  11  12  19  34
 125 ben  12  11  30
 126 ben  12  13  14
 127 prop tor  12  13  14  15
 128 ben  12  13  18
 129 prop tor  12  13  18  17
 130 ben  12  19  20
 131 prop tor  12  19  20   9
 132 ben  12  19  34
 133 ben  13  12  19
 134 prop tor  13  12  19  20
 135 prop tor  13  12  19  34
 136 ben  13  14  15
 137 prop tor  13  14  15  16
 138 prop tor  13  14  15  31
 139 ben  13  18  17
 140 ben  14  13  18
 141 prop tor  14  13  18  17
 142 ben  14  15  16
 143 prop tor  14  15  16  17
 144 prop tor  14  15  16  32
 145 ben  14  15  31
 146 ben  15  16  17
 147 prop tor  15  16  17  18
 148 prop tor  15  16  17  33
 149 ben  15  16  32
 150 ben  16  15  31
 151 ben  16  17  18
 152 prop tor  16  17  18  13
 153 ben  16  17  33
 154 ben  17  16  32
 155 prop tor  18  13  14  15
 156 ben  18  17  33
 157 prop tor  19  12  13  14
 158 prop tor  19  12  13  18
 159 prop tor  20   9  10  11
 160 ben  20  19  34
 161 prop tor  21   8   9  10
 162 prop tor  21   8   9  20
 163 ben  21  22  36
 164 prop tor  22   5   6   7
 165 prop tor  22   5   6  28
 166 ben  22  21  35
 167 prop tor  23   4   5   6
 168 prop tor  23   4   5  22
 169 ben  23  24  38
 170 prop tor  24   1   2   3
 171 prop tor  24   1   2  26
 172 ben  24   1  25
 173 ben  24  23  37
 174 prop tor  25   1   2   3
 175 prop tor  25   1   2  26
 176 prop tor  25   1  24  23
 177 prop tor  25   1  24  38
 178 prop tor  26   2   3   4
 179 prop tor  26   2   3  27
 180 prop tor  27   3   4   5
 181 prop tor  27   3   4  23
 182 prop tor  28   6   7   8
 183 prop tor  28   6   7  29
 184 prop tor  29   7   8   9
 185 prop tor  29   7   8  21
 186 prop tor  30  11  12  13
 187 prop tor  30  11  12  19
 188 prop tor  31  15  16  17
[...]
  80 B2   1331.  0.4054    16.4   100.1  79 B2   1321.
                 0.4717    22.3          80 B2   1330.
                -0.7491    56.1          81 B2   1333.
  81 B2   1341. -0.8276    68.5    99.8  80 B2   1330.
                -0.5413    29.3          81 B2   1333.
  82 A1   1346. -0.9591    92.0    99.7  82 A1   1360.
  83 A1   1357. -0.9442    89.2    99.7  84 A1   1385.
  84 B2   1373.  0.9777    95.6    99.8  83 B2   1365.
  85 B2   1412. -0.5999    36.0    99.2  85 B2   1397.
                 0.4647    21.6          87 B2   1454.
                -0.4474    20.0          88 B2   1460.
  86 A1   1434.  0.9761    95.3    99.7  86 A1   1418.
  87 B2   1438.  0.3447    11.9    99.5  85 B2   1397.
                 0.8406    70.7          87 B2   1454.
  88 B2   1467.  0.6468    41.8    99.4  88 B2   1460.
                 0.6066    36.8          90 B2   1475.
  89 B2   1484. -0.4017    16.1    99.8  88 B2   1460.
                 0.6984    48.8          90 B2   1475.
                -0.5526    30.5          91 B2   1488.
  90 A1   1486. -0.8677    75.3    99.5  89 A1   1471.
  91 A1   1524.  0.9709    94.3    99.7  93 A1   1510.
  92 A1   1558.  0.9854    97.1    99.7  94 A1   1542.
  93 B2   1562. -0.5389    29.0    99.6  85 B2   1397.
                -0.6478    42.0          91 B2   1488.
  94 B2   1599.  0.7868    61.9    99.7  92 B2   1506.
                -0.5602    31.4          95 B2   1551.
  95 A1   1606.  0.4856    23.6   100.0  97 A1   1602.
                 0.7027    49.4          98 A1   1617.
                 0.5054    25.5          99 A1   1630.
  96 B2   1608. -0.5724    32.8    99.8  92 B2   1506.
                -0.7652    58.6          95 B2   1551.
  97 B2   1624. -0.9714    94.4    99.8  96 B2   1592.
  98 A1   1630.  0.6228    38.8   100.0  97 A1   1602.
                -0.6737    45.4          98 A1   1617.
  99 A1   1642.  0.5337    28.5   100.1  97 A1   1602.
                -0.7993    63.9          99 A1   1630.
 100 A1   1656. -0.9728    94.6   100.1 100 A1   1647.
 101 A1   3148. -0.9980    99.6   100.0 102 A1   3087.
 102 B2   3150.  0.9999   100.0   100.0 101 B2   3087.
 103 A1   3159. -0.9894    97.9   100.0 103 A1   3139.
 104 B2   3168.  0.9982    99.6   100.0 105 B2   3146.
 105 B2   3182. -0.9997    99.9   100.0 104 B2   3144.
 106 A1   3182.  0.5472    29.9   100.0 107 A1   3164.
                -0.7699    59.3         109 A1   3173.
 107 A1   3183. -0.9570    91.6   100.0 106 A1   3146.
 108 B2   3190. -0.9351    87.4   100.0 108 B2   3164.
                 0.3252    10.6         113 B2   3198.
 109 A1   3191. -0.7665    58.8   100.0 107 A1   3164.
                -0.5687    32.3         109 A1   3173.
 110 A1   3204.  0.9981    99.6   100.0 110 A1   3185.
 111 B2   3204. -0.9437    89.1   100.0 111 B2   3192.
 112 A1   3205.  0.9467    89.6   100.0 112 A1   3194.
 113 B2   3213.  0.9135    83.4   100.0 113 B2   3198.
 114 A1   3215.  0.9157    83.8   100.0 114 A1   3200.
 nber times 1st assigned=           1           0
 nber times 1st assigned=           2           0
 nber times 1st assigned=           3           0
 nber times 1st assigned=           4           0
 nber times 1st assigned=           5           0
 nber times 1st assigned=           6           0
 nber times 1st assigned=           7           0
 nber times 1st assigned=           8           0
 nber times 1st assigned=           9           0
 nber times 1st assigned=          10           0
 nber times 1st assigned=          11           0
 nber times 1st assigned=          12           0
 nber times 1st assigned=          13           0
 nber times 1st assigned=          14           0
 nber times 1st assigned=          15           0
 nber times 1st assigned=          16           0
 nber times 1st assigned=          17           0
 nber times 1st assigned=          18           0
 nber times 1st assigned=          19           0
 nber times 1st assigned=          20           0
 nber times 1st assigned=          21           0
 nber times 1st assigned=          22           0
 nber times 1st assigned=          23           0
 nber times 1st assigned=          24           0
 nber times 1st assigned=          25           0
 nber times 1st assigned=          26           0
 nber times 1st assigned=          27           0
 nber times 1st assigned=          28           0
 nber times 1st assigned=          29           0
 nber times 1st assigned=          30           0
 nber times 1st assigned=          31           0
 nber times 1st assigned=          32           0
 nber times 1st assigned=          33           0
 nber times 1st assigned=          34           0
 nber times 1st assigned=          35           0
 nber times 1st assigned=          36           0
 nber times 1st assigned=          37           0
 nber times 1st assigned=          38           0
 nber times 1st assigned=          39           0
 nber times 1st assigned=          40           0
 nber times 1st assigned=          41           0
 nber times 1st assigned=          42           0
 nber times 1st assigned=          43           0
 nber times 1st assigned=          44           0
 nber times 1st assigned=          45           0
 nber times 1st assigned=          46           0
 nber times 1st assigned=          47           0
 nber times 1st assigned=          48           0
 nber times 1st assigned=          49           0
 nber times 1st assigned=          50           0
 nber times 1st assigned=          51           0
 nber times 1st assigned=          52           0
 nber times 1st assigned=          53           0
 nber times 1st assigned=          54           0
 nber times 1st assigned=          55           0
 nber times 1st assigned=          56           0
 nber times 1st assigned=          57           0
 nber times 1st assigned=          58           0
 nber times 1st assigned=          59           0
 nber times 1st assigned=          60           0
 nber times 1st assigned=          61           0
 nber times 1st assigned=          62           0
 nber times 1st assigned=          63           0
 nber times 1st assigned=          64           0
 nber times 1st assigned=          65           0
 nber times 1st assigned=          66           0
 nber times 1st assigned=          67           0
 nber times 1st assigned=          68           0
 nber times 1st assigned=          69           0
 nber times 1st assigned=          70           0
 nber times 1st assigned=          71           0
 nber times 1st assigned=          72           0
 nber times 1st assigned=          73           0
 nber times 1st assigned=          74           0
 nber times 1st assigned=          75           0
 nber times 1st assigned=          76           0
 nber times 1st assigned=          77           0
 nber times 1st assigned=          78           0
 nber times 1st assigned=          79           0
 nber times 1st assigned=          80           0
 nber times 1st assigned=          81           0
 nber times 1st assigned=          82           0
 nber times 1st assigned=          83           0
 nber times 1st assigned=          84           0
 nber times 1st assigned=          85           0
 nber times 1st assigned=          86           0
 nber times 1st assigned=          87           0
 nber times 1st assigned=          88           0
 nber times 1st assigned=          89           0
 nber times 1st assigned=          90           0
 nber times 1st assigned=          91           0
 nber times 1st assigned=          92           0
 nber times 1st assigned=          93           0
 nber times 1st assigned=          94           0
 nber times 1st assigned=          95           0
 nber times 1st assigned=          96           0
 nber times 1st assigned=          97           0
 nber times 1st assigned=          98           0
 nber times 1st assigned=          99           0
 nber times 1st assigned=         100           0
 nber times 1st assigned=         101           0
 nber times 1st assigned=         102           0
 nber times 1st assigned=         103           0
 nber times 1st assigned=         104           0
 nber times 1st assigned=         105           0
 nber times 1st assigned=         106           0
 nber times 1st assigned=         107           0
 nber times 1st assigned=         108           0
 nber times 1st assigned=         109           0
 nber times 1st assigned=         110           0
 nber times 1st assigned=         111           0
 nber times 1st assigned=         112           0
 nber times 1st assigned=         113           0
 nber times 1st assigned=         114           0
 modes represented=   107.972283393214     
 p1=
   -0.    0.   -0.   -0.    0.   -0.    0.    0.   -0.   -0.   -0.    0.   -0.    0.    0.    7.    0.    0.    0.    1.
    0.   -0.    0.    0.    0.    0.   -0.   -1.    0.   -0.    0.   -0.    0.   -0.    0.   -0.   -0.   -0.    1.   -0.
    1.   -0.    0.   -0.   -0.    2.    0.    0.    0.    0.   -0.    0.    0.   -0.    0.   -0.   -2.   -0.    1.   -0.
   -0.   -0.    1.    1.    1.   -0.    0.    0.   -1.    0.   -0.   -1.    0.    1.   -0.   -0.   -2.   -0.   -0.   -0.
    0.   -2.   -3.   -0.    0.    4.    0.   -0.   -0.   -1.   -1.    1.   -0.    0.   -4.    0.    0.    2.    1.    0.
    0.    0.   -0.    0.   -0.    0.   -0.   -0.   -0.   -0.   -0.   -0.    0.   -0.
 p2=
    0.   -0.   -0.    0.    0.   -0.    0.    0.    0.   -0.   -0.    0.    0.   -0.    0.   -8.    0.   -0.   -0.   -1.
    0.    0.    0.    0.    0.   -0.    0.    1.   -0.    0.   -0.   -0.   -0.    0.    0.   -0.   -0.    0.   -1.    0.
   -0.   -0.   -2.    0.    2.   -0.   -0.    0.    0.   -0.   -0.   -0.   -0.    0.    2.   -0.    0.    0.    0.   -1.
   -1.   -0.    1.   -1.    1.    0.    0.   -1.    0.    0.   -0.   -0.   -1.    0.    1.   -0.   -0.   -2.   -0.    0.
    0.   -2.    0.   -2.    0.   -3.    0.    0.   -2.    0.    0.   -0.    2.   -1.   -0.    0.    0.    4.    3.    0.
   -0.    0.   -0.   -0.   -0.   -0.   -0.   -0.    0.    0.    0.   -0.    0.    0.

 Displacement: in terms of nc of 1 THEN of nc of 2

   1 A2  freq=   -79. Q= -0.000 lam=    -0.0 A2  freq=   -63. Q= -0.000 lam=    -0.0
   2 A1  freq=    -0. Q=  0.000 lam=    -0.0 B2  freq=    -0. Q=  0.000 lam=    -0.0
   3 B2  freq=    -0. Q= -0.000 lam=    -0.0 B1  freq=    -0. Q= -0.000 lam=    -0.0
   4 B1  freq=    -0. Q= -0.000 lam=    -0.0 A2  freq=    -0. Q= -0.000 lam=    -0.0
   5 B2  freq=     0. Q=  0.000 lam=     0.0 B1  freq=     0. Q=  0.000 lam=     0.0
   6 A2  freq=     0. Q= -0.000 lam=     0.0 B2  freq=     0. Q= -0.000 lam=     0.0
   7 B1  freq=     0. Q=  0.000 lam=     0.0 A1  freq=     0. Q=  0.000 lam=     0.0
   8 B1  freq=    21. Q=  0.000 lam=     0.0 B1  freq=    20. Q=  0.000 lam=     0.0
   9 A2  freq=    33. Q= -0.000 lam=     0.0 B2  freq=    52. Q= -0.000 lam=     0.0
  10 B2  freq=    53. Q= -0.000 lam=     0.0 A2  freq=    52. Q= -0.000 lam=     0.0
  11 B1  freq=    59. Q= -0.000 lam=     0.0 B1  freq=    57. Q= -0.000 lam=     0.0
  12 A2  freq=    67. Q=  0.000 lam=     0.0 A2  freq=   103. Q=  0.000 lam=     0.0
  13 B1  freq=   119. Q= -0.000 lam=     0.0 B1  freq=   111. Q= -0.000 lam=     0.0
  14 B2  freq=   133. Q=  0.000 lam=     0.0 B2  freq=   132. Q=  0.000 lam=     0.0
  15 B1  freq=   166. Q=  0.000 lam=     0.0 B1  freq=   154. Q=  0.000 lam=     0.0
  16 A1  freq=   174. Q=  0.395 lam=    13.5 A1  freq=   174. Q=  0.422 lam=    15.5
  17 B2  freq=   213. Q=  0.000 lam=     0.0 B2  freq=   210. Q=  0.000 lam=     0.0
  18 B1  freq=   258. Q=  0.000 lam=     0.0 B1  freq=   238. Q=  0.000 lam=     0.0
  19 B1  freq=   337. Q=  0.000 lam=     0.0 B1  freq=   309. Q=  0.000 lam=     0.0
  20 A1  freq=   338. Q=  0.111 lam=     2.1 A1  freq=   339. Q=  0.100 lam=     1.7
  21 B2  freq=   381. Q=  0.000 lam=     0.0 B2  freq=   382. Q=  0.000 lam=     0.0
  22 A2  freq=   396. Q= -0.000 lam=     0.0 B1  freq=   406. Q= -0.000 lam=     0.0
  23 A2  freq=   407. Q=  0.000 lam=     0.0 A2  freq=   408. Q=  0.000 lam=     0.0
  24 A2  freq=   414. Q=  0.000 lam=     0.0 A2  freq=   423. Q=  0.000 lam=     0.0
  25 A2  freq=   418. Q=  0.000 lam=     0.0 A2  freq=   428. Q=  0.000 lam=     0.0
  26 B2  freq=   442. Q=  0.000 lam=     0.0 B2  freq=   440. Q=  0.000 lam=     0.0
  27 B1  freq=   446. Q= -0.000 lam=     0.0 A2  freq=   451. Q= -0.000 lam=     0.0
  28 A1  freq=   481. Q= -0.083 lam=     1.7 A1  freq=   482. Q= -0.088 lam=     1.8
  29 B2  freq=   509. Q=  0.000 lam=     0.0 B1  freq=   492. Q=  0.000 lam=     0.0
  30 B1  freq=   515. Q= -0.000 lam=     0.0 B2  freq=   502. Q= -0.000 lam=     0.0
  31 B1  freq=   561. Q=  0.000 lam=     0.0 B1  freq=   533. Q=  0.000 lam=     0.0
  32 B1  freq=   593. Q= -0.000 lam=     0.0 B1  freq=   555. Q= -0.000 lam=     0.0
  33 B2  freq=   631. Q=  0.000 lam=     0.0 B2  freq=   630. Q=  0.000 lam=     0.0
  34 B2  freq=   645. Q= -0.000 lam=     0.0 B2  freq=   643. Q= -0.000 lam=     0.0
  35 B2  freq=   656. Q=  0.000 lam=     0.0 A1  freq=   644. Q=  0.011 lam=     0.0
  36 A1  freq=   656. Q= -0.008 lam=     0.0 B2  freq=   654. Q= -0.000 lam=     0.0
  37 B2  freq=   671. Q= -0.000 lam=     0.0 B2  freq=   669. Q= -0.000 lam=     0.0
  38 B1  freq=   696. Q= -0.000 lam=     0.0 B1  freq=   690. Q= -0.000 lam=     0.0
  39 A1  freq=   721. Q=  0.104 lam=     3.9 A1  freq=   701. Q=  0.092 lam=     2.9
  40 B1  freq=   740. Q= -0.000 lam=     0.0 B1  freq=   725. Q= -0.000 lam=     0.0
  41 A1  freq=   776. Q=  0.133 lam=     6.8 B1  freq=   744. Q=  0.000 lam=     0.0
  42 B1  freq=   779. Q= -0.000 lam=     0.0 B1  freq=   757. Q= -0.000 lam=     0.0
  43 B1  freq=   819. Q=  0.000 lam=     0.0 A1  freq=   760. Q=  0.187 lam=    13.3
  44 A2  freq=   824. Q= -0.000 lam=     0.0 B1  freq=   788. Q= -0.000 lam=     0.0
  45 B1  freq=   827. Q= -0.000 lam=     0.0 A1  freq=   799. Q= -0.272 lam=    29.4
  46 A1  freq=   830. Q=  0.248 lam=    25.5 A2  freq=   799. Q=  0.000 lam=     0.0
  47 B1  freq=   843. Q=  0.000 lam=     0.0 B1  freq=   808. Q=  0.000 lam=     0.0
  48 A2  freq=   854. Q=  0.000 lam=     0.0 A2  freq=   831. Q=  0.000 lam=     0.0
  49 B1  freq=   879. Q=  0.000 lam=     0.0 B1  freq=   845. Q=  0.000 lam=     0.0
  50 B1  freq=   923. Q=  0.000 lam=     0.0 B1  freq=   876. Q=  0.000 lam=     0.0
  51 A2  freq=   970. Q= -0.000 lam=     0.0 A2  freq=   947. Q= -0.000 lam=     0.0
  52 B1  freq=   993. Q=  0.000 lam=     0.0 B1  freq=   952. Q=  0.000 lam=     0.0
  53 A2  freq=   998. Q=  0.000 lam=     0.0 B1  freq=   961. Q=  0.000 lam=     0.0
  54 B1  freq=   999. Q= -0.000 lam=     0.0 B1  freq=   965. Q= -0.000 lam=     0.0
  55 B1  freq=  1003. Q=  0.000 lam=     0.0 A1  freq=   975. Q=  0.240 lam=    28.1
  56 A2  freq=  1004. Q= -0.000 lam=     0.0 A2  freq=   976. Q= -0.000 lam=     0.0
  57 A1  freq=  1009. Q= -0.315 lam=    50.1 B1  freq=   979. Q= -0.000 lam=     0.0
  58 B1  freq=  1013. Q= -0.000 lam=     0.0 A2  freq=   981. Q= -0.000 lam=     0.0
  59 A1  freq=  1014. Q=  0.118 lam=     7.0 A2  freq=   984. Q=  0.000 lam=     0.0
  60 A2  freq=  1016. Q= -0.000 lam=     0.0 A1  freq=   999. Q= -0.112 lam=     6.2
  61 A1  freq=  1022. Q= -0.053 lam=     1.4 A1  freq=  1011. Q= -0.164 lam=    13.7
  62 A1  freq=  1033. Q= -0.052 lam=     1.4 A1  freq=  1019. Q= -0.042 lam=     0.9
  63 A1  freq=  1045. Q=  0.144 lam=    10.9 A1  freq=  1023. Q=  0.104 lam=     5.6
  64 A1  freq=  1064. Q=  0.076 lam=     3.1 A1  freq=  1050. Q=  0.094 lam=     4.7
  65 A1  freq=  1075. Q=  0.071 lam=     2.7 A1  freq=  1053. Q=  0.109 lam=     6.3
  66 A1  freq=  1093. Q= -0.039 lam=     0.8 A1  freq=  1067. Q= -0.030 lam=     0.5
  67 B2  freq=  1112. Q=  0.000 lam=     0.0 B2  freq=  1087. Q=  0.000 lam=     0.0
  68 B2  freq=  1114. Q=  0.000 lam=     0.0 A1  freq=  1099. Q=  0.128 lam=     9.0
  69 A1  freq=  1129. Q= -0.151 lam=    12.8 B2  freq=  1102. Q= -0.000 lam=     0.0
  70 B2  freq=  1147. Q=  0.000 lam=     0.0 B2  freq=  1136. Q=  0.000 lam=     0.0
  71 B2  freq=  1188. Q= -0.000 lam=     0.0 B2  freq=  1175. Q= -0.000 lam=     0.0
  72 A1  freq=  1204. Q= -0.098 lam=     5.7 B2  freq=  1192. Q= -0.000 lam=     0.0
  73 B2  freq=  1225. Q=  0.000 lam=     0.0 A1  freq=  1194. Q=  0.140 lam=    11.6
  74 A1  freq=  1235. Q=  0.172 lam=    18.4 B2  freq=  1211. Q=  0.000 lam=     0.0
  75 B2  freq=  1238. Q= -0.000 lam=     0.0 A1  freq=  1220. Q= -0.191 lam=    22.3
  76 B2  freq=  1272. Q= -0.000 lam=     0.0 B2  freq=  1284. Q= -0.000 lam=     0.0
  77 A1  freq=  1286. Q= -0.281 lam=    50.8 B2  freq=  1290. Q= -0.000 lam=     0.0
  78 B2  freq=  1290. Q= -0.000 lam=     0.0 A1  freq=  1296. Q= -0.230 lam=    34.2
  79 B2  freq=  1303. Q= -0.000 lam=     0.0 B2  freq=  1321. Q= -0.000 lam=     0.0
  80 B2  freq=  1331. Q= -0.000 lam=     0.0 B2  freq=  1330. Q= -0.000 lam=     0.0
  81 B2  freq=  1341. Q=  0.000 lam=     0.0 B2  freq=  1333. Q=  0.000 lam=     0.0
  82 A1  freq=  1346. Q= -0.262 lam=    46.0 A1  freq=  1360. Q= -0.278 lam=    52.4
  83 A1  freq=  1357. Q= -0.425 lam=   122.7 B2  freq=  1365. Q= -0.000 lam=     0.0
  84 B2  freq=  1373. Q= -0.000 lam=     0.0 A1  freq=  1385. Q= -0.335 lam=    77.9
  85 B2  freq=  1412. Q=  0.000 lam=     0.0 B2  freq=  1397. Q=  0.000 lam=     0.0
  86 A1  freq=  1434. Q=  0.600 lam=   257.8 A1  freq=  1418. Q=  0.461 lam=   150.9
  87 B2  freq=  1438. Q=  0.000 lam=     0.0 B2  freq=  1454. Q=  0.000 lam=     0.0
  88 B2  freq=  1467. Q= -0.000 lam=     0.0 B2  freq=  1460. Q= -0.000 lam=     0.0
  89 B2  freq=  1484. Q= -0.000 lam=     0.0 A1  freq=  1471. Q= -0.380 lam=   106.2
  90 A1  freq=  1486. Q= -0.173 lam=    22.4 B2  freq=  1475. Q= -0.000 lam=     0.0
  91 A1  freq=  1524. Q= -0.194 lam=    28.7 B2  freq=  1488. Q= -0.000 lam=     0.0
  92 A1  freq=  1558. Q=  0.112 lam=     9.7 B2  freq=  1506. Q=  0.000 lam=     0.0
  93 B2  freq=  1562. Q= -0.000 lam=     0.0 A1  freq=  1510. Q= -0.277 lam=    57.7
  94 B2  freq=  1599. Q=  0.000 lam=     0.0 A1  freq=  1542. Q=  0.089 lam=     6.1
  95 A1  freq=  1606. Q= -0.700 lam=   393.9 B2  freq=  1551. Q= -0.000 lam=     0.0
  96 B2  freq=  1608. Q=  0.000 lam=     0.0 B2  freq=  1592. Q=  0.000 lam=     0.0
  97 B2  freq=  1624. Q=  0.000 lam=     0.0 A1  freq=  1602. Q=  0.051 lam=     2.1
  98 A1  freq=  1630. Q=  0.327 lam=    87.0 A1  freq=  1617. Q=  0.664 lam=   356.7
  99 A1  freq=  1642. Q=  0.148 lam=    18.0 A1  freq=  1630. Q=  0.436 lam=   155.2
 100 A1  freq=  1656. Q=  0.054 lam=     2.5 A1  freq=  1647. Q=  0.032 lam=     0.8
 101 A1  freq=  3148. Q=  0.043 lam=     2.9 B2  freq=  3087. Q=  0.000 lam=     0.0
 102 B2  freq=  3150. Q=  0.000 lam=     0.0 A1  freq=  3087. Q=  0.037 lam=     2.1
 103 A1  freq=  3159. Q= -0.015 lam=     0.4 A1  freq=  3139. Q= -0.016 lam=     0.4
 104 B2  freq=  3168. Q=  0.000 lam=     0.0 B2  freq=  3144. Q=  0.000 lam=     0.0
 105 B2  freq=  3182. Q= -0.000 lam=     0.0 B2  freq=  3146. Q= -0.000 lam=     0.0
 106 A1  freq=  3182. Q=  0.008 lam=     0.1 A1  freq=  3146. Q=  0.014 lam=     0.3
 107 A1  freq=  3183. Q= -0.018 lam=     0.5 A1  freq=  3164. Q= -0.018 lam=     0.5
 108 B2  freq=  3190. Q= -0.000 lam=     0.0 B2  freq=  3164. Q= -0.000 lam=     0.0
 109 A1  freq=  3191. Q= -0.010 lam=     0.2 A1  freq=  3173. Q= -0.002 lam=     0.0
 110 A1  freq=  3204. Q= -0.009 lam=     0.1 A1  freq=  3185. Q= -0.005 lam=     0.0
 111 B2  freq=  3204. Q= -0.000 lam=     0.0 B2  freq=  3192. Q= -0.000 lam=     0.0
 112 A1  freq=  3205. Q= -0.002 lam=     0.0 A1  freq=  3194. Q= -0.007 lam=     0.1
 113 B2  freq=  3213. Q=  0.000 lam=     0.0 B2  freq=  3198. Q=  0.000 lam=     0.0
 114 A1  freq=  3215. Q= -0.019 lam=     0.6 A1  freq=  3200. Q= -0.014 lam=     0.3

 total reorg energy (cm**-1, kcal/mol)=     1212.     1178.      3.47      3.37
 Nber of molecules processed=           2
