 Enter ifcurve (0=recti, 1=orth curvi, 2=apprx curvi, -1 = skip
 And atom ordering flag, 0= never changes, 1= use the first order thenceforth,
  2= deduce it (does read on fail), 3= always read it
 Reading file: 
 ./Benzene_Conj_5_C0S0.log                                                      
                                          
  Entering Gaussian System, Link 0=g16                                          
  
 Gaussian format, type: g94, g98, g03= F F F
  #P Geom=AllCheck Guess=TCheck SCRF=Check GenChk RB3LYP/6-311G(d,p) Fre    
 energy type= B3LYP   
 Original G94 input coords:
  6  6.163667 -1.409140  0.000000
  6  4.899767 -0.727864  0.000000
  6  3.693525 -1.407191  0.000000
  6  2.450616 -0.729028  0.000000
  6  1.230680 -1.408030  0.000000
  6  0.000000 -0.729599  0.000000
  6 -1.230680 -1.408030  0.000000
  6 -2.450616 -0.729028  0.000000
  6 -3.693525 -1.407191  0.000000
  6 -4.899767 -0.727864  0.000000
  6 -6.163667 -1.409140  0.000000
  6 -7.335169 -0.716572  0.000000
  6 -7.335169  0.716572  0.000000
  6 -6.163667  1.409140  0.000000
  6 -4.899767  0.727864  0.000000
  6 -3.693525  1.407191  0.000000
  6 -2.450616  0.729028  0.000000
  6 -1.230680  1.408030  0.000000
  6  0.000000  0.729599  0.000000
  6  1.230680  1.408030  0.000000
  6  2.450616  0.729028  0.000000
  6  3.693525  1.407191  0.000000
  6  4.899767  0.727864  0.000000
  6  6.163667  1.409140  0.000000
  6  7.335169  0.716572  0.000000
  6  7.335169 -0.716572  0.000000
  1  6.163802 -2.494321  0.000000
  1  3.694332 -2.492775  0.000000
  1  1.230970 -2.493533  0.000000
  1 -1.230970 -2.493533  0.000000
  1 -3.694332 -2.492775  0.000000
  1 -6.163802 -2.494321  0.000000
  1 -8.281293 -1.245651  0.000000
  1 -8.281293  1.245651  0.000000
  1 -6.163802  2.494321  0.000000
  1 -3.694332  2.492775  0.000000
  1 -1.230970  2.493533  0.000000
  1  1.230970  2.493533  0.000000
  1  3.694332  2.492775  0.000000
  1  6.163802  2.494321  0.000000
  1  8.281293  1.245651  0.000000
  1  8.281293 -1.245651  0.000000
 nber atoms=          42
 Original standard coords:
  6  0.000000  6.163667  1.409140
  6  0.000000  4.899767  0.727864
  6  0.000000  3.693525  1.407191
  6  0.000000  2.450616  0.729028
  6  0.000000  1.230680  1.408030
  6  0.000000  0.000000  0.729599
  6  0.000000 -1.230680  1.408030
  6  0.000000 -2.450616  0.729028
  6  0.000000 -3.693525  1.407191
  6  0.000000 -4.899767  0.727864
  6  0.000000 -6.163667  1.409140
  6  0.000000 -7.335169  0.716572
  6  0.000000 -7.335169 -0.716572
  6  0.000000 -6.163667 -1.409140
  6  0.000000 -4.899767 -0.727864
  6  0.000000 -3.693525 -1.407191
  6  0.000000 -2.450616 -0.729028
  6  0.000000 -1.230680 -1.408030
  6  0.000000  0.000000 -0.729599
  6  0.000000  1.230680 -1.408030
  6  0.000000  2.450616 -0.729028
  6  0.000000  3.693525 -1.407191
  6  0.000000  4.899767 -0.727864
  6  0.000000  6.163667 -1.409140
  6  0.000000  7.335169 -0.716572
  6  0.000000  7.335169  0.716572
  1  0.000000  6.163802  2.494321
  1  0.000000  3.694332  2.492775
  1  0.000000  1.230970  2.493533
  1  0.000000 -1.230970  2.493533
  1  0.000000 -3.694332  2.492775
  1  0.000000 -6.163802  2.494321
  1  0.000000 -8.281293  1.245651
  1  0.000000 -8.281293 -1.245651
  1  0.000000 -6.163802 -2.494321
  1  0.000000 -3.694332 -2.492775
  1  0.000000 -1.230970 -2.493533
  1  0.000000  1.230970 -2.493533
  1  0.000000  3.694332 -2.492775
  1  0.000000  6.163802 -2.494321
  1  0.000000  8.281293 -1.245651
  1  0.000000  8.281293  1.245651
  SCF Done:  E(RB3LYP) =  -1000.65540186     A.U. after    1 cycles             
  
          23          40 "  -1000.65540186"
After scan for Atom:   Atom  AN      X      Y      Z        X      Y      Z        X      Y      Z   
After scan for Atom:   Atom  AN      X      Y      Z        X      Y      Z        X      Y      Z   
After scan for Atom:   Atom  AN      X      Y      Z        X      Y      Z        X      Y      Z   
After scan for Atom:   Atom  AN      X      Y      Z        X      Y      Z        X      Y      Z   
After scan for Atom:   Atom  AN      X      Y      Z        X      Y      Z        X      Y      Z   
After scan for Atom:   Atom  AN      X      Y      Z        X      Y      Z        X      Y      Z   
After scan for Atom:   Atom  AN      X      Y      Z        X      Y      Z        X      Y      Z   
After scan for Atom:   Atom  AN      X      Y      Z        X      Y      Z        X      Y      Z   
After scan for Atom:   Atom  AN      X      Y      Z        X      Y      Z        X      Y      Z   
After scan for Atom:   Atom  AN      X      Y      Z        X      Y      Z        X      Y      Z   
After scan for Atom:   Atom  AN      X      Y      Z        X      Y      Z        X      Y      Z   
After scan for Atom:   Atom  AN      X      Y      Z        X      Y      Z        X      Y      Z   
After scan for Atom:   Atom  AN      X      Y      Z        X      Y      Z        X      Y      Z   
After scan for Atom:   Atom  AN      X      Y      Z        X      Y      Z        X      Y      Z   
After scan for Atom:   Atom  AN      X      Y      Z        X      Y      Z        X      Y      Z   
After scan for Atom:   Atom  AN      X      Y      Z        X      Y      Z        X      Y      Z   
After scan for Atom:   Atom  AN      X      Y      Z        X      Y      Z        X      Y      Z   
After scan for Atom:   Atom  AN      X      Y      Z        X      Y      Z        X      Y      Z   
After scan for Atom:   Atom  AN      X      Y      Z        X      Y      Z        X      Y      Z   
After scan for Atom:   Atom  AN      X      Y      Z        X      Y      Z        X      Y      Z   
After scan for Atom:   Atom  AN      X      Y      Z        X      Y      Z        X      Y      Z   
After scan for Atom:   Atom  AN      X      Y      Z        X      Y      Z        X      Y      Z   
After scan for Atom:   Atom  AN      X      Y      Z        X      Y      Z        X      Y      Z   
After scan for Atom:   Atom  AN      X      Y      Z        X      Y      Z        X      Y      Z   
After scan for Atom:   Atom  AN      X      Y      Z        X      Y      Z        X      Y      Z   
After scan for Atom:   Atom  AN      X      Y      Z        X      Y      Z        X      Y      Z   
After scan for Atom:   Atom  AN      X      Y      Z        X      Y      Z        X      Y      Z   
After scan for Atom:   Atom  AN      X      Y      Z        X      Y      Z        X      Y      Z   
After scan for Atom:   Atom  AN      X      Y      Z        X      Y      Z        X      Y      Z   
After scan for Atom:   Atom  AN      X      Y      Z        X      Y      Z        X      Y      Z   
After scan for Atom:   Atom  AN      X      Y      Z        X      Y      Z        X      Y      Z   
After scan for Atom:   Atom  AN      X      Y      Z        X      Y      Z        X      Y      Z   
After scan for Atom:   Atom  AN      X      Y      Z        X      Y      Z        X      Y      Z   
After scan for Atom:   Atom  AN      X      Y      Z        X      Y      Z        X      Y      Z   
After scan for Atom:   Atom  AN      X      Y      Z        X      Y      Z        X      Y      Z   
After scan for Atom:   Atom  AN      X      Y      Z        X      Y      Z        X      Y      Z   
After scan for Atom:   Atom  AN      X      Y      Z        X      Y      Z        X      Y      Z   
After scan for Atom:   Atom  AN      X      Y      Z        X      Y      Z        X      Y      Z   
After scan for Atom:   Atom  AN      X      Y      Z        X      Y      Z        X      Y      Z   
After scan for Atom:   Atom  AN      X      Y      Z        X      Y      Z        X      Y      Z   
 g94    frequencies=
     0.0    0.0    0.0    0.0    0.0    0.0   26.0   59.0   72.4   90.1
   122.0  140.4  190.1  193.4  223.6  224.8  276.5  296.3  308.1  369.5
   377.0  391.7  428.3  466.8  468.8  471.7  473.9  476.5  478.2  494.0
   529.6  545.6  562.5  579.0  630.9  642.8  647.9  672.0  702.9  739.0
   742.9  745.8  748.8  757.0  758.9  761.0  770.8  772.3  802.0  824.4
   831.1  839.3  843.9  846.2  863.4  866.4  887.0  899.0  901.0  905.7
   915.4  924.2  928.7  933.2  973.3  973.4  995.2  995.2 1014.5 1016.4
  1121.5 1149.5 1152.1 1183.4 1186.7 1197.6 1197.9 1205.2 1216.1 1228.1
  1261.2 1271.1 1293.8 1296.9 1305.2 1315.7 1327.3 1343.0 1351.1 1385.7
  1404.4 1418.2 1418.4 1420.6 1427.9 1434.4 1475.0 1476.2 1488.0 1530.2
  1546.6 1555.8 1575.4 1578.2 1580.7 1615.0 1629.0 1651.5 1671.2 1675.9
  3154.5 3155.1 3156.3 3156.4 3157.2 3157.6 3159.1 3159.2 3161.0 3161.0
  3162.3 3164.1 3175.8 3175.8 3188.3 3188.4
 g94    symmetries=
                                                B3     AU     B1     B1
      B2     B3     B3     AU     B1     AG     B2     B1     B3     AU
      B1     B3     B2     B3     B1     B3     B3     B1     B1     B3
      B2     AU     B1     AG     B2     AG     B2     B3     B2     AU
      B2     B1     B3     AG     B2     AG     AU     B2     B1     B1
      B2     AU     B2     B3     AU     B3     B2     AG     B1     AU
      B2     B3     B1     B3     B1     B3     AU     B2     B2     AG
      B2     B3     B1     AG     B2     AG     B3     B1     B3     B2
      B1     AG     B1     B3     B3     B1     B1     B2     B2     B3
      AG     AG     B2     B1     AG     B2     B3     AG     B2     AG
      AG     B2     B2     AG     B1     B3     B3     B1     B1     B3
      B3     B1     B2     B3     AG     B1     B3     B2     B1     AG
      B2     AG     B3     B1     B2     AG
 atomic masses:
 12.0000 12.0000 12.0000 12.0000 12.0000 12.0000 12.0000 12.0000 12.0000 12.0000
 12.0000 12.0000 12.0000 12.0000 12.0000 12.0000 12.0000 12.0000 12.0000 12.0000
 12.0000 12.0000 12.0000 12.0000 12.0000 12.0000  1.0078  1.0078  1.0078  1.0078
  1.0078  1.0078  1.0078  1.0078  1.0078  1.0078  1.0078  1.0078  1.0078  1.0078
  1.0078  1.0078
 looking for force constants in 
 ./Benzene_Conj_5_C0S0.fchk                                                     
  
 Cartesian Force Constants                  R   N=        8001                  
  
 n3=         126        8001
 g94-fc frequencies=
    -2.2   -2.1   -0.0   -0.0    0.0    5.5   26.0   59.0   72.4   90.1
   122.0  140.4  190.1  193.4  223.6  224.8  276.5  296.3  308.1  369.6
   377.0  391.7  428.3  466.8  468.9  471.7  473.9  476.5  478.3  494.0
   529.6  545.6  562.5  579.0  631.0  642.8  647.9  672.0  702.9  739.0
   742.9  745.8  748.8  757.0  758.9  761.1  770.8  772.3  802.1  824.4
   831.1  839.3  844.0  846.2  863.4  866.5  887.1  899.0  901.0  905.7
   915.5  924.3  928.7  933.3  973.3  973.4  995.2  995.2 1014.5 1016.4
  1121.5 1149.5 1152.1 1183.4 1186.8 1197.6 1197.9 1205.2 1216.1 1228.2
  1261.2 1271.1 1293.8 1296.9 1305.2 1315.8 1327.3 1343.0 1351.1 1385.7
  1404.4 1418.2 1418.5 1420.6 1427.9 1434.4 1475.0 1476.3 1488.1 1530.2
  1546.7 1555.9 1575.5 1578.2 1580.8 1615.0 1629.1 1651.6 1671.3 1676.0
  3154.6 3155.2 3156.4 3156.5 3157.3 3157.7 3159.1 3159.2 3161.1 3161.1
  3162.3 3164.2 3175.8 3175.9 3188.3 3188.5
 at 99999: n3=         126
 symm operator            1 :  T  nop=           1
 symm operator            2 :  T  nop=           2
 symm operator            3 :  T  nop=           3
 symm operator            4 :  T  nop=           4
 symm operator            5 :  T  nop=           5
 symm operator            6 :  T  nop=           6
 symm operator            7 :  T  nop=           7
 The point group of the molecule is D2H
 enforcing symm op           1  jsymt=          -1          -1           1
 enforcing symm op           2  jsymt=          -1           1          -1
 enforcing symm op           3  jsymt=           1          -1          -1
 enforcing symm op           4  jsymt=          -1          -1          -1
 enforcing symm op           5  jsymt=           1           1          -1
 enforcing symm op           6  jsymt=           1          -1           1
 enforcing symm op           7  jsymt=          -1           1           1
 cartesian coord symmetries:
 Ag :   21 Au :   10 B1g:   10 B1u:   21 B2g:   11 B2u:   21 B3g:   21 B3u:   11
 Symmetry rotation matrix:
   1.00000   0.00000   0.00000
   0.00000   1.00000   0.00000
   0.00000   0.00000   1.00000

 Projecting out zero-frequency components
 generating redundant internal coords
         300        3600          42
 search for int coords
   1 str   2   1   1.436
   2 str   3   2   1.384
   3 str   4   3   1.416
   4 str   5   4   1.396
   5 str   6   5   1.405
   6 str   7   6   1.405
   7 str   8   7   1.396
   8 str   9   8   1.416
   9 str  10   9   1.384
  10 str  11  10   1.436
  11 str  12  11   1.361
  12 str  13  12   1.433
  13 str  14  13   1.361
  14 str  15  10   1.456
  15 str  15  14   1.436
  16 str  16  15   1.384
  17 str  17   8   1.458
  18 str  17  16   1.416
  19 str  18  17   1.396
  20 str  19   6   1.459
  21 str  19  18   1.405
  22 str  20  19   1.405
  23 str  21   4   1.458
  24 str  21  20   1.396
  25 str  22  21   1.416
  26 str  23   2   1.456
  27 str  23  22   1.384
  28 str  24  23   1.436
  29 str  25  24   1.361
  30 str  26   1   1.361
  31 str  26  25   1.433
  32 str  27   1   1.085
  33 str  28   3   1.086
  34 str  29   5   1.086
  35 str  30   7   1.086
  36 str  31   9   1.086
  37 str  32  11   1.085
  38 str  33  12   1.084
  39 str  34  13   1.084
  40 str  35  14   1.085
  41 str  36  16   1.086
  42 str  37  18   1.086
  43 str  38  20   1.086
  44 str  39  22   1.086
  45 str  40  24   1.085
  46 str  41  25   1.084
  47 str  42  26   1.084
 nber stretches=          47
  48 ben   1   2   3
  49 prop tor   1   2   3   4
  50 prop tor   1   2   3  28
  51 ben   1   2  23
  52 prop tor   1   2  23  22
  53 prop tor   1   2  23  24
  54 ben   1  26  25
  55 ben   1  26  42
  56 ben   2   1  26
  57 prop tor   2   1  26  25
  58 prop tor   2   1  26  42
  59 ben   2   1  27
  60 ben   2   3   4
  61 prop tor   2   3   4   5
  62 prop tor   2   3   4  21
  63 ben   2   3  28
  64 ben   2  23  22
  65 ben   2  23  24
  66 prop tor   2  23  24  25
  67 prop tor   2  23  24  40
  68 ben   3   2  23
  69 prop tor   3   2  23  22
  70 prop tor   3   2  23  24
  71 ben   3   4   5
  72 prop tor   3   4   5   6
  73 prop tor   3   4   5  29
  74 ben   3   4  21
  75 prop tor   3   4  21  20
  76 prop tor   3   4  21  22
  77 ben   4   3  28
  78 ben   4   5   6
  79 prop tor   4   5   6   7
  80 prop tor   4   5   6  19
  81 ben   4   5  29
  82 ben   4  21  20
  83 ben   4  21  22
  84 prop tor   4  21  22  23
  85 prop tor   4  21  22  39
  86 ben   5   4  21
  87 prop tor   5   4  21  20
  88 prop tor   5   4  21  22
  89 ben   5   6   7
  90 prop tor   5   6   7   8
  91 prop tor   5   6   7  30
  92 ben   5   6  19
  93 prop tor   5   6  19  18
  94 prop tor   5   6  19  20
  95 ben   6   5  29
  96 ben   6   7   8
  97 prop tor   6   7   8   9
  98 prop tor   6   7   8  17
  99 ben   6   7  30
 100 ben   6  19  18
 101 ben   6  19  20
 102 prop tor   6  19  20  21
 103 prop tor   6  19  20  38
 104 ben   7   6  19
 105 prop tor   7   6  19  18
 106 prop tor   7   6  19  20
 107 ben   7   8   9
 108 prop tor   7   8   9  10
 109 prop tor   7   8   9  31
 110 ben   7   8  17
 111 prop tor   7   8  17  16
 112 prop tor   7   8  17  18
 113 ben   8   7  30
 114 ben   8   9  10
 115 prop tor   8   9  10  11
 116 prop tor   8   9  10  15
 117 ben   8   9  31
 118 ben   8  17  16
 119 ben   8  17  18
 120 prop tor   8  17  18  19
 121 prop tor   8  17  18  37
 122 ben   9   8  17
 123 prop tor   9   8  17  16
 124 prop tor   9   8  17  18
 125 ben   9  10  11
 126 prop tor   9  10  11  12
 127 prop tor   9  10  11  32
 128 ben   9  10  15
 129 prop tor   9  10  15  14
 130 prop tor   9  10  15  16
 131 ben  10   9  31
 132 ben  10  11  12
 133 prop tor  10  11  12  13
 134 prop tor  10  11  12  33
 135 ben  10  11  32
 136 ben  10  15  14
 137 ben  10  15  16
 138 prop tor  10  15  16  17
 139 prop tor  10  15  16  36
 140 ben  11  10  15
 141 prop tor  11  10  15  14
 142 prop tor  11  10  15  16
 143 ben  11  12  13
 144 prop tor  11  12  13  14
 145 prop tor  11  12  13  34
 146 ben  11  12  33
 147 ben  12  11  32
 148 ben  12  13  14
 149 prop tor  12  13  14  15
 150 prop tor  12  13  14  35
 151 ben  12  13  34
 152 ben  13  12  33
 153 ben  13  14  15
 154 prop tor  13  14  15  10
 155 prop tor  13  14  15  16
 156 ben  13  14  35
 157 ben  14  13  34
 158 ben  14  15  16
 159 prop tor  14  15  16  17
 160 prop tor  14  15  16  36
 161 prop tor  15  10  11  12
 162 prop tor  15  10  11  32
 163 ben  15  14  35
 164 ben  15  16  17
 165 prop tor  15  16  17   8
 166 prop tor  15  16  17  18
 167 ben  15  16  36
 168 ben  16  17  18
 169 prop tor  16  17  18  19
 170 prop tor  16  17  18  37
 171 prop tor  17   8   9  10
 172 prop tor  17   8   9  31
 173 ben  17  16  36
 174 ben  17  18  19
 175 prop tor  17  18  19   6
 176 prop tor  17  18  19  20
 177 ben  17  18  37
 178 ben  18  19  20
 179 prop tor  18  19  20  21
 180 prop tor  18  19  20  38
 181 prop tor  19   6   7   8
 182 prop tor  19   6   7  30
 183 ben  19  18  37
 184 ben  19  20  21
 185 prop tor  19  20  21   4
 186 prop tor  19  20  21  22
 187 ben  19  20  38
 188 ben  20  21  22
 189 prop tor  20  21  22  23
 190 prop tor  20  21  22  39
 191 prop tor  21   4   5   6
 192 prop tor  21   4   5  29
 193 ben  21  20  38
 194 ben  21  22  23
 195 prop tor  21  22  23   2
 196 prop tor  21  22  23  24
 197 ben  21  22  39
 198 ben  22  23  24
 199 prop tor  22  23  24  25
 200 prop tor  22  23  24  40
 201 prop tor  23   2   3   4
 202 prop tor  23   2   3  28
 203 ben  23  22  39
 204 ben  23  24  25
 205 prop tor  23  24  25  26
 206 prop tor  23  24  25  41
 207 ben  23  24  40
 208 ben  24  25  26
 209 prop tor  24  25  26   1
 210 prop tor  24  25  26  42
 211 ben  24  25  41
 212 ben  25  24  40
 213 ben  25  26  42
 214 prop tor  26   1   2   3
 215 prop tor  26   1   2  23
 216 ben  26   1  27
 217 ben  26  25  41
 218 prop tor  27   1   2   3
 219 prop tor  27   1   2  23
 220 prop tor  27   1  26  25
 221 prop tor  27   1  26  42
 222 prop tor  28   3   4   5
 223 prop tor  28   3   4  21
 224 prop tor  29   5   6   7
 225 prop tor  29   5   6  19
 226 prop tor  30   7   8   9
 227 prop tor  30   7   8  17
 228 prop tor  31   9  10  11
 229 prop tor  31   9  10  15
 230 prop tor  32  11  12  13
 231 prop tor  32  11  12  33
 232 prop tor  33  12  13  14
 233 prop tor  33  12  13  34
 234 prop tor  34  13  14  15
 235 prop tor  34  13  14  35
 236 prop tor  35  14  15  10
 237 prop tor  35  14  15  16
 238 prop tor  36  16  17   8
 239 prop tor  36  16  17  18
 240 prop tor  37  18  19   6
 241 prop tor  37  18  19  20
 242 prop tor  38  20  21   4
 243 prop tor  38  20  21  22
 244 prop tor  39  22  23   2
 245 prop tor  39  22  23  24
 246 prop tor  40  24  25  26
 247 prop tor  40  24  25  41
 248 prop tor  41  25  26   1
 249 prop tor  41  25  26  42
 nber bend=              78
 nber lin bend=           0
 nber prop tor=         124
 nber impr tor=           0
 nber tot redund int=         249
 Eigenvalues of G in red int coords
    Gval -0.00000000 -0.00000000 -0.00000000 -0.00000000 -0.00000000 -0.00000000 -0.00000000 -0.00000000
    Gval -0.00000000 -0.00000000 -0.00000000 -0.00000000 -0.00000000 -0.00000000 -0.00000000 -0.00000000
    Gval -0.00000000 -0.00000000 -0.00000000 -0.00000000 -0.00000000 -0.00000000 -0.00000000 -0.00000000
    Gval -0.00000000 -0.00000000 -0.00000000 -0.00000000 -0.00000000 -0.00000000 -0.00000000 -0.00000000
    Gval -0.00000000 -0.00000000 -0.00000000 -0.00000000 -0.00000000 -0.00000000 -0.00000000 -0.00000000
    Gval -0.00000000 -0.00000000 -0.00000000 -0.00000000 -0.00000000 -0.00000000 -0.00000000 -0.00000000
    Gval -0.00000000 -0.00000000 -0.00000000 -0.00000000 -0.00000000 -0.00000000 -0.00000000 -0.00000000
    Gval -0.00000000 -0.00000000 -0.00000000 -0.00000000 -0.00000000 -0.00000000 -0.00000000 -0.00000000
    Gval  0.00000000  0.00000000  0.00000000  0.00000000  0.00000000  0.00000000  0.00000000  0.00000000
    Gval  0.00000000  0.00000000  0.00000000  0.00000000  0.00000000  0.00000000  0.00000000  0.00000000
    Gval  0.00000000  0.00000000  0.00000000  0.00000000  0.00000000  0.00000000  0.00000000  0.00000000
    Gval  0.00000000  0.00000000  0.00000000  0.00000000  0.00000000  0.00000000  0.00000000  0.00000000
    Gval  0.00000000  0.00000000  0.00000000  0.00000000  0.00000000  0.00000000  0.00000000  0.00000000
    Gval  0.00000000  0.00000000  0.00000000  0.00000000  0.00000000  0.00000000  0.00000000  0.00000000
    Gval  0.00000000  0.00000000  0.00000000  0.00000000  0.00000000  0.00000000  0.00000000  0.00000000
    Gval  0.00000000  0.00000000  0.00000000  0.00000000  0.00000000  0.00000000  0.00000000  0.00000000
    Gval  0.00000000  0.00000106  0.00000296  0.00000313  0.00000596  0.00001147  0.00001716  0.00001990
    Gval  0.00002282  0.00002449  0.00002906  0.00003745  0.00003835  0.00004018  0.00004047  0.00004474
    Gval  0.00005145  0.00005262  0.00005812  0.00005935  0.00006477  0.00007355  0.00007366  0.00007956
    Gval  0.00007965  0.00008104  0.00008423  0.00008493  0.00009995  0.00010262  0.00010986  0.00012114
    Gval  0.00012366  0.00013494  0.00013828  0.00014092  0.00015645  0.00016889  0.00018085  0.00019564
    Gval  0.00019611  0.00020069  0.00024276  0.00026229  0.00028071  0.00031530  0.00032133  0.00032811
    Gval  0.00034487  0.00036469  0.00037568  0.00038235  0.00038386  0.00041005  0.00041310  0.00041434
    Gval  0.00041522  0.00041793  0.00044352  0.00047986  0.00052021  0.00059310  0.00059310  0.00059684
    Gval  0.00059684  0.00060801  0.00061040  0.00061625  0.00061813  0.00062465  0.00062662  0.00063413
    Gval  0.00064089  0.00064424  0.00065466  0.00065695  0.00065746  0.00071106  0.00075466  0.00075650
    Gval  0.00082287  0.00083017  0.00093319  0.00096984  0.00105057  0.00105059  0.00110622  0.00111176
    Gval  0.00111191  0.00111501  0.00111777  0.00112181  0.00112416  0.00112555  0.00112809  0.00113073
    Gval  0.00116207  0.00116207  0.00117010  0.00117010  0.00154320  0.00173823  0.00176971  0.00177000
    Gval  0.00187601  0.00196645  0.00202181  0.00256737  0.00257260  0.00274412  0.00280077  0.00293540
    Gval  0.00300641  0.00316837  0.00322163  0.00337477  0.00338063  0.00356945  0.00358022  0.00400109
    Gval  0.00400116
  1.063262312877117E-006  1.063262312877117E-006
  2.955359036540388E-006  1.063262312877117E-006
  3.126845234733005E-006  1.063262312877117E-006
  5.955479126720484E-006  1.063262312877117E-006
  1.147164631244905E-005  1.063262312877117E-006
  1.715689666584608E-005  1.063262312877117E-006
  1.989653560285235E-005  1.063262312877117E-006
  2.281704161486002E-005  1.063262312877117E-006
  2.449030302204720E-005  1.063262312877117E-006
  2.905755404996532E-005  1.063262312877117E-006
  3.745104158073653E-005  1.063262312877117E-006
  3.835332169165529E-005  1.063262312877117E-006
  4.018448099916092E-005  1.063262312877117E-006
  4.047420952927348E-005  1.063262312877117E-006
  4.474161314361997E-005  1.063262312877117E-006
  5.144702806348481E-005  1.063262312877117E-006
  5.262060472374015E-005  1.063262312877117E-006
  5.811503594232286E-005  1.063262312877117E-006
  5.934934578817731E-005  1.063262312877117E-006
  6.477053217805381E-005  1.063262312877117E-006
  7.354516946711904E-005  1.063262312877117E-006
  7.365725842508965E-005  1.063262312877117E-006
  7.956470472640066E-005  1.063262312877117E-006
  7.965250740868701E-005  1.063262312877117E-006
  8.104208344450172E-005  1.063262312877117E-006
  8.422810149000349E-005  1.063262312877117E-006
  8.493153317957675E-005  1.063262312877117E-006
  9.995243708669241E-005  1.063262312877117E-006
  1.026178328732168E-004  1.063262312877117E-006
  1.098584834215561E-004  1.063262312877117E-006
  1.211392427271300E-004  1.063262312877117E-006
  1.236642353427780E-004  1.063262312877117E-006
  1.349358734387615E-004  1.063262312877117E-006
  1.382777567622018E-004  1.063262312877117E-006
  1.409188945349415E-004  1.063262312877117E-006
  1.564452238395359E-004  1.063262312877117E-006
  1.688949605331784E-004  1.063262312877117E-006
  1.808508914769964E-004  1.063262312877117E-006
  1.956403220699173E-004  1.063262312877117E-006
  1.961126635686399E-004  1.063262312877117E-006
  2.006857527056157E-004  1.063262312877117E-006
  2.427613354017682E-004  1.063262312877117E-006
  2.622937088565794E-004  1.063262312877117E-006
  2.807098808793762E-004  1.063262312877117E-006
  3.153014996691771E-004  1.063262312877117E-006
  3.213302501549444E-004  1.063262312877117E-006
  3.281077418139642E-004  1.063262312877117E-006
  3.448704879990901E-004  1.063262312877117E-006
  3.646917017657963E-004  1.063262312877117E-006
  3.756782651101525E-004  1.063262312877117E-006
  3.823490114705296E-004  1.063262312877117E-006
  3.838561301579914E-004  1.063262312877117E-006
  4.100513403964859E-004  1.063262312877117E-006
  4.131008823719210E-004  1.063262312877117E-006
  4.143411992217102E-004  1.063262312877117E-006
  4.152223776451336E-004  1.063262312877117E-006
  4.179310348743236E-004  1.063262312877117E-006
  4.435218683275104E-004  1.063262312877117E-006
  4.798594957552615E-004  1.063262312877117E-006
  5.202139597436442E-004  1.063262312877117E-006
  5.930952604854968E-004  1.063262312877117E-006
  5.930957102160079E-004  1.063262312877117E-006
  5.968376936107447E-004  1.063262312877117E-006
  5.968394400611146E-004  1.063262312877117E-006
  6.080067712683641E-004  1.063262312877117E-006
  6.103981778360176E-004  1.063262312877117E-006
  6.162482278391445E-004  1.063262312877117E-006
  6.181336060492753E-004  1.063262312877117E-006
  6.246493837490768E-004  1.063262312877117E-006
  6.266172471505558E-004  1.063262312877117E-006
  6.341307152831901E-004  1.063262312877117E-006
  6.408942247911963E-004  1.063262312877117E-006
  6.442387018638761E-004  1.063262312877117E-006
  6.546636111597582E-004  1.063262312877117E-006
  6.569500057006876E-004  1.063262312877117E-006
  6.574555725143232E-004  1.063262312877117E-006
  7.110615427182280E-004  1.063262312877117E-006
  7.546568506762325E-004  1.063262312877117E-006
  7.565028593162127E-004  1.063262312877117E-006
  8.228693834870181E-004  1.063262312877117E-006
  8.301701561131366E-004  1.063262312877117E-006
  9.331926345530665E-004  1.063262312877117E-006
  9.698352481343595E-004  1.063262312877117E-006
  1.050568425544472E-003  1.063262312877117E-006
  1.050587931770579E-003  1.063262312877117E-006
  1.106220194930163E-003  1.063262312877117E-006
  1.111762826896388E-003  1.063262312877117E-006
  1.111912994209476E-003  1.063262312877117E-006
  1.115006204938523E-003  1.063262312877117E-006
  1.117769275428317E-003  1.063262312877117E-006
  1.121807115010600E-003  1.063262312877117E-006
  1.124158275029500E-003  1.063262312877117E-006
  1.125551852899552E-003  1.063262312877117E-006
  1.128086945826935E-003  1.063262312877117E-006
  1.130726948180290E-003  1.063262312877117E-006
  1.162070306558790E-003  1.063262312877117E-006
  1.162070991069236E-003  1.063262312877117E-006
  1.170095726782087E-003  1.063262312877117E-006
  1.170095726793775E-003  1.063262312877117E-006
  1.543196959785053E-003  1.063262312877117E-006
  1.738232354391400E-003  1.063262312877117E-006
  1.769713891370678E-003  1.063262312877117E-006
  1.769999721653846E-003  1.063262312877117E-006
  1.876007338332891E-003  1.063262312877117E-006
  1.966451474859048E-003  1.063262312877117E-006
  2.021807502102178E-003  1.063262312877117E-006
  2.567365746961622E-003  1.063262312877117E-006
  2.572602995724361E-003  1.063262312877117E-006
  2.744124828381007E-003  1.063262312877117E-006
  2.800765183377200E-003  1.063262312877117E-006
  2.935404138466606E-003  1.063262312877117E-006
  3.006411828895300E-003  1.063262312877117E-006
  3.168370056208765E-003  1.063262312877117E-006
  3.221626062217825E-003  1.063262312877117E-006
  3.374765193432531E-003  1.063262312877117E-006
  3.380632702421795E-003  1.063262312877117E-006
  3.569453954297309E-003  1.063262312877117E-006
  3.580220764874945E-003  1.063262312877117E-006
  4.001093162232613E-003  1.063262312877117E-006
  4.001163744203357E-003  1.063262312877117E-006
 cut=1d-8, nber non-redundant internal coords=         120
 Check on Eigenvals of non-red overlap matrix:
  0.00000106  0.00000296  0.00000313  0.00000596  0.00001147  0.00001716  0.00001990  0.00002282
  0.00002449  0.00002906  0.00003745  0.00003835  0.00004018  0.00004047  0.00004474  0.00005145
  0.00005262  0.00005812  0.00005935  0.00006477  0.00007355  0.00007366  0.00007956  0.00007965
  0.00008104  0.00008423  0.00008493  0.00009995  0.00010262  0.00010986  0.00012114  0.00012366
  0.00013494  0.00013828  0.00014092  0.00015645  0.00016889  0.00018085  0.00019564  0.00019611
  0.00020069  0.00024276  0.00026229  0.00028071  0.00031530  0.00032133  0.00032811  0.00034487
  0.00036469  0.00037568  0.00038235  0.00038386  0.00041005  0.00041310  0.00041434  0.00041522
  0.00041793  0.00044352  0.00047986  0.00052021  0.00059310  0.00059310  0.00059684  0.00059684
  0.00060801  0.00061040  0.00061625  0.00061813  0.00062465  0.00062662  0.00063413  0.00064089
  0.00064424  0.00065466  0.00065695  0.00065746  0.00071106  0.00075466  0.00075650  0.00082287
  0.00083017  0.00093319  0.00096984  0.00105057  0.00105059  0.00110622  0.00111176  0.00111191
  0.00111501  0.00111777  0.00112181  0.00112416  0.00112555  0.00112809  0.00113073  0.00116207
  0.00116207  0.00117010  0.00117010  0.00154320  0.00173823  0.00176971  0.00177000  0.00187601
  0.00196645  0.00202181  0.00256737  0.00257260  0.00274412  0.00280077  0.00293540  0.00300641
  0.00316837  0.00322163  0.00337477  0.00338063  0.00356945  0.00358022  0.00400109  0.00400116
 Checking for correct frequencies
 recalc frequencies=
    -0.0   -0.0   -0.0   -0.0    0.0    0.0   26.0   59.0   72.4   90.1
   122.0  140.4  190.1  193.4  223.6  224.8  276.5  296.3  308.1  369.6
   377.0  391.7  428.3  466.8  468.9  471.7  473.9  476.5  478.3  494.0
   529.6  545.6  562.5  579.0  631.0  642.8  647.9  672.0  702.9  739.0
   742.9  745.8  748.8  757.0  758.9  761.1  770.8  772.3  802.1  824.4
   831.1  839.3  844.0  846.2  863.4  866.5  887.1  899.0  901.0  905.7
   915.5  924.3  928.7  933.3  973.3  973.4  995.2  995.2 1014.5 1016.4
  1121.5 1149.5 1152.1 1183.4 1186.8 1197.6 1197.9 1205.2 1216.1 1228.2
  1261.2 1271.1 1293.8 1296.9 1305.2 1315.8 1327.3 1343.0 1351.1 1385.7
  1404.4 1418.2 1418.5 1420.6 1427.9 1434.4 1475.0 1476.3 1488.1 1530.2
  1546.7 1555.9 1575.5 1578.2 1580.8 1615.0 1629.1 1651.6 1671.3 1676.0
  3154.6 3155.2 3156.4 3156.5 3157.3 3157.7 3159.1 3159.2 3161.1 3161.1
  3162.3 3164.2 3175.8 3175.9 3188.3 3188.5
 recalc symmetries=
     B2u    B1u    B2g    B3u    B1g    B3g    B3u    Au     B1g    B1u
     B2g    B3u    B3g    Au     B1g    Ag     B2g    B1u    B3u    Au 
     B1g    B3g    B2u    B3u    B1g    B3u    B3u    B1g    B1u    B3g
     B2g    Au     B1u    Ag     B2u    Ag     B2u    B3g    B2g    Au 
     B2u    B1g    B3u    Ag     B2g    Ag     Au     B2g    B1u    B1g
     B2u    Au     B2g    B3g    Au     B3u    B2g    Ag     B1g    Au 
     B2g    B3u    B1u    B3g    B1g    B3u    Au     B2g    B2u    Ag 
     B2u    B3g    B1u    Ag     B2u    Ag     B3g    B1u    B3g    B2u
     B1u    Ag     B1u    B3g    B3g    B1u    B1u    B2u    B2u    B3g
     Ag     Ag     B2u    B1u    Ag     B2u    B3g    Ag     B2u    Ag 
     Ag     B2u    B2u    Ag     B1u    B3g    B3g    B1u    B1u    B3g
     B3g    B1u    B2u    B3g    Ag     B1u    B3g    B2u    B1u    Ag 
     B2u    Ag     B3g    B1u    B2u    Ag 
 recalc freqs check OK
 Zero-point lengths:
 10.0000 10.0000 10.0000 10.0000 10.0000 10.0000 48.6465 32.2661 29.1267 26.1109
 22.4485 20.9188 17.9826 17.8261 16.5782 16.5355 14.9086 14.4024 14.1245 12.8961
 12.7681 12.5262 11.9788 11.4746 11.4493 11.4146 11.3880 11.3571 11.3361 11.1539
 10.7726 10.6136 10.4528 10.3024  9.8696  9.7784  9.7396  9.5631  9.3507  9.1195
  9.0956  9.0776  9.0597  9.0104  8.9993  8.9865  8.9292  8.9209  8.7538  8.6345
  8.5994  8.5574  8.5336  8.5224  8.4369  8.4221  8.3238  8.2682  8.2590  8.2376
  8.1936  8.1545  8.1348  8.1151  7.9464  7.9459  7.8586  7.8585  7.7832  7.7761
  7.4028  7.3120  7.3039  7.2066  7.1964  7.1636  7.1628  7.1410  7.1090  7.0741
  6.9808  6.9536  6.8923  6.8840  6.8621  6.8345  6.8047  6.7648  6.7445  6.6597
  6.6153  6.5830  6.5824  6.5775  6.5606  6.5457  6.4550  6.4523  6.4266  6.3375
  6.3037  6.2850  6.2458  6.2404  6.2354  6.1689  6.1422  6.1003  6.0642  6.0556
  4.4139  4.4135  4.4127  4.4126  4.4120  4.4118  4.4108  4.4107  4.4094  4.4094
  4.4085  4.4072  4.3991  4.3991  4.3905  4.3904
 highest evec of mol 1
  0.0000  0.0068 -0.0586
  0.0000  0.0025  0.0004
  0.0000 -0.0001 -0.0049
  0.0000 -0.0001  0.0001
  0.0000  0.0000 -0.0021
  0.0000  0.0000  0.0000
  0.0000 -0.0000 -0.0021
  0.0000  0.0001  0.0001
  0.0000  0.0001 -0.0049
  0.0000 -0.0025  0.0004
  0.0000 -0.0068 -0.0586
  0.0000  0.1199 -0.0660
  0.0000  0.1199  0.0660
  0.0000 -0.0068  0.0586
  0.0000 -0.0025 -0.0004
  0.0000  0.0001  0.0049
  0.0000  0.0001 -0.0001
  0.0000 -0.0000  0.0021
  0.0000  0.0000 -0.0000
  0.0000  0.0000  0.0021
  0.0000 -0.0001 -0.0001
  0.0000 -0.0001  0.0049
  0.0000  0.0025 -0.0004
  0.0000  0.0068  0.0586
  0.0000 -0.1199  0.0660
  0.0000 -0.1199 -0.0660
  0.0000 -0.0017  0.1811
  0.0000 -0.0005  0.0164
  0.0000 -0.0000  0.0067
  0.0000  0.0000  0.0067
  0.0000  0.0005  0.0164
  0.0000  0.0017  0.1811
  0.0000 -0.3845  0.2163
  0.0000 -0.3845 -0.2163
  0.0000  0.0017 -0.1811
  0.0000  0.0005 -0.0164
  0.0000  0.0000 -0.0067
  0.0000 -0.0000 -0.0067
  0.0000 -0.0005 -0.0164
  0.0000 -0.0017 -0.1811
  0.0000  0.3845 -0.2163
  0.0000  0.3845  0.2163
 generating redundant internal coords
         300        3600          42
 Adding extra bonds for z output only
           6           6           6           6           6           6
           6           6           6           6           6           6
           6           6           6           6           6           6
           6           6           6           6           6           6
           6           6           1           1           1           1
           1           1           1           1           1           1
           1           1           1           1           1           1
 search for int coords
   1 str   2   1   1.436
   2 str   3   2   1.384
   3 str   4   3   1.416
   4 str   5   4   1.396
   5 str   6   5   1.405
   6 str   7   6   1.405
   7 str   8   7   1.396
   8 str   9   8   1.416
   9 str  10   9   1.384
  10 str  11  10   1.436
  11 str  12  11   1.361
  12 str  13  12   1.433
  13 str  14  13   1.361
  14 str  15  10   1.456
  15 str  15  14   1.436
  16 str  16  15   1.384
  17 str  17   8   1.458
  18 str  17  16   1.416
  19 str  18  17   1.396
  20 str  19   6   1.459
  21 str  19  18   1.405
  22 str  20  19   1.405
  23 str  21   4   1.458
  24 str  21  20   1.396
  25 str  22  21   1.416
  26 str  23   2   1.456
  27 str  23  22   1.384
  28 str  24  23   1.436
  29 str  25  24   1.361
  30 str  26   1   1.361
  31 str  26  25   1.433
  32 str  27   1   1.085
  33 str  28   3   1.086
  34 str  29   5   1.086
  35 str  30   7   1.086
  36 str  31   9   1.086
  37 str  32  11   1.085
  38 str  33  12   1.084
  39 str  34  13   1.084
  40 str  35  14   1.085
  41 str  36  16   1.086
  42 str  37  18   1.086
  43 str  38  20   1.086
  44 str  39  22   1.086
  45 str  40  24   1.085
  46 str  41  25   1.084
  47 str  42  26   1.084
 nber stretches=          47
  48 ben   1   2   3
  49 prop tor   1   2   3   4
  50 prop tor   1   2   3  28
  51 ben   1   2  23
  52 prop tor   1   2  23  22
  53 prop tor   1   2  23  24
  54 ben   1  26  25
  55 ben   1  26  42
  56 ben   2   1  26
  57 prop tor   2   1  26  25
  58 prop tor   2   1  26  42
  59 ben   2   1  27
  60 ben   2   3   4
  61 prop tor   2   3   4   5
  62 prop tor   2   3   4  21
  63 ben   2   3  28
  64 ben   2  23  22
  65 ben   2  23  24
  66 prop tor   2  23  24  25
  67 prop tor   2  23  24  40
  68 ben   3   2  23
  69 prop tor   3   2  23  22
  70 prop tor   3   2  23  24
  71 ben   3   4   5
  72 prop tor   3   4   5   6
  73 prop tor   3   4   5  29
  74 ben   3   4  21
  75 prop tor   3   4  21  20
  76 prop tor   3   4  21  22
  77 ben   4   3  28
  78 ben   4   5   6
  79 prop tor   4   5   6   7
  80 prop tor   4   5   6  19
  81 ben   4   5  29
  82 ben   4  21  20
  83 ben   4  21  22
  84 prop tor   4  21  22  23
  85 prop tor   4  21  22  39
  86 ben   5   4  21
  87 prop tor   5   4  21  20
  88 prop tor   5   4  21  22
  89 ben   5   6   7
  90 prop tor   5   6   7   8
  91 prop tor   5   6   7  30
  92 ben   5   6  19
  93 prop tor   5   6  19  18
  94 prop tor   5   6  19  20
  95 ben   6   5  29
  96 ben   6   7   8
  97 prop tor   6   7   8   9
  98 prop tor   6   7   8  17
  99 ben   6   7  30
 100 ben   6  19  18
 101 ben   6  19  20
 102 prop tor   6  19  20  21
 103 prop tor   6  19  20  38
 104 ben   7   6  19
 105 prop tor   7   6  19  18
 106 prop tor   7   6  19  20
 107 ben   7   8   9
 108 prop tor   7   8   9  10
 109 prop tor   7   8   9  31
 110 ben   7   8  17
 111 prop tor   7   8  17  16
 112 prop tor   7   8  17  18
 113 ben   8   7  30
 114 ben   8   9  10
 115 prop tor   8   9  10  11
 116 prop tor   8   9  10  15
 117 ben   8   9  31
 118 ben   8  17  16
 119 ben   8  17  18
 120 prop tor   8  17  18  19
 121 prop tor   8  17  18  37
 122 ben   9   8  17
 123 prop tor   9   8  17  16
 124 prop tor   9   8  17  18
 125 ben   9  10  11
 126 prop tor   9  10  11  12
 127 prop tor   9  10  11  32
 128 ben   9  10  15
 129 prop tor   9  10  15  14
 130 prop tor   9  10  15  16
 131 ben  10   9  31
 132 ben  10  11  12
 133 prop tor  10  11  12  13
 134 prop tor  10  11  12  33
 135 ben  10  11  32
 136 ben  10  15  14
 137 ben  10  15  16
 138 prop tor  10  15  16  17
 139 prop tor  10  15  16  36
 140 ben  11  10  15
 141 prop tor  11  10  15  14
 142 prop tor  11  10  15  16
 143 ben  11  12  13
 144 prop tor  11  12  13  14
 145 prop tor  11  12  13  34
 146 ben  11  12  33
 147 ben  12  11  32
 148 ben  12  13  14
 149 prop tor  12  13  14  15
 150 prop tor  12  13  14  35
 151 ben  12  13  34
 152 ben  13  12  33
 153 ben  13  14  15
 154 prop tor  13  14  15  10
 155 prop tor  13  14  15  16
 156 ben  13  14  35
 157 ben  14  13  34
 158 ben  14  15  16
 159 prop tor  14  15  16  17
 160 prop tor  14  15  16  36
 161 prop tor  15  10  11  12
 162 prop tor  15  10  11  32
 163 ben  15  14  35
 164 ben  15  16  17
 165 prop tor  15  16  17   8
 166 prop tor  15  16  17  18
 167 ben  15  16  36
 168 ben  16  17  18
 169 prop tor  16  17  18  19
 170 prop tor  16  17  18  37
 171 prop tor  17   8   9  10
 172 prop tor  17   8   9  31
 173 ben  17  16  36
 174 ben  17  18  19
 175 prop tor  17  18  19   6
 176 prop tor  17  18  19  20
 177 ben  17  18  37
 178 ben  18  19  20
 179 prop tor  18  19  20  21
 180 prop tor  18  19  20  38
 181 prop tor  19   6   7   8
 182 prop tor  19   6   7  30
 183 ben  19  18  37
 184 ben  19  20  21
 185 prop tor  19  20  21   4
 186 prop tor  19  20  21  22
 187 ben  19  20  38
 188 ben  20  21  22
 189 prop tor  20  21  22  23
 190 prop tor  20  21  22  39
 191 prop tor  21   4   5   6
 192 prop tor  21   4   5  29
 193 ben  21  20  38
 194 ben  21  22  23
 195 prop tor  21  22  23   2
 196 prop tor  21  22  23  24
 197 ben  21  22  39
 198 ben  22  23  24
 199 prop tor  22  23  24  25
 200 prop tor  22  23  24  40
 201 prop tor  23   2   3   4
 202 prop tor  23   2   3  28
 203 ben  23  22  39
 204 ben  23  24  25
 205 prop tor  23  24  25  26
 206 prop tor  23  24  25  41
 207 ben  23  24  40
 208 ben  24  25  26
 209 prop tor  24  25  26   1
 210 prop tor  24  25  26  42
 211 ben  24  25  41
 212 ben  25  24  40
 213 ben  25  26  42
 214 prop tor  26   1   2   3
 215 prop tor  26   1   2  23
 216 ben  26   1  27
 217 ben  26  25  41
 218 prop tor  27   1   2   3
 219 prop tor  27   1   2  23
 220 prop tor  27   1  26  25
 221 prop tor  27   1  26  42
 222 prop tor  28   3   4   5
 223 prop tor  28   3   4  21
 224 prop tor  29   5   6   7
 225 prop tor  29   5   6  19
 226 prop tor  30   7   8   9
 227 prop tor  30   7   8  17
 228 prop tor  31   9  10  11
 229 prop tor  31   9  10  15
 230 prop tor  32  11  12  13
 231 prop tor  32  11  12  33
 232 prop tor  33  12  13  14
 233 prop tor  33  12  13  34
 234 prop tor  34  13  14  15
 235 prop tor  34  13  14  35
 236 prop tor  35  14  15  10
 237 prop tor  35  14  15  16
 238 prop tor  36  16  17   8
 239 prop tor  36  16  17  18
 240 prop tor  37  18  19   6
 241 prop tor  37  18  19  20
 242 prop tor  38  20  21   4
 243 prop tor  38  20  21  22
 244 prop tor  39  22  23   2
 245 prop tor  39  22  23  24
 246 prop tor  40  24  25  26
 247 prop tor  40  24  25  41
 248 prop tor  41  25  26   1
 249 prop tor  41  25  26  42
 nber bend=              78
 nber lin bend=           0
 nber prop tor=         124
 nber impr tor=           0
 nber tot redund int=         249
 Reading file: 
 ./Benzene_Conj_5_C0S1.log                                                      
                                          
  Entering Gaussian System, Link 0=g16                                          
  
 Gaussian format, type: g94, g98, g03= F F F
  #P Geom=AllCheck Guess=TCheck SCRF=Check GenChk RB3LYP TD(FC,Read)/6-3    
 energy type= TD      
 Original G94 input coords:
  6  6.169602 -1.401170  0.000000
  6  4.926508 -0.721208  0.000000
  6  3.692181 -1.402016  0.000000
  6  2.467692 -0.727516  0.000000
  6  1.229254 -1.402722  0.000000
  6  0.000000 -0.729355  0.000000
  6 -1.229254 -1.402722  0.000000
  6 -2.467692 -0.727516  0.000000
  6 -3.692181 -1.402016  0.000000
  6 -4.926508 -0.721208  0.000000
  6 -6.169602 -1.401170  0.000000
  6 -7.360754 -0.705702  0.000000
  6 -7.360754  0.705702  0.000000
  6 -6.169602  1.401170  0.000000
  6 -4.926508  0.721208  0.000000
  6 -3.692181  1.402016  0.000000
  6 -2.467692  0.727516  0.000000
  6 -1.229254  1.402722  0.000000
  6  0.000000  0.729355  0.000000
  6  1.229254  1.402722  0.000000
  6  2.467692  0.727516  0.000000
  6  3.692181  1.402016  0.000000
  6  4.926508  0.721208  0.000000
  6  6.169602  1.401170  0.000000
  6  7.360754  0.705702  0.000000
  6  7.360754 -0.705702  0.000000
  1  6.170551 -2.486414  0.000000
  1  3.694304 -2.487774  0.000000
  1  1.229838 -2.488553  0.000000
  1 -1.229838 -2.488553  0.000000
  1 -3.694304 -2.487774  0.000000
  1 -6.170551 -2.486414  0.000000
  1 -8.302138 -1.242962  0.000000
  1 -8.302138  1.242962  0.000000
  1 -6.170551  2.486414  0.000000
  1 -3.694304  2.487774  0.000000
  1 -1.229838  2.488553  0.000000
  1  1.229838  2.488553  0.000000
  1  3.694304  2.487774  0.000000
  1  6.170551  2.486414  0.000000
  1  8.302138  1.242962  0.000000
  1  8.302138 -1.242962  0.000000
 nber atoms=          42
 Original standard coords:
  6  0.000000  6.169602  1.401170
  6  0.000000  4.926508  0.721208
  6  0.000000  3.692181  1.402016
  6  0.000000  2.467692  0.727516
  6  0.000000  1.229254  1.402722
  6  0.000000  0.000000  0.729355
  6  0.000000 -1.229254  1.402722
  6  0.000000 -2.467692  0.727516
  6  0.000000 -3.692181  1.402016
  6  0.000000 -4.926508  0.721208
  6  0.000000 -6.169602  1.401170
  6  0.000000 -7.360754  0.705702
  6  0.000000 -7.360754 -0.705702
  6  0.000000 -6.169602 -1.401170
  6  0.000000 -4.926508 -0.721208
  6  0.000000 -3.692181 -1.402016
  6  0.000000 -2.467692 -0.727516
  6  0.000000 -1.229254 -1.402722
  6  0.000000  0.000000 -0.729355
  6  0.000000  1.229254 -1.402722
  6  0.000000  2.467692 -0.727516
  6  0.000000  3.692181 -1.402016
  6  0.000000  4.926508 -0.721208
  6  0.000000  6.169602 -1.401170
  6  0.000000  7.360754 -0.705702
  6  0.000000  7.360754  0.705702
  1  0.000000  6.170551  2.486414
  1  0.000000  3.694304  2.487774
  1  0.000000  1.229838  2.488553
  1  0.000000 -1.229838  2.488553
  1  0.000000 -3.694304  2.487774
  1  0.000000 -6.170551  2.486414
  1  0.000000 -8.302138  1.242962
  1  0.000000 -8.302138 -1.242962
  1  0.000000 -6.170551 -2.486414
  1  0.000000 -3.694304 -2.487774
  1  0.000000 -1.229838 -2.488553
  1  0.000000  1.229838 -2.488553
  1  0.000000  3.694304 -2.487774
  1  0.000000  6.170551 -2.486414
  1  0.000000  8.302138 -1.242962
  1  0.000000  8.302138  1.242962
  Total Energy, E(TD-HF/TD-DFT) =  -1000.60448311                               
  
          32          49 "  -1000.60448311"
After scan for Atom:   Atom  AN      X      Y      Z        X      Y      Z        X      Y      Z   
After scan for Atom:   Atom  AN      X      Y      Z        X      Y      Z        X      Y      Z   
After scan for Atom:   Atom  AN      X      Y      Z        X      Y      Z        X      Y      Z   
After scan for Atom:   Atom  AN      X      Y      Z        X      Y      Z        X      Y      Z   
After scan for Atom:   Atom  AN      X      Y      Z        X      Y      Z        X      Y      Z   
After scan for Atom:   Atom  AN      X      Y      Z        X      Y      Z        X      Y      Z   
After scan for Atom:   Atom  AN      X      Y      Z        X      Y      Z        X      Y      Z   
After scan for Atom:   Atom  AN      X      Y      Z        X      Y      Z        X      Y      Z   
After scan for Atom:   Atom  AN      X      Y      Z        X      Y      Z        X      Y      Z   
After scan for Atom:   Atom  AN      X      Y      Z        X      Y      Z        X      Y      Z   
After scan for Atom:   Atom  AN      X      Y      Z        X      Y      Z        X      Y      Z   
After scan for Atom:   Atom  AN      X      Y      Z        X      Y      Z        X      Y      Z   
After scan for Atom:   Atom  AN      X      Y      Z        X      Y      Z        X      Y      Z   
After scan for Atom:   Atom  AN      X      Y      Z        X      Y      Z        X      Y      Z   
After scan for Atom:   Atom  AN      X      Y      Z        X      Y      Z        X      Y      Z   
After scan for Atom:   Atom  AN      X      Y      Z        X      Y      Z        X      Y      Z   
After scan for Atom:   Atom  AN      X      Y      Z        X      Y      Z        X      Y      Z   
After scan for Atom:   Atom  AN      X      Y      Z        X      Y      Z        X      Y      Z   
After scan for Atom:   Atom  AN      X      Y      Z        X      Y      Z        X      Y      Z   
After scan for Atom:   Atom  AN      X      Y      Z        X      Y      Z        X      Y      Z   
After scan for Atom:   Atom  AN      X      Y      Z        X      Y      Z        X      Y      Z   
After scan for Atom:   Atom  AN      X      Y      Z        X      Y      Z        X      Y      Z   
After scan for Atom:   Atom  AN      X      Y      Z        X      Y      Z        X      Y      Z   
After scan for Atom:   Atom  AN      X      Y      Z        X      Y      Z        X      Y      Z   
After scan for Atom:   Atom  AN      X      Y      Z        X      Y      Z        X      Y      Z   
After scan for Atom:   Atom  AN      X      Y      Z        X      Y      Z        X      Y      Z   
After scan for Atom:   Atom  AN      X      Y      Z        X      Y      Z        X      Y      Z   
After scan for Atom:   Atom  AN      X      Y      Z        X      Y      Z        X      Y      Z   
After scan for Atom:   Atom  AN      X      Y      Z        X      Y      Z        X      Y      Z   
After scan for Atom:   Atom  AN      X      Y      Z        X      Y      Z        X      Y      Z   
After scan for Atom:   Atom  AN      X      Y      Z        X      Y      Z        X      Y      Z   
After scan for Atom:   Atom  AN      X      Y      Z        X      Y      Z        X      Y      Z   
After scan for Atom:   Atom  AN      X      Y      Z        X      Y      Z        X      Y      Z   
After scan for Atom:   Atom  AN      X      Y      Z        X      Y      Z        X      Y      Z   
After scan for Atom:   Atom  AN      X      Y      Z        X      Y      Z        X      Y      Z   
After scan for Atom:   Atom  AN      X      Y      Z        X      Y      Z        X      Y      Z   
After scan for Atom:   Atom  AN      X      Y      Z        X      Y      Z        X      Y      Z   
After scan for Atom:   Atom  AN      X      Y      Z        X      Y      Z        X      Y      Z   
After scan for Atom:   Atom  AN      X      Y      Z        X      Y      Z        X      Y      Z   
After scan for Atom:   Atom  AN      X      Y      Z        X      Y      Z        X      Y      Z   
 g94    frequencies=
     0.0    0.0    0.0    0.0    0.0    0.0   25.7   56.2   71.8   89.1
   121.1  138.6  190.1  194.1  219.3  223.7  276.1  296.4  318.2  353.1
   363.7  391.6  424.2  428.4  443.9  452.5  470.7  472.8  476.1  492.0
   542.2  548.1  567.9  575.0  626.7  630.6  635.5  675.5  678.5  701.8
   704.0  747.3  747.9  750.0  752.3  753.0  754.0  767.8  805.6  807.6
   823.4  833.1  838.0  848.7  851.3  855.3  870.6  883.4  888.7  893.9
   898.7  906.0  924.9  929.2  951.2  951.4  981.0  981.0 1042.6 1042.7
  1139.2 1141.8 1173.5 1180.1 1192.2 1204.3 1205.3 1206.6 1221.0 1226.6
  1277.2 1280.6 1290.6 1293.0 1299.4 1305.5 1318.1 1322.0 1360.5 1367.7
  1385.0 1408.8 1415.9 1424.7 1428.5 1431.2 1469.6 1475.7 1502.3 1518.7
  1527.4 1532.2 1539.0 1573.4 1576.8 1597.2 1609.0 1635.1 1639.0 1649.8
  3152.4 3153.6 3153.9 3155.4 3155.5 3157.0 3157.6 3158.2 3158.8 3159.7
  3161.9 3162.5 3175.6 3175.6 3189.2 3189.5
 g94    symmetries=
                                                B3     AU     B1     B1
      B2     B3     B3     AU     B1     AG     B2     B1     B3     AU
      B1     B3     B2     B3     B3     B1     B3     B1     B1     B3
      B2     AU     B1     AG     B2     B2     AG     B3     B2     ?A
      ?A     B1     B3     ?B     AG     B2     ?B     AG     ?C     ?C
      B1     B2     B2     B3     AU     B3     B2     B1     AU     ?D
      ?D     AG     B1     B3     B1     B3     AU     B2     B2     AG
      B3     B1     B2     AG     B2     B3     AG     B1     B3     B2
      AG     B1     B1     B3     B3     B1     B2     B1     B2     B3
      AG     AG     B2     AG     B2     B1     AG     B3     B2     AG
      B2     AG     B1     B2     AG     B3     B3     B1     B1     B3
      B3     B2     B1     AG     B3     B1     B2     B3     B1     AG
      B2     AG     ?E     ?E     B2     AG
 atomic masses:
 12.0000 12.0000 12.0000 12.0000 12.0000 12.0000 12.0000 12.0000 12.0000 12.0000
 12.0000 12.0000 12.0000 12.0000 12.0000 12.0000 12.0000 12.0000 12.0000 12.0000
 12.0000 12.0000 12.0000 12.0000 12.0000 12.0000  1.0078  1.0078  1.0078  1.0078
  1.0078  1.0078  1.0078  1.0078  1.0078  1.0078  1.0078  1.0078  1.0078  1.0078
  1.0078  1.0078
 looking for force constants in 
 ./Benzene_Conj_5_C0S1.fchk                                                     
  
 Cartesian Force Constants                  R   N=        8001                  
  
 n3=         126        8001
 g94-fc frequencies=
    -2.5   -2.4   -0.0   -0.0    0.0    5.3   25.7   56.2   71.8   89.1
   121.1  138.7  190.1  194.1  219.3  223.7  276.1  296.4  318.2  353.1
   363.7  391.6  424.2  428.4  443.9  452.5  470.7  472.8  476.1  492.0
   542.2  548.1  567.9  575.0  626.7  630.6  635.5  675.6  678.5  701.9
   704.0  747.3  747.9  750.0  752.3  753.0  754.0  767.8  805.6  807.6
   823.4  833.1  838.0  848.8  851.4  855.4  870.6  883.4  888.7  893.9
   898.8  906.0  925.0  929.3  951.3  951.4  981.0  981.0 1042.7 1042.7
  1139.3 1141.9 1173.6 1180.1 1192.3 1204.3 1205.3 1206.7 1221.0 1226.6
  1277.3 1280.6 1290.7 1293.0 1299.4 1305.5 1318.2 1322.1 1360.6 1367.7
  1385.1 1408.8 1415.9 1424.8 1428.5 1431.2 1469.7 1475.7 1502.3 1518.8
  1527.4 1532.3 1539.1 1573.5 1576.9 1597.2 1609.0 1635.1 1639.1 1649.8
  3152.5 3153.7 3154.0 3155.5 3155.6 3157.0 3157.6 3158.3 3158.8 3159.7
  3161.9 3162.5 3175.7 3175.7 3189.3 3189.6
 at 99999: n3=         126
 symm operator            1 :  T  nop=           1
 symm operator            2 :  T  nop=           2
 symm operator            3 :  T  nop=           3
 symm operator            4 :  T  nop=           4
 symm operator            5 :  T  nop=           5
 symm operator            6 :  T  nop=           6
 symm operator            7 :  T  nop=           7
 The point group of the molecule is D2H
 enforcing symm op           1  jsymt=          -1          -1           1
 enforcing symm op           2  jsymt=          -1           1          -1
 enforcing symm op           3  jsymt=           1          -1          -1
 enforcing symm op           4  jsymt=          -1          -1          -1
 enforcing symm op           5  jsymt=           1           1          -1
 enforcing symm op           6  jsymt=           1          -1           1
 enforcing symm op           7  jsymt=          -1           1           1
 cartesian coord symmetries:
 Ag :   21 Au :   10 B1g:   10 B1u:   21 B2g:   11 B2u:   21 B3g:   21 B3u:   11
 Symmetry rotation matrix:
   1.00000   0.00000   0.00000
   0.00000   1.00000   0.00000
   0.00000   0.00000   1.00000

 Projecting out zero-frequency components
 generating redundant internal coords
         300        3600          42
 search for int coords
   1 str   2   1   1.417
   2 str   3   2   1.410
   3 str   4   3   1.398
   4 str   5   4   1.411
   5 str   6   5   1.402
   6 str   7   6   1.402
   7 str   8   7   1.411
   8 str   9   8   1.398
   9 str  10   9   1.410
  10 str  11  10   1.417
  11 str  12  11   1.379
  12 str  13  12   1.411
  13 str  14  13   1.379
  14 str  15  10   1.442
  15 str  15  14   1.417
  16 str  16  15   1.410
  17 str  17   8   1.455
  18 str  17  16   1.398
  19 str  18  17   1.411
  20 str  19   6   1.459
  21 str  19  18   1.402
  22 str  20  19   1.402
  23 str  21   4   1.455
  24 str  21  20   1.411
  25 str  22  21   1.398
  26 str  23   2   1.442
  27 str  23  22   1.410
  28 str  24  23   1.417
  29 str  25  24   1.379
  30 str  26   1   1.379
  31 str  26  25   1.411
  32 str  27   1   1.085
  33 str  28   3   1.086
  34 str  29   5   1.086
  35 str  30   7   1.086
  36 str  31   9   1.086
  37 str  32  11   1.085
  38 str  33  12   1.084
  39 str  34  13   1.084
  40 str  35  14   1.085
  41 str  36  16   1.086
  42 str  37  18   1.086
  43 str  38  20   1.086
  44 str  39  22   1.086
  45 str  40  24   1.085
  46 str  41  25   1.084
  47 str  42  26   1.084
 nber stretches=          47
  48 ben   1   2   3
  49 prop tor   1   2   3   4
  50 prop tor   1   2   3  28
  51 ben   1   2  23
  52 prop tor   1   2  23  22
  53 prop tor   1   2  23  24
  54 ben   1  26  25
  55 ben   1  26  42
  56 ben   2   1  26
  57 prop tor   2   1  26  25
  58 prop tor   2   1  26  42
  59 ben   2   1  27
  60 ben   2   3   4
  61 prop tor   2   3   4   5
  62 prop tor   2   3   4  21
  63 ben   2   3  28
  64 ben   2  23  22
  65 ben   2  23  24
  66 prop tor   2  23  24  25
  67 prop tor   2  23  24  40
  68 ben   3   2  23
  69 prop tor   3   2  23  22
  70 prop tor   3   2  23  24
  71 ben   3   4   5
  72 prop tor   3   4   5   6
  73 prop tor   3   4   5  29
  74 ben   3   4  21
  75 prop tor   3   4  21  20
  76 prop tor   3   4  21  22
  77 ben   4   3  28
  78 ben   4   5   6
  79 prop tor   4   5   6   7
  80 prop tor   4   5   6  19
  81 ben   4   5  29
  82 ben   4  21  20
  83 ben   4  21  22
  84 prop tor   4  21  22  23
  85 prop tor   4  21  22  39
  86 ben   5   4  21
  87 prop tor   5   4  21  20
  88 prop tor   5   4  21  22
  89 ben   5   6   7
  90 prop tor   5   6   7   8
  91 prop tor   5   6   7  30
  92 ben   5   6  19
  93 prop tor   5   6  19  18
  94 prop tor   5   6  19  20
  95 ben   6   5  29
  96 ben   6   7   8
  97 prop tor   6   7   8   9
  98 prop tor   6   7   8  17
  99 ben   6   7  30
 100 ben   6  19  18
 101 ben   6  19  20
 102 prop tor   6  19  20  21
 103 prop tor   6  19  20  38
 104 ben   7   6  19
 105 prop tor   7   6  19  18
 106 prop tor   7   6  19  20
 107 ben   7   8   9
 108 prop tor   7   8   9  10
 109 prop tor   7   8   9  31
 110 ben   7   8  17
 111 prop tor   7   8  17  16
 112 prop tor   7   8  17  18
 113 ben   8   7  30
 114 ben   8   9  10
 115 prop tor   8   9  10  11
 116 prop tor   8   9  10  15
 117 ben   8   9  31
 118 ben   8  17  16
 119 ben   8  17  18
 120 prop tor   8  17  18  19
 121 prop tor   8  17  18  37
 122 ben   9   8  17
 123 prop tor   9   8  17  16
 124 prop tor   9   8  17  18
 125 ben   9  10  11
 126 prop tor   9  10  11  12
 127 prop tor   9  10  11  32
 128 ben   9  10  15
 129 prop tor   9  10  15  14
 130 prop tor   9  10  15  16
 131 ben  10   9  31
 132 ben  10  11  12
 133 prop tor  10  11  12  13
 134 prop tor  10  11  12  33
 135 ben  10  11  32
 136 ben  10  15  14
 137 ben  10  15  16
 138 prop tor  10  15  16  17
 139 prop tor  10  15  16  36
 140 ben  11  10  15
 141 prop tor  11  10  15  14
 142 prop tor  11  10  15  16
 143 ben  11  12  13
 144 prop tor  11  12  13  14
 145 prop tor  11  12  13  34
 146 ben  11  12  33
 147 ben  12  11  32
 148 ben  12  13  14
 149 prop tor  12  13  14  15
 150 prop tor  12  13  14  35
 151 ben  12  13  34
 152 ben  13  12  33
 153 ben  13  14  15
 154 prop tor  13  14  15  10
 155 prop tor  13  14  15  16
 156 ben  13  14  35
 157 ben  14  13  34
 158 ben  14  15  16
 159 prop tor  14  15  16  17
 160 prop tor  14  15  16  36
 161 prop tor  15  10  11  12
 162 prop tor  15  10  11  32
 163 ben  15  14  35
 164 ben  15  16  17
 165 prop tor  15  16  17   8
 166 prop tor  15  16  17  18
 167 ben  15  16  36
 168 ben  16  17  18
 169 prop tor  16  17  18  19
 170 prop tor  16  17  18  37
 171 prop tor  17   8   9  10
 172 prop tor  17   8   9  31
 173 ben  17  16  36
 174 ben  17  18  19
 175 prop tor  17  18  19   6
 176 prop tor  17  18  19  20
 177 ben  17  18  37
 178 ben  18  19  20
 179 prop tor  18  19  20  21
 180 prop tor  18  19  20  38
 181 prop tor  19   6   7   8
 182 prop tor  19   6   7  30
 183 ben  19  18  37
 184 ben  19  20  21
 185 prop tor  19  20  21   4
 186 prop tor  19  20  21  22
 187 ben  19  20  38
 188 ben  20  21  22
 189 prop tor  20  21  22  23
 190 prop tor  20  21  22  39
 191 prop tor  21   4   5   6
 192 prop tor  21   4   5  29
 193 ben  21  20  38
 194 ben  21  22  23
 195 prop tor  21  22  23   2
 196 prop tor  21  22  23  24
 197 ben  21  22  39
 198 ben  22  23  24
 199 prop tor  22  23  24  25
 200 prop tor  22  23  24  40
 201 prop tor  23   2   3   4
 202 prop tor  23   2   3  28
 203 ben  23  22  39
 204 ben  23  24  25
 205 prop tor  23  24  25  26
 206 prop tor  23  24  25  41
 207 ben  23  24  40
 208 ben  24  25  26
 209 prop tor  24  25  26   1
 210 prop tor  24  25  26  42
 211 ben  24  25  41
 212 ben  25  24  40
 213 ben  25  26  42
 214 prop tor  26   1   2   3
 215 prop tor  26   1   2  23
 216 ben  26   1  27
 217 ben  26  25  41
 218 prop tor  27   1   2   3
 219 prop tor  27   1   2  23
 220 prop tor  27   1  26  25
 221 prop tor  27   1  26  42
 222 prop tor  28   3   4   5
 223 prop tor  28   3   4  21
 224 prop tor  29   5   6   7
 225 prop tor  29   5   6  19
 226 prop tor  30   7   8   9
 227 prop tor  30   7   8  17
 228 prop tor  31   9  10  11
 229 prop tor  31   9  10  15
 230 prop tor  32  11  12  13
 231 prop tor  32  11  12  33
 232 prop tor  33  12  13  14
 233 prop tor  33  12  13  34
 234 prop tor  34  13  14  15
 235 prop tor  34  13  14  35
 236 prop tor  35  14  15  10
 237 prop tor  35  14  15  16
 238 prop tor  36  16  17   8
 239 prop tor  36  16  17  18
 240 prop tor  37  18  19   6
 241 prop tor  37  18  19  20
 242 prop tor  38  20  21   4
 243 prop tor  38  20  21  22
 244 prop tor  39  22  23   2
 245 prop tor  39  22  23  24
 246 prop tor  40  24  25  26
 247 prop tor  40  24  25  41
 248 prop tor  41  25  26   1
 249 prop tor  41  25  26  42
 nber bend=              78
 nber lin bend=           0
 nber prop tor=         124
 nber impr tor=           0
 nber tot redund int=         249
 Eigenvalues of G in red int coords
    Gval -0.00000000 -0.00000000 -0.00000000 -0.00000000 -0.00000000 -0.00000000 -0.00000000 -0.00000000
    Gval -0.00000000 -0.00000000 -0.00000000 -0.00000000 -0.00000000 -0.00000000 -0.00000000 -0.00000000
    Gval -0.00000000 -0.00000000 -0.00000000 -0.00000000 -0.00000000 -0.00000000 -0.00000000 -0.00000000
    Gval -0.00000000 -0.00000000 -0.00000000 -0.00000000 -0.00000000 -0.00000000 -0.00000000 -0.00000000
    Gval -0.00000000 -0.00000000 -0.00000000 -0.00000000 -0.00000000 -0.00000000 -0.00000000 -0.00000000
    Gval -0.00000000 -0.00000000 -0.00000000 -0.00000000 -0.00000000 -0.00000000 -0.00000000 -0.00000000
    Gval -0.00000000 -0.00000000 -0.00000000 -0.00000000 -0.00000000 -0.00000000 -0.00000000 -0.00000000
    Gval -0.00000000 -0.00000000 -0.00000000 -0.00000000 -0.00000000 -0.00000000 -0.00000000 -0.00000000
    Gval -0.00000000 -0.00000000  0.00000000  0.00000000  0.00000000  0.00000000  0.00000000  0.00000000
    Gval  0.00000000  0.00000000  0.00000000  0.00000000  0.00000000  0.00000000  0.00000000  0.00000000
    Gval  0.00000000  0.00000000  0.00000000  0.00000000  0.00000000  0.00000000  0.00000000  0.00000000
    Gval  0.00000000  0.00000000  0.00000000  0.00000000  0.00000000  0.00000000  0.00000000  0.00000000
    Gval  0.00000000  0.00000000  0.00000000  0.00000000  0.00000000  0.00000000  0.00000000  0.00000000
    Gval  0.00000000  0.00000000  0.00000000  0.00000000  0.00000000  0.00000000  0.00000000  0.00000000
    Gval  0.00000000  0.00000000  0.00000000  0.00000000  0.00000000  0.00000000  0.00000000  0.00000000
    Gval  0.00000000  0.00000000  0.00000000  0.00000000  0.00000000  0.00000000  0.00000000  0.00000000
    Gval  0.00000000  0.00000106  0.00000295  0.00000315  0.00000594  0.00001146  0.00001712  0.00001998
    Gval  0.00002287  0.00002446  0.00002925  0.00003743  0.00003858  0.00004018  0.00004039  0.00004471
    Gval  0.00005156  0.00005282  0.00005810  0.00005919  0.00006494  0.00007335  0.00007364  0.00007947
    Gval  0.00007985  0.00008113  0.00008471  0.00008478  0.00009917  0.00010269  0.00010947  0.00012098
    Gval  0.00012338  0.00013532  0.00013840  0.00014114  0.00015776  0.00016709  0.00018144  0.00019418
    Gval  0.00019567  0.00020109  0.00024339  0.00026373  0.00028147  0.00031578  0.00032140  0.00032968
    Gval  0.00034355  0.00035645  0.00037537  0.00038651  0.00038815  0.00040945  0.00041267  0.00041350
    Gval  0.00041512  0.00041749  0.00044340  0.00047937  0.00052779  0.00059312  0.00059312  0.00059696
    Gval  0.00059696  0.00060791  0.00061043  0.00061624  0.00061781  0.00062442  0.00062652  0.00063390
    Gval  0.00064066  0.00064397  0.00065444  0.00065721  0.00065767  0.00071506  0.00075364  0.00075890
    Gval  0.00082629  0.00083359  0.00091649  0.00095396  0.00105155  0.00105157  0.00110395  0.00111289
    Gval  0.00111344  0.00111367  0.00111633  0.00112062  0.00112277  0.00112441  0.00112649  0.00112914
    Gval  0.00115925  0.00115925  0.00117071  0.00117071  0.00155572  0.00174518  0.00177604  0.00177632
    Gval  0.00188304  0.00197226  0.00202306  0.00257760  0.00258533  0.00272615  0.00278668  0.00292457
    Gval  0.00299895  0.00315861  0.00321567  0.00336321  0.00337273  0.00355955  0.00357037  0.00401063
    Gval  0.00401069
  1.058443090979903E-006  1.058443090979903E-006
  2.948976148596899E-006  1.058443090979903E-006
  3.148084725526664E-006  1.058443090979903E-006
  5.935160548814918E-006  1.058443090979903E-006
  1.145646717432946E-005  1.058443090979903E-006
  1.711698641691457E-005  1.058443090979903E-006
  1.998391547555168E-005  1.058443090979903E-006
  2.286918901981028E-005  1.058443090979903E-006
  2.446086794730061E-005  1.058443090979903E-006
  2.925026410587929E-005  1.058443090979903E-006
  3.743419427264681E-005  1.058443090979903E-006
  3.858234515799437E-005  1.058443090979903E-006
  4.017511635552628E-005  1.058443090979903E-006
  4.038734800168965E-005  1.058443090979903E-006
  4.470902790900330E-005  1.058443090979903E-006
  5.155694926089444E-005  1.058443090979903E-006
  5.282308894345832E-005  1.058443090979903E-006
  5.810392700603362E-005  1.058443090979903E-006
  5.919454625360065E-005  1.058443090979903E-006
  6.493677785043368E-005  1.058443090979903E-006
  7.335451106755107E-005  1.058443090979903E-006
  7.364401156119542E-005  1.058443090979903E-006
  7.947387652072871E-005  1.058443090979903E-006
  7.985230228843566E-005  1.058443090979903E-006
  8.112511459758833E-005  1.058443090979903E-006
  8.471119219684243E-005  1.058443090979903E-006
  8.478048609169710E-005  1.058443090979903E-006
  9.916990005195882E-005  1.058443090979903E-006
  1.026910906716923E-004  1.058443090979903E-006
  1.094739053586338E-004  1.058443090979903E-006
  1.209840868706348E-004  1.058443090979903E-006
  1.233810926712576E-004  1.058443090979903E-006
  1.353215021021015E-004  1.058443090979903E-006
  1.383987599474792E-004  1.058443090979903E-006
  1.411362935597234E-004  1.058443090979903E-006
  1.577625531232377E-004  1.058443090979903E-006
  1.670911469778338E-004  1.058443090979903E-006
  1.814444552268967E-004  1.058443090979903E-006
  1.941807674102096E-004  1.058443090979903E-006
  1.956744243311144E-004  1.058443090979903E-006
  2.010881271289566E-004  1.058443090979903E-006
  2.433852447517692E-004  1.058443090979903E-006
  2.637263964323026E-004  1.058443090979903E-006
  2.814712662177916E-004  1.058443090979903E-006
  3.157750917544765E-004  1.058443090979903E-006
  3.213968237607177E-004  1.058443090979903E-006
  3.296815483220905E-004  1.058443090979903E-006
  3.435521803968923E-004  1.058443090979903E-006
  3.564460475020870E-004  1.058443090979903E-006
  3.753664877039535E-004  1.058443090979903E-006
  3.865137048463254E-004  1.058443090979903E-006
  3.881498751419941E-004  1.058443090979903E-006
  4.094503111789742E-004  1.058443090979903E-006
  4.126711663748252E-004  1.058443090979903E-006
  4.135004365029777E-004  1.058443090979903E-006
  4.151211839192270E-004  1.058443090979903E-006
  4.174943564993660E-004  1.058443090979903E-006
  4.434015216100264E-004  1.058443090979903E-006
  4.793709772897282E-004  1.058443090979903E-006
  5.277871844930876E-004  1.058443090979903E-006
  5.931222032462495E-004  1.058443090979903E-006
  5.931226613271467E-004  1.058443090979903E-006
  5.969568735738457E-004  1.058443090979903E-006
  5.969586977111148E-004  1.058443090979903E-006
  6.079077533211225E-004  1.058443090979903E-006
  6.104321147681710E-004  1.058443090979903E-006
  6.162395118348639E-004  1.058443090979903E-006
  6.178076209826888E-004  1.058443090979903E-006
  6.244196711964222E-004  1.058443090979903E-006
  6.265166046149786E-004  1.058443090979903E-006
  6.338973235346584E-004  1.058443090979903E-006
  6.406554702058984E-004  1.058443090979903E-006
  6.439721550879397E-004  1.058443090979903E-006
  6.544365091485385E-004  1.058443090979903E-006
  6.572128782228367E-004  1.058443090979903E-006
  6.576678925690181E-004  1.058443090979903E-006
  7.150557664666650E-004  1.058443090979903E-006
  7.536398700472061E-004  1.058443090979903E-006
  7.588970236469930E-004  1.058443090979903E-006
  8.262887933688324E-004  1.058443090979903E-006
  8.335850287430371E-004  1.058443090979903E-006
  9.164856014647208E-004  1.058443090979903E-006
  9.539614570935667E-004  1.058443090979903E-006
  1.051550385999487E-003  1.058443090979903E-006
  1.051572221617640E-003  1.058443090979903E-006
  1.103953404070594E-003  1.058443090979903E-006
  1.112893572367168E-003  1.058443090979903E-006
  1.113439188953761E-003  1.058443090979903E-006
  1.113670363065155E-003  1.058443090979903E-006
  1.116332709601949E-003  1.058443090979903E-006
  1.120617058461591E-003  1.058443090979903E-006
  1.122768127325687E-003  1.058443090979903E-006
  1.124414054908539E-003  1.058443090979903E-006
  1.126487244364691E-003  1.058443090979903E-006
  1.129142499089834E-003  1.058443090979903E-006
  1.159246883618610E-003  1.058443090979903E-006
  1.159247839172077E-003  1.058443090979903E-006
  1.170712569808172E-003  1.058443090979903E-006
  1.170712569827310E-003  1.058443090979903E-006
  1.555716485245062E-003  1.058443090979903E-006
  1.745176271812563E-003  1.058443090979903E-006
  1.776037825749191E-003  1.058443090979903E-006
  1.776318753961030E-003  1.058443090979903E-006
  1.883035217912256E-003  1.058443090979903E-006
  1.972260984612748E-003  1.058443090979903E-006
  2.023057961047887E-003  1.058443090979903E-006
  2.577603928715768E-003  1.058443090979903E-006
  2.585334363183835E-003  1.058443090979903E-006
  2.726151247436769E-003  1.058443090979903E-006
  2.786683582269649E-003  1.058443090979903E-006
  2.924570687503557E-003  1.058443090979903E-006
  2.998951149506368E-003  1.058443090979903E-006
  3.158613138125617E-003  1.058443090979903E-006
  3.215668263157362E-003  1.058443090979903E-006
  3.363212178825305E-003  1.058443090979903E-006
  3.372733470600913E-003  1.058443090979903E-006
  3.559550091229254E-003  1.058443090979903E-006
  3.570374792873155E-003  1.058443090979903E-006
  4.010628368587500E-003  1.058443090979903E-006
  4.010690012636981E-003  1.058443090979903E-006
 cut=1d-8, nber non-redundant internal coords=         120
 Check on Eigenvals of non-red overlap matrix:
  0.00000106  0.00000295  0.00000315  0.00000594  0.00001146  0.00001712  0.00001998  0.00002287
  0.00002446  0.00002925  0.00003743  0.00003858  0.00004018  0.00004039  0.00004471  0.00005156
  0.00005282  0.00005810  0.00005919  0.00006494  0.00007335  0.00007364  0.00007947  0.00007985
  0.00008113  0.00008471  0.00008478  0.00009917  0.00010269  0.00010947  0.00012098  0.00012338
  0.00013532  0.00013840  0.00014114  0.00015776  0.00016709  0.00018144  0.00019418  0.00019567
  0.00020109  0.00024339  0.00026373  0.00028147  0.00031578  0.00032140  0.00032968  0.00034355
  0.00035645  0.00037537  0.00038651  0.00038815  0.00040945  0.00041267  0.00041350  0.00041512
  0.00041749  0.00044340  0.00047937  0.00052779  0.00059312  0.00059312  0.00059696  0.00059696
  0.00060791  0.00061043  0.00061624  0.00061781  0.00062442  0.00062652  0.00063390  0.00064066
  0.00064397  0.00065444  0.00065721  0.00065767  0.00071506  0.00075364  0.00075890  0.00082629
  0.00083359  0.00091649  0.00095396  0.00105155  0.00105157  0.00110395  0.00111289  0.00111344
  0.00111367  0.00111633  0.00112062  0.00112277  0.00112441  0.00112649  0.00112914  0.00115925
  0.00115925  0.00117071  0.00117071  0.00155572  0.00174518  0.00177604  0.00177632  0.00188304
  0.00197226  0.00202306  0.00257760  0.00258533  0.00272615  0.00278668  0.00292457  0.00299895
  0.00315861  0.00321567  0.00336321  0.00337273  0.00355955  0.00357037  0.00401063  0.00401069
 Checking for correct frequencies
 recalc frequencies=
    -0.0   -0.0   -0.0   -0.0    0.0    0.0   25.7   56.2   71.8   89.1
   121.1  138.7  190.1  194.1  219.3  223.7  276.1  296.4  318.2  353.1
   363.7  391.6  424.2  428.4  443.9  452.5  470.7  472.8  476.1  492.0
   542.2  548.1  567.9  575.0  626.7  630.6  635.5  675.6  678.5  701.9
   704.0  747.3  747.9  750.0  752.3  753.0  754.0  767.8  805.6  807.6
   823.4  833.1  838.0  848.8  851.4  855.4  870.6  883.4  888.7  893.9
   898.8  906.0  925.0  929.3  951.3  951.4  981.0  981.0 1042.7 1042.7
  1139.3 1141.9 1173.6 1180.1 1192.3 1204.3 1205.3 1206.7 1221.0 1226.6
  1277.3 1280.6 1290.7 1293.0 1299.4 1305.5 1318.2 1322.1 1360.6 1367.7
  1385.1 1408.8 1415.9 1424.8 1428.5 1431.2 1469.7 1475.7 1502.3 1518.8
  1527.4 1532.3 1539.1 1573.5 1576.9 1597.2 1609.0 1635.1 1639.1 1649.8
  3152.5 3153.7 3154.0 3155.5 3155.6 3157.0 3157.6 3158.3 3158.8 3159.7
  3161.9 3162.5 3175.7 3175.7 3189.3 3189.6
 recalc symmetries=
     B2u    B3g    B1g    B2g    B3u    B1u    B3u    Au     B1g    B1u
     B2g    B3u    B3g    Au     B1g    Ag     B2g    B1u    B3u    Au 
     B1g    B3g    B2u    B3u    B3u    B1g    B3u    B1g    B1u    B3g
     B2g    Au     B1u    Ag     B2u    B2u    Ag     B3g    B2g    B2g
     Au     B1g    B3u    B2u    Ag     B2g    Au     Ag     B1u    Au 
     B1g    B2g    B2u    B3g    Au     B3u    B2g    B1g    Au     B2g
     B3u    Ag     B1u    B3g    B1g    B3u    Au     B2g    B2u    Ag 
     B3g    B1u    B2u    Ag     B2u    B3g    Ag     B1u    B3g    B2u
     Ag     B1u    B1u    B3g    B3g    B1u    B2u    B1u    B2u    B3g
     Ag     Ag     B2u    Ag     B2u    B1u    Ag     B3g    B2u    Ag 
     B2u    Ag     B1u    B2u    Ag     B3g    B3g    B1u    B1u    B3g
     B3g    B2u    B1u    Ag     B3g    B1u    B2u    B3g    B1u    Ag 
     B2u    Ag     B1u    B3g    B2u    Ag 
 recalc freqs check OK
 Zero-point lengths:
 10.0000 10.0000 10.0000 10.0000 10.0000 10.0000 48.9106 33.0819 29.2542 26.2583
 22.5272 21.0538 17.9790 17.7940 16.7396 16.5766 14.9193 14.3987 13.8972 13.1938
 12.9993 12.5276 12.0372 11.9771 11.7668 11.6538 11.4267 11.4018 11.3613 11.1767
 10.6464 10.5890 10.4032 10.3388  9.9030  9.8723  9.8342  9.5382  9.5173  9.3577
  9.3433  9.0686  9.0651  9.0524  9.0384  9.0343  9.0281  8.9466  8.7343  8.7236
  8.6397  8.5889  8.5638  8.5095  8.4965  8.4766  8.4022  8.3411  8.3161  8.2919
  8.2694  8.2362  8.1515  8.1325  8.0379  8.0373  7.9152  7.9152  7.6776  7.6773
  7.3449  7.3365  7.2367  7.2167  7.1798  7.1438  7.1407  7.1368  7.0948  7.0786
  6.9367  6.9277  6.9007  6.8943  6.8773  6.8613  6.8282  6.8182  6.7210  6.7035
  6.6613  6.6049  6.5884  6.5678  6.5592  6.5531  6.4667  6.4535  6.3962  6.3613
  6.3433  6.3333  6.3193  6.2498  6.2431  6.2032  6.1804  6.1309  6.1234  6.1034
  4.4154  4.4145  4.4143  4.4133  4.4132  4.4122  4.4118  4.4113  4.4110  4.4103
  4.4088  4.4084  4.3992  4.3992  4.3899  4.3896
 highest evec of mol 2
  0.0000  0.0058 -0.0520
  0.0000  0.0022  0.0006
  0.0000  0.0002 -0.0043
  0.0000 -0.0003  0.0002
  0.0000  0.0002 -0.0017
  0.0000  0.0000  0.0000
  0.0000 -0.0002 -0.0017
  0.0000  0.0003  0.0002
  0.0000 -0.0002 -0.0043
  0.0000 -0.0022  0.0006
  0.0000 -0.0058 -0.0520
  0.0000  0.1202 -0.0703
  0.0000  0.1202  0.0703
  0.0000 -0.0058  0.0520
  0.0000 -0.0022 -0.0006
  0.0000 -0.0002  0.0043
  0.0000  0.0003 -0.0002
  0.0000 -0.0002  0.0017
  0.0000  0.0000 -0.0000
  0.0000  0.0002  0.0017
  0.0000 -0.0003 -0.0002
  0.0000  0.0002  0.0043
  0.0000  0.0022 -0.0006
  0.0000  0.0058  0.0520
  0.0000 -0.1202  0.0703
  0.0000 -0.1202 -0.0703
  0.0000 -0.0017  0.1613
  0.0000 -0.0005  0.0142
  0.0000 -0.0000  0.0052
  0.0000  0.0000  0.0052
  0.0000  0.0005  0.0142
  0.0000  0.0017  0.1613
  0.0000 -0.3894  0.2236
  0.0000 -0.3894 -0.2236
  0.0000  0.0017 -0.1613
  0.0000  0.0005 -0.0142
  0.0000  0.0000 -0.0052
  0.0000 -0.0000 -0.0052
  0.0000 -0.0005 -0.0142
  0.0000 -0.0017 -0.1613
  0.0000  0.3894 -0.2236
  0.0000  0.3894  0.2236
 Enter nber and list of atoms to keep of mol #2
 keep list:          42           1           2           3           4
           5           6           7           8           9          10
          11          12          13          14          15          16
          17          18          19          20          21          22
          23          24          25          26          27          28
          29          30          31          32          33          34
          35          36          37          38          39          40
          41          42
 reordering atoms
           1  -6.16960200000000     
           2  -4.92650800000000     
           3  -3.69218100000000     
           4  -2.46769200000000     
           5  -1.22925400000000     
           6  0.000000000000000E+000
           7   1.22925400000000     
           8   2.46769200000000     
           9   3.69218100000000     
          10   4.92650800000000     
          11   6.16960200000000     
          12   7.36075400000000     
          13   7.36075400000000     
          14   6.16960200000000     
          15   4.92650800000000     
          16   3.69218100000000     
          17   2.46769200000000     
          18   1.22925400000000     
          19  0.000000000000000E+000
          20  -1.22925400000000     
          21  -2.46769200000000     
          22  -3.69218100000000     
          23  -4.92650800000000     
          24  -6.16960200000000     
          25  -7.36075400000000     
          26  -7.36075400000000     
          27  -6.17055100000000     
          28  -3.69430400000000     
          29  -1.22983800000000     
          30   1.22983800000000     
          31   3.69430400000000     
          32   6.17055100000000     
          33   8.30213800000000     
          34   8.30213800000000     
          35   6.17055100000000     
          36   3.69430400000000     
          37   1.22983800000000     
          38  -1.22983800000000     
          39  -3.69430400000000     
          40  -6.17055100000000     
          41  -8.30213800000000     
          42  -8.30213800000000     
           1           1
           2           2
           3           3
           4           4
           5           5
           6           6
           7           7
           8           8
           9           9
          10          10
          11          11
          12          12
          13          13
          14          14
          15          15
          16          16
          17          17
          18          18
          19          19
          20          20
          21          21
          22          22
          23          23
          24          24
          25          25
          26          26
          27          27
          28          28
          29          29
          30          30
          31          31
          32          32
          33          33
          34          34
          35          35
          36          36
          37          37
          38          38
          39          39
          40          40
          41          41
          42          42
 initial cartes coords mol 1
   6   0.00000   1.40914  -6.16367
   6   0.00000   0.72786  -4.89977
   6   0.00000   1.40719  -3.69353
   6   0.00000   0.72903  -2.45062
   6   0.00000   1.40803  -1.23068
   6   0.00000   0.72960   0.00000
   6   0.00000   1.40803   1.23068
   6   0.00000   0.72903   2.45062
   6   0.00000   1.40719   3.69353
   6   0.00000   0.72786   4.89977
   6   0.00000   1.40914   6.16367
   6   0.00000   0.71657   7.33517
   6   0.00000  -0.71657   7.33517
   6   0.00000  -1.40914   6.16367
   6   0.00000  -0.72786   4.89977
   6   0.00000  -1.40719   3.69353
   6   0.00000  -0.72903   2.45062
   6   0.00000  -1.40803   1.23068
   6   0.00000  -0.72960   0.00000
   6   0.00000  -1.40803  -1.23068
   6   0.00000  -0.72903  -2.45062
   6   0.00000  -1.40719  -3.69353
   6   0.00000  -0.72786  -4.89977
   6   0.00000  -1.40914  -6.16367
   6   0.00000  -0.71657  -7.33517
   6   0.00000   0.71657  -7.33517
   1   0.00000   2.49432  -6.16380
   1   0.00000   2.49277  -3.69433
   1   0.00000   2.49353  -1.23097
   1   0.00000   2.49353   1.23097
   1   0.00000   2.49277   3.69433
   1   0.00000   2.49432   6.16380
   1   0.00000   1.24565   8.28129
   1   0.00000  -1.24565   8.28129
   1   0.00000  -2.49432   6.16380
   1   0.00000  -2.49277   3.69433
   1   0.00000  -2.49353   1.23097
   1   0.00000  -2.49353  -1.23097
   1   0.00000  -2.49277  -3.69433
   1   0.00000  -2.49432  -6.16380
   1   0.00000  -1.24565  -8.28129
   1   0.00000   1.24565  -8.28129
 initial cartes coords mol 2
   6   0.00000   1.40117  -6.16960
   6   0.00000   0.72121  -4.92651
   6   0.00000   1.40202  -3.69218
   6   0.00000   0.72752  -2.46769
   6   0.00000   1.40272  -1.22925
   6   0.00000   0.72935   0.00000
   6   0.00000   1.40272   1.22925
   6   0.00000   0.72752   2.46769
   6   0.00000   1.40202   3.69218
[...]
 113 B2u  3156.  0.9661    93.3   100.0 112 B2u  3154.
 114 B3g  3156. -0.3604    13.0   100.0 111 B3g  3152.
                 0.8468    71.7         115 B3g  3156.
                 0.3894    15.2         118 B3g  3158.
 115 Ag   3157. -0.9780    95.7   100.0 114 Ag   3155.
 116 B1u  3158.  0.3355    11.3   100.0 113 B1u  3154.
                -0.8484    72.0         116 B1u  3157.
                -0.4076    16.6         119 B1u  3159.
 117 B3g  3159. -0.3857    14.9   100.0 115 B3g  3156.
                 0.9179    84.3         118 B3g  3158.
 118 B2u  3159. -0.9399    88.3   100.0 117 B2u  3158.
 119 B1u  3161. -0.3991    15.9   100.0 116 B1u  3157.
                 0.9112    83.0         119 B1u  3159.
 120 Ag   3161.  0.8649    74.8   100.0 120 Ag   3160.
                -0.4596    21.1         122 Ag   3162.
 121 B2u  3162.  0.9733    94.7   100.0 121 B2u  3162.
 122 Ag   3164.  0.4575    20.9   100.0 120 Ag   3160.
                 0.8866    78.6         122 Ag   3162.
 123 B3g  3176.  0.9988    99.8   100.0 124 B3g  3176.
 124 B1u  3176.  0.9987    99.7   100.0 123 B1u  3176.
 125 B2u  3188.  0.9989    99.8   100.0 125 B2u  3189.
 126 Ag   3188.  0.9990    99.8   100.0 126 Ag   3190.
 nber times 1st assigned=           1           0
 nber times 1st assigned=           2           0
 nber times 1st assigned=           3           0
 nber times 1st assigned=           4           0
 nber times 1st assigned=           5           0
 nber times 1st assigned=           6           0
 nber times 1st assigned=           7           0
 nber times 1st assigned=           8           0
 nber times 1st assigned=           9           0
 nber times 1st assigned=          10           0
 nber times 1st assigned=          11           0
 nber times 1st assigned=          12           0
 nber times 1st assigned=          13           0
 nber times 1st assigned=          14           0
 nber times 1st assigned=          15           0
 nber times 1st assigned=          16           0
 nber times 1st assigned=          17           0
 nber times 1st assigned=          18           0
 nber times 1st assigned=          19           0
 nber times 1st assigned=          20           0
 nber times 1st assigned=          21           0
 nber times 1st assigned=          22           0
 nber times 1st assigned=          23           0
 nber times 1st assigned=          24           0
 nber times 1st assigned=          25           0
 nber times 1st assigned=          26           0
 nber times 1st assigned=          27           0
 nber times 1st assigned=          28           0
 nber times 1st assigned=          29           0
 nber times 1st assigned=          30           0
 nber times 1st assigned=          31           0
 nber times 1st assigned=          32           0
 nber times 1st assigned=          33           0
 nber times 1st assigned=          34           0
 nber times 1st assigned=          35           0
 nber times 1st assigned=          36           0
 nber times 1st assigned=          37           0
 nber times 1st assigned=          38           0
 nber times 1st assigned=          39           0
 nber times 1st assigned=          40           0
 nber times 1st assigned=          41           0
 nber times 1st assigned=          42           0
 nber times 1st assigned=          43           0
 nber times 1st assigned=          44           0
 nber times 1st assigned=          45           0
 nber times 1st assigned=          46           0
 nber times 1st assigned=          47           0
 nber times 1st assigned=          48           0
 nber times 1st assigned=          49           0
 nber times 1st assigned=          50           0
 nber times 1st assigned=          51           0
 nber times 1st assigned=          52           0
 nber times 1st assigned=          53           0
 nber times 1st assigned=          54           0
 nber times 1st assigned=          55           0
 nber times 1st assigned=          56           0
 nber times 1st assigned=          57           0
 nber times 1st assigned=          58           0
 nber times 1st assigned=          59           0
 nber times 1st assigned=          60           0
 nber times 1st assigned=          61           0
 nber times 1st assigned=          62           0
 nber times 1st assigned=          63           0
 nber times 1st assigned=          64           0
 nber times 1st assigned=          65           0
 nber times 1st assigned=          66           0
 nber times 1st assigned=          67           0
 nber times 1st assigned=          68           0
 nber times 1st assigned=          69           0
 nber times 1st assigned=          70           0
 nber times 1st assigned=          71           0
 nber times 1st assigned=          72           0
 nber times 1st assigned=          73           0
 nber times 1st assigned=          74           0
 nber times 1st assigned=          75           0
 nber times 1st assigned=          76           0
 nber times 1st assigned=          77           0
 nber times 1st assigned=          78           0
 nber times 1st assigned=          79           0
 nber times 1st assigned=          80           0
 nber times 1st assigned=          81           0
 nber times 1st assigned=          82           0
 nber times 1st assigned=          83           0
 nber times 1st assigned=          84           0
 nber times 1st assigned=          85           0
 nber times 1st assigned=          86           0
 nber times 1st assigned=          87           0
 nber times 1st assigned=          88           0
 nber times 1st assigned=          89           0
 nber times 1st assigned=          90           0
 nber times 1st assigned=          91           0
 nber times 1st assigned=          92           0
 nber times 1st assigned=          93           0
 nber times 1st assigned=          94           0
 nber times 1st assigned=          95           0
 nber times 1st assigned=          96           0
 nber times 1st assigned=          97           0
 nber times 1st assigned=          98           0
 nber times 1st assigned=          99           0
 nber times 1st assigned=         100           0
 nber times 1st assigned=         101           0
 nber times 1st assigned=         102           0
 nber times 1st assigned=         103           0
 nber times 1st assigned=         104           0
 nber times 1st assigned=         105           0
 nber times 1st assigned=         106           0
 nber times 1st assigned=         107           0
 nber times 1st assigned=         108           0
 nber times 1st assigned=         109           0
 nber times 1st assigned=         110           0
 nber times 1st assigned=         111           0
 nber times 1st assigned=         112           0
 nber times 1st assigned=         113           0
 nber times 1st assigned=         114           0
 nber times 1st assigned=         115           0
 nber times 1st assigned=         116           0
 nber times 1st assigned=         117           0
 nber times 1st assigned=         118           0
 nber times 1st assigned=         119           0
 nber times 1st assigned=         120           0
 nber times 1st assigned=         121           0
 nber times 1st assigned=         122           0
 nber times 1st assigned=         123           0
 nber times 1st assigned=         124           0
 nber times 1st assigned=         125           0
 nber times 1st assigned=         126           0
 modes represented=   120.032575938458     
 p1=
    0.    0.    0.    0.   -0.   -0.    0.    0.   -0.    0.   -0.    0.    0.   -0.    0.  -10.   -0.    0.   -0.   -0.
    0.    0.    0.   -0.   -0.    0.   -0.    0.   -0.   -0.   -0.   -0.    0.   -2.   -0.    1.    0.   -0.    0.    0.
   -0.   -0.    0.    1.    0.   -3.    0.   -0.   -0.    0.    0.    0.   -0.    0.   -0.    0.   -0.   -0.   -0.   -0.
   -0.   -0.    0.    0.    0.    0.   -0.   -0.   -0.    1.   -0.   -0.   -0.    3.    0.    4.   -0.    0.    0.   -0.
   -0.   -0.   -0.   -0.   -0.    0.   -0.    0.    0.   -0.   -5.    1.   -0.    0.    1.    0.    0.    1.   -0.   -0.
    3.    0.   -0.   -1.    0.   -0.    0.   -0.   -0.    0.    0.    0.   -0.    0.   -0.    0.   -0.    0.   -0.    0.
   -0.   -0.   -0.   -0.   -0.   -0.
 p2=
   -0.   -0.    0.    0.    0.    0.   -0.    0.    0.    0.   -0.    0.   -0.   -0.    0.   10.    0.    0.   -0.    0.
   -0.    0.    0.    0.   -0.   -0.    0.   -0.   -0.    0.    0.    0.   -0.    2.   -0.    0.   -1.   -0.    0.   -0.
    0.    0.    0.   -0.   -2.   -0.   -0.   -2.   -0.    0.    0.   -0.    0.   -0.   -0.   -0.   -0.   -0.   -0.   -0.
   -0.   -0.   -0.    0.   -0.   -0.    0.    0.    0.    1.   -0.    0.   -0.   -3.   -0.    0.   -4.   -0.    0.   -0.
   -1.    0.   -0.   -0.    0.    0.    0.   -0.   -0.   -0.    2.   -5.    0.    2.   -0.    0.    1.    0.    0.    2.
    0.   -2.   -0.    0.    1.   -0.   -0.    0.    0.    0.    0.    0.    0.    0.    0.    0.    0.   -0.   -0.    0.
   -0.    0.    0.   -0.   -0.    0.

 Displacement: in terms of nc of 1 THEN of nc of 2

   1 B2u freq=    -0. Q=  0.000 lam=    -0.0 B2u freq=    -0. Q=  0.000 lam=    -0.0
   2 B1u freq=    -0. Q=  0.000 lam=    -0.0 B3g freq=    -0. Q=  0.000 lam=    -0.0
   3 B2g freq=    -0. Q=  0.000 lam=    -0.0 B1g freq=    -0. Q=  0.000 lam=    -0.0
   4 B3u freq=    -0. Q=  0.000 lam=    -0.0 B2g freq=    -0. Q=  0.000 lam=    -0.0
   5 B1g freq=     0. Q= -0.000 lam=     0.0 B3u freq=     0. Q= -0.000 lam=     0.0
   6 B3g freq=     0. Q= -0.000 lam=     0.0 B1u freq=     0. Q= -0.000 lam=     0.0
   7 B3u freq=    26. Q=  0.000 lam=     0.0 B3u freq=    26. Q=  0.000 lam=     0.0
   8 Au  freq=    59. Q=  0.000 lam=     0.0 Au  freq=    56. Q=  0.000 lam=     0.0
   9 B1g freq=    72. Q= -0.000 lam=     0.0 B1g freq=    72. Q= -0.000 lam=     0.0
  10 B1u freq=    90. Q=  0.000 lam=     0.0 B1u freq=    89. Q=  0.000 lam=     0.0
  11 B2g freq=   122. Q= -0.000 lam=     0.0 B2g freq=   121. Q= -0.000 lam=     0.0
  12 B3u freq=   140. Q=  0.000 lam=     0.0 B3u freq=   139. Q=  0.000 lam=     0.0
  13 B3g freq=   190. Q=  0.000 lam=     0.0 B3g freq=   190. Q=  0.000 lam=     0.0
  14 Au  freq=   193. Q= -0.000 lam=     0.0 Au  freq=   194. Q= -0.000 lam=     0.0
  15 B1g freq=   224. Q=  0.000 lam=     0.0 B1g freq=   219. Q=  0.000 lam=     0.0
  16 Ag  freq=   225. Q= -0.598 lam=    40.2 Ag  freq=   224. Q= -0.609 lam=    41.5
  17 B2g freq=   277. Q= -0.000 lam=     0.0 B2g freq=   276. Q= -0.000 lam=     0.0
  18 B1u freq=   296. Q=  0.000 lam=     0.0 B1u freq=   296. Q=  0.000 lam=     0.0
  19 B3u freq=   308. Q= -0.000 lam=     0.0 B3u freq=   318. Q= -0.000 lam=     0.0
  20 Au  freq=   370. Q= -0.000 lam=     0.0 Au  freq=   353. Q= -0.000 lam=     0.0
  21 B1g freq=   377. Q=  0.000 lam=     0.0 B1g freq=   364. Q=  0.000 lam=     0.0
  22 B3g freq=   392. Q=  0.000 lam=     0.0 B3g freq=   392. Q=  0.000 lam=     0.0
  23 B2u freq=   428. Q=  0.000 lam=     0.0 B2u freq=   424. Q=  0.000 lam=     0.0
  24 B3u freq=   467. Q= -0.000 lam=     0.0 B3u freq=   428. Q= -0.000 lam=     0.0
  25 B1g freq=   469. Q= -0.000 lam=     0.0 B3u freq=   444. Q= -0.000 lam=     0.0
  26 B3u freq=   472. Q=  0.000 lam=     0.0 B1g freq=   453. Q=  0.000 lam=     0.0
  27 B3u freq=   474. Q= -0.000 lam=     0.0 B3u freq=   471. Q= -0.000 lam=     0.0
  28 B1g freq=   476. Q=  0.000 lam=     0.0 B1g freq=   473. Q=  0.000 lam=     0.0
  29 B1u freq=   478. Q= -0.000 lam=     0.0 B1u freq=   476. Q= -0.000 lam=     0.0
  30 B3g freq=   494. Q= -0.000 lam=     0.0 B3g freq=   492. Q= -0.000 lam=     0.0
  31 B2g freq=   530. Q= -0.000 lam=     0.0 B2g freq=   542. Q= -0.000 lam=     0.0
  32 Au  freq=   546. Q= -0.000 lam=     0.0 Au  freq=   548. Q= -0.000 lam=     0.0
  33 B1u freq=   562. Q=  0.000 lam=     0.0 B1u freq=   568. Q=  0.000 lam=     0.0
  34 Ag  freq=   579. Q= -0.160 lam=     7.4 Ag  freq=   575. Q= -0.160 lam=     7.4
  35 B2u freq=   631. Q= -0.000 lam=     0.0 B2u freq=   627. Q= -0.000 lam=     0.0
  36 Ag  freq=   643. Q=  0.113 lam=     4.1 B2u freq=   631. Q=  0.000 lam=     0.0
  37 B2u freq=   648. Q=  0.000 lam=     0.0 Ag  freq=   635. Q=  0.116 lam=     4.3
  38 B3g freq=   672. Q= -0.000 lam=     0.0 B3g freq=   676. Q= -0.000 lam=     0.0
  39 B2g freq=   703. Q=  0.000 lam=     0.0 B2g freq=   679. Q=  0.000 lam=     0.0
  40 Au  freq=   739. Q=  0.000 lam=     0.0 B2g freq=   702. Q=  0.000 lam=     0.0
  41 B2u freq=   743. Q= -0.000 lam=     0.0 Au  freq=   704. Q= -0.000 lam=     0.0
  42 B1g freq=   746. Q= -0.000 lam=     0.0 B1g freq=   747. Q= -0.000 lam=     0.0
  43 B3u freq=   749. Q=  0.000 lam=     0.0 B3u freq=   748. Q=  0.000 lam=     0.0
  44 Ag  freq=   757. Q=  0.077 lam=     2.3 B2u freq=   750. Q=  0.000 lam=     0.0
  45 B2g freq=   759. Q=  0.000 lam=     0.0 Ag  freq=   752. Q=  0.235 lam=    20.7
  46 Ag  freq=   761. Q= -0.378 lam=    54.3 B2g freq=   753. Q= -0.000 lam=     0.0
  47 Au  freq=   771. Q=  0.000 lam=     0.0 Au  freq=   754. Q=  0.000 lam=     0.0
  48 B2g freq=   772. Q= -0.000 lam=     0.0 Ag  freq=   768. Q= -0.277 lam=    29.4
  49 B1u freq=   802. Q= -0.000 lam=     0.0 B1u freq=   806. Q= -0.000 lam=     0.0
  50 B1g freq=   824. Q=  0.000 lam=     0.0 Au  freq=   808. Q=  0.000 lam=     0.0
  51 B2u freq=   831. Q=  0.000 lam=     0.0 B1g freq=   823. Q=  0.000 lam=     0.0
  52 Au  freq=   839. Q=  0.000 lam=     0.0 B2g freq=   833. Q=  0.000 lam=     0.0
  53 B2g freq=   844. Q= -0.000 lam=     0.0 B2u freq=   838. Q= -0.000 lam=     0.0
  54 B3g freq=   846. Q=  0.000 lam=     0.0 B3g freq=   849. Q=  0.000 lam=     0.0
  55 Au  freq=   863. Q= -0.000 lam=     0.0 Au  freq=   851. Q= -0.000 lam=     0.0
  56 B3u freq=   866. Q=  0.000 lam=     0.0 B3u freq=   855. Q=  0.000 lam=     0.0
  57 B2g freq=   887. Q= -0.000 lam=     0.0 B2g freq=   871. Q= -0.000 lam=     0.0
  58 Ag  freq=   899. Q= -0.039 lam=     0.7 B1g freq=   883. Q= -0.000 lam=     0.0
  59 B1g freq=   901. Q= -0.000 lam=     0.0 Au  freq=   889. Q= -0.000 lam=     0.0
  60 Au  freq=   906. Q= -0.000 lam=     0.0 B2g freq=   894. Q= -0.000 lam=     0.0
  61 B2g freq=   915. Q= -0.000 lam=     0.0 B3u freq=   899. Q= -0.000 lam=     0.0
  62 B3u freq=   924. Q= -0.000 lam=     0.0 Ag  freq=   906. Q= -0.043 lam=     0.8
  63 B1u freq=   929. Q=  0.000 lam=     0.0 B1u freq=   925. Q=  0.000 lam=     0.0
  64 B3g freq=   933. Q=  0.000 lam=     0.0 B3g freq=   929. Q=  0.000 lam=     0.0
  65 B1g freq=   973. Q=  0.000 lam=     0.0 B1g freq=   951. Q=  0.000 lam=     0.0
  66 B3u freq=   973. Q=  0.000 lam=     0.0 B3u freq=   951. Q=  0.000 lam=     0.0
  67 Au  freq=   995. Q= -0.000 lam=     0.0 Au  freq=   981. Q= -0.000 lam=     0.0
  68 B2g freq=   995. Q= -0.000 lam=     0.0 B2g freq=   981. Q= -0.000 lam=     0.0
  69 B2u freq=  1015. Q= -0.000 lam=     0.0 B2u freq=  1043. Q= -0.000 lam=     0.0
  70 Ag  freq=  1016. Q=  0.171 lam=    14.9 Ag  freq=  1043. Q=  0.113 lam=     6.6
  71 B2u freq=  1121. Q= -0.000 lam=     0.0 B3g freq=  1139. Q= -0.000 lam=     0.0
  72 B3g freq=  1150. Q= -0.000 lam=     0.0 B1u freq=  1142. Q= -0.000 lam=     0.0
  73 B1u freq=  1152. Q= -0.000 lam=     0.0 B2u freq=  1174. Q= -0.000 lam=     0.0
  74 Ag  freq=  1183. Q=  0.419 lam=   103.9 Ag  freq=  1180. Q=  0.462 lam=   126.0
  75 B2u freq=  1187. Q=  0.000 lam=     0.0 B2u freq=  1192. Q=  0.000 lam=     0.0
  76 Ag  freq=  1198. Q=  0.519 lam=   161.6 B3g freq=  1204. Q=  0.000 lam=     0.0
  77 B3g freq=  1198. Q= -0.000 lam=     0.0 Ag  freq=  1205. Q= -0.509 lam=   156.3
  78 B1u freq=  1205. Q=  0.000 lam=     0.0 B1u freq=  1207. Q=  0.000 lam=     0.0
  79 B3g freq=  1216. Q=  0.000 lam=     0.0 B3g freq=  1221. Q=  0.000 lam=     0.0
  80 B2u freq=  1228. Q= -0.000 lam=     0.0 B2u freq=  1227. Q= -0.000 lam=     0.0
  81 B1u freq=  1261. Q= -0.000 lam=     0.0 Ag  freq=  1277. Q= -0.142 lam=    12.8
  82 Ag  freq=  1271. Q= -0.051 lam=     1.6 B1u freq=  1281. Q= -0.000 lam=     0.0
  83 B1u freq=  1294. Q= -0.000 lam=     0.0 B1u freq=  1291. Q= -0.000 lam=     0.0
  84 B3g freq=  1297. Q= -0.000 lam=     0.0 B3g freq=  1293. Q= -0.000 lam=     0.0
  85 B3g freq=  1305. Q= -0.000 lam=     0.0 B3g freq=  1299. Q= -0.000 lam=     0.0
  86 B1u freq=  1316. Q=  0.000 lam=     0.0 B1u freq=  1305. Q=  0.000 lam=     0.0
  87 B1u freq=  1327. Q= -0.000 lam=     0.0 B2u freq=  1318. Q= -0.000 lam=     0.0
  88 B2u freq=  1343. Q=  0.000 lam=     0.0 B1u freq=  1322. Q=  0.000 lam=     0.0
  89 B2u freq=  1351. Q=  0.000 lam=     0.0 B2u freq=  1361. Q=  0.000 lam=     0.0
  90 B3g freq=  1386. Q= -0.000 lam=     0.0 B3g freq=  1368. Q= -0.000 lam=     0.0
  91 Ag  freq=  1404. Q= -0.751 lam=   396.2 Ag  freq=  1385. Q= -0.248 lam=    42.8
  92 Ag  freq=  1418. Q=  0.099 lam=     6.9 Ag  freq=  1409. Q=  0.748 lam=   394.5
  93 B2u freq=  1418. Q= -0.000 lam=     0.0 B2u freq=  1416. Q= -0.000 lam=     0.0
  94 B1u freq=  1421. Q=  0.000 lam=     0.0 Ag  freq=  1425. Q=  0.239 lam=    40.8
  95 Ag  freq=  1428. Q=  0.228 lam=    37.0 B2u freq=  1428. Q=  0.000 lam=     0.0
  96 B2u freq=  1434. Q=  0.000 lam=     0.0 B1u freq=  1431. Q=  0.000 lam=     0.0
  97 B3g freq=  1475. Q=  0.000 lam=     0.0 Ag  freq=  1470. Q=  0.093 lam=     6.4
  98 Ag  freq=  1476. Q=  0.140 lam=    14.5 B3g freq=  1476. Q=  0.000 lam=     0.0
  99 B2u freq=  1488. Q= -0.000 lam=     0.0 B2u freq=  1502. Q= -0.000 lam=     0.0
 100 Ag  freq=  1530. Q= -0.018 lam=     0.3 Ag  freq=  1519. Q= -0.250 lam=    47.6
 101 Ag  freq=  1547. Q=  0.463 lam=   165.6 B2u freq=  1527. Q=  0.000 lam=     0.0
 102 B2u freq=  1556. Q=  0.000 lam=     0.0 Ag  freq=  1532. Q=  0.312 lam=    74.4
 103 B2u freq=  1575. Q= -0.000 lam=     0.0 B1u freq=  1539. Q= -0.000 lam=     0.0
 104 Ag  freq=  1578. Q= -0.150 lam=    17.6 B2u freq=  1573. Q= -0.000 lam=     0.0
 105 B1u freq=  1581. Q=  0.000 lam=     0.0 Ag  freq=  1577. Q=  0.097 lam=     7.4
 106 B3g freq=  1615. Q= -0.000 lam=     0.0 B3g freq=  1597. Q= -0.000 lam=     0.0
 107 B3g freq=  1629. Q=  0.000 lam=     0.0 B3g freq=  1609. Q=  0.000 lam=     0.0
 108 B1u freq=  1652. Q= -0.000 lam=     0.0 B1u freq=  1635. Q= -0.000 lam=     0.0
 109 B1u freq=  1671. Q= -0.000 lam=     0.0 B1u freq=  1639. Q= -0.000 lam=     0.0
 110 B3g freq=  1676. Q=  0.000 lam=     0.0 B3g freq=  1650. Q=  0.000 lam=     0.0
 111 B3g freq=  3155. Q=  0.000 lam=     0.0 B3g freq=  3152. Q=  0.000 lam=     0.0
 112 B1u freq=  3155. Q=  0.000 lam=     0.0 B2u freq=  3154. Q=  0.000 lam=     0.0
 113 B2u freq=  3156. Q= -0.000 lam=     0.0 B1u freq=  3154. Q= -0.000 lam=     0.0
 114 B3g freq=  3156. Q=  0.000 lam=     0.0 Ag  freq=  3155. Q=  0.001 lam=     0.0
 115 Ag  freq=  3157. Q= -0.002 lam=     0.0 B3g freq=  3156. Q= -0.000 lam=     0.0
 116 B1u freq=  3158. Q=  0.000 lam=     0.0 B1u freq=  3157. Q=  0.000 lam=     0.0
 117 B3g freq=  3159. Q= -0.000 lam=     0.0 B2u freq=  3158. Q= -0.000 lam=     0.0
 118 B2u freq=  3159. Q=  0.000 lam=     0.0 B3g freq=  3158. Q=  0.000 lam=     0.0
 119 B1u freq=  3161. Q= -0.000 lam=     0.0 B1u freq=  3159. Q= -0.000 lam=     0.0
 120 Ag  freq=  3161. Q=  0.000 lam=     0.0 Ag  freq=  3160. Q=  0.000 lam=     0.0
 121 B2u freq=  3162. Q= -0.000 lam=     0.0 B2u freq=  3162. Q= -0.000 lam=     0.0
 122 Ag  freq=  3164. Q= -0.005 lam=     0.0 Ag  freq=  3162. Q= -0.007 lam=     0.1
 123 B3g freq=  3176. Q= -0.000 lam=     0.0 B1u freq=  3176. Q= -0.000 lam=     0.0
 124 B1u freq=  3176. Q= -0.000 lam=     0.0 B3g freq=  3176. Q= -0.000 lam=     0.0
 125 B2u freq=  3188. Q= -0.000 lam=     0.0 B2u freq=  3189. Q= -0.000 lam=     0.0
 126 Ag  freq=  3188. Q= -0.005 lam=     0.0 Ag  freq=  3190. Q= -0.001 lam=     0.0

 total reorg energy (cm**-1, kcal/mol)=     1029.     1020.      2.94      2.92
 Nber of molecules processed=           2
