 Enter ifcurve (0=recti, 1=orth curvi, 2=apprx curvi, -1 = skip
 And atom ordering flag, 0= never changes, 1= use the first order thenceforth,
  2= deduce it (does read on fail), 3= always read it
 Reading file: 
 ./pyrene_1_C0S0.log                                                            
                                          
  Entering Gaussian System, Link 0=g16                                          
  
 Gaussian format, type: g94, g98, g03= F F F
  #P Geom=AllCheck Guess=TCheck SCRF=Check GenChk RB3LYP/6-311G(d,p) Fre    
 energy type= B3LYP   
 Original G94 input coords:
  6 -1.392634 -0.099860  0.110272
  6 -0.862816  0.719908 -0.884369
  6  0.516089  0.837089 -1.036247
  6  1.393533  0.135605 -0.196716
  6  2.870253  0.215293 -0.379053
  6  3.574717 -0.967095 -0.637314
  6  4.944498 -0.970641 -0.855445
  6  5.678111  0.221500 -0.821763
  6  7.092833  0.255005 -1.060925
  6  7.789032  1.419837 -1.018695
  6  7.136791  2.664650 -0.726413
  6  7.836412  3.878550 -0.671023
  6  7.177734  5.068333 -0.378074
  6  5.808984  5.074976 -0.132293
  6  5.066820  3.885994 -0.178759
  6  3.657993  3.848590  0.083671
  6  2.953526  2.688428  0.025340
  6  3.582002  1.437957 -0.308015
  6  4.993637  1.440043 -0.538556
  6  5.730390  2.661571 -0.482513
  6  0.846560 -0.690153  0.795057
  6 -0.532719 -0.804983  0.949103
  1 -2.466517 -0.189819  0.228735
  1 -1.524207  1.264567 -1.549129
  1  0.920505  1.462802 -1.823786
  1  3.022993 -1.898698 -0.693389
  1  5.456175 -1.903444 -1.067717
  1  7.598667 -0.679862 -1.278746
  1  8.858138  1.428652 -1.203337
  1  8.904882  3.880390 -0.858862
  1  7.736274  5.996841 -0.338915
  1  5.301657  6.005255  0.100275
  1  3.157447  4.775731  0.343223
  1  1.894379  2.693129  0.246151
  1  1.511197 -1.233213  1.457803
  1 -0.935086 -1.443476  1.727812
 nber atoms=          36
  SCF Done:  E(RB3LYP) =  -847.016314129     A.U. after    1 cycles             
  
          23          40 "  -847.016314129"
After scan for Atom:   Atom  AN      X      Y      Z        X      Y      Z        X      Y      Z   
After scan for Atom:   Atom  AN      X      Y      Z        X      Y      Z        X      Y      Z   
After scan for Atom:   Atom  AN      X      Y      Z        X      Y      Z        X      Y      Z   
After scan for Atom:   Atom  AN      X      Y      Z        X      Y      Z        X      Y      Z   
After scan for Atom:   Atom  AN      X      Y      Z        X      Y      Z        X      Y      Z   
After scan for Atom:   Atom  AN      X      Y      Z        X      Y      Z        X      Y      Z   
After scan for Atom:   Atom  AN      X      Y      Z        X      Y      Z        X      Y      Z   
After scan for Atom:   Atom  AN      X      Y      Z        X      Y      Z        X      Y      Z   
After scan for Atom:   Atom  AN      X      Y      Z        X      Y      Z        X      Y      Z   
After scan for Atom:   Atom  AN      X      Y      Z        X      Y      Z        X      Y      Z   
After scan for Atom:   Atom  AN      X      Y      Z        X      Y      Z        X      Y      Z   
After scan for Atom:   Atom  AN      X      Y      Z        X      Y      Z        X      Y      Z   
After scan for Atom:   Atom  AN      X      Y      Z        X      Y      Z        X      Y      Z   
After scan for Atom:   Atom  AN      X      Y      Z        X      Y      Z        X      Y      Z   
After scan for Atom:   Atom  AN      X      Y      Z        X      Y      Z        X      Y      Z   
After scan for Atom:   Atom  AN      X      Y      Z        X      Y      Z        X      Y      Z   
After scan for Atom:   Atom  AN      X      Y      Z        X      Y      Z        X      Y      Z   
After scan for Atom:   Atom  AN      X      Y      Z        X      Y      Z        X      Y      Z   
After scan for Atom:   Atom  AN      X      Y      Z        X      Y      Z        X      Y      Z   
After scan for Atom:   Atom  AN      X      Y      Z        X      Y      Z        X      Y      Z   
After scan for Atom:   Atom  AN      X      Y      Z        X      Y      Z        X      Y      Z   
After scan for Atom:   Atom  AN      X      Y      Z        X      Y      Z        X      Y      Z   
After scan for Atom:   Atom  AN      X      Y      Z        X      Y      Z        X      Y      Z   
After scan for Atom:   Atom  AN      X      Y      Z        X      Y      Z        X      Y      Z   
After scan for Atom:   Atom  AN      X      Y      Z        X      Y      Z        X      Y      Z   
After scan for Atom:   Atom  AN      X      Y      Z        X      Y      Z        X      Y      Z   
After scan for Atom:   Atom  AN      X      Y      Z        X      Y      Z        X      Y      Z   
After scan for Atom:   Atom  AN      X      Y      Z        X      Y      Z        X      Y      Z   
After scan for Atom:   Atom  AN      X      Y      Z        X      Y      Z        X      Y      Z   
After scan for Atom:   Atom  AN      X      Y      Z        X      Y      Z        X      Y      Z   
After scan for Atom:   Atom  AN      X      Y      Z        X      Y      Z        X      Y      Z   
After scan for Atom:   Atom  AN      X      Y      Z        X      Y      Z        X      Y      Z   
After scan for Atom:   Atom  AN      X      Y      Z        X      Y      Z        X      Y      Z   
After scan for Atom:   Atom  AN      X      Y      Z        X      Y      Z        X      Y      Z   
 g94    frequencies=
     0.0    0.0    0.0    0.0    0.0    0.0   40.0   50.9   72.6  104.6
   150.3  214.7  227.7  236.3  260.7  264.0  350.0  397.4  415.7  417.1
   445.1  474.5  504.2  513.6  519.7  521.0  555.4  567.7  572.3  614.8
   626.9  643.6  693.8  703.7  705.4  718.4  736.9  767.6  771.3  785.4
   811.8  833.1  839.4  849.1  858.0  861.3  864.4  910.8  936.5  965.8
   977.4  982.7  985.1  986.2  993.9 1003.0 1014.6 1021.8 1054.4 1096.3
  1101.2 1127.6 1139.5 1168.5 1181.0 1182.7 1201.5 1203.7 1215.2 1242.3
  1263.0 1269.6 1291.0 1307.9 1330.0 1353.0 1358.5 1388.5 1408.1 1430.9
  1441.2 1461.4 1474.1 1485.3 1517.5 1525.0 1542.6 1577.4 1615.3 1621.7
  1631.7 1642.6 1647.7 1667.9 3156.0 3158.4 3158.9 3161.6 3162.0 3165.5
  3167.2 3175.0 3175.3 3180.3 3181.2 3183.5 3189.3 3201.4
 g94    symmetries=
                                                 A      A      A      A
       A      A      A      A      A      A      A      A      A      A
       A      A      A      A      A      A      A      A      A      A
       A      A      A      A      A      A      A      A      A      A
       A      A      A      A      A      A      A      A      A      A
       A      A      A      A      A      A      A      A      A      A
       A      A      A      A      A      A      A      A      A      A
       A      A      A      A      A      A      A      A      A      A
       A      A      A      A      A      A      A      A      A      A
       A      A      A      A      A      A      A      A      A      A
       A      A      A      A      A      A      A      A
 atomic masses:
 12.0000 12.0000 12.0000 12.0000 12.0000 12.0000 12.0000 12.0000 12.0000 12.0000
 12.0000 12.0000 12.0000 12.0000 12.0000 12.0000 12.0000 12.0000 12.0000 12.0000
 12.0000 12.0000  1.0078  1.0078  1.0078  1.0078  1.0078  1.0078  1.0078  1.0078
  1.0078  1.0078  1.0078  1.0078  1.0078  1.0078
 looking for force constants in 
 ./pyrene_1_C0S0.fchk                                                           
  
 Cartesian Force Constants                  R   N=        5886                  
  
 n3=         108        5886
 g94-fc frequencies=
    -3.8   -1.9    0.0    0.0    0.0    2.5   40.0   50.9   72.6  104.6
   150.3  214.7  227.7  236.3  260.8  264.0  350.0  397.4  415.7  417.1
   445.1  474.5  504.2  513.6  519.7  521.0  555.4  567.7  572.3  614.8
   626.9  643.6  693.8  703.7  705.4  718.4  736.9  767.7  771.3  785.4
   811.8  833.1  839.4  849.1  858.0  861.3  864.4  910.8  936.5  965.8
   977.4  982.7  985.1  986.2  993.9 1003.0 1014.6 1021.8 1054.4 1096.3
  1101.2 1127.6 1139.5 1168.5 1181.0 1182.7 1201.5 1203.8 1215.2 1242.3
  1263.1 1269.7 1291.0 1307.9 1330.0 1353.0 1358.5 1388.5 1408.1 1430.9
  1441.2 1461.4 1474.1 1485.3 1517.5 1525.0 1542.7 1577.4 1615.3 1621.7
  1631.8 1642.7 1647.8 1667.9 3156.1 3158.5 3158.9 3161.7 3162.1 3165.6
  3167.3 3175.0 3175.4 3180.4 3181.3 3183.5 3189.4 3201.5
 at 99999: n3=         108
 symm operator            1 :  F  nop=           0
 symm operator            2 :  F  nop=           0
 symm operator            3 :  F  nop=           0
 symm operator            4 :  F  nop=           0
 symm operator            5 :  F  nop=           0
 symm operator            6 :  F  nop=           0
 symm operator            7 :  F  nop=           0
 The point group of the molecule is  C1
 Symmetry rotation matrix:
   1.00000   0.00000   0.00000
   0.00000   1.00000   0.00000
   0.00000   0.00000   1.00000

 Projecting out zero-frequency components
 generating redundant internal coords
         300        3600          36
 search for int coords
   1 str   2   1   1.394
   2 str   3   2   1.392
   3 str   4   3   1.402
   4 str   5   4   1.490
   5 str   6   5   1.400
   6 str   7   6   1.387
   7 str   8   7   1.400
   8 str   9   8   1.435
   9 str  10   9   1.358
  10 str  11  10   1.435
  11 str  12  11   1.402
  12 str  13  12   1.391
  13 str  14  13   1.391
  14 str  15  14   1.402
  15 str  16  15   1.434
  16 str  17  16   1.359
  17 str  18   5   1.417
  18 str  18  17   1.439
  19 str  19   8   1.426
  20 str  19  18   1.430
  21 str  20  11   1.427
  22 str  20  15   1.425
  23 str  20  19   1.428
  24 str  21   4   1.402
  25 str  22   1   1.393
  26 str  22  21   1.393
  27 str  23   1   1.084
  28 str  24   2   1.084
  29 str  25   3   1.084
  30 str  26   6   1.084
  31 str  27   7   1.085
  32 str  28   9   1.085
  33 str  29  10   1.085
  34 str  30  12   1.085
  35 str  31  13   1.084
  36 str  32  14   1.085
  37 str  33  16   1.085
  38 str  34  17   1.082
  39 str  35  21   1.084
  40 str  36  22   1.084
 nber stretches=          40
  41 ben   1   2   3
  42 prop tor   1   2   3   4
  43 prop tor   1   2   3  25
  44 ben   1   2  24
  45 ben   1  22  21
  46 ben   1  22  36
  47 ben   2   1  22
  48 prop tor   2   1  22  21
  49 prop tor   2   1  22  36
  50 ben   2   1  23
  51 ben   2   3   4
  52 prop tor   2   3   4   5
  53 prop tor   2   3   4  21
  54 ben   2   3  25
  55 ben   3   2  24
  56 ben   3   4   5
  57 prop tor   3   4   5   6
  58 prop tor   3   4   5  18
  59 ben   3   4  21
  60 prop tor   3   4  21  22
  61 prop tor   3   4  21  35
  62 ben   4   3  25
  63 ben   4   5   6
  64 prop tor   4   5   6   7
  65 prop tor   4   5   6  26
  66 ben   4   5  18
  67 prop tor   4   5  18  17
  68 prop tor   4   5  18  19
  69 ben   4  21  22
  70 prop tor   4  21  22   1
  71 prop tor   4  21  22  36
  72 ben   4  21  35
  73 ben   5   4  21
  74 prop tor   5   4  21  22
  75 prop tor   5   4  21  35
  76 ben   5   6   7
  77 prop tor   5   6   7   8
  78 prop tor   5   6   7  27
  79 ben   5   6  26
  80 ben   5  18  17
  81 ben   5  18  19
  82 prop tor   5  18  19   8
  83 prop tor   5  18  19  20
  84 ben   6   5  18
  85 prop tor   6   5  18  17
  86 prop tor   6   5  18  19
  87 ben   6   7   8
  88 prop tor   6   7   8   9
  89 prop tor   6   7   8  19
  90 ben   6   7  27
  91 ben   7   6  26
  92 ben   7   8   9
  93 prop tor   7   8   9  10
  94 prop tor   7   8   9  28
  95 ben   7   8  19
  96 prop tor   7   8  19  18
  97 prop tor   7   8  19  20
  98 ben   8   7  27
  99 ben   8   9  10
 100 prop tor   8   9  10  11
 101 prop tor   8   9  10  29
 102 ben   8   9  28
 103 ben   8  19  18
 104 ben   8  19  20
 105 prop tor   8  19  20  11
 106 prop tor   8  19  20  15
 107 ben   9   8  19
 108 prop tor   9   8  19  18
 109 prop tor   9   8  19  20
 110 ben   9  10  11
 111 prop tor   9  10  11  12
 112 prop tor   9  10  11  20
 113 ben   9  10  29
 114 ben  10   9  28
 115 ben  10  11  12
 116 prop tor  10  11  12  13
 117 prop tor  10  11  12  30
 118 ben  10  11  20
 119 prop tor  10  11  20  15
 120 prop tor  10  11  20  19
 121 ben  11  10  29
 122 ben  11  12  13
 123 prop tor  11  12  13  14
 124 prop tor  11  12  13  31
 125 ben  11  12  30
 126 ben  11  20  15
 127 ben  11  20  19
 128 ben  12  11  20
 129 prop tor  12  11  20  15
 130 prop tor  12  11  20  19
 131 ben  12  13  14
 132 prop tor  12  13  14  15
 133 prop tor  12  13  14  32
 134 ben  12  13  31
 135 ben  13  12  30
 136 ben  13  14  15
 137 prop tor  13  14  15  16
 138 prop tor  13  14  15  20
 139 ben  13  14  32
 140 ben  14  13  31
 141 ben  14  15  16
 142 prop tor  14  15  16  17
 143 prop tor  14  15  16  33
 144 ben  14  15  20
 145 prop tor  14  15  20  11
 146 prop tor  14  15  20  19
 147 ben  15  14  32
 148 ben  15  16  17
 149 prop tor  15  16  17  18
 150 prop tor  15  16  17  34
 151 ben  15  16  33
 152 ben  15  20  19
 153 ben  16  15  20
 154 prop tor  16  15  20  11
 155 prop tor  16  15  20  19
 156 ben  16  17  18
 157 prop tor  16  17  18   5
 158 prop tor  16  17  18  19
 159 ben  16  17  34
 160 ben  17  16  33
 161 ben  17  18  19
 162 prop tor  17  18  19   8
 163 prop tor  17  18  19  20
 164 prop tor  18   5   6   7
 165 prop tor  18   5   6  26
 166 ben  18  17  34
 167 ben  18  19  20
 168 prop tor  18  19  20  11
 169 prop tor  18  19  20  15
 170 prop tor  19   8   9  10
 171 prop tor  19   8   9  28
 172 prop tor  20  11  12  13
 173 prop tor  20  11  12  30
 174 prop tor  20  15  16  17
 175 prop tor  20  15  16  33
 176 prop tor  21   4   5   6
 177 prop tor  21   4   5  18
 178 ben  21  22  36
 179 prop tor  22   1   2   3
 180 prop tor  22   1   2  24
 181 ben  22   1  23
 182 ben  22  21  35
 183 prop tor  23   1   2   3
 184 prop tor  23   1   2  24
 185 prop tor  23   1  22  21
 186 prop tor  23   1  22  36
 187 prop tor  24   2   3   4
 188 prop tor  24   2   3  25
 189 prop tor  25   3   4   5
 190 prop tor  25   3   4  21
 191 prop tor  26   6   7   8
 192 prop tor  26   6   7  27
 193 prop tor  27   7   8   9
 194 prop tor  27   7   8  19
 195 prop tor  28   9  10  11
 196 prop tor  28   9  10  29
 197 prop tor  29  10  11  12
 198 prop tor  29  10  11  20
 199 prop tor  30  12  13  14
 200 prop tor  30  12  13  31
 201 prop tor  31  13  14  15
 202 prop tor  31  13  14  32
 203 prop tor  32  14  15  16
 204 prop tor  32  14  15  20
 205 prop tor  33  16  17  18
 206 prop tor  33  16  17  34
 207 prop tor  34  17  18   5
 208 prop tor  34  17  18  19
 209 prop tor  35  21  22   1
 210 prop tor  35  21  22  36
 nber bend=              66
 nber lin bend=           0
 nber prop tor=         104
 nber impr tor=           0
 nber tot redund int=         210
 Eigenvalues of G in red int coords
    Gval -0.00000000 -0.00000000 -0.00000000 -0.00000000 -0.00000000 -0.00000000 -0.00000000 -0.00000000
    Gval -0.00000000 -0.00000000 -0.00000000 -0.00000000 -0.00000000 -0.00000000 -0.00000000 -0.00000000
    Gval -0.00000000 -0.00000000 -0.00000000 -0.00000000 -0.00000000 -0.00000000 -0.00000000 -0.00000000
    Gval -0.00000000 -0.00000000 -0.00000000 -0.00000000 -0.00000000 -0.00000000 -0.00000000 -0.00000000
    Gval -0.00000000 -0.00000000 -0.00000000 -0.00000000 -0.00000000 -0.00000000 -0.00000000 -0.00000000
    Gval -0.00000000 -0.00000000 -0.00000000 -0.00000000 -0.00000000 -0.00000000 -0.00000000 -0.00000000
    Gval -0.00000000 -0.00000000 -0.00000000 -0.00000000 -0.00000000 -0.00000000 -0.00000000 -0.00000000
    Gval  0.00000000  0.00000000  0.00000000  0.00000000  0.00000000  0.00000000  0.00000000  0.00000000
    Gval  0.00000000  0.00000000  0.00000000  0.00000000  0.00000000  0.00000000  0.00000000  0.00000000
    Gval  0.00000000  0.00000000  0.00000000  0.00000000  0.00000000  0.00000000  0.00000000  0.00000000
    Gval  0.00000000  0.00000000  0.00000000  0.00000000  0.00000000  0.00000000  0.00000000  0.00000000
    Gval  0.00000000  0.00000000  0.00000000  0.00000000  0.00000000  0.00000000  0.00000000  0.00000000
    Gval  0.00000000  0.00000000  0.00000000  0.00000000  0.00000000  0.00000000  0.00000000  0.00000000
    Gval  0.00000000  0.00000000  0.00000000  0.00000000  0.00000177  0.00000502  0.00000578  0.00001453
    Gval  0.00001769  0.00001988  0.00002337  0.00002385  0.00002572  0.00002875  0.00004545  0.00004788
    Gval  0.00005165  0.00005845  0.00005954  0.00006215  0.00006835  0.00007247  0.00007485  0.00007541
    Gval  0.00007949  0.00008899  0.00010069  0.00010760  0.00011373  0.00011912  0.00012521  0.00013240
    Gval  0.00013963  0.00014292  0.00017358  0.00018154  0.00019844  0.00021138  0.00023902  0.00025916
    Gval  0.00026790  0.00027398  0.00030163  0.00031601  0.00035302  0.00036228  0.00037498  0.00038040
    Gval  0.00041162  0.00041987  0.00043611  0.00044787  0.00046938  0.00053283  0.00059306  0.00059337
    Gval  0.00059388  0.00059658  0.00059864  0.00059963  0.00060443  0.00060835  0.00061881  0.00063164
    Gval  0.00064149  0.00064424  0.00065573  0.00065926  0.00066111  0.00076612  0.00079546  0.00084138
    Gval  0.00100009  0.00103882  0.00106491  0.00108247  0.00108817  0.00109383  0.00110859  0.00113622
    Gval  0.00113905  0.00115893  0.00116214  0.00116351  0.00116802  0.00116985  0.00117219  0.00123886
    Gval  0.00143175  0.00150467  0.00174628  0.00186078  0.00192727  0.00222318  0.00233929  0.00247188
    Gval  0.00250666  0.00260688  0.00310285  0.00311521  0.00360337  0.00368133  0.00373515  0.00375223
    Gval  0.00392611  0.00406791
  1.771566215050100E-006  1.771566215050100E-006
  5.019253582886987E-006  1.771566215050100E-006
  5.784477245995842E-006  1.771566215050100E-006
  1.452899189524724E-005  1.771566215050100E-006
  1.769291607046488E-005  1.771566215050100E-006
  1.987722095434147E-005  1.771566215050100E-006
  2.336683040781307E-005  1.771566215050100E-006
  2.385169802741819E-005  1.771566215050100E-006
  2.571514698461350E-005  1.771566215050100E-006
  2.875068887372696E-005  1.771566215050100E-006
  4.544975852576370E-005  1.771566215050100E-006
  4.787588883200652E-005  1.771566215050100E-006
  5.164984969384684E-005  1.771566215050100E-006
  5.845434817625403E-005  1.771566215050100E-006
  5.953663597866523E-005  1.771566215050100E-006
  6.215017902147785E-005  1.771566215050100E-006
  6.834636904739052E-005  1.771566215050100E-006
  7.246886069183743E-005  1.771566215050100E-006
  7.485054244443886E-005  1.771566215050100E-006
  7.540685999994721E-005  1.771566215050100E-006
  7.948905641725784E-005  1.771566215050100E-006
  8.899014006477860E-005  1.771566215050100E-006
  1.006947539141704E-004  1.771566215050100E-006
  1.076048816055148E-004  1.771566215050100E-006
  1.137309444903534E-004  1.771566215050100E-006
  1.191180665796587E-004  1.771566215050100E-006
  1.252108375381323E-004  1.771566215050100E-006
  1.324016099352621E-004  1.771566215050100E-006
  1.396289498924023E-004  1.771566215050100E-006
  1.429152396174501E-004  1.771566215050100E-006
  1.735775134538561E-004  1.771566215050100E-006
  1.815422202422833E-004  1.771566215050100E-006
  1.984399185737739E-004  1.771566215050100E-006
  2.113801397523540E-004  1.771566215050100E-006
  2.390210948221372E-004  1.771566215050100E-006
  2.591599681782471E-004  1.771566215050100E-006
  2.678988465250018E-004  1.771566215050100E-006
  2.739755983698905E-004  1.771566215050100E-006
  3.016339479183340E-004  1.771566215050100E-006
  3.160082374854897E-004  1.771566215050100E-006
  3.530204514071797E-004  1.771566215050100E-006
  3.622782752017913E-004  1.771566215050100E-006
  3.749832193963325E-004  1.771566215050100E-006
  3.804021007827092E-004  1.771566215050100E-006
  4.116200161333848E-004  1.771566215050100E-006
  4.198689726897384E-004  1.771566215050100E-006
  4.361069249024412E-004  1.771566215050100E-006
  4.478748210429157E-004  1.771566215050100E-006
  4.693833651992940E-004  1.771566215050100E-006
  5.328297431475691E-004  1.771566215050100E-006
  5.930615921510404E-004  1.771566215050100E-006
  5.933708968241832E-004  1.771566215050100E-006
  5.938827425981086E-004  1.771566215050100E-006
  5.965787757634287E-004  1.771566215050100E-006
  5.986420556756775E-004  1.771566215050100E-006
  5.996283344086551E-004  1.771566215050100E-006
  6.044345706449740E-004  1.771566215050100E-006
  6.083500657240928E-004  1.771566215050100E-006
  6.188099515445022E-004  1.771566215050100E-006
  6.316410721513839E-004  1.771566215050100E-006
  6.414935905185586E-004  1.771566215050100E-006
  6.442439301171181E-004  1.771566215050100E-006
  6.557292910460591E-004  1.771566215050100E-006
  6.592568341145367E-004  1.771566215050100E-006
  6.611069049433659E-004  1.771566215050100E-006
  7.661178560558666E-004  1.771566215050100E-006
  7.954576883681814E-004  1.771566215050100E-006
  8.413781892411661E-004  1.771566215050100E-006
  1.000092180026031E-003  1.771566215050100E-006
  1.038819711130575E-003  1.771566215050100E-006
  1.064912546124163E-003  1.771566215050100E-006
  1.082470941496066E-003  1.771566215050100E-006
  1.088166015408096E-003  1.771566215050100E-006
  1.093828164538864E-003  1.771566215050100E-006
  1.108591881952353E-003  1.771566215050100E-006
  1.136221514683395E-003  1.771566215050100E-006
  1.139048516865695E-003  1.771566215050100E-006
  1.158926924029052E-003  1.771566215050100E-006
  1.162135887222244E-003  1.771566215050100E-006
  1.163513115121449E-003  1.771566215050100E-006
  1.168023558340993E-003  1.771566215050100E-006
  1.169849183935767E-003  1.771566215050100E-006
  1.172185800176884E-003  1.771566215050100E-006
  1.238864320758974E-003  1.771566215050100E-006
  1.431753827453520E-003  1.771566215050100E-006
  1.504665882057785E-003  1.771566215050100E-006
  1.746280190825651E-003  1.771566215050100E-006
  1.860777012299172E-003  1.771566215050100E-006
  1.927265161576104E-003  1.771566215050100E-006
  2.223182590434437E-003  1.771566215050100E-006
  2.339286065825169E-003  1.771566215050100E-006
  2.471881007135302E-003  1.771566215050100E-006
  2.506661422790951E-003  1.771566215050100E-006
  2.606882432816471E-003  1.771566215050100E-006
  3.102854930223968E-003  1.771566215050100E-006
  3.115207727007959E-003  1.771566215050100E-006
  3.603365361797932E-003  1.771566215050100E-006
  3.681331879686727E-003  1.771566215050100E-006
  3.735146052645580E-003  1.771566215050100E-006
  3.752230556577068E-003  1.771566215050100E-006
  3.926114739118267E-003  1.771566215050100E-006
  4.067914699638259E-003  1.771566215050100E-006
 cut=1d-8, nber non-redundant internal coords=         102
 Check on Eigenvals of non-red overlap matrix:
  0.00000177  0.00000502  0.00000578  0.00001453  0.00001769  0.00001988  0.00002337  0.00002385
  0.00002572  0.00002875  0.00004545  0.00004788  0.00005165  0.00005845  0.00005954  0.00006215
  0.00006835  0.00007247  0.00007485  0.00007541  0.00007949  0.00008899  0.00010069  0.00010760
  0.00011373  0.00011912  0.00012521  0.00013240  0.00013963  0.00014292  0.00017358  0.00018154
  0.00019844  0.00021138  0.00023902  0.00025916  0.00026790  0.00027398  0.00030163  0.00031601
  0.00035302  0.00036228  0.00037498  0.00038040  0.00041162  0.00041987  0.00043611  0.00044787
  0.00046938  0.00053283  0.00059306  0.00059337  0.00059388  0.00059658  0.00059864  0.00059963
  0.00060443  0.00060835  0.00061881  0.00063164  0.00064149  0.00064424  0.00065573  0.00065926
  0.00066111  0.00076612  0.00079546  0.00084138  0.00100009  0.00103882  0.00106491  0.00108247
  0.00108817  0.00109383  0.00110859  0.00113622  0.00113905  0.00115893  0.00116214  0.00116351
  0.00116802  0.00116985  0.00117219  0.00123886  0.00143175  0.00150467  0.00174628  0.00186078
  0.00192727  0.00222318  0.00233929  0.00247188  0.00250666  0.00260688  0.00310285  0.00311521
  0.00360337  0.00368133  0.00373515  0.00375223  0.00392611  0.00406791
 Checking for correct frequencies
 recalc frequencies=
    -0.0   -0.0   -0.0    0.0    0.0    0.0   40.0   50.9   72.6  104.6
   150.3  214.7  227.7  236.3  260.8  264.0  350.0  397.4  415.7  417.1
   445.1  474.5  504.2  513.6  519.7  521.0  555.4  567.7  572.3  614.8
   626.9  643.6  693.8  703.7  705.4  718.4  736.9  767.7  771.3  785.4
   811.8  833.1  839.4  849.1  858.0  861.3  864.4  910.8  936.5  965.8
   977.4  982.7  985.1  986.2  993.9 1003.0 1014.6 1021.8 1054.4 1096.3
  1101.2 1127.6 1139.5 1168.5 1181.0 1182.7 1201.5 1203.8 1215.2 1242.3
  1263.1 1269.7 1291.0 1307.9 1330.0 1353.0 1358.5 1388.5 1408.1 1430.9
  1441.2 1461.4 1474.1 1485.3 1517.5 1525.0 1542.7 1577.4 1615.3 1621.7
  1631.8 1642.7 1647.8 1667.9 3156.1 3158.5 3158.9 3161.7 3162.1 3165.6
  3167.3 3175.0 3175.4 3180.4 3181.3 3183.5 3189.4 3201.5
 recalc symmetries=
                                                                       
                                                                       
                                                                       
                                                                       
                                                                       
                                                                       
                                                                       
                                                                       
                                                                       
                                                                       
                                                         
 recalc freqs check OK
 Zero-point lengths:
 10.0000 10.0000 10.0000 10.0000 10.0000 10.0000 39.2058 34.7491 29.0967 24.2374
 20.2245 16.9188 16.4296 16.1270 15.3526 15.2585 13.2510 12.4359 12.1587 12.1390
 11.7503 11.3806 11.0407 10.9390 10.8747 10.8610 10.5198 10.4044 10.3630  9.9985
  9.9015  9.7718  9.4119  9.3456  9.3340  9.2493  9.1327  8.9477  8.9266  8.8458
  8.7012  8.5892  8.5566  8.5079  8.4634  8.4471  8.4321  8.2146  8.1010  7.9770
  7.9298  7.9084  7.8987  7.8943  7.8636  7.8278  7.7831  7.7554  7.6346  7.4872
  7.4707  7.3828  7.3441  7.2523  7.2138  7.2087  7.1522  7.1454  7.1117  7.0336
  6.9756  6.9575  6.8998  6.8549  6.7978  6.7397  6.7260  6.6530  6.6066  6.5538
  6.5302  6.4850  6.4570  6.4326  6.3641  6.3483  6.3119  6.2420  6.1683  6.1562
  6.1372  6.1167  6.1073  6.0702  4.4129  4.4112  4.4109  4.4090  4.4087  4.4063
  4.4051  4.3997  4.3995  4.3960  4.3953  4.3938  4.3898  4.3815
 highest evec of mol 1
  0.0030  0.0005 -0.0008
  0.0044 -0.0031  0.0042
 -0.0066 -0.0103  0.0146
 -0.0007  0.0013 -0.0002
  0.0017 -0.0004 -0.0003
  0.0023  0.0034  0.0002
 -0.0013  0.0015  0.0004
  0.0002  0.0002 -0.0000
 -0.0005  0.0009  0.0002
 -0.0009 -0.0000  0.0002
  0.0000 -0.0002 -0.0000
 -0.0016  0.0001  0.0003
 -0.0008 -0.0009 -0.0000
  0.0022 -0.0029 -0.0008
 -0.0042 -0.0007  0.0008
  0.0224 -0.0665 -0.0158
  0.2751  0.0055 -0.0561
 -0.0017  0.0065  0.0014
 -0.0019  0.0002  0.0002
 -0.0004  0.0001  0.0001
 -0.0011  0.0003 -0.0003
  0.0011  0.0013 -0.0016
 -0.0094 -0.0009  0.0011
 -0.0131  0.0105 -0.0129
  0.0239  0.0370 -0.0463
 -0.0076 -0.0136 -0.0008
  0.0030 -0.0054 -0.0012
  0.0018 -0.0030 -0.0007
  0.0033  0.0000 -0.0006
  0.0049  0.0000 -0.0008
  0.0025  0.0037  0.0001
 -0.0050  0.0104  0.0025
 -0.0960  0.1827  0.0503
 -0.9111  0.0019  0.1871
  0.0020 -0.0017  0.0019
 -0.0026 -0.0042  0.0052
 generating redundant internal coords
         300        3600          36
 Adding extra bonds for z output only
           6           6           6           6           6           6
           6           6           6           6           6           6
           6           6           6           6           6           6
           6           6           6           6           1           1
           1           1           1           1           1           1
           1           1           1           1           1           1
 search for int coords
   1 str   2   1   1.394
   2 str   3   2   1.392
   3 str   4   3   1.402
   4 str   5   4   1.490
   5 str   6   5   1.400
   6 str   7   6   1.387
   7 str   8   7   1.400
   8 str   9   8   1.435
   9 str  10   9   1.358
  10 str  11  10   1.435
  11 str  12  11   1.402
  12 str  13  12   1.391
  13 str  14  13   1.391
  14 str  15  14   1.402
  15 str  16  15   1.434
  16 str  17  16   1.359
  17 str  18   5   1.417
  18 str  18  17   1.439
  19 str  19   8   1.426
  20 str  19  18   1.430
  21 str  20  11   1.427
  22 str  20  15   1.425
  23 str  20  19   1.428
  24 str  21   4   1.402
  25 str  22   1   1.393
  26 str  22  21   1.393
  27 str  23   1   1.084
  28 str  24   2   1.084
  29 str  25   3   1.084
  30 str  26   6   1.084
  31 str  27   7   1.085
  32 str  28   9   1.085
  33 str  29  10   1.085
  34 str  30  12   1.085
  35 str  31  13   1.084
  36 str  32  14   1.085
  37 str  33  16   1.085
  38 str  34  17   1.082
  39 str  35  21   1.084
  40 str  36  22   1.084
 nber stretches=          40
  41 ben   1   2   3
  42 prop tor   1   2   3   4
  43 prop tor   1   2   3  25
  44 ben   1   2  24
  45 ben   1  22  21
  46 ben   1  22  36
  47 ben   2   1  22
  48 prop tor   2   1  22  21
  49 prop tor   2   1  22  36
  50 ben   2   1  23
  51 ben   2   3   4
  52 prop tor   2   3   4   5
  53 prop tor   2   3   4  21
  54 ben   2   3  25
  55 ben   3   2  24
  56 ben   3   4   5
  57 prop tor   3   4   5   6
  58 prop tor   3   4   5  18
  59 ben   3   4  21
  60 prop tor   3   4  21  22
  61 prop tor   3   4  21  35
  62 ben   4   3  25
  63 ben   4   5   6
  64 prop tor   4   5   6   7
  65 prop tor   4   5   6  26
  66 ben   4   5  18
  67 prop tor   4   5  18  17
  68 prop tor   4   5  18  19
  69 ben   4  21  22
  70 prop tor   4  21  22   1
  71 prop tor   4  21  22  36
  72 ben   4  21  35
  73 ben   5   4  21
  74 prop tor   5   4  21  22
  75 prop tor   5   4  21  35
  76 ben   5   6   7
  77 prop tor   5   6   7   8
  78 prop tor   5   6   7  27
  79 ben   5   6  26
  80 ben   5  18  17
  81 ben   5  18  19
  82 prop tor   5  18  19   8
  83 prop tor   5  18  19  20
  84 ben   6   5  18
  85 prop tor   6   5  18  17
  86 prop tor   6   5  18  19
  87 ben   6   7   8
  88 prop tor   6   7   8   9
  89 prop tor   6   7   8  19
  90 ben   6   7  27
  91 ben   7   6  26
  92 ben   7   8   9
  93 prop tor   7   8   9  10
  94 prop tor   7   8   9  28
  95 ben   7   8  19
  96 prop tor   7   8  19  18
  97 prop tor   7   8  19  20
  98 ben   8   7  27
  99 ben   8   9  10
 100 prop tor   8   9  10  11
 101 prop tor   8   9  10  29
 102 ben   8   9  28
 103 ben   8  19  18
 104 ben   8  19  20
 105 prop tor   8  19  20  11
 106 prop tor   8  19  20  15
 107 ben   9   8  19
 108 prop tor   9   8  19  18
 109 prop tor   9   8  19  20
 110 ben   9  10  11
 111 prop tor   9  10  11  12
 112 prop tor   9  10  11  20
 113 ben   9  10  29
 114 ben  10   9  28
 115 ben  10  11  12
 116 prop tor  10  11  12  13
 117 prop tor  10  11  12  30
 118 ben  10  11  20
 119 prop tor  10  11  20  15
 120 prop tor  10  11  20  19
 121 ben  11  10  29
 122 ben  11  12  13
 123 prop tor  11  12  13  14
 124 prop tor  11  12  13  31
 125 ben  11  12  30
 126 ben  11  20  15
 127 ben  11  20  19
 128 ben  12  11  20
 129 prop tor  12  11  20  15
 130 prop tor  12  11  20  19
 131 ben  12  13  14
 132 prop tor  12  13  14  15
 133 prop tor  12  13  14  32
 134 ben  12  13  31
 135 ben  13  12  30
 136 ben  13  14  15
 137 prop tor  13  14  15  16
 138 prop tor  13  14  15  20
 139 ben  13  14  32
 140 ben  14  13  31
 141 ben  14  15  16
 142 prop tor  14  15  16  17
 143 prop tor  14  15  16  33
 144 ben  14  15  20
 145 prop tor  14  15  20  11
 146 prop tor  14  15  20  19
 147 ben  15  14  32
 148 ben  15  16  17
 149 prop tor  15  16  17  18
 150 prop tor  15  16  17  34
 151 ben  15  16  33
 152 ben  15  20  19
 153 ben  16  15  20
 154 prop tor  16  15  20  11
 155 prop tor  16  15  20  19
 156 ben  16  17  18
 157 prop tor  16  17  18   5
 158 prop tor  16  17  18  19
 159 ben  16  17  34
 160 ben  17  16  33
 161 ben  17  18  19
 162 prop tor  17  18  19   8
 163 prop tor  17  18  19  20
 164 prop tor  18   5   6   7
 165 prop tor  18   5   6  26
 166 ben  18  17  34
 167 ben  18  19  20
 168 prop tor  18  19  20  11
 169 prop tor  18  19  20  15
 170 prop tor  19   8   9  10
 171 prop tor  19   8   9  28
 172 prop tor  20  11  12  13
 173 prop tor  20  11  12  30
 174 prop tor  20  15  16  17
 175 prop tor  20  15  16  33
 176 prop tor  21   4   5   6
 177 prop tor  21   4   5  18
 178 ben  21  22  36
 179 prop tor  22   1   2   3
 180 prop tor  22   1   2  24
 181 ben  22   1  23
 182 ben  22  21  35
 183 prop tor  23   1   2   3
 184 prop tor  23   1   2  24
 185 prop tor  23   1  22  21
 186 prop tor  23   1  22  36
 187 prop tor  24   2   3   4
 188 prop tor  24   2   3  25
 189 prop tor  25   3   4   5
 190 prop tor  25   3   4  21
 191 prop tor  26   6   7   8
 192 prop tor  26   6   7  27
 193 prop tor  27   7   8   9
 194 prop tor  27   7   8  19
 195 prop tor  28   9  10  11
 196 prop tor  28   9  10  29
 197 prop tor  29  10  11  12
 198 prop tor  29  10  11  20
 199 prop tor  30  12  13  14
 200 prop tor  30  12  13  31
 201 prop tor  31  13  14  15
 202 prop tor  31  13  14  32
 203 prop tor  32  14  15  16
 204 prop tor  32  14  15  20
 205 prop tor  33  16  17  18
 206 prop tor  33  16  17  34
 207 prop tor  34  17  18   5
 208 prop tor  34  17  18  19
 209 prop tor  35  21  22   1
 210 prop tor  35  21  22  36
 nber bend=              66
 nber lin bend=           0
 nber prop tor=         104
 nber impr tor=           0
 nber tot redund int=         210
 Reading file: 
 ./pyrene_1_C-1S0.log                                                           
                                          
  Entering Gaussian System, Link 0=g16                                          
  
 Gaussian format, type: g94, g98, g03= F F F
  #P Geom=AllCheck Guess=TCheck SCRF=Check GenChk UB3LYP/6-311G(d,p) Fre    
 energy type= B3LYP   
 Original G94 input coords:
  6 -1.450293 -0.176008 -0.006190
  6 -0.874844  0.881013 -0.717882
  6  0.503969  1.031599 -0.784798
  6  1.387622  0.128231 -0.143662
  6  2.846955  0.224545 -0.251073
  6  3.585115 -0.967495 -0.421408
  6  4.942459 -0.987548 -0.643974
  6  5.690897  0.222776 -0.707848
  6  7.076537  0.245529 -0.976826
  6  7.788523  1.426872 -1.023750
  6  7.156547  2.673099 -0.785795
  6  7.863936  3.904302 -0.807483
  6  7.207981  5.104004 -0.554351
  6  5.848957  5.135387 -0.269913
  6  5.093061  3.932719 -0.235192
  6  3.713474  3.901312  0.079687
  6  2.995753  2.723679  0.082915
  6  3.583519  1.472779 -0.235624
  6  5.000464  1.460565 -0.488100
  6  5.746140  2.685835 -0.506211
  6  0.777127 -0.933580  0.570747
  6 -0.602109 -1.082723  0.634175
  1 -2.528026 -0.287110  0.050026
  1 -1.510835  1.590419 -1.240364
  1  0.919006  1.839547 -1.374484
  1  3.041598 -1.907503 -0.439909
  1  5.455062 -1.930959 -0.809301
  1  7.583149 -0.700960 -1.149577
  1  8.854163  1.416088 -1.236673
  1  8.928618  3.893123 -1.021450
  1  7.770908  6.034367 -0.576181
  1  5.347888  6.077008 -0.066274
  1  3.216765  4.834330  0.333222
  1  1.950114  2.754215  0.360674
  1  1.410062 -1.632737  1.106127
  1 -1.022011 -1.907269  1.204108
 nber atoms=          36
  SCF Done:  E(UB3LYP) =  -847.036950784     A.U. after    1 cycles             
  
          23          40 "  -847.036950784"
After scan for Atom:   Atom  AN      X      Y      Z        X      Y      Z        X      Y      Z   
After scan for Atom:   Atom  AN      X      Y      Z        X      Y      Z        X      Y      Z   
After scan for Atom:   Atom  AN      X      Y      Z        X      Y      Z        X      Y      Z   
After scan for Atom:   Atom  AN      X      Y      Z        X      Y      Z        X      Y      Z   
After scan for Atom:   Atom  AN      X      Y      Z        X      Y      Z        X      Y      Z   
After scan for Atom:   Atom  AN      X      Y      Z        X      Y      Z        X      Y      Z   
After scan for Atom:   Atom  AN      X      Y      Z        X      Y      Z        X      Y      Z   
After scan for Atom:   Atom  AN      X      Y      Z        X      Y      Z        X      Y      Z   
After scan for Atom:   Atom  AN      X      Y      Z        X      Y      Z        X      Y      Z   
After scan for Atom:   Atom  AN      X      Y      Z        X      Y      Z        X      Y      Z   
After scan for Atom:   Atom  AN      X      Y      Z        X      Y      Z        X      Y      Z   
After scan for Atom:   Atom  AN      X      Y      Z        X      Y      Z        X      Y      Z   
After scan for Atom:   Atom  AN      X      Y      Z        X      Y      Z        X      Y      Z   
After scan for Atom:   Atom  AN      X      Y      Z        X      Y      Z        X      Y      Z   
After scan for Atom:   Atom  AN      X      Y      Z        X      Y      Z        X      Y      Z   
After scan for Atom:   Atom  AN      X      Y      Z        X      Y      Z        X      Y      Z   
After scan for Atom:   Atom  AN      X      Y      Z        X      Y      Z        X      Y      Z   
After scan for Atom:   Atom  AN      X      Y      Z        X      Y      Z        X      Y      Z   
After scan for Atom:   Atom  AN      X      Y      Z        X      Y      Z        X      Y      Z   
After scan for Atom:   Atom  AN      X      Y      Z        X      Y      Z        X      Y      Z   
After scan for Atom:   Atom  AN      X      Y      Z        X      Y      Z        X      Y      Z   
After scan for Atom:   Atom  AN      X      Y      Z        X      Y      Z        X      Y      Z   
After scan for Atom:   Atom  AN      X      Y      Z        X      Y      Z        X      Y      Z   
After scan for Atom:   Atom  AN      X      Y      Z        X      Y      Z        X      Y      Z   
After scan for Atom:   Atom  AN      X      Y      Z        X      Y      Z        X      Y      Z   
After scan for Atom:   Atom  AN      X      Y      Z        X      Y      Z        X      Y      Z   
After scan for Atom:   Atom  AN      X      Y      Z        X      Y      Z        X      Y      Z   
After scan for Atom:   Atom  AN      X      Y      Z        X      Y      Z        X      Y      Z   
After scan for Atom:   Atom  AN      X      Y      Z        X      Y      Z        X      Y      Z   
After scan for Atom:   Atom  AN      X      Y      Z        X      Y      Z        X      Y      Z   
After scan for Atom:   Atom  AN      X      Y      Z        X      Y      Z        X      Y      Z   
After scan for Atom:   Atom  AN      X      Y      Z        X      Y      Z        X      Y      Z   
After scan for Atom:   Atom  AN      X      Y      Z        X      Y      Z        X      Y      Z   
After scan for Atom:   Atom  AN      X      Y      Z        X      Y      Z        X      Y      Z   
 g94    frequencies=
     0.0    0.0    0.0    0.0    0.0    0.0   41.4   65.6   81.2  116.9
   146.8  209.1  219.2  240.4  259.3  271.8  329.7  392.3  412.8  424.9
   439.4  475.2  492.3  496.7  513.8  521.9  545.7  556.6  566.7  603.1
   610.9  633.7  667.6  692.1  701.1  704.5  710.6  721.3  741.3  753.8
   768.3  770.8  803.9  812.6  823.4  837.6  843.8  849.4  879.6  890.7
   924.0  929.4  931.0  959.1  973.5  980.2  994.4 1008.1 1042.7 1086.5
  1094.3 1127.0 1129.5 1151.5 1168.5 1172.9 1186.7 1196.4 1206.7 1226.7
  1245.4 1256.8 1275.6 1301.0 1323.1 1335.3 1349.5 1357.4 1369.3 1386.2
  1430.5 1434.8 1464.2 1466.1 1494.7 1512.1 1524.0 1532.9 1566.9 1570.8
  1575.5 1598.0 1623.8 1636.7 3117.3 3120.0 3128.8 3129.8 3130.0 3136.5
  3140.3 3143.8 3152.5 3153.8 3162.2 3170.7 3180.2 3189.9
 g94    symmetries=
                                                 A      A      A      A
       A      A      A      A      A      A      A      A      A      A
       A      A      A      A      A      A      A      A      A      A
       A      A      A      A      A      A      A      A      A      A
       A      A      A      A      A      A      A      A      A      A
       A      A      A      A      A      A      A      A      A      A
       A      A      A      A      A      A      A      A      A      A
       A      A      A      A      A      A      A      A      A      A
       A      A      A      A      A      A      A      A      A      A
       A      A      A      A      A      A      A      A      A      A
       A      A      A      A      A      A      A      A
 atomic masses:
 12.0000 12.0000 12.0000 12.0000 12.0000 12.0000 12.0000 12.0000 12.0000 12.0000
 12.0000 12.0000 12.0000 12.0000 12.0000 12.0000 12.0000 12.0000 12.0000 12.0000
 12.0000 12.0000  1.0078  1.0078  1.0078  1.0078  1.0078  1.0078  1.0078  1.0078
  1.0078  1.0078  1.0078  1.0078  1.0078  1.0078
 looking for force constants in 
 ./pyrene_1_C-1S0.fchk                                                          
  
 Cartesian Force Constants                  R   N=        5886                  
  
 n3=         108        5886
 g94-fc frequencies=
    -4.1   -1.5   -0.0   -0.0    0.0    0.3   41.4   65.6   81.2  116.9
   146.8  209.1  219.2  240.4  259.3  271.8  329.7  392.3  412.8  424.9
   439.4  475.2  492.3  496.7  513.9  521.9  545.7  556.6  566.7  603.2
   610.9  633.7  667.6  692.1  701.2  704.5  710.6  721.3  741.4  753.8
   768.3  770.9  803.9  812.6  823.4  837.6  843.8  849.4  879.6  890.7
   924.0  929.4  931.0  959.1  973.6  980.2  994.4 1008.1 1042.8 1086.6
  1094.3 1127.1 1129.5 1151.6 1168.5 1172.9 1186.7 1196.4 1206.8 1226.7
  1245.4 1256.8 1275.6 1301.1 1323.1 1335.3 1349.6 1357.4 1369.3 1386.2
  1430.5 1434.8 1464.2 1466.2 1494.8 1512.2 1524.1 1533.0 1567.0 1570.9
  1575.6 1598.0 1623.9 1636.7 3117.3 3120.0 3128.9 3129.8 3130.1 3136.5
  3140.4 3143.9 3152.5 3153.9 3162.3 3170.8 3180.2 3189.9
 at 99999: n3=         108
 symm operator            1 :  F  nop=           0
 symm operator            2 :  F  nop=           0
 symm operator            3 :  F  nop=           0
 symm operator            4 :  F  nop=           0
 symm operator            5 :  F  nop=           0
 symm operator            6 :  F  nop=           0
 symm operator            7 :  F  nop=           0
 The point group of the molecule is  C1
 Symmetry rotation matrix:
   1.00000   0.00000   0.00000
   0.00000   1.00000   0.00000
   0.00000   0.00000   1.00000

 Projecting out zero-frequency components
 generating redundant internal coords
         300        3600          36
 search for int coords
   1 str   2   1   1.398
   2 str   3   2   1.389
   3 str   4   3   1.417
   4 str   5   4   1.466
   5 str   6   5   1.412
   6 str   7   6   1.376
   7 str   8   7   1.424
   8 str   9   8   1.412
   9 str  10   9   1.380
  10 str  11  10   1.417
  11 str  12  11   1.420
  12 str  13  12   1.391
  13 str  14  13   1.389
  14 str  15  14   1.421
  15 str  16  15   1.415
  16 str  17  16   1.379
  17 str  18   5   1.449
  18 str  18  17   1.418
  19 str  19   8   1.434
  20 str  19  18   1.439
  21 str  20  11   1.438
  22 str  20  15   1.433
  23 str  20  19   1.434
  24 str  21   4   1.418
  25 str  22   1   1.397
  26 str  22  21   1.389
  27 str  23   1   1.085
  28 str  24   2   1.087
  29 str  25   3   1.083
  30 str  26   6   1.086
  31 str  27   7   1.086
  32 str  28   9   1.087
  33 str  29  10   1.087
  34 str  30  12   1.086
  35 str  31  13   1.088
  36 str  32  14   1.086
  37 str  33  16   1.087
  38 str  34  17   1.082
  39 str  35  21   1.084
  40 str  36  22   1.087
 nber stretches=          40
  41 ben   1   2   3
  42 prop tor   1   2   3   4
  43 prop tor   1   2   3  25
  44 ben   1   2  24
  45 ben   1  22  21
  46 ben   1  22  36
  47 ben   2   1  22
  48 prop tor   2   1  22  21
  49 prop tor   2   1  22  36
  50 ben   2   1  23
  51 ben   2   3   4
  52 prop tor   2   3   4   5
  53 prop tor   2   3   4  21
  54 ben   2   3  25
  55 ben   3   2  24
  56 ben   3   4   5
  57 prop tor   3   4   5   6
  58 prop tor   3   4   5  18
  59 ben   3   4  21
  60 prop tor   3   4  21  22
  61 prop tor   3   4  21  35
  62 ben   4   3  25
  63 ben   4   5   6
  64 prop tor   4   5   6   7
  65 prop tor   4   5   6  26
  66 ben   4   5  18
  67 prop tor   4   5  18  17
  68 prop tor   4   5  18  19
  69 ben   4  21  22
  70 prop tor   4  21  22   1
  71 prop tor   4  21  22  36
  72 ben   4  21  35
  73 ben   5   4  21
  74 prop tor   5   4  21  22
  75 prop tor   5   4  21  35
  76 ben   5   6   7
  77 prop tor   5   6   7   8
  78 prop tor   5   6   7  27
  79 ben   5   6  26
  80 ben   5  18  17
  81 ben   5  18  19
  82 prop tor   5  18  19   8
  83 prop tor   5  18  19  20
  84 ben   6   5  18
  85 prop tor   6   5  18  17
  86 prop tor   6   5  18  19
  87 ben   6   7   8
  88 prop tor   6   7   8   9
  89 prop tor   6   7   8  19
  90 ben   6   7  27
  91 ben   7   6  26
  92 ben   7   8   9
  93 prop tor   7   8   9  10
  94 prop tor   7   8   9  28
  95 ben   7   8  19
  96 prop tor   7   8  19  18
  97 prop tor   7   8  19  20
  98 ben   8   7  27
  99 ben   8   9  10
 100 prop tor   8   9  10  11
 101 prop tor   8   9  10  29
 102 ben   8   9  28
 103 ben   8  19  18
 104 ben   8  19  20
 105 prop tor   8  19  20  11
 106 prop tor   8  19  20  15
 107 ben   9   8  19
 108 prop tor   9   8  19  18
 109 prop tor   9   8  19  20
 110 ben   9  10  11
 111 prop tor   9  10  11  12
 112 prop tor   9  10  11  20
 113 ben   9  10  29
 114 ben  10   9  28
 115 ben  10  11  12
 116 prop tor  10  11  12  13
 117 prop tor  10  11  12  30
 118 ben  10  11  20
 119 prop tor  10  11  20  15
 120 prop tor  10  11  20  19
 121 ben  11  10  29
 122 ben  11  12  13
 123 prop tor  11  12  13  14
 124 prop tor  11  12  13  31
 125 ben  11  12  30
 126 ben  11  20  15
 127 ben  11  20  19
 128 ben  12  11  20
 129 prop tor  12  11  20  15
 130 prop tor  12  11  20  19
 131 ben  12  13  14
 132 prop tor  12  13  14  15
 133 prop tor  12  13  14  32
 134 ben  12  13  31
 135 ben  13  12  30
 136 ben  13  14  15
 137 prop tor  13  14  15  16
 138 prop tor  13  14  15  20
 139 ben  13  14  32
 140 ben  14  13  31
 141 ben  14  15  16
 142 prop tor  14  15  16  17
 143 prop tor  14  15  16  33
 144 ben  14  15  20
 145 prop tor  14  15  20  11
 146 prop tor  14  15  20  19
 147 ben  15  14  32
 148 ben  15  16  17
 149 prop tor  15  16  17  18
 150 prop tor  15  16  17  34
 151 ben  15  16  33
 152 ben  15  20  19
 153 ben  16  15  20
 154 prop tor  16  15  20  11
 155 prop tor  16  15  20  19
 156 ben  16  17  18
 157 prop tor  16  17  18   5
 158 prop tor  16  17  18  19
 159 ben  16  17  34
 160 ben  17  16  33
 161 ben  17  18  19
 162 prop tor  17  18  19   8
 163 prop tor  17  18  19  20
 164 prop tor  18   5   6   7
 165 prop tor  18   5   6  26
 166 ben  18  17  34
 167 ben  18  19  20
 168 prop tor  18  19  20  11
 169 prop tor  18  19  20  15
 170 prop tor  19   8   9  10
 171 prop tor  19   8   9  28
 172 prop tor  20  11  12  13
 173 prop tor  20  11  12  30
 174 prop tor  20  15  16  17
 175 prop tor  20  15  16  33
 176 prop tor  21   4   5   6
 177 prop tor  21   4   5  18
 178 ben  21  22  36
 179 prop tor  22   1   2   3
 180 prop tor  22   1   2  24
 181 ben  22   1  23
 182 ben  22  21  35
 183 prop tor  23   1   2   3
 184 prop tor  23   1   2  24
 185 prop tor  23   1  22  21
 186 prop tor  23   1  22  36
 187 prop tor  24   2   3   4
 188 prop tor  24   2   3  25
 189 prop tor  25   3   4   5
 190 prop tor  25   3   4  21
 191 prop tor  26   6   7   8
 192 prop tor  26   6   7  27
 193 prop tor  27   7   8   9
 194 prop tor  27   7   8  19
 195 prop tor  28   9  10  11
 196 prop tor  28   9  10  29
 197 prop tor  29  10  11  12
 198 prop tor  29  10  11  20
 199 prop tor  30  12  13  14
 200 prop tor  30  12  13  31
 201 prop tor  31  13  14  15
 202 prop tor  31  13  14  32
 203 prop tor  32  14  15  16
 204 prop tor  32  14  15  20
 205 prop tor  33  16  17  18
 206 prop tor  33  16  17  34
 207 prop tor  34  17  18   5
 208 prop tor  34  17  18  19
 209 prop tor  35  21  22   1
 210 prop tor  35  21  22  36
 nber bend=              66
 nber lin bend=           0
 nber prop tor=         104
 nber impr tor=           0
 nber tot redund int=         210
 Eigenvalues of G in red int coords
    Gval -0.00000000 -0.00000000 -0.00000000 -0.00000000 -0.00000000 -0.00000000 -0.00000000 -0.00000000
    Gval -0.00000000 -0.00000000 -0.00000000 -0.00000000 -0.00000000 -0.00000000 -0.00000000 -0.00000000
    Gval -0.00000000 -0.00000000 -0.00000000 -0.00000000 -0.00000000 -0.00000000 -0.00000000 -0.00000000
    Gval -0.00000000 -0.00000000 -0.00000000 -0.00000000 -0.00000000 -0.00000000 -0.00000000 -0.00000000
    Gval -0.00000000 -0.00000000 -0.00000000 -0.00000000 -0.00000000 -0.00000000 -0.00000000 -0.00000000
    Gval -0.00000000 -0.00000000 -0.00000000 -0.00000000 -0.00000000 -0.00000000 -0.00000000 -0.00000000
    Gval -0.00000000 -0.00000000 -0.00000000 -0.00000000 -0.00000000 -0.00000000  0.00000000  0.00000000
    Gval  0.00000000  0.00000000  0.00000000  0.00000000  0.00000000  0.00000000  0.00000000  0.00000000
    Gval  0.00000000  0.00000000  0.00000000  0.00000000  0.00000000  0.00000000  0.00000000  0.00000000
    Gval  0.00000000  0.00000000  0.00000000  0.00000000  0.00000000  0.00000000  0.00000000  0.00000000
    Gval  0.00000000  0.00000000  0.00000000  0.00000000  0.00000000  0.00000000  0.00000000  0.00000000
    Gval  0.00000000  0.00000000  0.00000000  0.00000000  0.00000000  0.00000000  0.00000000  0.00000000
    Gval  0.00000000  0.00000000  0.00000000  0.00000000  0.00000000  0.00000000  0.00000000  0.00000000
    Gval  0.00000000  0.00000000  0.00000000  0.00000000  0.00000164  0.00000500  0.00000685  0.00001407
    Gval  0.00001675  0.00001989  0.00002331  0.00002384  0.00002604  0.00002900  0.00004563  0.00004960
    Gval  0.00005228  0.00005863  0.00005888  0.00006202  0.00006836  0.00007226  0.00007472  0.00007546
    Gval  0.00008143  0.00008960  0.00010034  0.00010539  0.00011159  0.00011865  0.00012582  0.00013276
    Gval  0.00013991  0.00014292  0.00017257  0.00018264  0.00019684  0.00020914  0.00023515  0.00025954
    Gval  0.00026511  0.00027294  0.00029880  0.00032006  0.00035004  0.00036031  0.00037255  0.00037979
    Gval  0.00040695  0.00041873  0.00043210  0.00044409  0.00046645  0.00055151  0.00059307  0.00059333
    Gval  0.00059385  0.00059638  0.00059860  0.00059936  0.00060407  0.00060787  0.00061356  0.00062773
    Gval  0.00063788  0.00064208  0.00065286  0.00065901  0.00066092  0.00074862  0.00080454  0.00085014
    Gval  0.00099365  0.00103717  0.00105994  0.00107942  0.00108806  0.00109059  0.00110474  0.00113595
    Gval  0.00113669  0.00115455  0.00115661  0.00115773  0.00116286  0.00116604  0.00116961  0.00122734
    Gval  0.00143026  0.00150602  0.00171332  0.00188336  0.00191039  0.00222176  0.00231975  0.00247547
    Gval  0.00249916  0.00258082  0.00310040  0.00312588  0.00356885  0.00364552  0.00369016  0.00372080
    Gval  0.00390487  0.00405812
  1.635812769305430E-006  1.635812769305430E-006
  4.998828420981397E-006  1.635812769305430E-006
  6.853511856562063E-006  1.635812769305430E-006
  1.407290977862353E-005  1.635812769305430E-006
  1.675017898209311E-005  1.635812769305430E-006
  1.988791110809965E-005  1.635812769305430E-006
  2.331435125276757E-005  1.635812769305430E-006
  2.383623244129113E-005  1.635812769305430E-006
  2.603682885820968E-005  1.635812769305430E-006
  2.900175800149968E-005  1.635812769305430E-006
  4.562913560332193E-005  1.635812769305430E-006
  4.960030638652817E-005  1.635812769305430E-006
  5.228047868318281E-005  1.635812769305430E-006
  5.862817984655973E-005  1.635812769305430E-006
  5.888154966291967E-005  1.635812769305430E-006
  6.201709772522681E-005  1.635812769305430E-006
  6.835902340096166E-005  1.635812769305430E-006
  7.226081357341358E-005  1.635812769305430E-006
  7.472091477737782E-005  1.635812769305430E-006
  7.545732583981357E-005  1.635812769305430E-006
  8.143412565168629E-005  1.635812769305430E-006
  8.959749858638776E-005  1.635812769305430E-006
  1.003360632789289E-004  1.635812769305430E-006
  1.053890627517756E-004  1.635812769305430E-006
  1.115880702000996E-004  1.635812769305430E-006
  1.186481139659386E-004  1.635812769305430E-006
  1.258158327156930E-004  1.635812769305430E-006
  1.327565361159568E-004  1.635812769305430E-006
  1.399096285550120E-004  1.635812769305430E-006
  1.429225657205892E-004  1.635812769305430E-006
  1.725701305424469E-004  1.635812769305430E-006
  1.826387515816712E-004  1.635812769305430E-006
  1.968377014758363E-004  1.635812769305430E-006
  2.091379656447959E-004  1.635812769305430E-006
  2.351515878552730E-004  1.635812769305430E-006
  2.595377740943788E-004  1.635812769305430E-006
  2.651142032434499E-004  1.635812769305430E-006
  2.729428760963961E-004  1.635812769305430E-006
  2.988041638164060E-004  1.635812769305430E-006
  3.200614087646714E-004  1.635812769305430E-006
  3.500391968311846E-004  1.635812769305430E-006
  3.603079241122741E-004  1.635812769305430E-006
  3.725535700603994E-004  1.635812769305430E-006
  3.797901118199784E-004  1.635812769305430E-006
  4.069474886030598E-004  1.635812769305430E-006
  4.187281855891512E-004  1.635812769305430E-006
  4.321022320918864E-004  1.635812769305430E-006
  4.440864977930307E-004  1.635812769305430E-006
  4.664549929305769E-004  1.635812769305430E-006
  5.515111552624812E-004  1.635812769305430E-006
  5.930730455070620E-004  1.635812769305430E-006
  5.933349814604462E-004  1.635812769305430E-006
  5.938479906575499E-004  1.635812769305430E-006
  5.963849975181486E-004  1.635812769305430E-006
  5.986020284337912E-004  1.635812769305430E-006
  5.993614606102484E-004  1.635812769305430E-006
  6.040673168903134E-004  1.635812769305430E-006
  6.078662459715380E-004  1.635812769305430E-006
  6.135554947028668E-004  1.635812769305430E-006
  6.277277455309862E-004  1.635812769305430E-006
  6.378838147066865E-004  1.635812769305430E-006
  6.420795816828007E-004  1.635812769305430E-006
  6.528582225424634E-004  1.635812769305430E-006
  6.590087552953058E-004  1.635812769305430E-006
  6.609160407199119E-004  1.635812769305430E-006
  7.486188651473015E-004  1.635812769305430E-006
  8.045397161983690E-004  1.635812769305430E-006
  8.501396895375080E-004  1.635812769305430E-006
  9.936524807927765E-004  1.635812769305430E-006
  1.037167764483305E-003  1.635812769305430E-006
  1.059939465224996E-003  1.635812769305430E-006
  1.079424403642359E-003  1.635812769305430E-006
  1.088057088263420E-003  1.635812769305430E-006
  1.090590729102322E-003  1.635812769305430E-006
  1.104738787679135E-003  1.635812769305430E-006
  1.135954319220881E-003  1.635812769305430E-006
  1.136694180814523E-003  1.635812769305430E-006
  1.154554362326621E-003  1.635812769305430E-006
  1.156608504874958E-003  1.635812769305430E-006
  1.157730140044390E-003  1.635812769305430E-006
  1.162864137895145E-003  1.635812769305430E-006
  1.166040988419521E-003  1.635812769305430E-006
  1.169610388079594E-003  1.635812769305430E-006
  1.227339001303886E-003  1.635812769305430E-006
  1.430261626280951E-003  1.635812769305430E-006
  1.506024052575200E-003  1.635812769305430E-006
  1.713318144019071E-003  1.635812769305430E-006
  1.883364256003976E-003  1.635812769305430E-006
  1.910386994357067E-003  1.635812769305430E-006
  2.221760698665957E-003  1.635812769305430E-006
  2.319746457809854E-003  1.635812769305430E-006
  2.475469469680906E-003  1.635812769305430E-006
  2.499159191047026E-003  1.635812769305430E-006
  2.580819724804507E-003  1.635812769305430E-006
  3.100404163158457E-003  1.635812769305430E-006
  3.125883847443939E-003  1.635812769305430E-006
  3.568854083903834E-003  1.635812769305430E-006
  3.645516832983059E-003  1.635812769305430E-006
  3.690164505984364E-003  1.635812769305430E-006
  3.720797157055305E-003  1.635812769305430E-006
  3.904868315148715E-003  1.635812769305430E-006
  4.058118430868157E-003  1.635812769305430E-006
 cut=1d-8, nber non-redundant internal coords=         102
 Check on Eigenvals of non-red overlap matrix:
  0.00000164  0.00000500  0.00000685  0.00001407  0.00001675  0.00001989  0.00002331  0.00002384
  0.00002604  0.00002900  0.00004563  0.00004960  0.00005228  0.00005863  0.00005888  0.00006202
  0.00006836  0.00007226  0.00007472  0.00007546  0.00008143  0.00008960  0.00010034  0.00010539
  0.00011159  0.00011865  0.00012582  0.00013276  0.00013991  0.00014292  0.00017257  0.00018264
  0.00019684  0.00020914  0.00023515  0.00025954  0.00026511  0.00027294  0.00029880  0.00032006
  0.00035004  0.00036031  0.00037255  0.00037979  0.00040695  0.00041873  0.00043210  0.00044409
  0.00046645  0.00055151  0.00059307  0.00059333  0.00059385  0.00059638  0.00059860  0.00059936
  0.00060407  0.00060787  0.00061356  0.00062773  0.00063788  0.00064208  0.00065286  0.00065901
  0.00066092  0.00074862  0.00080454  0.00085014  0.00099365  0.00103717  0.00105994  0.00107942
  0.00108806  0.00109059  0.00110474  0.00113595  0.00113669  0.00115455  0.00115661  0.00115773
  0.00116286  0.00116604  0.00116961  0.00122734  0.00143026  0.00150602  0.00171332  0.00188336
  0.00191039  0.00222176  0.00231975  0.00247547  0.00249916  0.00258082  0.00310040  0.00312588
  0.00356885  0.00364552  0.00369016  0.00372080  0.00390487  0.00405812
 Checking for correct frequencies
 recalc frequencies=
    -0.0   -0.0   -0.0   -0.0    0.0    0.0   41.4   65.6   81.2  116.9
   146.8  209.1  219.2  240.4  259.3  271.8  329.7  392.3  412.8  424.9
   439.4  475.2  492.3  496.7  513.9  521.9  545.7  556.6  566.7  603.2
   610.9  633.7  667.6  692.1  701.2  704.5  710.6  721.3  741.4  753.8
   768.3  770.9  803.9  812.6  823.4  837.6  843.8  849.4  879.6  890.7
   924.0  929.4  931.0  959.1  973.6  980.2  994.4 1008.1 1042.8 1086.6
  1094.3 1127.1 1129.5 1151.6 1168.5 1172.9 1186.7 1196.4 1206.8 1226.7
  1245.4 1256.8 1275.6 1301.1 1323.1 1335.3 1349.6 1357.4 1369.3 1386.2
  1430.5 1434.8 1464.2 1466.2 1494.8 1512.2 1524.1 1533.0 1567.0 1570.9
  1575.6 1598.0 1623.9 1636.7 3117.3 3120.0 3128.9 3129.8 3130.1 3136.5
  3140.4 3143.9 3152.5 3153.9 3162.3 3170.8 3180.2 3189.9
 recalc symmetries=
                                                                       
                                                                       
                                                                       
                                                                       
                                                                       
                                                                       
                                                                       
                                                                       
                                                                       
                                                                       
                                                         
 recalc freqs check OK
 Zero-point lengths:
 10.0000 10.0000 10.0000 10.0000 10.0000 10.0000 38.5461 30.6075 27.5057 22.9288
 20.4624 17.1439 16.7430 15.9881 15.3958 15.0370 13.6534 12.5165 12.2020 12.0262
 11.8271 11.3724 11.1734 11.1236 10.9364 10.8513 10.6128 10.5080 10.4137 10.0944
 10.0303  9.8482  9.5947  9.4233  9.3624  9.3400  9.2997  9.2309  9.1050  9.0297
  8.9441  8.9291  8.7434  8.6967  8.6396  8.5658  8.5344  8.5061  8.3589  8.3065
  8.1558  8.1321  8.1249  8.0049  7.9454  7.9183  7.8617  7.8080  7.6772  7.5208
  7.4943  7.3845  7.3765  7.3055  7.2524  7.2388  7.1966  7.1672  7.1365  7.0782
  7.0248  6.9930  6.9413  6.8730  6.8155  6.7843  6.7484  6.7289  6.6994  6.6585
  6.5547  6.5449  6.4788  6.4744  6.4122  6.3753  6.3503  6.3318  6.2628  6.2550
  6.2456  6.2016  6.1520  6.1278  4.4402  4.4383  4.4320  4.4313  4.4311  4.4266
  4.4239  4.4214  4.4154  4.4144  4.4085  4.4026  4.3961  4.3894
 highest evec of mol 2
  0.0170  0.0041 -0.0027
  0.0296 -0.0258  0.0194
 -0.0733 -0.1399  0.1029
 -0.0054  0.0031 -0.0017
  0.0016 -0.0006 -0.0000
  0.0022  0.0030  0.0001
 -0.0012  0.0021  0.0003
 -0.0001  0.0000 -0.0000
 -0.0001  0.0007  0.0001
 -0.0015 -0.0001  0.0003
 -0.0002 -0.0001  0.0000
 -0.0008  0.0001  0.0002
 -0.0010 -0.0009  0.0001
  0.0021 -0.0024 -0.0007
 -0.0034 -0.0004  0.0008
  0.0133 -0.0374 -0.0087
  0.2002 -0.0044 -0.0531
 -0.0009  0.0058  0.0011
 -0.0013 -0.0001  0.0003
 -0.0001 -0.0000 -0.0000
 -0.0049  0.0061 -0.0049
  0.0038  0.0071 -0.0047
 -0.0524 -0.0064  0.0030
 -0.0778  0.0845 -0.0618
  0.2424  0.4721 -0.3376
 -0.0065 -0.0115 -0.0001
  0.0038 -0.0069 -0.0012
  0.0015 -0.0025 -0.0005
  0.0048 -0.0001 -0.0010
  0.0033 -0.0000 -0.0006
  0.0026  0.0039 -0.0002
 -0.0044  0.0089  0.0018
 -0.0530  0.1033  0.0274
 -0.6751  0.0161  0.1724
  0.0165 -0.0188  0.0145
 -0.0107 -0.0214  0.0149
 Enter nber and list of atoms to keep of mol #2
 keep list:          36           1           2           3           4
           5           6           7           8           9          10
          11          12          13          14          15          16
          17          18          19          20          21          22
          23          24          25          26          27          28
          29          30          31          32          33          34
          35          36
 reordering atoms
           1   5.54729990576059     
           2   4.50414958774752     
           3   3.20381496734807     
           4   2.87348896407450     
           5   1.52257766729818     
           6   1.38642214623446     
           7  0.169293123781314     
           8  -1.04486839679050     
           9  -2.31009074359849     
          10  -3.47745116905525     
          11  -3.45472374662427     
          12  -4.63833640296025     
          13  -4.57218556635616     
          14  -3.35370053109415     
          15  -2.13866140481930     
          16 -0.871280739566471     
          17  0.296031554015085     
          18  0.308320880498270     
          19 -0.967770906611397     
          20  -2.18252136805717     
          21   3.95020334402371     
          22   5.24998883475172     
          23   6.56104300836195     
          24   4.71045993996611     
          25   2.42491083806374     
          26   2.29035286231704     
          27  0.122835269309687     
          28  -2.35042780860410     
          29  -4.43828353783327     
          30  -5.59822217172273     
          31  -5.49229131220094     
          32  -3.31364801705629     
          33 -0.827266557523535     
          34   1.23537869862692     
          35   3.74304739562594     
          36   6.03908984002462     
           1           1
           2           2
           3           3
           4           4
           5           5
           6           6
           7           7
           8           8
           9           9
          10          10
          11          11
          12          12
          13          13
          14          14
          15          15
          16          16
          17          17
          18          18
          19          19
          20          20
          21          21
          22          22
          23          23
          24          24
          25          25
          26          26
          27          27
          28          28
          29          29
          30          30
          31          31
          32          32
          33          33
          34          34
          35          35
          36          36
 initial cartes coords mol 1
   6   0.04374  -0.88172   5.48178
   6   1.03327  -1.25538   4.57446
   6   1.01896  -0.75519   3.27531
   6   0.01481   0.13012   2.85733
   6   0.01478   0.70949   1.48451
   6   0.07337   2.10202   1.34875
   6   0.11472   2.71549   0.10543
   6   0.09638   1.95434  -1.06966
   6   0.15616   2.55655  -2.37101
   6   0.13165   1.80283  -3.50000
   6   0.03848   0.37189  -3.43573
   6   0.00499  -0.42612  -4.58819
   6  -0.09301  -1.81060  -4.49411
   6  -0.16152  -2.43018  -3.25098
   6  -0.12919  -1.67374  -2.07056
   6  -0.21305  -2.27314  -0.77104
   6  -0.17116  -1.52490   0.36212
   6  -0.03492  -0.09336   0.31854
   6   0.01389   0.53450  -0.96571
   6  -0.02427  -0.25469  -2.15474
   6  -0.97026   0.50227   3.78244
   6  -0.95782  -0.00048   5.08106
   1   0.05482  -1.27245   6.49300
   1   1.82316  -1.93258   4.88018
   1   1.80225  -1.03652   2.58061
   1   0.11435   2.71003   2.24546
   1   0.17496   3.79656   0.03722
   1   0.22244   3.63775  -2.43350
   1   0.17919   2.27323  -4.47654
   1   0.05513   0.05070  -5.56135
   1  -0.11843  -2.41064  -5.39685
   1  -0.24259  -3.50992  -3.18405
   1  -0.32192  -3.35088  -0.70679
   1  -0.25447  -2.00812   1.32655
   1  -1.75843   1.17968   3.47296
   1  -1.73381   0.29437   5.77883
 initial cartes coords mol 2
   6   0.15555  -0.90158   5.54730
   6   0.84277  -1.52968   4.50415
   6   0.76389  -1.04886   3.20381
   6  -0.00730   0.09312   2.87349
   6  -0.05707   0.66148   1.52258
   6  -0.01835   2.06676   1.38642
   6   0.05265   2.70384   0.16929
   6   0.08386   1.95956  -1.04487
   6   0.19960   2.57493  -2.31009
   6   0.21678   1.83894  -3.47745
   6   0.10148   0.42640  -3.45472
   6   0.09617  -0.35831  -4.63834
   6  -0.03350  -1.74122  -4.57219
   6  -0.16528  -2.39449  -3.35370
   6  -0.16640  -1.65783  -2.13866
   6  -0.32875  -2.26675  -0.87128
   6  -0.30176  -1.53285   0.29603
   6  -0.10176  -0.12874   0.30832
   6  -0.00729   0.53027  -0.96777
   6  -0.02061  -0.23252  -2.18252
   6  -0.69357   0.70977   3.95020
   6  -0.61111   0.22777   5.24999
   1   0.21360  -1.28364   6.56104
   1   1.46088  -2.39922   4.71046
   1   1.33728  -1.53599   2.42491
   1   0.02090   2.66737   2.29035
   1   0.12147   3.78700   0.12284
   1   0.27632   3.65882  -2.35043
   1   0.31065   2.33798  -4.43828
   1   0.19116   0.14074  -5.59822
   1  -0.03522  -2.32117  -5.49229
   1  -0.27349  -3.47425  -3.31365
   1  -0.48735  -3.34119  -0.82727
   1  -0.46139  -2.04626   1.23538
   1  -1.32373   1.56770   3.74305
   1  -1.16504   0.72927   6.03909
 loop 1 0
 mod cartes coords mol 2
   6   0.15555  -0.90158   5.54730
   6   0.84277  -1.52968   4.50415
   6   0.76389  -1.04886   3.20381
   6  -0.00730   0.09312   2.87349
   6  -0.05707   0.66148   1.52258
   6  -0.01835   2.06676   1.38642
   6   0.05265   2.70384   0.16929
   6   0.08386   1.95956  -1.04487
   6   0.19960   2.57493  -2.31009
   6   0.21678   1.83894  -3.47745
   6   0.10148   0.42640  -3.45472
   6   0.09617  -0.35831  -4.63834
   6  -0.03350  -1.74122  -4.57219
   6  -0.16528  -2.39449  -3.35370
   6  -0.16640  -1.65783  -2.13866
   6  -0.32875  -2.26675  -0.87128
   6  -0.30176  -1.53285   0.29603
   6  -0.10176  -0.12874   0.30832
   6  -0.00729   0.53027  -0.96777
   6  -0.02061  -0.23252  -2.18252
   6  -0.69357   0.70977   3.95020
   6  -0.61111   0.22777   5.24999
   1   0.21360  -1.28364   6.56104
   1   1.46088  -2.39922   4.71046
   1   1.33728  -1.53599   2.42491
   1   0.02090   2.66737   2.29035
   1   0.12147   3.78700   0.12284
   1   0.27632   3.65882  -2.35043
   1   0.31065   2.33798  -4.43828
   1   0.19116   0.14074  -5.59822
   1  -0.03522  -2.32117  -5.49229
   1  -0.27349  -3.47425  -3.31365
   1  -0.48735  -3.34119  -0.82727
   1  -0.46139  -2.04626   1.23538
   1  -1.32373   1.56770   3.74305
   1  -1.16504   0.72927   6.03909
 read in order, maxerr=  0.76 for atom  36
 loop 1 1
 mod cartes coords mol 2
   6  -0.15555  -0.90158   5.54730
   6  -0.84277  -1.52968   4.50415
   6  -0.76389  -1.04886   3.20381
   6   0.00730   0.09312   2.87349
   6   0.05707   0.66148   1.52258
   6   0.01835   2.06676   1.38642
   6  -0.05265   2.70384   0.16929
   6  -0.08386   1.95956  -1.04487
   6  -0.19960   2.57493  -2.31009
   6  -0.21678   1.83894  -3.47745
   6  -0.10148   0.42640  -3.45472
   6  -0.09617  -0.35831  -4.63834
   6   0.03350  -1.74122  -4.57219
   6   0.16528  -2.39449  -3.35370
   6   0.16640  -1.65783  -2.13866
   6   0.32875  -2.26675  -0.87128
   6   0.30176  -1.53285   0.29603
   6   0.10176  -0.12874   0.30832
   6   0.00729   0.53027  -0.96777
   6   0.02061  -0.23252  -2.18252
   6   0.69357   0.70977   3.95020
   6   0.61111   0.22777   5.24999
   1  -0.21360  -1.28364   6.56104
   1  -1.46088  -2.39922   4.71046
   1  -1.33728  -1.53599   2.42491
   1  -0.02090   2.66737   2.29035
   1  -0.12147   3.78700   0.12284
   1  -0.27632   3.65882  -2.35043
   1  -0.31065   2.33798  -4.43828
   1  -0.19116   0.14074  -5.59822
   1   0.03522  -2.32117  -5.49229
   1   0.27349  -3.47425  -3.31365
   1   0.48735  -3.34119  -0.82727
   1   0.46139  -2.04626   1.23538
   1   1.32373   1.56770   3.74305
   1   1.16504   0.72927   6.03909
 read in order, maxerr=  3.32 for atom  24
 loop 1 2
 mod cartes coords mol 2
   6   0.15555   0.90158   5.54730
   6   0.84277   1.52968   4.50415
   6   0.76389   1.04886   3.20381
   6  -0.00730  -0.09312   2.87349
   6  -0.05707  -0.66148   1.52258
   6  -0.01835  -2.06676   1.38642
   6   0.05265  -2.70384   0.16929
   6   0.08386  -1.95956  -1.04487
   6   0.19960  -2.57493  -2.31009
   6   0.21678  -1.83894  -3.47745
   6   0.10148  -0.42640  -3.45472
   6   0.09617   0.35831  -4.63834
   6  -0.03350   1.74122  -4.57219
   6  -0.16528   2.39449  -3.35370
   6  -0.16640   1.65783  -2.13866
   6  -0.32875   2.26675  -0.87128
   6  -0.30176   1.53285   0.29603
   6  -0.10176   0.12874   0.30832
   6  -0.00729  -0.53027  -0.96777
   6  -0.02061   0.23252  -2.18252
   6  -0.69357  -0.70977   3.95020
   6  -0.61111  -0.22777   5.24999
   1   0.21360   1.28364   6.56104
   1   1.46088   2.39922   4.71046
   1   1.33728   1.53599   2.42491
   1   0.02090  -2.66737   2.29035
   1   0.12147  -3.78700   0.12284
   1   0.27632  -3.65882  -2.35043
   1   0.31065  -2.33798  -4.43828
   1   0.19116  -0.14074  -5.59822
   1  -0.03522   2.32117  -5.49229
   1  -0.27349   3.47425  -3.31365
   1  -0.48735   3.34119  -0.82727
   1  -0.46139   2.04626   1.23538
   1  -1.32373  -1.56770   3.74305
   1  -1.16504  -0.72927   6.03909
 read in order, maxerr=  7.58 for atom  27
 loop 1 3
 mod cartes coords mol 2
   6  -0.15555   0.90158   5.54730
   6  -0.84277   1.52968   4.50415
   6  -0.76389   1.04886   3.20381
   6   0.00730  -0.09312   2.87349
   6   0.05707  -0.66148   1.52258
   6   0.01835  -2.06676   1.38642
   6  -0.05265  -2.70384   0.16929
   6  -0.08386  -1.95956  -1.04487
   6  -0.19960  -2.57493  -2.31009
   6  -0.21678  -1.83894  -3.47745
   6  -0.10148  -0.42640  -3.45472
   6  -0.09617   0.35831  -4.63834
   6   0.03350   1.74122  -4.57219
   6   0.16528   2.39449  -3.35370
   6   0.16640   1.65783  -2.13866
   6   0.32875   2.26675  -0.87128
   6   0.30176   1.53285   0.29603
   6   0.10176   0.12874   0.30832
   6   0.00729  -0.53027  -0.96777
   6   0.02061   0.23252  -2.18252
   6   0.69357  -0.70977   3.95020
   6   0.61111  -0.22777   5.24999
   1  -0.21360   1.28364   6.56104
   1  -1.46088   2.39922   4.71046
   1  -1.33728   1.53599   2.42491
   1  -0.02090  -2.66737   2.29035
   1  -0.12147  -3.78700   0.12284
   1  -0.27632  -3.65882  -2.35043
   1  -0.31065  -2.33798  -4.43828
   1  -0.19116  -0.14074  -5.59822
   1   0.03522   2.32117  -5.49229
   1   0.27349   3.47425  -3.31365
   1   0.48735   3.34119  -0.82727
   1   0.46139   2.04626   1.23538
   1   1.32373  -1.56770   3.74305
   1   1.16504  -0.72927   6.03909
 read in order, maxerr=  7.59 for atom  27
 loop 1 4
 mod cartes coords mol 2
   6   0.15555  -0.90158  -5.54730
   6   0.84277  -1.52968  -4.50415
   6   0.76389  -1.04886  -3.20381
   6  -0.00730   0.09312  -2.87349
   6  -0.05707   0.66148  -1.52258
   6  -0.01835   2.06676  -1.38642
   6   0.05265   2.70384  -0.16929
   6   0.08386   1.95956   1.04487
   6   0.19960   2.57493   2.31009
   6   0.21678   1.83894   3.47745
   6   0.10148   0.42640   3.45472
   6   0.09617  -0.35831   4.63834
   6  -0.03350  -1.74122   4.57219
   6  -0.16528  -2.39449   3.35370
   6  -0.16640  -1.65783   2.13866
   6  -0.32875  -2.26675   0.87128
   6  -0.30176  -1.53285  -0.29603
   6  -0.10176  -0.12874  -0.30832
   6  -0.00729   0.53027   0.96777
   6  -0.02061  -0.23252   2.18252
   6  -0.69357   0.70977  -3.95020
   6  -0.61111   0.22777  -5.24999
   1   0.21360  -1.28364  -6.56104
   1   1.46088  -2.39922  -4.71046
   1   1.33728  -1.53599  -2.42491
   1   0.02090   2.66737  -2.29035
   1   0.12147   3.78700  -0.12284
   1   0.27632   3.65882   2.35043
   1   0.31065   2.33798   4.43828
   1   0.19116   0.14074   5.59822
   1  -0.03522  -2.32117   5.49229
   1  -0.27349  -3.47425   3.31365
   1  -0.48735  -3.34119   0.82727
   1  -0.46139  -2.04626  -1.23538
   1  -1.32373   1.56770  -3.74305
   1  -1.16504   0.72927  -6.03909
 read in order, maxerr= 13.06 for atom  23
 loop 1 5
 mod cartes coords mol 2
   6  -0.15555  -0.90158  -5.54730
   6  -0.84277  -1.52968  -4.50415
   6  -0.76389  -1.04886  -3.20381
   6   0.00730   0.09312  -2.87349
   6   0.05707   0.66148  -1.52258
   6   0.01835   2.06676  -1.38642
   6  -0.05265   2.70384  -0.16929
   6  -0.08386   1.95956   1.04487
   6  -0.19960   2.57493   2.31009
   6  -0.21678   1.83894   3.47745
   6  -0.10148   0.42640   3.45472
   6  -0.09617  -0.35831   4.63834
   6   0.03350  -1.74122   4.57219
   6   0.16528  -2.39449   3.35370
   6   0.16640  -1.65783   2.13866
   6   0.32875  -2.26675   0.87128
   6   0.30176  -1.53285  -0.29603
   6   0.10176  -0.12874  -0.30832
   6   0.00729   0.53027   0.96777
   6   0.02061  -0.23252   2.18252
   6   0.69357   0.70977  -3.95020
   6   0.61111   0.22777  -5.24999
   1  -0.21360  -1.28364  -6.56104
   1  -1.46088  -2.39922  -4.71046
   1  -1.33728  -1.53599  -2.42491
   1  -0.02090   2.66737  -2.29035
   1  -0.12147   3.78700  -0.12284
   1  -0.27632   3.65882   2.35043
   1  -0.31065   2.33798   4.43828
   1  -0.19116   0.14074   5.59822
   1   0.03522  -2.32117   5.49229
   1   0.27349  -3.47425   3.31365
   1   0.48735  -3.34119   0.82727
   1   0.46139  -2.04626  -1.23538
   1   1.32373   1.56770  -3.74305
   1   1.16504   0.72927  -6.03909
 read in order, maxerr= 13.06 for atom  23
 loop 1 6
 mod cartes coords mol 2
   6   0.15555   0.90158  -5.54730
   6   0.84277   1.52968  -4.50415
   6   0.76389   1.04886  -3.20381
   6  -0.00730  -0.09312  -2.87349
   6  -0.05707  -0.66148  -1.52258
   6  -0.01835  -2.06676  -1.38642
   6   0.05265  -2.70384  -0.16929
   6   0.08386  -1.95956   1.04487
   6   0.19960  -2.57493   2.31009
   6   0.21678  -1.83894   3.47745
   6   0.10148  -0.42640   3.45472
   6   0.09617   0.35831   4.63834
   6  -0.03350   1.74122   4.57219
   6  -0.16528   2.39449   3.35370
   6  -0.16640   1.65783   2.13866
   6  -0.32875   2.26675   0.87128
   6  -0.30176   1.53285  -0.29603
   6  -0.10176   0.12874  -0.30832
   6  -0.00729  -0.53027   0.96777
   6  -0.02061   0.23252   2.18252
   6  -0.69357  -0.70977  -3.95020
   6  -0.61111  -0.22777  -5.24999
   1   0.21360   1.28364  -6.56104
   1   1.46088   2.39922  -4.71046
   1   1.33728   1.53599  -2.42491
   1   0.02090  -2.66737  -2.29035
   1   0.12147  -3.78700  -0.12284
   1   0.27632  -3.65882   2.35043
   1   0.31065  -2.33798   4.43828
   1   0.19116  -0.14074   5.59822
   1  -0.03522   2.32117   5.49229
   1  -0.27349   3.47425   3.31365
   1  -0.48735   3.34119   0.82727
   1  -0.46139   2.04626  -1.23538
   1  -1.32373  -1.56770  -3.74305
   1  -1.16504  -0.72927  -6.03909
 read in order, maxerr= 13.30 for atom  23
 loop 1 7
 mod cartes coords mol 2
   6  -0.15555   0.90158  -5.54730
   6  -0.84277   1.52968  -4.50415
   6  -0.76389   1.04886  -3.20381
   6   0.00730  -0.09312  -2.87349
   6   0.05707  -0.66148  -1.52258
   6   0.01835  -2.06676  -1.38642
   6  -0.05265  -2.70384  -0.16929
   6  -0.08386  -1.95956   1.04487
   6  -0.19960  -2.57493   2.31009
   6  -0.21678  -1.83894   3.47745
   6  -0.10148  -0.42640   3.45472
   6  -0.09617   0.35831   4.63834
   6   0.03350   1.74122   4.57219
   6   0.16528   2.39449   3.35370
   6   0.16640   1.65783   2.13866
   6   0.32875   2.26675   0.87128
   6   0.30176   1.53285  -0.29603
   6   0.10176   0.12874  -0.30832
   6   0.00729  -0.53027   0.96777
   6   0.02061   0.23252   2.18252
   6   0.69357  -0.70977  -3.95020
   6   0.61111  -0.22777  -5.24999
   1  -0.21360   1.28364  -6.56104
   1  -1.46088   2.39922  -4.71046
   1  -1.33728   1.53599  -2.42491
   1  -0.02090  -2.66737  -2.29035
   1  -0.12147  -3.78700  -0.12284
   1  -0.27632  -3.65882   2.35043
   1  -0.31065  -2.33798   4.43828
   1  -0.19116  -0.14074   5.59822
   1   0.03522   2.32117   5.49229
   1   0.27349   3.47425   3.31365
   1   0.48735   3.34119   0.82727
   1   0.46139   2.04626  -1.23538
   1   1.32373  -1.56770  -3.74305
   1   1.16504  -0.72927  -6.03909
 read in order, maxerr= 13.30 for atom  23
 loop 2 0
 mod cartes coords mol 2
   6   0.15555   5.54730  -0.90158
   6   0.84277   4.50415  -1.52968
   6   0.76389   3.20381  -1.04886
   6  -0.00730   2.87349   0.09312
   6  -0.05707   1.52258   0.66148
   6  -0.01835   1.38642   2.06676
   6   0.05265   0.16929   2.70384
   6   0.08386  -1.04487   1.95956
   6   0.19960  -2.31009   2.57493
   6   0.21678  -3.47745   1.83894
   6   0.10148  -3.45472   0.42640
   6   0.09617  -4.63834  -0.35831
   6  -0.03350  -4.57219  -1.74122
   6  -0.16528  -3.35370  -2.39449
   6  -0.16640  -2.13866  -1.65783
   6  -0.32875  -0.87128  -2.26675
   6  -0.30176   0.29603  -1.53285
   6  -0.10176   0.30832  -0.12874
   6  -0.00729  -0.96777   0.53027
   6  -0.02061  -2.18252  -0.23252
   6  -0.69357   3.95020   0.70977
   6  -0.61111   5.24999   0.22777
   1   0.21360   6.56104  -1.28364
   1   1.46088   4.71046  -2.39922
   1   1.33728   2.42491  -1.53599
   1   0.02090   2.29035   2.66737
   1   0.12147   0.12284   3.78700
   1   0.27632  -2.35043   3.65882
   1   0.31065  -4.43828   2.33798
   1   0.19116  -5.59822   0.14074
   1  -0.03522  -5.49229  -2.32117
   1  -0.27349  -3.31365  -3.47425
   1  -0.48735  -0.82727  -3.34119
   1  -0.46139   1.23538  -2.04626
   1  -1.32373   3.74305   1.56770
   1  -1.16504   6.03909   0.72927
 read in order, maxerr= 11.04 for atom  23
 loop 2 1
 mod cartes coords mol 2
   6  -0.15555   5.54730  -0.90158
   6  -0.84277   4.50415  -1.52968
   6  -0.76389   3.20381  -1.04886
   6   0.00730   2.87349   0.09312
   6   0.05707   1.52258   0.66148
   6   0.01835   1.38642   2.06676
   6  -0.05265   0.16929   2.70384
   6  -0.08386  -1.04487   1.95956
   6  -0.19960  -2.31009   2.57493
   6  -0.21678  -3.47745   1.83894
   6  -0.10148  -3.45472   0.42640
   6  -0.09617  -4.63834  -0.35831
   6   0.03350  -4.57219  -1.74122
   6   0.16528  -3.35370  -2.39449
   6   0.16640  -2.13866  -1.65783
   6   0.32875  -0.87128  -2.26675
   6   0.30176   0.29603  -1.53285
   6   0.10176   0.30832  -0.12874
   6   0.00729  -0.96777   0.53027
   6   0.02061  -2.18252  -0.23252
   6   0.69357   3.95020   0.70977
   6   0.61111   5.24999   0.22777
   1  -0.21360   6.56104  -1.28364
   1  -1.46088   4.71046  -2.39922
   1  -1.33728   2.42491  -1.53599
   1  -0.02090   2.29035   2.66737
   1  -0.12147   0.12284   3.78700
   1  -0.27632  -2.35043   3.65882
   1  -0.31065  -4.43828   2.33798
   1  -0.19116  -5.59822   0.14074
   1   0.03522  -5.49229  -2.32117
   1   0.27349  -3.31365  -3.47425
   1   0.48735  -0.82727  -3.34119
   1   0.46139   1.23538  -2.04626
   1   1.32373   3.74305   1.56770
   1   1.16504   6.03909   0.72927
 read in order, maxerr= 11.04 for atom  23
 loop 2 2
 mod cartes coords mol 2
   6   0.15555   5.54730   0.90158
   6   0.84277   4.50415   1.52968
   6   0.76389   3.20381   1.04886
   6  -0.00730   2.87349  -0.09312
   6  -0.05707   1.52258  -0.66148
   6  -0.01835   1.38642  -2.06676
   6   0.05265   0.16929  -2.70384
   6   0.08386  -1.04487  -1.95956
   6   0.19960  -2.31009  -2.57493
   6   0.21678  -3.47745  -1.83894
   6   0.10148  -3.45472  -0.42640
   6   0.09617  -4.63834   0.35831
   6  -0.03350  -4.57219   1.74122
[...]
  77      1359. -0.8283    68.6    99.6  77      1350.
  78      1388. -0.4696    22.1   100.1  76      1335.
                -0.5058    25.6          78      1357.
  79      1408.  0.8547    73.0    99.7  79      1369.
  80      1431.  0.7224    52.2    99.6  80      1386.
                 0.4739    22.5          81      1430.
  81      1441.  0.3863    14.9    99.4  80      1386.
                -0.8425    71.0          81      1430.
  82      1461. -0.8573    73.5    99.6  82      1435.
  83      1474. -0.7113    50.6    99.9  83      1464.
                 0.6025    36.3          84      1466.
  84      1485. -0.8603    74.0    99.1  85      1495.
  85      1517. -0.3577    12.8    99.8  75      1323.
                 0.4813    23.2          83      1464.
                 0.5353    28.7          84      1466.
                -0.4265    18.2          86      1512.
  86      1525. -0.8013    64.2    99.7  86      1512.
                 0.3984    15.9          88      1533.
  87      1543. -0.3356    11.3    99.8  86      1512.
                 0.5824    33.9          87      1524.
                -0.5890    34.7          88      1533.
  88      1577.  0.6049    36.6    99.8  87      1524.
                 0.5848    34.2          88      1533.
  89      1615. -0.8203    67.3    99.6  90      1571.
                 0.3717    13.8          91      1576.
  90      1622.  0.7645    58.4    99.8  89      1567.
                 0.5331    28.4          91      1576.
  91      1632.  0.4101    16.8    99.9  89      1567.
                -0.4453    19.8          90      1571.
                -0.6390    40.8          91      1576.
  92      1643.  0.3512    12.3   100.4  92      1598.
                -0.8299    68.9          93      1624.
                 0.3916    15.3          94      1637.
  93      1648.  0.8654    74.9   100.4  92      1598.
                 0.4189    17.5          93      1624.
  94      1668.  0.8971    80.5   100.3  94      1637.
  95      3156. -0.5037    25.4   100.0  95      3117.
                 0.8522    72.6          96      3120.
  96      3158.  0.7653    58.6   100.0  95      3117.
                 0.4851    23.5          96      3120.
  97      3159.  0.8646    74.8   100.0  97      3129.
                -0.4140    17.1          99      3130.
  98      3162. -0.3978    15.8   100.0  97      3129.
                 0.4898    24.0          98      3130.
                -0.7653    58.6          99      3130.
  99      3162. -0.8264    68.3   100.0  98      3130.
                -0.4553    20.7          99      3130.
 100      3166.  0.8849    78.3   100.0 100      3136.
                 0.3223    10.4         106      3171.
 101      3167. -0.8690    75.5   100.0 101      3140.
                -0.4756    22.6         102      3144.
 102      3175.  0.4253    18.1   100.0 102      3144.
                 0.7126    50.8         105      3162.
 103      3175.  0.4081    16.7   100.0 101      3140.
                -0.7630    58.2         102      3144.
                 0.3934    15.5         105      3162.
 104      3180.  0.8379    70.2   100.0 103      3152.
                -0.3385    11.5         104      3154.
 105      3181. -0.4018    16.1   100.0 100      3136.
                 0.6649    44.2         106      3171.
                -0.3873    15.0         107      3180.
                -0.3437    11.8         108      3190.
 106      3183. -0.3470    12.0   100.0  95      3117.
                -0.3276    10.7         103      3152.
                -0.8616    74.2         104      3154.
 107      3189. -0.4626    21.4   100.0 105      3162.
                 0.6179    38.2         106      3171.
                 0.5064    25.6         107      3180.
 108      3201. -0.6152    37.8   100.0 107      3180.
                 0.7829    61.3         108      3190.
 nber times 1st assigned=           1           0
 nber times 1st assigned=           2           0
 nber times 1st assigned=           3           0
 nber times 1st assigned=           4           0
 nber times 1st assigned=           5           0
 nber times 1st assigned=           6           0
 nber times 1st assigned=           7           0
 nber times 1st assigned=           8           0
 nber times 1st assigned=           9           0
 nber times 1st assigned=          10           0
 nber times 1st assigned=          11           0
 nber times 1st assigned=          12           0
 nber times 1st assigned=          13           0
 nber times 1st assigned=          14           0
 nber times 1st assigned=          15           0
 nber times 1st assigned=          16           0
 nber times 1st assigned=          17           0
 nber times 1st assigned=          18           0
 nber times 1st assigned=          19           0
 nber times 1st assigned=          20           0
 nber times 1st assigned=          21           0
 nber times 1st assigned=          22           0
 nber times 1st assigned=          23           0
 nber times 1st assigned=          24           0
 nber times 1st assigned=          25           0
 nber times 1st assigned=          26           0
 nber times 1st assigned=          27           0
 nber times 1st assigned=          28           0
 nber times 1st assigned=          29           0
 nber times 1st assigned=          30           0
 nber times 1st assigned=          31           0
 nber times 1st assigned=          32           0
 nber times 1st assigned=          33           0
 nber times 1st assigned=          34           0
 nber times 1st assigned=          35           0
 nber times 1st assigned=          36           0
 nber times 1st assigned=          37           0
 nber times 1st assigned=          38           0
 nber times 1st assigned=          39           0
 nber times 1st assigned=          40           0
 nber times 1st assigned=          41           0
 nber times 1st assigned=          42           0
 nber times 1st assigned=          43           0
 nber times 1st assigned=          44           0
 nber times 1st assigned=          45           0
 nber times 1st assigned=          46           0
 nber times 1st assigned=          47           0
 nber times 1st assigned=          48           0
 nber times 1st assigned=          49           0
 nber times 1st assigned=          50           0
 nber times 1st assigned=          51           0
 nber times 1st assigned=          52           0
 nber times 1st assigned=          53           0
 nber times 1st assigned=          54           0
 nber times 1st assigned=          55           0
 nber times 1st assigned=          56           0
 nber times 1st assigned=          57           0
 nber times 1st assigned=          58           0
 nber times 1st assigned=          59           0
 nber times 1st assigned=          60           0
 nber times 1st assigned=          61           0
 nber times 1st assigned=          62           0
 nber times 1st assigned=          63           0
 nber times 1st assigned=          64           0
 nber times 1st assigned=          65           0
 nber times 1st assigned=          66           0
 nber times 1st assigned=          67           0
 nber times 1st assigned=          68           0
 nber times 1st assigned=          69           0
 nber times 1st assigned=          70           0
 nber times 1st assigned=          71           0
 nber times 1st assigned=          72           0
 nber times 1st assigned=          73           0
 nber times 1st assigned=          74           0
 nber times 1st assigned=          75           0
 nber times 1st assigned=          76           0
 nber times 1st assigned=          77           0
 nber times 1st assigned=          78           0
 nber times 1st assigned=          79           0
 nber times 1st assigned=          80           0
 nber times 1st assigned=          81           0
 nber times 1st assigned=          82           0
 nber times 1st assigned=          83           0
 nber times 1st assigned=          84           0
 nber times 1st assigned=          85           0
 nber times 1st assigned=          86           0
 nber times 1st assigned=          87           0
 nber times 1st assigned=          88           0
 nber times 1st assigned=          89           0
 nber times 1st assigned=          90           0
 nber times 1st assigned=          91           0
 nber times 1st assigned=          92           0
 nber times 1st assigned=          93           0
 nber times 1st assigned=          94           0
 nber times 1st assigned=          95           0
 nber times 1st assigned=          96           0
 nber times 1st assigned=          97           0
 nber times 1st assigned=          98           0
 nber times 1st assigned=          99           0
 nber times 1st assigned=         100           0
 nber times 1st assigned=         101           0
 nber times 1st assigned=         102           0
 nber times 1st assigned=         103           0
 nber times 1st assigned=         104           0
 nber times 1st assigned=         105           0
 nber times 1st assigned=         106           0
 nber times 1st assigned=         107           0
 nber times 1st assigned=         108           0
 modes represented=   105.398441720437     
 p1=
   -0.    0.    0.   -0.   -0.   -0. -125.  -48.   -3.  -17.   -3.   -1.   -4.   12.   -5.    2.    1.    0.    5.    5.
   -2.   -0.   -1.    1.    1.   -1.    1.    1.    2.   -1.    0.    0.    1.   -1.    0.   -1.    0.   -0.   -0.   -1.
   -0.    0.   -0.   -0.   -2.   -0.    0.   -0.   -0.   -0.    0.   -0.   -0.   -0.   -0.   -0.    1.    0.    0.   -0.
    0.    0.   -0.    1.   -0.   -0.    0.   -1.   -1.    1.    3.   -1.    2.   -1.    0.    0.   -0.    1.    2.    1.
    0.   -0.    0.   -0.    0.   -1.   -1.    1.    0.   -0.   -1.    2.    1.    3.   -0.   -0.   -0.    0.   -0.    0.
    0.   -0.   -0.    0.    0.    0.    0.    0.
 p2=
    0.   -0.    0.   -0.    0.    0.   73.  106.   12.  -36.   -2.   -1.   -1.   -7.   -4.   -4.   -1.    1.    8.    2.
   -4.    0.   -1.   -1.    1.   -1.    1.   -1.   -3.    1.   -2.    0.   -1.   -0.   -1.   -1.    0.   -0.    1.   -0.
   -1.    1.    0.    1.   -0.    0.    0.    1.   -0.   -0.   -0.   -0.   -0.    0.    1.   -0.    1.   -0.    0.   -0.
    0.    0.    0.    1.    0.    0.   -0.   -0.   -1.   -0.    2.    0.   -1.    2.    1.    1.   -1.    1.   -1.   -1.
    0.   -0.   -0.   -0.   -0.   -1.    0.   -1.    0.    0.   -0.   -0.   -0.   -4.    0.    0.    0.   -0.    0.   -0.
    0.   -0.   -0.    0.    0.   -0.    0.   -0.

 Displacement: in terms of nc of 1 THEN of nc of 2

   1     freq=    -0. Q= -0.000 lam=    -0.0     freq=    -0. Q= -0.000 lam=    -0.0
   2     freq=    -0. Q=  0.000 lam=    -0.0     freq=    -0. Q=  0.000 lam=    -0.0
   3     freq=    -0. Q=  0.000 lam=    -0.0     freq=    -0. Q=  0.000 lam=    -0.0
   4     freq=     0. Q= -0.000 lam=     0.0     freq=    -0. Q= -0.000 lam=    -0.0
   5     freq=     0. Q= -0.000 lam=     0.0     freq=     0. Q= -0.000 lam=     0.0
   6     freq=     0. Q= -0.000 lam=     0.0     freq=     0. Q= -0.000 lam=     0.0
   7     freq=    40. Q= -3.190 lam=   203.4     freq=    41. Q= -1.905 lam=    75.0
   8     freq=    51. Q= -1.375 lam=    48.1     freq=    66. Q= -3.478 lam=   396.7
   9     freq=    73. Q= -0.102 lam=     0.4     freq=    81. Q= -0.430 lam=     7.5
  10     freq=   105. Q= -0.692 lam=    25.1     freq=   117. Q= -1.566 lam=   143.4
  11     freq=   150. Q= -0.173 lam=     2.2     freq=   147. Q= -0.094 lam=     0.6
  12     freq=   215. Q= -0.062 lam=     0.4     freq=   209. Q= -0.065 lam=     0.4
  13     freq=   228. Q= -0.253 lam=     7.3     freq=   219. Q= -0.085 lam=     0.8
  14     freq=   236. Q=  0.740 lam=    64.7     freq=   240. Q=  0.440 lam=    23.3
  15     freq=   261. Q= -0.310 lam=    12.6     freq=   259. Q= -0.281 lam=    10.2
  16     freq=   264. Q=  0.105 lam=     1.5     freq=   272. Q=  0.233 lam=     7.4
  17     freq=   350. Q=  0.060 lam=     0.6     freq=   330. Q=  0.103 lam=     1.8
  18     freq=   397. Q=  0.010 lam=     0.0     freq=   392. Q=  0.068 lam=     0.9
  19     freq=   416. Q=  0.437 lam=    39.7     freq=   413. Q=  0.633 lam=    82.6
  20     freq=   417. Q=  0.439 lam=    40.3     freq=   425. Q=  0.176 lam=     6.5
  21     freq=   445. Q= -0.188 lam=     7.9     freq=   439. Q= -0.321 lam=    22.7
  22     freq=   475. Q= -0.001 lam=     0.0     freq=   475. Q= -0.042 lam=     0.4
  23     freq=   504. Q= -0.103 lam=     2.7     freq=   492. Q= -0.047 lam=     0.6
  24     freq=   514. Q=  0.079 lam=     1.6     freq=   497. Q=  0.074 lam=     1.4
  25     freq=   520. Q=  0.084 lam=     1.8     freq=   514. Q=  0.085 lam=     1.9
  26     freq=   521. Q= -0.089 lam=     2.1     freq=   522. Q= -0.049 lam=     0.6
  27     freq=   555. Q=  0.056 lam=     0.9     freq=   546. Q=  0.063 lam=     1.1
  28     freq=   568. Q=  0.093 lam=     2.4     freq=   557. Q=  0.072 lam=     1.4
  29     freq=   572. Q=  0.203 lam=    11.8     freq=   567. Q=  0.252 lam=    18.0
  30     freq=   615. Q= -0.119 lam=     4.4     freq=   603. Q= -0.060 lam=     1.1
  31     freq=   627. Q=  0.025 lam=     0.2     freq=   611. Q=  0.160 lam=     7.8
  32     freq=   644. Q=  0.013 lam=     0.1     freq=   634. Q=  0.002 lam=     0.0
  33     freq=   694. Q=  0.081 lam=     2.3     freq=   668. Q=  0.095 lam=     3.0
  34     freq=   704. Q= -0.086 lam=     2.6     freq=   692. Q= -0.023 lam=     0.2
  35     freq=   705. Q=  0.033 lam=     0.4     freq=   701. Q=  0.066 lam=     1.5
  36     freq=   718. Q= -0.104 lam=     3.9     freq=   705. Q= -0.110 lam=     4.3
  37     freq=   737. Q=  0.023 lam=     0.2     freq=   711. Q=  0.008 lam=     0.0
  38     freq=   768. Q= -0.007 lam=     0.0     freq=   721. Q= -0.024 lam=     0.2
  39     freq=   771. Q= -0.034 lam=     0.4     freq=   741. Q= -0.086 lam=     2.7
  40     freq=   785. Q= -0.129 lam=     6.5     freq=   754. Q= -0.033 lam=     0.4
  41     freq=   812. Q= -0.039 lam=     0.6     freq=   768. Q= -0.056 lam=     1.2
  42     freq=   833. Q=  0.024 lam=     0.2     freq=   771. Q=  0.124 lam=     5.9
  43     freq=   839. Q= -0.053 lam=     1.2     freq=   804. Q= -0.002 lam=     0.0
  44     freq=   849. Q= -0.033 lam=     0.5     freq=   813. Q= -0.069 lam=     1.9
  45     freq=   858. Q= -0.191 lam=    15.7     freq=   823. Q= -0.040 lam=     0.7
  46     freq=   861. Q= -0.049 lam=     1.0     freq=   838. Q= -0.012 lam=     0.1
  47     freq=   864. Q=  0.018 lam=     0.1     freq=   844. Q=  0.034 lam=     0.5
  48     freq=   911. Q= -0.005 lam=     0.0     freq=   849. Q= -0.154 lam=    10.1
  49     freq=   936. Q= -0.012 lam=     0.1     freq=   880. Q= -0.013 lam=     0.1
  50     freq=   966. Q= -0.005 lam=     0.0     freq=   891. Q= -0.005 lam=     0.0
  51     freq=   977. Q=  0.007 lam=     0.0     freq=   924. Q=  0.005 lam=     0.0
  52     freq=   983. Q= -0.001 lam=     0.0     freq=   929. Q= -0.022 lam=     0.2
  53     freq=   985. Q= -0.009 lam=     0.0     freq=   931. Q= -0.020 lam=     0.2
  54     freq=   986. Q= -0.011 lam=     0.1     freq=   959. Q= -0.017 lam=     0.1
  55     freq=   994. Q= -0.027 lam=     0.4     freq=   974. Q= -0.065 lam=     2.1
  56     freq=  1003. Q= -0.018 lam=     0.2     freq=   980. Q= -0.012 lam=     0.1
  57     freq=  1015. Q=  0.113 lam=     6.4     freq=   994. Q=  0.084 lam=     3.5
  58     freq=  1022. Q=  0.008 lam=     0.0     freq=  1008. Q=  0.010 lam=     0.1
  59     freq=  1054. Q=  0.017 lam=     0.2     freq=  1043. Q=  0.056 lam=     1.6
  60     freq=  1096. Q= -0.010 lam=     0.1     freq=  1087. Q= -0.059 lam=     1.9
  61     freq=  1101. Q=  0.008 lam=     0.0     freq=  1094. Q=  0.021 lam=     0.2
  62     freq=  1128. Q=  0.028 lam=     0.4     freq=  1127. Q=  0.064 lam=     2.3
  63     freq=  1139. Q= -0.025 lam=     0.4     freq=  1129. Q= -0.022 lam=     0.3
  64     freq=  1169. Q=  0.138 lam=    11.1     freq=  1152. Q=  0.179 lam=    18.5
  65     freq=  1181. Q= -0.040 lam=     1.0     freq=  1168. Q= -0.029 lam=     0.5
  66     freq=  1183. Q= -0.024 lam=     0.3     freq=  1173. Q= -0.059 lam=     2.1
  67     freq=  1201. Q=  0.029 lam=     0.5     freq=  1187. Q=  0.006 lam=     0.0
  68     freq=  1204. Q= -0.097 lam=     5.6     freq=  1196. Q= -0.021 lam=     0.3
  69     freq=  1215. Q= -0.080 lam=     3.9     freq=  1207. Q= -0.104 lam=     6.5
  70     freq=  1242. Q=  0.097 lam=     5.9     freq=  1227. Q=  0.033 lam=     0.7
  71     freq=  1263. Q=  0.434 lam=   119.0     freq=  1245. Q=  0.292 lam=    53.0
  72     freq=  1270. Q= -0.079 lam=     4.0     freq=  1257. Q= -0.006 lam=     0.0
  73     freq=  1291. Q=  0.304 lam=    59.7     freq=  1276. Q=  0.136 lam=    11.8
  74     freq=  1308. Q= -0.172 lam=    19.3     freq=  1301. Q= -0.319 lam=    66.1
  75     freq=  1330. Q=  0.071 lam=     3.3     freq=  1323. Q=  0.179 lam=    21.2
  76     freq=  1353. Q=  0.001 lam=     0.0     freq=  1335. Q=  0.198 lam=    26.1
  77     freq=  1359. Q= -0.025 lam=     0.4     freq=  1350. Q= -0.155 lam=    16.2
  78     freq=  1388. Q=  0.093 lam=     5.9     freq=  1357. Q=  0.083 lam=     4.7
  79     freq=  1408. Q=  0.240 lam=    40.7     freq=  1369. Q=  0.163 lam=    18.1
  80     freq=  1431. Q=  0.153 lam=    16.8     freq=  1386. Q=  0.168 lam=    19.6
  81     freq=  1441. Q=  0.075 lam=     4.1     freq=  1430. Q=  0.040 lam=     1.2
  82     freq=  1461. Q= -0.039 lam=     1.1     freq=  1435. Q= -0.061 lam=     2.7
  83     freq=  1474. Q=  0.005 lam=     0.0     freq=  1464. Q=  0.041 lam=     1.3
  84     freq=  1485. Q= -0.003 lam=     0.0     freq=  1466. Q= -0.062 lam=     2.8
  85     freq=  1517. Q=  0.038 lam=     1.1     freq=  1495. Q=  0.032 lam=     0.7
  86     freq=  1525. Q= -0.088 lam=     5.9     freq=  1512. Q= -0.155 lam=    18.2
  87     freq=  1543. Q= -0.190 lam=    27.8     freq=  1524. Q= -0.012 lam=     0.1
  88     freq=  1577. Q=  0.164 lam=    21.3     freq=  1533. Q=  0.130 lam=    12.9
  89     freq=  1615. Q=  0.049 lam=     2.0     freq=  1567. Q=  0.069 lam=     3.7
  90     freq=  1622. Q= -0.034 lam=     0.9     freq=  1571. Q= -0.036 lam=     1.0
  91     freq=  1632. Q= -0.174 lam=    24.8     freq=  1576. Q= -0.030 lam=     0.7
  92     freq=  1643. Q=  0.283 lam=    65.6     freq=  1598. Q=  0.018 lam=     0.3
  93     freq=  1648. Q=  0.085 lam=     5.9     freq=  1624. Q=  0.028 lam=     0.7
  94     freq=  1668. Q=  0.487 lam=   197.7     freq=  1637. Q=  0.593 lam=   287.6
  95     freq=  3156. Q= -0.001 lam=     0.0     freq=  3117. Q= -0.019 lam=     0.6
  96     freq=  3158. Q= -0.016 lam=     0.4     freq=  3120. Q= -0.014 lam=     0.3
  97     freq=  3159. Q= -0.021 lam=     0.7     freq=  3129. Q= -0.019 lam=     0.5
  98     freq=  3162. Q=  0.001 lam=     0.0     freq=  3130. Q=  0.013 lam=     0.3
  99     freq=  3162. Q= -0.007 lam=     0.1     freq=  3130. Q= -0.001 lam=     0.0
 100     freq=  3166. Q=  0.003 lam=     0.0     freq=  3136. Q=  0.003 lam=     0.0
 101     freq=  3167. Q=  0.004 lam=     0.0     freq=  3140. Q=  0.008 lam=     0.1
 102     freq=  3175. Q= -0.002 lam=     0.0     freq=  3144. Q= -0.012 lam=     0.2
 103     freq=  3175. Q= -0.019 lam=     0.6     freq=  3152. Q= -0.018 lam=     0.5
 104     freq=  3180. Q=  0.014 lam=     0.3     freq=  3154. Q=  0.037 lam=     2.2
 105     freq=  3181. Q=  0.012 lam=     0.2     freq=  3162. Q=  0.001 lam=     0.0
 106     freq=  3183. Q=  0.031 lam=     1.6     freq=  3171. Q=  0.023 lam=     0.9
 107     freq=  3189. Q=  0.019 lam=     0.5     freq=  3180. Q=  0.001 lam=     0.0
 108     freq=  3201. Q=  0.009 lam=     0.1     freq=  3190. Q=  0.027 lam=     1.2

 total reorg energy (cm**-1, kcal/mol)=     1186.     1466.      3.39      4.19
 Nber of molecules processed=           2
