 Enter ifcurve (0=recti, 1=orth curvi, 2=apprx curvi, -1 = skip
 And atom ordering flag, 0= never changes, 1= use the first order thenceforth,
  2= deduce it (does read on fail), 3= always read it
 Reading file: 
 ./PDI_3_C1S0.log                                                               
                                          
  Entering Gaussian System, Link 0=g16                                          
  
 Gaussian format, type: g94, g98, g03= F F F
  #P Geom=AllCheck Guess=TCheck SCRF=Check GenChk UB3LYP/6-311G(d,p) Fre    
 energy type= B3LYP   
 Original G94 input coords:
  6  0.856729  0.268917 -0.268389
  6  2.331488  0.018104 -0.220659
  6  3.211520  1.019849 -0.329231
  7  4.643405  0.961848 -0.305554
  6  5.342764 -0.245287 -0.142267
  8  4.783701 -1.312880 -0.012338
  6  6.833657 -0.178991 -0.132422
  6  7.547213 -1.364366  0.029042
  6  8.933390 -1.348159  0.043331
  6  9.670351 -0.151661 -0.102686
  6 11.117804 -0.122230 -0.089774
  6 11.899576 -1.287283  0.069697
  6 13.286303 -1.246101  0.080462
  6 13.949610 -0.032058 -0.068847
  6 15.447890 -0.020488 -0.052668
  8 16.056041 -1.060895  0.089735
  7 16.086859  1.208565 -0.204810
  6 17.595792  1.264955 -0.194472
  6 18.160426  0.836092  1.162159
  6 18.190450  0.504979 -1.382752
  6 15.401179  2.418161 -0.369929
  8 15.971789  3.480293 -0.501359
  6 13.905199  2.371324 -0.380759
  6 13.196502  3.557277 -0.542431
  6 11.808459  3.542807 -0.556087
  6 11.071844  2.348750 -0.409687
  6  9.621206  2.319435 -0.422148
  6  8.839936  3.481746 -0.580494
  6  7.452009  3.438518 -0.590564
  6  6.791449  2.223525 -0.441951
  6  5.299534  2.209588 -0.457241
  8  4.683586  3.242057 -0.596155
  6  7.529738  1.038624 -0.281068
  6  8.953609  1.069124 -0.268553
  6 11.786375  1.127896 -0.243715
  6 13.210698  1.155940 -0.231109
  1  0.378915 -0.085190  0.651353
  1  0.400081 -0.292921 -1.090239
  1  0.616501  1.325823 -0.397393
  1  2.658592 -1.002300 -0.095140
  1  2.877708  2.038999 -0.455358
  1  6.997568 -2.289885  0.141911
  1  9.448613 -2.289716  0.171044
  1 11.421109 -2.249241  0.188334
  1 13.873150 -2.147287  0.203781
  1 17.799845  2.324463 -0.329880
  1 18.012424 -0.226733  1.349174
  1 17.707528  1.409661  1.974637
  1 19.233536  1.040150  1.172531
  1 18.044587 -0.570857 -1.294501
  1 19.263919  0.703784 -1.420694
  1 17.757526  0.849458 -2.325168
  1 13.747846  4.481822 -0.656089
  1 11.294233  4.484998 -0.683969
  1  9.316470  4.444654 -0.698878
  1  6.866408  4.340461 -0.713089
 nber atoms=          56
  SCF Done:  E(UB3LYP) =  -1565.86885135     A.U. after    1 cycles             
  
          23          40 "  -1565.86885135"
After scan for Atom:   Atom  AN      X      Y      Z        X      Y      Z        X      Y      Z   
After scan for Atom:   Atom  AN      X      Y      Z        X      Y      Z        X      Y      Z   
After scan for Atom:   Atom  AN      X      Y      Z        X      Y      Z        X      Y      Z   
After scan for Atom:   Atom  AN      X      Y      Z        X      Y      Z        X      Y      Z   
After scan for Atom:   Atom  AN      X      Y      Z        X      Y      Z        X      Y      Z   
After scan for Atom:   Atom  AN      X      Y      Z        X      Y      Z        X      Y      Z   
After scan for Atom:   Atom  AN      X      Y      Z        X      Y      Z        X      Y      Z   
After scan for Atom:   Atom  AN      X      Y      Z        X      Y      Z        X      Y      Z   
After scan for Atom:   Atom  AN      X      Y      Z        X      Y      Z        X      Y      Z   
After scan for Atom:   Atom  AN      X      Y      Z        X      Y      Z        X      Y      Z   
After scan for Atom:   Atom  AN      X      Y      Z        X      Y      Z        X      Y      Z   
After scan for Atom:   Atom  AN      X      Y      Z        X      Y      Z        X      Y      Z   
After scan for Atom:   Atom  AN      X      Y      Z        X      Y      Z        X      Y      Z   
After scan for Atom:   Atom  AN      X      Y      Z        X      Y      Z        X      Y      Z   
After scan for Atom:   Atom  AN      X      Y      Z        X      Y      Z        X      Y      Z   
After scan for Atom:   Atom  AN      X      Y      Z        X      Y      Z        X      Y      Z   
After scan for Atom:   Atom  AN      X      Y      Z        X      Y      Z        X      Y      Z   
After scan for Atom:   Atom  AN      X      Y      Z        X      Y      Z        X      Y      Z   
After scan for Atom:   Atom  AN      X      Y      Z        X      Y      Z        X      Y      Z   
After scan for Atom:   Atom  AN      X      Y      Z        X      Y      Z        X      Y      Z   
After scan for Atom:   Atom  AN      X      Y      Z        X      Y      Z        X      Y      Z   
After scan for Atom:   Atom  AN      X      Y      Z        X      Y      Z        X      Y      Z   
After scan for Atom:   Atom  AN      X      Y      Z        X      Y      Z        X      Y      Z   
After scan for Atom:   Atom  AN      X      Y      Z        X      Y      Z        X      Y      Z   
After scan for Atom:   Atom  AN      X      Y      Z        X      Y      Z        X      Y      Z   
After scan for Atom:   Atom  AN      X      Y      Z        X      Y      Z        X      Y      Z   
After scan for Atom:   Atom  AN      X      Y      Z        X      Y      Z        X      Y      Z   
After scan for Atom:   Atom  AN      X      Y      Z        X      Y      Z        X      Y      Z   
After scan for Atom:   Atom  AN      X      Y      Z        X      Y      Z        X      Y      Z   
After scan for Atom:   Atom  AN      X      Y      Z        X      Y      Z        X      Y      Z   
After scan for Atom:   Atom  AN      X      Y      Z        X      Y      Z        X      Y      Z   
After scan for Atom:   Atom  AN      X      Y      Z        X      Y      Z        X      Y      Z   
After scan for Atom:   Atom  AN      X      Y      Z        X      Y      Z        X      Y      Z   
After scan for Atom:   Atom  AN      X      Y      Z        X      Y      Z        X      Y      Z   
After scan for Atom:   Atom  AN      X      Y      Z        X      Y      Z        X      Y      Z   
After scan for Atom:   Atom  AN      X      Y      Z        X      Y      Z        X      Y      Z   
After scan for Atom:   Atom  AN      X      Y      Z        X      Y      Z        X      Y      Z   
After scan for Atom:   Atom  AN      X      Y      Z        X      Y      Z        X      Y      Z   
After scan for Atom:   Atom  AN      X      Y      Z        X      Y      Z        X      Y      Z   
After scan for Atom:   Atom  AN      X      Y      Z        X      Y      Z        X      Y      Z   
After scan for Atom:   Atom  AN      X      Y      Z        X      Y      Z        X      Y      Z   
After scan for Atom:   Atom  AN      X      Y      Z        X      Y      Z        X      Y      Z   
After scan for Atom:   Atom  AN      X      Y      Z        X      Y      Z        X      Y      Z   
After scan for Atom:   Atom  AN      X      Y      Z        X      Y      Z        X      Y      Z   
After scan for Atom:   Atom  AN      X      Y      Z        X      Y      Z        X      Y      Z   
After scan for Atom:   Atom  AN      X      Y      Z        X      Y      Z        X      Y      Z   
After scan for Atom:   Atom  AN      X      Y      Z        X      Y      Z        X      Y      Z   
After scan for Atom:   Atom  AN      X      Y      Z        X      Y      Z        X      Y      Z   
After scan for Atom:   Atom  AN      X      Y      Z        X      Y      Z        X      Y      Z   
After scan for Atom:   Atom  AN      X      Y      Z        X      Y      Z        X      Y      Z   
After scan for Atom:   Atom  AN      X      Y      Z        X      Y      Z        X      Y      Z   
After scan for Atom:   Atom  AN      X      Y      Z        X      Y      Z        X      Y      Z   
After scan for Atom:   Atom  AN      X      Y      Z        X      Y      Z        X      Y      Z   
After scan for Atom:   Atom  AN      X      Y      Z        X      Y      Z        X      Y      Z   
 g94    frequencies=
     0.0    0.0    0.0    0.0    0.0    0.0   19.2   27.9   37.4   48.8
    55.9   62.9   72.8   86.2   86.7  101.5  144.9  150.4  163.9  175.6
   179.7  189.8  205.0  209.6  218.5  234.6  237.6  259.7  272.5  282.4
   310.4  320.4  324.9  355.1  380.3  386.2  387.8  411.5  428.6  432.2
   434.8  438.0  443.8  461.4  465.3  480.2  482.2  501.0  516.9  521.4
   547.2  572.4  574.2  577.7  613.0  615.3  630.7  636.1  662.4  705.1
   705.6  708.9  716.5  721.1  747.1  754.1  765.1  771.8  802.1  808.7
   824.3  834.9  842.0  866.2  869.0  873.6  877.2  890.9  906.9  931.9
   948.1  955.6  958.0  965.0  999.2 1010.6 1012.2 1019.6 1020.8 1035.5
  1062.9 1066.2 1097.6 1099.3 1111.8 1155.4 1156.0 1157.1 1167.1 1171.9
  1192.6 1200.0 1209.3 1215.9 1225.2 1235.7 1251.0 1275.8 1280.1 1316.4
  1323.1 1331.9 1339.9 1364.0 1368.0 1375.8 1376.4 1386.7 1400.0 1404.3
  1406.7 1416.8 1421.0 1424.6 1441.8 1454.8 1475.0 1480.3 1485.8 1486.2
  1488.2 1494.8 1500.3 1502.6 1520.6 1523.1 1564.9 1571.1 1574.4 1589.2
  1594.8 1609.4 1617.6 1650.4 1711.7 1716.3 1759.5 1762.7 3019.6 3042.2
  3045.3 3065.2 3102.8 3105.9 3107.1 3118.4 3135.1 3146.4 3204.6 3204.9
  3210.9 3211.0 3216.9 3217.0 3227.0 3227.7 3228.3 3243.5
 g94    symmetries=
                                                 A      A      A      A
       A      A      A      A      A      A      A      A      A      A
       A      A      A      A      A      A      A      A      A      A
       A      A      A      A      A      A      A      A      A      A
       A      A      A      A      A      A      A      A      A      A
       A      A      A      A      A      A      A      A      A      A
       A      A      A      A      A      A      A      A      A      A
       A      A      A      A      A      A      A      A      A      A
       A      A      A      A      A      A      A      A      A      A
       A      A      A      A      A      A      A      A      A      A
       A      A      A      A      A      A      A      A      A      A
       A      A      A      A      A      A      A      A      A      A
       A      A      A      A      A      A      A      A      A      A
       A      A      A      A      A      A      A      A      A      A
       A      A      A      A      A      A      A      A      A      A
       A      A      A      A      A      A      A      A      A      A
       A      A      A      A      A      A      A      A
 atomic masses:
 12.0000 12.0000 12.0000 14.0031 12.0000 15.9949 12.0000 12.0000 12.0000 12.0000
 12.0000 12.0000 12.0000 12.0000 12.0000 15.9949 14.0031 12.0000 12.0000 12.0000
 12.0000 15.9949 12.0000 12.0000 12.0000 12.0000 12.0000 12.0000 12.0000 12.0000
 12.0000 15.9949 12.0000 12.0000 12.0000 12.0000  1.0078  1.0078  1.0078  1.0078
  1.0078  1.0078  1.0078  1.0078  1.0078  1.0078  1.0078  1.0078  1.0078  1.0078
  1.0078  1.0078  1.0078  1.0078  1.0078  1.0078
 looking for force constants in 
 ./PDI_3_C1S0.fchk                                                              
  
 Cartesian Force Constants                  R   N=       14196                  
  
 n3=         168       14196
 g94-fc frequencies=
    -1.8   -1.1   -0.0    0.0    0.0    4.1   19.2   27.9   37.4   48.8
    55.9   62.9   72.8   86.2   86.7  101.5  144.9  150.4  163.9  175.6
   179.7  189.8  205.0  209.6  218.5  234.6  237.6  259.7  272.5  282.4
   310.4  320.4  324.9  355.1  380.3  386.2  387.8  411.5  428.6  432.2
   434.8  438.0  443.8  461.4  465.3  480.2  482.2  501.0  516.9  521.4
   547.2  572.4  574.2  577.7  613.0  615.3  630.8  636.1  662.4  705.2
   705.6  708.9  716.6  721.1  747.1  754.1  765.2  771.8  802.1  808.7
   824.4  834.9  842.0  866.2  869.0  873.6  877.2  890.9  906.9  931.9
   948.1  955.7  958.0  965.0  999.2 1010.6 1012.2 1019.6 1020.8 1035.5
  1062.9 1066.3 1097.6 1099.4 1111.8 1155.5 1156.0 1157.1 1167.1 1171.9
  1192.6 1200.1 1209.3 1215.9 1225.3 1235.7 1251.0 1275.8 1280.2 1316.4
  1323.2 1331.9 1339.9 1364.1 1368.1 1375.8 1376.4 1386.7 1400.1 1404.4
  1406.8 1416.8 1421.0 1424.6 1441.8 1454.9 1475.0 1480.3 1485.9 1486.2
  1488.2 1494.8 1500.3 1502.7 1520.6 1523.1 1565.0 1571.1 1574.4 1589.2
  1594.8 1609.4 1617.6 1650.4 1711.7 1716.3 1759.5 1762.7 3019.7 3042.2
  3045.4 3065.2 3102.8 3106.0 3107.2 3118.5 3135.1 3146.4 3204.6 3205.0
  3211.0 3211.1 3217.0 3217.0 3227.1 3227.8 3228.3 3243.5
 at 99999: n3=         168
 symm operator            1 :  F  nop=           0
 symm operator            2 :  F  nop=           0
 symm operator            3 :  F  nop=           0
 symm operator            4 :  F  nop=           0
 symm operator            5 :  F  nop=           0
 symm operator            6 :  F  nop=           0
 symm operator            7 :  F  nop=           0
 The point group of the molecule is  C1
 Symmetry rotation matrix:
   1.00000   0.00000   0.00000
   0.00000   1.00000   0.00000
   0.00000   0.00000   1.00000

 Projecting out zero-frequency components
 generating redundant internal coords
         300        3600          56
 search for int coords
   1 str   2   1   1.497
   2 str   3   2   1.338
   3 str   4   3   1.433
   4 str   5   4   1.405
   5 str   6   5   1.212
   6 str   7   5   1.492
   7 str   8   7   1.393
   8 str   9   8   1.386
   9 str  10   9   1.413
  10 str  11  10   1.448
  11 str  12  11   1.412
  12 str  13  12   1.387
  13 str  14  13   1.391
  14 str  15  14   1.498
  15 str  16  15   1.213
  16 str  17  15   1.394
  17 str  18  17   1.510
  18 str  19  18   1.531
  19 str  20  18   1.531
  20 str  21  17   1.400
  21 str  22  21   1.213
  22 str  23  21   1.497
  23 str  24  23   1.391
  24 str  25  24   1.388
  25 str  26  25   1.411
  26 str  27  26   1.451
  27 str  28  27   1.409
  28 str  29  28   1.389
  29 str  30  29   1.391
  30 str  31   4   1.418
  31 str  31  30   1.492
  32 str  32  31   1.210
  33 str  33   7   1.410
  34 str  33  30   1.405
  35 str  34  10   1.425
  36 str  34  27   1.426
  37 str  34  33   1.424
  38 str  35  11   1.426
  39 str  35  26   1.424
  40 str  36  14   1.408
  41 str  36  23   1.408
  42 str  36  35   1.425
  43 str  37   1   1.095
  44 str  38   1   1.095
  45 str  39   1   1.092
  46 str  40   2   1.079
  47 str  41   3   1.080
  48 str  42   8   1.082
  49 str  43   9   1.081
  50 str  44  12   1.081
  51 str  45  13   1.082
  52 str  46  18   1.087
  53 str  47  19   1.089
  54 str  48  19   1.093
  55 str  49  19   1.092
  56 str  50  20   1.089
  57 str  51  20   1.092
  58 str  52  20   1.093
  59 str  53  24   1.082
  60 str  54  25   1.081
  61 str  55  28   1.081
  62 str  56  29   1.082
 nber stretches=          62
  63 ben   1   2   3
  64 prop tor   1   2   3   4
  65 prop tor   1   2   3  41
  66 ben   1   2  40
  67 ben   2   1  37
  68 ben   2   1  38
  69 ben   2   1  39
  70 ben   2   3   4
  71 prop tor   2   3   4   5
  72 prop tor   2   3   4  31
  73 ben   2   3  41
  74 ben   3   2  40
  75 ben   3   4   5
  76 prop tor   3   4   5   6
  77 prop tor   3   4   5   7
  78 ben   3   4  31
  79 prop tor   3   4  31  30
  80 prop tor   3   4  31  32
  81 ben   4   3  41
  82 ben   4   5   6
  83 ben   4   5   7
  84 prop tor   4   5   7   8
  85 prop tor   4   5   7  33
  86 ben   4  31  30
  87 ben   4  31  32
  88 ben   5   4  31
  89 prop tor   5   4  31  30
  90 prop tor   5   4  31  32
  91 ben   5   7   8
  92 prop tor   5   7   8   9
  93 prop tor   5   7   8  42
  94 ben   5   7  33
  95 prop tor   5   7  33  30
  96 prop tor   5   7  33  34
  97 ben   6   5   7
  98 prop tor   6   5   7   8
  99 prop tor   6   5   7  33
 100 ben   7   8   9
 101 prop tor   7   8   9  10
 102 prop tor   7   8   9  43
 103 ben   7   8  42
 104 ben   7  33  30
 105 ben   7  33  34
 106 prop tor   7  33  34  10
 107 prop tor   7  33  34  27
 108 ben   8   7  33
 109 prop tor   8   7  33  30
 110 prop tor   8   7  33  34
 111 ben   8   9  10
 112 prop tor   8   9  10  11
 113 prop tor   8   9  10  34
 114 ben   8   9  43
 115 ben   9   8  42
 116 ben   9  10  11
 117 prop tor   9  10  11  12
 118 prop tor   9  10  11  35
 119 ben   9  10  34
 120 prop tor   9  10  34  27
 121 prop tor   9  10  34  33
 122 ben  10   9  43
 123 ben  10  11  12
 124 prop tor  10  11  12  13
 125 prop tor  10  11  12  44
 126 ben  10  11  35
 127 prop tor  10  11  35  26
 128 prop tor  10  11  35  36
 129 ben  10  34  27
 130 ben  10  34  33
 131 ben  11  10  34
 132 prop tor  11  10  34  27
 133 prop tor  11  10  34  33
 134 ben  11  12  13
 135 prop tor  11  12  13  14
 136 prop tor  11  12  13  45
 137 ben  11  12  44
 138 ben  11  35  26
 139 ben  11  35  36
 140 prop tor  11  35  36  14
 141 prop tor  11  35  36  23
 142 ben  12  11  35
 143 prop tor  12  11  35  26
 144 prop tor  12  11  35  36
 145 ben  12  13  14
 146 prop tor  12  13  14  15
 147 prop tor  12  13  14  36
 148 ben  12  13  45
 149 ben  13  12  44
 150 ben  13  14  15
 151 prop tor  13  14  15  16
 152 prop tor  13  14  15  17
 153 ben  13  14  36
 154 prop tor  13  14  36  23
 155 prop tor  13  14  36  35
 156 ben  14  13  45
 157 ben  14  15  16
 158 ben  14  15  17
 159 prop tor  14  15  17  18
 160 prop tor  14  15  17  21
 161 ben  14  36  23
 162 ben  14  36  35
 163 ben  15  14  36
 164 prop tor  15  14  36  23
 165 prop tor  15  14  36  35
 166 ben  15  17  18
 167 prop tor  15  17  18  19
 168 prop tor  15  17  18  20
 169 prop tor  15  17  18  46
 170 ben  15  17  21
 171 prop tor  15  17  21  22
 172 prop tor  15  17  21  23
 173 ben  16  15  17
 174 prop tor  16  15  17  18
 175 prop tor  16  15  17  21
 176 ben  17  18  19
 177 prop tor  17  18  19  47
 178 prop tor  17  18  19  48
 179 prop tor  17  18  19  49
 180 ben  17  18  20
 181 prop tor  17  18  20  50
 182 prop tor  17  18  20  51
 183 prop tor  17  18  20  52
 184 ben  17  18  46
 185 ben  17  21  22
 186 ben  17  21  23
 187 prop tor  17  21  23  24
 188 prop tor  17  21  23  36
 189 ben  18  17  21
 190 prop tor  18  17  21  22
 191 prop tor  18  17  21  23
 192 ben  18  19  47
 193 ben  18  19  48
 194 ben  18  19  49
 195 ben  18  20  50
 196 ben  18  20  51
 197 ben  18  20  52
 198 ben  19  18  20
 199 prop tor  19  18  20  50
 200 prop tor  19  18  20  51
 201 prop tor  19  18  20  52
 202 ben  19  18  46
 203 prop tor  20  18  19  47
 204 prop tor  20  18  19  48
 205 prop tor  20  18  19  49
 206 ben  20  18  46
 207 prop tor  21  17  18  19
 208 prop tor  21  17  18  20
 209 prop tor  21  17  18  46
 210 ben  21  23  24
 211 prop tor  21  23  24  25
 212 prop tor  21  23  24  53
 213 ben  21  23  36
 214 prop tor  21  23  36  14
 215 prop tor  21  23  36  35
 216 ben  22  21  23
 217 prop tor  22  21  23  24
 218 prop tor  22  21  23  36
 219 ben  23  24  25
 220 prop tor  23  24  25  26
 221 prop tor  23  24  25  54
 222 ben  23  24  53
 223 ben  23  36  35
 224 ben  24  23  36
 225 prop tor  24  23  36  14
 226 prop tor  24  23  36  35
 227 ben  24  25  26
 228 prop tor  24  25  26  27
 229 prop tor  24  25  26  35
 230 ben  24  25  54
 231 ben  25  24  53
 232 ben  25  26  27
 233 prop tor  25  26  27  28
 234 prop tor  25  26  27  34
 235 ben  25  26  35
 236 prop tor  25  26  35  11
 237 prop tor  25  26  35  36
 238 ben  26  25  54
 239 ben  26  27  28
 240 prop tor  26  27  28  29
 241 prop tor  26  27  28  55
 242 ben  26  27  34
 243 prop tor  26  27  34  10
 244 prop tor  26  27  34  33
 245 ben  26  35  36
 246 prop tor  26  35  36  14
 247 prop tor  26  35  36  23
 248 ben  27  26  35
 249 prop tor  27  26  35  11
 250 prop tor  27  26  35  36
 251 ben  27  28  29
 252 prop tor  27  28  29  30
 253 prop tor  27  28  29  56
 254 ben  27  28  55
 255 ben  27  34  33
 256 ben  28  27  34
 257 prop tor  28  27  34  10
 258 prop tor  28  27  34  33
 259 ben  28  29  30
 260 prop tor  28  29  30  31
 261 prop tor  28  29  30  33
 262 ben  28  29  56
 263 ben  29  28  55
 264 ben  29  30  31
 265 prop tor  29  30  31   4
 266 prop tor  29  30  31  32
 267 ben  29  30  33
 268 prop tor  29  30  33   7
 269 prop tor  29  30  33  34
 270 ben  30  29  56
 271 ben  30  31  32
 272 ben  30  33  34
 273 prop tor  30  33  34  10
 274 prop tor  30  33  34  27
 275 prop tor  31   4   5   6
 276 prop tor  31   4   5   7
 277 ben  31  30  33
 278 prop tor  31  30  33   7
 279 prop tor  31  30  33  34
 280 prop tor  33   7   8   9
 281 prop tor  33   7   8  42
 282 prop tor  33  30  31   4
 283 prop tor  33  30  31  32
 284 prop tor  34  10  11  12
 285 prop tor  34  10  11  35
 286 prop tor  34  27  28  29
 287 prop tor  34  27  28  55
 288 prop tor  35  11  12  13
 289 prop tor  35  11  12  44
 290 prop tor  35  26  27  28
 291 prop tor  35  26  27  34
 292 prop tor  36  14  15  16
 293 prop tor  36  14  15  17
 294 prop tor  36  23  24  25
 295 prop tor  36  23  24  53
 296 prop tor  37   1   2   3
 297 prop tor  37   1   2  40
 298 ben  37   1  38
 299 ben  37   1  39
 300 prop tor  38   1   2   3
 301 prop tor  38   1   2  40
 302 ben  38   1  39
 303 prop tor  39   1   2   3
 304 prop tor  39   1   2  40
 305 prop tor  40   2   3   4
 306 prop tor  40   2   3  41
 307 prop tor  41   3   4   5
 308 prop tor  41   3   4  31
 309 prop tor  42   8   9  10
 310 prop tor  42   8   9  43
 311 prop tor  43   9  10  11
 312 prop tor  43   9  10  34
 313 prop tor  44  12  13  14
 314 prop tor  44  12  13  45
 315 prop tor  45  13  14  15
 316 prop tor  45  13  14  36
 317 prop tor  46  18  19  47
 318 prop tor  46  18  19  48
 319 prop tor  46  18  19  49
 320 prop tor  46  18  20  50
 321 prop tor  46  18  20  51
 322 prop tor  46  18  20  52
 323 ben  47  19  48
 324 ben  47  19  49
 325 ben  48  19  49
 326 ben  50  20  51
 327 ben  50  20  52
 328 ben  51  20  52
 329 prop tor  53  24  25  26
 330 prop tor  53  24  25  54
 331 prop tor  54  25  26  27
 332 prop tor  54  25  26  35
 333 prop tor  55  28  29  30
 334 prop tor  55  28  29  56
 335 prop tor  56  29  30  31
 336 prop tor  56  29  30  33
 nber bend=             108
 nber lin bend=           0
 nber prop tor=         166
 nber impr tor=           0
 nber tot redund int=         336
 Eigenvalues of G in red int coords
    Gval -0.00000000 -0.00000000 -0.00000000 -0.00000000 -0.00000000 -0.00000000 -0.00000000 -0.00000000
    Gval -0.00000000 -0.00000000 -0.00000000 -0.00000000 -0.00000000 -0.00000000 -0.00000000 -0.00000000
    Gval -0.00000000 -0.00000000 -0.00000000 -0.00000000 -0.00000000 -0.00000000 -0.00000000 -0.00000000
    Gval -0.00000000 -0.00000000 -0.00000000 -0.00000000 -0.00000000 -0.00000000 -0.00000000 -0.00000000
    Gval -0.00000000 -0.00000000 -0.00000000 -0.00000000 -0.00000000 -0.00000000 -0.00000000 -0.00000000
    Gval -0.00000000 -0.00000000 -0.00000000 -0.00000000 -0.00000000 -0.00000000 -0.00000000 -0.00000000
    Gval -0.00000000 -0.00000000 -0.00000000 -0.00000000 -0.00000000 -0.00000000 -0.00000000 -0.00000000
    Gval -0.00000000 -0.00000000 -0.00000000 -0.00000000 -0.00000000 -0.00000000 -0.00000000 -0.00000000
    Gval -0.00000000 -0.00000000 -0.00000000 -0.00000000 -0.00000000 -0.00000000 -0.00000000 -0.00000000
    Gval -0.00000000 -0.00000000 -0.00000000 -0.00000000 -0.00000000 -0.00000000 -0.00000000 -0.00000000
    Gval  0.00000000  0.00000000  0.00000000  0.00000000  0.00000000  0.00000000  0.00000000  0.00000000
    Gval  0.00000000  0.00000000  0.00000000  0.00000000  0.00000000  0.00000000  0.00000000  0.00000000
    Gval  0.00000000  0.00000000  0.00000000  0.00000000  0.00000000  0.00000000  0.00000000  0.00000000
    Gval  0.00000000  0.00000000  0.00000000  0.00000000  0.00000000  0.00000000  0.00000000  0.00000000
    Gval  0.00000000  0.00000000  0.00000000  0.00000000  0.00000000  0.00000000  0.00000000  0.00000000
    Gval  0.00000000  0.00000000  0.00000000  0.00000000  0.00000000  0.00000000  0.00000000  0.00000000
    Gval  0.00000000  0.00000000  0.00000000  0.00000000  0.00000000  0.00000000  0.00000000  0.00000000
    Gval  0.00000000  0.00000000  0.00000000  0.00000000  0.00000000  0.00000000  0.00000000  0.00000000
    Gval  0.00000000  0.00000000  0.00000000  0.00000000  0.00000000  0.00000000  0.00000000  0.00000000
    Gval  0.00000000  0.00000000  0.00000000  0.00000000  0.00000000  0.00000000  0.00000000  0.00000000
    Gval  0.00000000  0.00000000  0.00000000  0.00000000  0.00000000  0.00000000  0.00000000  0.00000000
    Gval  0.00000000  0.00000000  0.00000000  0.00000000  0.00000000  0.00000000  0.00000083  0.00000199
    Gval  0.00000243  0.00000273  0.00000615  0.00000694  0.00000801  0.00001018  0.00001101  0.00001124
    Gval  0.00001555  0.00001622  0.00001720  0.00001794  0.00001842  0.00001897  0.00002166  0.00002352
    Gval  0.00002411  0.00002547  0.00002989  0.00003220  0.00003272  0.00003584  0.00003992  0.00004648
    Gval  0.00004899  0.00005127  0.00005310  0.00005539  0.00005876  0.00006191  0.00006199  0.00006837
    Gval  0.00007133  0.00007387  0.00008137  0.00008250  0.00008380  0.00008673  0.00008858  0.00009204
    Gval  0.00009370  0.00009510  0.00010654  0.00010792  0.00011584  0.00012160  0.00012263  0.00013519
    Gval  0.00013683  0.00013744  0.00014087  0.00015371  0.00015972  0.00016441  0.00016541  0.00018066
    Gval  0.00019255  0.00021016  0.00021555  0.00022245  0.00022971  0.00023108  0.00026923  0.00028557
    Gval  0.00028713  0.00029331  0.00033659  0.00034000  0.00035873  0.00037364  0.00038075  0.00039167
    Gval  0.00039338  0.00040417  0.00042629  0.00042719  0.00043256  0.00043469  0.00044121  0.00044297
    Gval  0.00046087  0.00046219  0.00046704  0.00046843  0.00049505  0.00053020  0.00053050  0.00053531
    Gval  0.00053690  0.00054523  0.00055489  0.00055605  0.00055617  0.00055678  0.00056736  0.00059352
    Gval  0.00059851  0.00059928  0.00059959  0.00059988  0.00060215  0.00061977  0.00062825  0.00064110
    Gval  0.00064466  0.00064541  0.00064728  0.00067149  0.00069096  0.00069438  0.00069910  0.00072731
    Gval  0.00079790  0.00081484  0.00093409  0.00098449  0.00107356  0.00109441  0.00109539  0.00109611
    Gval  0.00109668  0.00113666  0.00115763  0.00116406  0.00116421  0.00116457  0.00116480  0.00117359
    Gval  0.00117603  0.00117682  0.00119648  0.00121175  0.00128558  0.00130128  0.00141384  0.00148203
    Gval  0.00158772  0.00171658  0.00178778  0.00192030  0.00229216  0.00234678  0.00239371  0.00240084
    Gval  0.00252944  0.00253468  0.00256351  0.00280162  0.00291559  0.00294088  0.00302500  0.00304077
    Gval  0.00307925  0.00310460  0.00366590  0.00366802  0.00371409  0.00371587  0.00396747  0.00410145
  8.275206691892807E-007  8.275206691892807E-007
  1.990024796398848E-006  8.275206691892807E-007
  2.427900400480386E-006  8.275206691892807E-007
  2.734548729100567E-006  8.275206691892807E-007
  6.146671460265152E-006  8.275206691892807E-007
  6.939334022245157E-006  8.275206691892807E-007
  8.009128112803753E-006  8.275206691892807E-007
  1.017926074568672E-005  8.275206691892807E-007
  1.101098778506750E-005  8.275206691892807E-007
  1.123618892004204E-005  8.275206691892807E-007
  1.554723157305338E-005  8.275206691892807E-007
  1.621792479043569E-005  8.275206691892807E-007
  1.720095437758458E-005  8.275206691892807E-007
  1.794039683297397E-005  8.275206691892807E-007
  1.841861616184618E-005  8.275206691892807E-007
  1.897272020132387E-005  8.275206691892807E-007
  2.166067372588253E-005  8.275206691892807E-007
  2.351726519422587E-005  8.275206691892807E-007
  2.410519982577980E-005  8.275206691892807E-007
  2.546643577652459E-005  8.275206691892807E-007
  2.989212664695290E-005  8.275206691892807E-007
  3.219510573195818E-005  8.275206691892807E-007
  3.272427565786419E-005  8.275206691892807E-007
  3.584266612422499E-005  8.275206691892807E-007
  3.992316163195046E-005  8.275206691892807E-007
  4.647604447715202E-005  8.275206691892807E-007
  4.898984961453220E-005  8.275206691892807E-007
  5.127163925121692E-005  8.275206691892807E-007
  5.309597723945151E-005  8.275206691892807E-007
  5.539296693173587E-005  8.275206691892807E-007
  5.875745738559506E-005  8.275206691892807E-007
  6.191399091476227E-005  8.275206691892807E-007
  6.199132568231821E-005  8.275206691892807E-007
  6.836970079000325E-005  8.275206691892807E-007
  7.133177570669731E-005  8.275206691892807E-007
  7.387070732700936E-005  8.275206691892807E-007
  8.137374566145624E-005  8.275206691892807E-007
  8.249533468565797E-005  8.275206691892807E-007
  8.379796759271829E-005  8.275206691892807E-007
  8.672556770859948E-005  8.275206691892807E-007
  8.858105217206442E-005  8.275206691892807E-007
  9.203636629076397E-005  8.275206691892807E-007
  9.370092038798051E-005  8.275206691892807E-007
  9.510138827842839E-005  8.275206691892807E-007
  1.065375050936839E-004  8.275206691892807E-007
  1.079199437929343E-004  8.275206691892807E-007
  1.158438318897829E-004  8.275206691892807E-007
  1.215992001595292E-004  8.275206691892807E-007
  1.226333516891600E-004  8.275206691892807E-007
  1.351934041991295E-004  8.275206691892807E-007
  1.368293071584604E-004  8.275206691892807E-007
  1.374443972415960E-004  8.275206691892807E-007
  1.408703912699868E-004  8.275206691892807E-007
  1.537077841621887E-004  8.275206691892807E-007
  1.597174591771005E-004  8.275206691892807E-007
  1.644083860820653E-004  8.275206691892807E-007
  1.654116823047896E-004  8.275206691892807E-007
  1.806563751128576E-004  8.275206691892807E-007
  1.925505142718572E-004  8.275206691892807E-007
  2.101580092567933E-004  8.275206691892807E-007
  2.155538455675566E-004  8.275206691892807E-007
  2.224482310593537E-004  8.275206691892807E-007
  2.297089095423300E-004  8.275206691892807E-007
  2.310783685561695E-004  8.275206691892807E-007
  2.692270995136952E-004  8.275206691892807E-007
  2.855748333791981E-004  8.275206691892807E-007
  2.871262121340484E-004  8.275206691892807E-007
  2.933111306951375E-004  8.275206691892807E-007
  3.365867274790223E-004  8.275206691892807E-007
  3.399997028360989E-004  8.275206691892807E-007
  3.587262218568895E-004  8.275206691892807E-007
  3.736445302880682E-004  8.275206691892807E-007
  3.807532374064996E-004  8.275206691892807E-007
  3.916663071709488E-004  8.275206691892807E-007
  3.933778850589392E-004  8.275206691892807E-007
  4.041725479071315E-004  8.275206691892807E-007
  4.262852123028215E-004  8.275206691892807E-007
  4.271920850328546E-004  8.275206691892807E-007
  4.325609048033169E-004  8.275206691892807E-007
  4.346934688975178E-004  8.275206691892807E-007
  4.412104278799240E-004  8.275206691892807E-007
  4.429655198334506E-004  8.275206691892807E-007
  4.608653272618350E-004  8.275206691892807E-007
  4.621943590470023E-004  8.275206691892807E-007
  4.670404179463937E-004  8.275206691892807E-007
  4.684273761055966E-004  8.275206691892807E-007
  4.950464273128755E-004  8.275206691892807E-007
  5.301984640265297E-004  8.275206691892807E-007
  5.304996458574090E-004  8.275206691892807E-007
  5.353081930200087E-004  8.275206691892807E-007
  5.368965583416797E-004  8.275206691892807E-007
  5.452280816012855E-004  8.275206691892807E-007
  5.548933184780192E-004  8.275206691892807E-007
  5.560469503832020E-004  8.275206691892807E-007
  5.561674368862018E-004  8.275206691892807E-007
  5.567755147120271E-004  8.275206691892807E-007
  5.673585393809822E-004  8.275206691892807E-007
  5.935173403558231E-004  8.275206691892807E-007
  5.985090624217140E-004  8.275206691892807E-007
  5.992812456119043E-004  8.275206691892807E-007
  5.995860735454623E-004  8.275206691892807E-007
  5.998828892047670E-004  8.275206691892807E-007
  6.021471845593067E-004  8.275206691892807E-007
  6.197657441476791E-004  8.275206691892807E-007
  6.282481285065806E-004  8.275206691892807E-007
  6.410996055308826E-004  8.275206691892807E-007
  6.446626874008073E-004  8.275206691892807E-007
  6.454103467830439E-004  8.275206691892807E-007
  6.472818038215053E-004  8.275206691892807E-007
  6.714872315907534E-004  8.275206691892807E-007
  6.909616682168816E-004  8.275206691892807E-007
  6.943773548663423E-004  8.275206691892807E-007
  6.990960221725829E-004  8.275206691892807E-007
  7.273056654730546E-004  8.275206691892807E-007
  7.979031306667487E-004  8.275206691892807E-007
  8.148407538873855E-004  8.275206691892807E-007
  9.340879462696918E-004  8.275206691892807E-007
  9.844851497176057E-004  8.275206691892807E-007
  1.073561790811426E-003  8.275206691892807E-007
  1.094408960626198E-003  8.275206691892807E-007
  1.095394530801425E-003  8.275206691892807E-007
  1.096106722880031E-003  8.275206691892807E-007
  1.096683800035213E-003  8.275206691892807E-007
  1.136659889495345E-003  8.275206691892807E-007
  1.157630418070248E-003  8.275206691892807E-007
  1.164057876554693E-003  8.275206691892807E-007
  1.164214533085835E-003  8.275206691892807E-007
  1.164569844521292E-003  8.275206691892807E-007
  1.164797913827764E-003  8.275206691892807E-007
  1.173592556026704E-003  8.275206691892807E-007
  1.176032400298147E-003  8.275206691892807E-007
  1.176821698899558E-003  8.275206691892807E-007
  1.196484718666299E-003  8.275206691892807E-007
  1.211745234452623E-003  8.275206691892807E-007
  1.285578419562196E-003  8.275206691892807E-007
  1.301277454906893E-003  8.275206691892807E-007
  1.413836160942487E-003  8.275206691892807E-007
  1.482031253634957E-003  8.275206691892807E-007
  1.587722209551733E-003  8.275206691892807E-007
  1.716578293945037E-003  8.275206691892807E-007
  1.787783177761250E-003  8.275206691892807E-007
  1.920302475577943E-003  8.275206691892807E-007
  2.292160660685450E-003  8.275206691892807E-007
  2.346778411820311E-003  8.275206691892807E-007
  2.393709570648864E-003  8.275206691892807E-007
  2.400841739110481E-003  8.275206691892807E-007
  2.529439665740321E-003  8.275206691892807E-007
  2.534683340568510E-003  8.275206691892807E-007
  2.563509468868918E-003  8.275206691892807E-007
  2.801619699515057E-003  8.275206691892807E-007
  2.915593156854684E-003  8.275206691892807E-007
  2.940880482820944E-003  8.275206691892807E-007
  3.025003681770775E-003  8.275206691892807E-007
  3.040773399635868E-003  8.275206691892807E-007
  3.079246739368490E-003  8.275206691892807E-007
  3.104599254307882E-003  8.275206691892807E-007
  3.665898148547298E-003  8.275206691892807E-007
  3.668015987022377E-003  8.275206691892807E-007
  3.714085102883050E-003  8.275206691892807E-007
  3.715872477955785E-003  8.275206691892807E-007
  3.967467768278681E-003  8.275206691892807E-007
  4.101447422320397E-003  8.275206691892807E-007
 cut=1d-8, nber non-redundant internal coords=         162
 Check on Eigenvals of non-red overlap matrix:
  0.00000083  0.00000199  0.00000243  0.00000273  0.00000615  0.00000694  0.00000801  0.00001018
  0.00001101  0.00001124  0.00001555  0.00001622  0.00001720  0.00001794  0.00001842  0.00001897
  0.00002166  0.00002352  0.00002411  0.00002547  0.00002989  0.00003220  0.00003272  0.00003584
  0.00003992  0.00004648  0.00004899  0.00005127  0.00005310  0.00005539  0.00005876  0.00006191
  0.00006199  0.00006837  0.00007133  0.00007387  0.00008137  0.00008250  0.00008380  0.00008673
  0.00008858  0.00009204  0.00009370  0.00009510  0.00010654  0.00010792  0.00011584  0.00012160
  0.00012263  0.00013519  0.00013683  0.00013744  0.00014087  0.00015371  0.00015972  0.00016441
  0.00016541  0.00018066  0.00019255  0.00021016  0.00021555  0.00022245  0.00022971  0.00023108
  0.00026923  0.00028557  0.00028713  0.00029331  0.00033659  0.00034000  0.00035873  0.00037364
  0.00038075  0.00039167  0.00039338  0.00040417  0.00042629  0.00042719  0.00043256  0.00043469
  0.00044121  0.00044297  0.00046087  0.00046219  0.00046704  0.00046843  0.00049505  0.00053020
  0.00053050  0.00053531  0.00053690  0.00054523  0.00055489  0.00055605  0.00055617  0.00055678
  0.00056736  0.00059352  0.00059851  0.00059928  0.00059959  0.00059988  0.00060215  0.00061977
  0.00062825  0.00064110  0.00064466  0.00064541  0.00064728  0.00067149  0.00069096  0.00069438
  0.00069910  0.00072731  0.00079790  0.00081484  0.00093409  0.00098449  0.00107356  0.00109441
  0.00109539  0.00109611  0.00109668  0.00113666  0.00115763  0.00116406  0.00116421  0.00116457
  0.00116480  0.00117359  0.00117603  0.00117682  0.00119648  0.00121175  0.00128558  0.00130128
  0.00141384  0.00148203  0.00158772  0.00171658  0.00178778  0.00192030  0.00229216  0.00234678
  0.00239371  0.00240084  0.00252944  0.00253468  0.00256351  0.00280162  0.00291559  0.00294088
  0.00302500  0.00304077  0.00307925  0.00310460  0.00366590  0.00366802  0.00371409  0.00371587
  0.00396747  0.00410145
 Checking for correct frequencies
 recalc frequencies=
    -0.0   -0.0    0.0    0.0    0.0    0.0   19.2   27.9   37.4   48.8
    55.9   62.9   72.8   86.2   86.7  101.5  144.9  150.4  163.9  175.6
   179.7  189.8  205.0  209.6  218.5  234.6  237.6  259.7  272.5  282.4
   310.4  320.4  324.9  355.1  380.3  386.2  387.8  411.5  428.6  432.2
   434.8  438.0  443.8  461.4  465.3  480.2  482.2  501.0  516.9  521.4
   547.2  572.4  574.2  577.7  613.0  615.3  630.8  636.1  662.4  705.2
   705.6  708.9  716.6  721.1  747.1  754.1  765.2  771.8  802.1  808.7
   824.4  834.9  842.0  866.2  869.0  873.6  877.2  890.9  906.9  931.9
   948.1  955.7  958.0  965.0  999.2 1010.6 1012.2 1019.6 1020.8 1035.5
  1062.9 1066.3 1097.6 1099.4 1111.8 1155.5 1156.0 1157.1 1167.1 1171.9
  1192.6 1200.1 1209.3 1215.9 1225.3 1235.7 1251.0 1275.8 1280.2 1316.4
  1323.2 1331.9 1339.9 1364.1 1368.1 1375.8 1376.4 1386.7 1400.1 1404.4
  1406.8 1416.8 1421.0 1424.6 1441.8 1454.9 1475.0 1480.3 1485.9 1486.2
  1488.2 1494.8 1500.3 1502.7 1520.6 1523.1 1565.0 1571.1 1574.4 1589.2
  1594.8 1609.4 1617.6 1650.4 1711.7 1716.3 1759.5 1762.7 3019.7 3042.2
  3045.4 3065.2 3102.8 3106.0 3107.2 3118.5 3135.1 3146.4 3204.6 3205.0
  3211.0 3211.1 3217.0 3217.0 3227.1 3227.8 3228.3 3243.5
 recalc symmetries=
                                                                       
                                                                       
                                                                       
                                                                       
                                                                       
                                                                       
                                                                       
                                                                       
                                                                       
                                                                       
                                                                       
                                                                       
                                                                       
                                                                       
                                                                       
                                                                       
                                                         
 recalc freqs check OK
 Zero-point lengths:
 10.0000 10.0000 10.0000 10.0000 10.0000 10.0000 56.5113 46.9542 40.5462 35.4826
 33.1611 31.2655 29.0634 26.7084 26.6179 24.6071 20.5924 20.2157 19.3664 18.7069
 18.4947 17.9942 17.3141 17.1226 16.7701 16.1844 16.0825 15.3833 15.0181 14.7513
 14.0710 13.8508 13.7541 13.1559 12.7119 12.6149 12.5892 12.2210 11.9747 11.9244
 11.8894 11.8462 11.7677 11.5411 11.4928 11.3127 11.2895 11.0754 10.9037 10.8565
 10.5983 10.3619 10.3457 10.3146 10.0128  9.9944  9.8711  9.8293  9.6326  9.3358
  9.3331  9.3112  9.2613  9.2322  9.0701  9.0279  8.9623  8.9234  8.7535  8.7177
  8.6345  8.5798  8.5435  8.4234  8.4098  8.3875  8.3703  8.3058  8.2320  8.1212
  8.0513  8.0194  8.0095  7.9805  7.8428  7.7982  7.7921  7.7640  7.7593  7.7039
  7.6042  7.5922  7.4830  7.4770  7.4350  7.2932  7.2914  7.2881  7.2568  7.2419
  7.1788  7.1563  7.1290  7.1097  7.0824  7.0525  7.0091  6.9407  6.9289  6.8329
  6.8154  6.7930  6.7727  6.7124  6.7026  6.6836  6.6822  6.6574  6.6255  6.6154
  6.6098  6.5863  6.5765  6.5682  6.5289  6.4995  6.4550  6.4434  6.4314  6.4307
  6.4263  6.4121  6.4003  6.3953  6.3575  6.3523  6.2667  6.2545  6.2479  6.2187
  6.2079  6.1797  6.1640  6.1024  5.9921  5.9840  5.9102  5.9048  4.5114  4.4947
  4.4924  4.4778  4.4506  4.4483  4.4475  4.4394  4.4276  4.4196  4.3793  4.3791
  4.3750  4.3749  4.3709  4.3709  4.3640  4.3636  4.3632  4.3530
 highest evec of mol 1
 -0.0046 -0.0156  0.0018
  0.0701 -0.2658  0.0325
  0.0292 -0.0489  0.0062
  0.0019 -0.0012  0.0002
 -0.0024  0.0019 -0.0003
  0.0053 -0.0020  0.0004
  0.0009 -0.0000  0.0000
  0.0003  0.0006 -0.0001
 -0.0002  0.0004 -0.0000
  0.0000  0.0000 -0.0000
 -0.0001  0.0001 -0.0000
  0.0001 -0.0000  0.0000
 -0.0001  0.0000 -0.0000
  0.0000  0.0001 -0.0000
  0.0000 -0.0000  0.0000
 -0.0000  0.0000 -0.0000
 -0.0000  0.0000 -0.0000
  0.0000  0.0000 -0.0000
  0.0000  0.0000  0.0000
  0.0000  0.0000 -0.0000
  0.0001 -0.0000  0.0000
 -0.0000 -0.0000  0.0000
  0.0000 -0.0001  0.0000
 -0.0001  0.0001 -0.0000
  0.0001  0.0004 -0.0000
 -0.0003 -0.0001  0.0000
  0.0003 -0.0002  0.0000
 -0.0004 -0.0000 -0.0000
  0.0004 -0.0001  0.0000
 -0.0001 -0.0001  0.0000
 -0.0006 -0.0017  0.0002
 -0.0009 -0.0001 -0.0000
  0.0001 -0.0003  0.0000
 -0.0000 -0.0000  0.0000
  0.0000 -0.0001  0.0000
 -0.0000 -0.0001  0.0000
  0.0106  0.0050 -0.0149
  0.0103  0.0084  0.0136
 -0.0166  0.0511 -0.0063
 -0.2813  0.8819 -0.1085
 -0.0670  0.2059 -0.0254
 -0.0011 -0.0016  0.0002
  0.0007 -0.0012  0.0002
 -0.0001 -0.0001  0.0000
  0.0001 -0.0002  0.0000
 -0.0000 -0.0001  0.0000
  0.0000 -0.0000  0.0000
  0.0000  0.0000  0.0000
 -0.0001 -0.0000 -0.0000
  0.0000 -0.0000 -0.0000
 -0.0001 -0.0000  0.0000
  0.0000 -0.0000 -0.0000
 -0.0001 -0.0001  0.0000
  0.0004 -0.0006  0.0001
  0.0004  0.0007 -0.0001
 -0.0006  0.0008 -0.0001
 generating redundant internal coords
         300        3600          56
 Adding extra bonds for z output only
           6           6           6           7           6           8
           6           6           6           6           6           6
           6           6           6           8           7           6
           6           6           6           8           6           6
           6           6           6           6           6           6
           6           8           6           6           6           6
           1           1           1           1           1           1
           1           1           1           1           1           1
           1           1           1           1           1           1
           1           1
 search for int coords
   1 str   2   1   1.497
   2 str   3   2   1.338
   3 str   4   3   1.433
   4 str   5   4   1.405
   5 str   6   5   1.212
   6 str   7   5   1.492
   7 str   8   7   1.393
   8 str   9   8   1.386
   9 str  10   9   1.413
  10 str  11  10   1.448
  11 str  12  11   1.412
  12 str  13  12   1.387
  13 str  14  13   1.391
  14 str  15  14   1.498
  15 str  16  15   1.213
  16 str  17  15   1.394
  17 str  18  17   1.510
  18 str  19  18   1.531
  19 str  20  18   1.531
  20 str  21  17   1.400
  21 str  22  21   1.213
  22 str  23  21   1.497
  23 str  24  23   1.391
  24 str  25  24   1.388
  25 str  26  25   1.411
  26 str  27  26   1.451
  27 str  28  27   1.409
  28 str  29  28   1.389
  29 str  30  29   1.391
  30 str  31   4   1.418
  31 str  31  30   1.492
  32 str  32  31   1.210
  33 str  33   7   1.410
  34 str  33  30   1.405
  35 str  34  10   1.425
  36 str  34  27   1.426
  37 str  34  33   1.424
  38 str  35  11   1.426
  39 str  35  26   1.424
  40 str  36  14   1.408
  41 str  36  23   1.408
  42 str  36  35   1.425
  43 str  37   1   1.095
  44 str  38   1   1.095
  45 str  39   1   1.092
  46 str  40   2   1.079
  47 str  41   3   1.080
  48 str  42   8   1.082
  49 str  43   9   1.081
  50 str  44  12   1.081
  51 str  45  13   1.082
  52 str  46  18   1.087
  53 str  47  19   1.089
  54 str  48  19   1.093
  55 str  49  19   1.092
  56 str  50  20   1.089
  57 str  51  20   1.092
  58 str  52  20   1.093
  59 str  53  24   1.082
  60 str  54  25   1.081
  61 str  55  28   1.081
  62 str  56  29   1.082
 nber stretches=          62
  63 ben   1   2   3
  64 prop tor   1   2   3   4
  65 prop tor   1   2   3  41
  66 ben   1   2  40
  67 ben   2   1  37
  68 ben   2   1  38
  69 ben   2   1  39
  70 ben   2   3   4
  71 prop tor   2   3   4   5
  72 prop tor   2   3   4  31
  73 ben   2   3  41
  74 ben   3   2  40
  75 ben   3   4   5
  76 prop tor   3   4   5   6
  77 prop tor   3   4   5   7
  78 ben   3   4  31
  79 prop tor   3   4  31  30
  80 prop tor   3   4  31  32
  81 ben   4   3  41
  82 ben   4   5   6
  83 ben   4   5   7
  84 prop tor   4   5   7   8
  85 prop tor   4   5   7  33
  86 ben   4  31  30
  87 ben   4  31  32
  88 ben   5   4  31
  89 prop tor   5   4  31  30
  90 prop tor   5   4  31  32
  91 ben   5   7   8
  92 prop tor   5   7   8   9
  93 prop tor   5   7   8  42
  94 ben   5   7  33
  95 prop tor   5   7  33  30
  96 prop tor   5   7  33  34
  97 ben   6   5   7
  98 prop tor   6   5   7   8
  99 prop tor   6   5   7  33
 100 ben   7   8   9
 101 prop tor   7   8   9  10
 102 prop tor   7   8   9  43
 103 ben   7   8  42
 104 ben   7  33  30
 105 ben   7  33  34
 106 prop tor   7  33  34  10
 107 prop tor   7  33  34  27
 108 ben   8   7  33
 109 prop tor   8   7  33  30
 110 prop tor   8   7  33  34
 111 ben   8   9  10
 112 prop tor   8   9  10  11
 113 prop tor   8   9  10  34
 114 ben   8   9  43
 115 ben   9   8  42
 116 ben   9  10  11
 117 prop tor   9  10  11  12
 118 prop tor   9  10  11  35
 119 ben   9  10  34
 120 prop tor   9  10  34  27
 121 prop tor   9  10  34  33
 122 ben  10   9  43
 123 ben  10  11  12
 124 prop tor  10  11  12  13
 125 prop tor  10  11  12  44
 126 ben  10  11  35
 127 prop tor  10  11  35  26
 128 prop tor  10  11  35  36
 129 ben  10  34  27
 130 ben  10  34  33
 131 ben  11  10  34
 132 prop tor  11  10  34  27
 133 prop tor  11  10  34  33
 134 ben  11  12  13
 135 prop tor  11  12  13  14
 136 prop tor  11  12  13  45
 137 ben  11  12  44
 138 ben  11  35  26
 139 ben  11  35  36
 140 prop tor  11  35  36  14
 141 prop tor  11  35  36  23
 142 ben  12  11  35
 143 prop tor  12  11  35  26
 144 prop tor  12  11  35  36
 145 ben  12  13  14
 146 prop tor  12  13  14  15
 147 prop tor  12  13  14  36
 148 ben  12  13  45
 149 ben  13  12  44
 150 ben  13  14  15
 151 prop tor  13  14  15  16
 152 prop tor  13  14  15  17
 153 ben  13  14  36
 154 prop tor  13  14  36  23
 155 prop tor  13  14  36  35
 156 ben  14  13  45
 157 ben  14  15  16
 158 ben  14  15  17
 159 prop tor  14  15  17  18
 160 prop tor  14  15  17  21
 161 ben  14  36  23
 162 ben  14  36  35
 163 ben  15  14  36
 164 prop tor  15  14  36  23
 165 prop tor  15  14  36  35
 166 ben  15  17  18
 167 prop tor  15  17  18  19
 168 prop tor  15  17  18  20
 169 prop tor  15  17  18  46
 170 ben  15  17  21
 171 prop tor  15  17  21  22
 172 prop tor  15  17  21  23
 173 ben  16  15  17
 174 prop tor  16  15  17  18
 175 prop tor  16  15  17  21
 176 ben  17  18  19
 177 prop tor  17  18  19  47
 178 prop tor  17  18  19  48
 179 prop tor  17  18  19  49
 180 ben  17  18  20
 181 prop tor  17  18  20  50
 182 prop tor  17  18  20  51
 183 prop tor  17  18  20  52
 184 ben  17  18  46
 185 ben  17  21  22
 186 ben  17  21  23
 187 prop tor  17  21  23  24
 188 prop tor  17  21  23  36
 189 ben  18  17  21
 190 prop tor  18  17  21  22
 191 prop tor  18  17  21  23
 192 ben  18  19  47
 193 ben  18  19  48
 194 ben  18  19  49
 195 ben  18  20  50
 196 ben  18  20  51
 197 ben  18  20  52
 198 ben  19  18  20
 199 prop tor  19  18  20  50
 200 prop tor  19  18  20  51
 201 prop tor  19  18  20  52
 202 ben  19  18  46
 203 prop tor  20  18  19  47
 204 prop tor  20  18  19  48
 205 prop tor  20  18  19  49
 206 ben  20  18  46
 207 prop tor  21  17  18  19
 208 prop tor  21  17  18  20
 209 prop tor  21  17  18  46
 210 ben  21  23  24
 211 prop tor  21  23  24  25
 212 prop tor  21  23  24  53
 213 ben  21  23  36
 214 prop tor  21  23  36  14
 215 prop tor  21  23  36  35
 216 ben  22  21  23
 217 prop tor  22  21  23  24
 218 prop tor  22  21  23  36
 219 ben  23  24  25
 220 prop tor  23  24  25  26
 221 prop tor  23  24  25  54
 222 ben  23  24  53
 223 ben  23  36  35
 224 ben  24  23  36
 225 prop tor  24  23  36  14
 226 prop tor  24  23  36  35
 227 ben  24  25  26
 228 prop tor  24  25  26  27
 229 prop tor  24  25  26  35
 230 ben  24  25  54
 231 ben  25  24  53
 232 ben  25  26  27
 233 prop tor  25  26  27  28
 234 prop tor  25  26  27  34
 235 ben  25  26  35
 236 prop tor  25  26  35  11
 237 prop tor  25  26  35  36
 238 ben  26  25  54
 239 ben  26  27  28
 240 prop tor  26  27  28  29
 241 prop tor  26  27  28  55
 242 ben  26  27  34
 243 prop tor  26  27  34  10
 244 prop tor  26  27  34  33
 245 ben  26  35  36
 246 prop tor  26  35  36  14
 247 prop tor  26  35  36  23
 248 ben  27  26  35
 249 prop tor  27  26  35  11
 250 prop tor  27  26  35  36
 251 ben  27  28  29
 252 prop tor  27  28  29  30
 253 prop tor  27  28  29  56
 254 ben  27  28  55
 255 ben  27  34  33
 256 ben  28  27  34
 257 prop tor  28  27  34  10
 258 prop tor  28  27  34  33
 259 ben  28  29  30
 260 prop tor  28  29  30  31
 261 prop tor  28  29  30  33
 262 ben  28  29  56
 263 ben  29  28  55
 264 ben  29  30  31
 265 prop tor  29  30  31   4
 266 prop tor  29  30  31  32
 267 ben  29  30  33
 268 prop tor  29  30  33   7
 269 prop tor  29  30  33  34
 270 ben  30  29  56
 271 ben  30  31  32
 272 ben  30  33  34
 273 prop tor  30  33  34  10
 274 prop tor  30  33  34  27
 275 prop tor  31   4   5   6
 276 prop tor  31   4   5   7
 277 ben  31  30  33
 278 prop tor  31  30  33   7
 279 prop tor  31  30  33  34
 280 prop tor  33   7   8   9
 281 prop tor  33   7   8  42
 282 prop tor  33  30  31   4
 283 prop tor  33  30  31  32
 284 prop tor  34  10  11  12
 285 prop tor  34  10  11  35
 286 prop tor  34  27  28  29
 287 prop tor  34  27  28  55
 288 prop tor  35  11  12  13
 289 prop tor  35  11  12  44
 290 prop tor  35  26  27  28
 291 prop tor  35  26  27  34
 292 prop tor  36  14  15  16
 293 prop tor  36  14  15  17
 294 prop tor  36  23  24  25
 295 prop tor  36  23  24  53
 296 prop tor  37   1   2   3
 297 prop tor  37   1   2  40
 298 ben  37   1  38
 299 ben  37   1  39
 300 prop tor  38   1   2   3
 301 prop tor  38   1   2  40
 302 ben  38   1  39
 303 prop tor  39   1   2   3
 304 prop tor  39   1   2  40
 305 prop tor  40   2   3   4
 306 prop tor  40   2   3  41
 307 prop tor  41   3   4   5
 308 prop tor  41   3   4  31
 309 prop tor  42   8   9  10
 310 prop tor  42   8   9  43
 311 prop tor  43   9  10  11
 312 prop tor  43   9  10  34
 313 prop tor  44  12  13  14
 314 prop tor  44  12  13  45
 315 prop tor  45  13  14  15
 316 prop tor  45  13  14  36
 317 prop tor  46  18  19  47
 318 prop tor  46  18  19  48
 319 prop tor  46  18  19  49
 320 prop tor  46  18  20  50
 321 prop tor  46  18  20  51
 322 prop tor  46  18  20  52
 323 ben  47  19  48
 324 ben  47  19  49
 325 ben  48  19  49
 326 ben  50  20  51
 327 ben  50  20  52
 328 ben  51  20  52
 329 prop tor  53  24  25  26
 330 prop tor  53  24  25  54
 331 prop tor  54  25  26  27
 332 prop tor  54  25  26  35
 333 prop tor  55  28  29  30
 334 prop tor  55  28  29  56
 335 prop tor  56  29  30  31
 336 prop tor  56  29  30  33
 nber bend=             108
 nber lin bend=           0
 nber prop tor=         166
 nber impr tor=           0
 nber tot redund int=         336
 Reading file: 
 ./PDI_3_C0S1.log                                                               
                                          
  Entering Gaussian System, Link 0=g16                                          
  
 Gaussian format, type: g94, g98, g03= F F F
  #P Geom=AllCheck Guess=TCheck SCRF=Check GenChk RB3LYP TD(FC,Read)/6-3    
 energy type= TD      
 Original G94 input coords:
  6  0.873165  0.302171 -0.272955
  6  2.347034  0.028420 -0.218864
  6  3.240820  1.015930 -0.330380
  7  4.666188  0.955144 -0.304286
  6  5.365376 -0.259640 -0.141086
  8  4.782708 -1.322852 -0.012531
  6  6.842231 -0.197549 -0.131648
  6  7.563977 -1.387010  0.027824
  6  8.944074 -1.372152  0.041845
  6  9.678644 -0.164928 -0.103184
  6 11.119827 -0.132756 -0.090544
  6 11.905158 -1.307283  0.068636
  6 13.284630 -1.261328  0.078843
  6 13.955271 -0.041713 -0.069432
  6 15.433403 -0.028454 -0.053312
  8 16.074395 -1.059748  0.087195
  7 16.067216  1.211175 -0.205472
  6 17.563813  1.273514 -0.195553
  6 18.139544  0.846335  1.158554
  6 18.170446  0.518519 -1.382811
  6 15.379304  2.427792 -0.369885
  8 15.974099  3.486827 -0.499231
  6 13.902658  2.373392 -0.379637
  6 13.180264  3.562256 -0.540177
  6 11.800437  3.546112 -0.553379
  6 11.066301  2.336992 -0.406587
  6  9.626451  2.304659 -0.418159
  6  8.841274  3.481653 -0.576161
  6  7.463469  3.437516 -0.585851
  6  6.789779  2.216610 -0.438651
  6  5.320298  2.213962 -0.455061
  8  4.677758  3.240911 -0.592489
  6  7.528055  1.023393 -0.278863
  6  8.955614  1.054876 -0.266654
  6 11.789706  1.117275 -0.242609
  6 13.217241  1.149774 -0.230519
  1  0.380657 -0.032401  0.647191
  1  0.404149 -0.250433 -1.095046
  1  0.655859  1.364170 -0.408806
  1  2.662337 -0.994911 -0.086639
  1  2.916393  2.038113 -0.462541
  1  7.012185 -2.311278  0.138879
  1  9.467033 -2.309711  0.166889
  1 11.421351 -2.266668  0.185710
  1 13.876008 -2.159618  0.200735
  1 17.766051  2.333810 -0.329926
  1 17.983185 -0.215178  1.345999
  1 17.686322  1.421337  1.970214
  1 19.214163  1.048153  1.167286
  1 18.016106 -0.556384 -1.298240
  1 19.245443  0.715596 -1.417069
  1 17.738056  0.866951 -2.324330
  1 13.732308  4.486362 -0.652585
  1 11.276223  4.482819 -0.679377
  1  9.326138  4.440520 -0.692197
  1  6.874047  4.337073 -0.706401
 nber atoms=          56
  Total Energy, E(TD-HF/TD-DFT) =  -1566.05563591                               
  
          32          49 "  -1566.05563591"
After scan for Atom:   Atom  AN      X      Y      Z        X      Y      Z        X      Y      Z   
After scan for Atom:   Atom  AN      X      Y      Z        X      Y      Z        X      Y      Z   
After scan for Atom:   Atom  AN      X      Y      Z        X      Y      Z        X      Y      Z   
After scan for Atom:   Atom  AN      X      Y      Z        X      Y      Z        X      Y      Z   
After scan for Atom:   Atom  AN      X      Y      Z        X      Y      Z        X      Y      Z   
After scan for Atom:   Atom  AN      X      Y      Z        X      Y      Z        X      Y      Z   
After scan for Atom:   Atom  AN      X      Y      Z        X      Y      Z        X      Y      Z   
After scan for Atom:   Atom  AN      X      Y      Z        X      Y      Z        X      Y      Z   
After scan for Atom:   Atom  AN      X      Y      Z        X      Y      Z        X      Y      Z   
After scan for Atom:   Atom  AN      X      Y      Z        X      Y      Z        X      Y      Z   
After scan for Atom:   Atom  AN      X      Y      Z        X      Y      Z        X      Y      Z   
After scan for Atom:   Atom  AN      X      Y      Z        X      Y      Z        X      Y      Z   
After scan for Atom:   Atom  AN      X      Y      Z        X      Y      Z        X      Y      Z   
After scan for Atom:   Atom  AN      X      Y      Z        X      Y      Z        X      Y      Z   
After scan for Atom:   Atom  AN      X      Y      Z        X      Y      Z        X      Y      Z   
After scan for Atom:   Atom  AN      X      Y      Z        X      Y      Z        X      Y      Z   
After scan for Atom:   Atom  AN      X      Y      Z        X      Y      Z        X      Y      Z   
After scan for Atom:   Atom  AN      X      Y      Z        X      Y      Z        X      Y      Z   
After scan for Atom:   Atom  AN      X      Y      Z        X      Y      Z        X      Y      Z   
After scan for Atom:   Atom  AN      X      Y      Z        X      Y      Z        X      Y      Z   
After scan for Atom:   Atom  AN      X      Y      Z        X      Y      Z        X      Y      Z   
After scan for Atom:   Atom  AN      X      Y      Z        X      Y      Z        X      Y      Z   
After scan for Atom:   Atom  AN      X      Y      Z        X      Y      Z        X      Y      Z   
After scan for Atom:   Atom  AN      X      Y      Z        X      Y      Z        X      Y      Z   
After scan for Atom:   Atom  AN      X      Y      Z        X      Y      Z        X      Y      Z   
After scan for Atom:   Atom  AN      X      Y      Z        X      Y      Z        X      Y      Z   
After scan for Atom:   Atom  AN      X      Y      Z        X      Y      Z        X      Y      Z   
After scan for Atom:   Atom  AN      X      Y      Z        X      Y      Z        X      Y      Z   
After scan for Atom:   Atom  AN      X      Y      Z        X      Y      Z        X      Y      Z   
After scan for Atom:   Atom  AN      X      Y      Z        X      Y      Z        X      Y      Z   
After scan for Atom:   Atom  AN      X      Y      Z        X      Y      Z        X      Y      Z   
After scan for Atom:   Atom  AN      X      Y      Z        X      Y      Z        X      Y      Z   
After scan for Atom:   Atom  AN      X      Y      Z        X      Y      Z        X      Y      Z   
After scan for Atom:   Atom  AN      X      Y      Z        X      Y      Z        X      Y      Z   
After scan for Atom:   Atom  AN      X      Y      Z        X      Y      Z        X      Y      Z   
After scan for Atom:   Atom  AN      X      Y      Z        X      Y      Z        X      Y      Z   
After scan for Atom:   Atom  AN      X      Y      Z        X      Y      Z        X      Y      Z   
After scan for Atom:   Atom  AN      X      Y      Z        X      Y      Z        X      Y      Z   
After scan for Atom:   Atom  AN      X      Y      Z        X      Y      Z        X      Y      Z   
After scan for Atom:   Atom  AN      X      Y      Z        X      Y      Z        X      Y      Z   
After scan for Atom:   Atom  AN      X      Y      Z        X      Y      Z        X      Y      Z   
After scan for Atom:   Atom  AN      X      Y      Z        X      Y      Z        X      Y      Z   
After scan for Atom:   Atom  AN      X      Y      Z        X      Y      Z        X      Y      Z   
After scan for Atom:   Atom  AN      X      Y      Z        X      Y      Z        X      Y      Z   
After scan for Atom:   Atom  AN      X      Y      Z        X      Y      Z        X      Y      Z   
After scan for Atom:   Atom  AN      X      Y      Z        X      Y      Z        X      Y      Z   
After scan for Atom:   Atom  AN      X      Y      Z        X      Y      Z        X      Y      Z   
After scan for Atom:   Atom  AN      X      Y      Z        X      Y      Z        X      Y      Z   
After scan for Atom:   Atom  AN      X      Y      Z        X      Y      Z        X      Y      Z   
After scan for Atom:   Atom  AN      X      Y      Z        X      Y      Z        X      Y      Z   
After scan for Atom:   Atom  AN      X      Y      Z        X      Y      Z        X      Y      Z   
After scan for Atom:   Atom  AN      X      Y      Z        X      Y      Z        X      Y      Z   
After scan for Atom:   Atom  AN      X      Y      Z        X      Y      Z        X      Y      Z   
After scan for Atom:   Atom  AN      X      Y      Z        X      Y      Z        X      Y      Z   
 g94    frequencies=
     0.0    0.0    0.0    0.0    0.0    0.0   18.6   28.6   36.2   55.0
    58.8   70.4   75.6   87.6   89.1  101.1  146.1  152.5  168.0  181.1
   183.4  192.7  208.7  211.7  218.1  234.2  235.4  256.0  275.7  285.9
   301.8  319.5  334.5  358.6  386.7  388.7  394.4  416.8  418.8  434.4
   440.0  443.0  447.4  466.3  480.1  483.9  498.0  501.1  505.7  515.8
   546.1  568.5  574.6  577.8  604.6  615.8  631.7  643.8  651.9  674.5
   700.1  707.3  717.0  728.8  746.7  750.5  757.2  763.2  801.9  806.7
   808.1  813.8  825.0  825.3  831.5  842.1  843.4  893.2  911.1  935.6
   943.0  945.4  956.7  971.3  974.1  976.3  987.0  988.4 1012.0 1039.5
  1062.0 1065.5 1086.8 1094.4 1109.7 1137.5 1155.5 1161.1 1168.2 1176.8
  1185.7 1196.6 1199.4 1224.2 1232.7 1242.6 1247.2 1262.4 1300.5 1315.2
  1320.8 1330.6 1352.8 1361.6 1366.9 1377.8 1382.1 1391.9 1400.2 1405.1
  1415.6 1416.1 1427.1 1432.7 1446.6 1452.9 1464.6 1478.4 1483.9 1485.0
  1493.8 1497.5 1504.9 1505.1 1520.2 1522.9 1546.9 1558.5 1575.2 1594.1
  1601.8 1613.6 1621.9 1685.6 1696.7 1724.6 1733.4 2034.7 3009.6 3034.1
  3038.2 3050.8 3092.0 3093.7 3095.2 3112.2 3132.4 3142.7 3197.5 3198.2
  3205.3 3205.7 3212.9 3213.4 3216.0 3223.1 3223.9 3239.3
 g94    symmetries=
                                                 A      A      A      A
       A      A      A      A      A      A      A      A      A      A
       A      A      A      A      A      A      A      A      A      A
       A      A      A      A      A      A      A      A      A      A
       A      A      A      A      A      A      A      A      A      A
       A      A      A      A      A      A      A      A      A      A
       A      A      A      A      A      A      A      A      A      A
       A      A      A      A      A      A      A      A      A      A
       A      A      A      A      A      A      A      A      A      A
       A      A      A      A      A      A      A      A      A      A
       A      A      A      A      A      A      A      A      A      A
       A      A      A      A      A      A      A      A      A      A
       A      A      A      A      A      A      A      A      A      A
       A      A      A      A      A      A      A      A      A      A
       A      A      A      A      A      A      A      A      A      A
       A      A      A      A      A      A      A      A      A      A
       A      A      A      A      A      A      A      A
 atomic masses:
 12.0000 12.0000 12.0000 14.0031 12.0000 15.9949 12.0000 12.0000 12.0000 12.0000
 12.0000 12.0000 12.0000 12.0000 12.0000 15.9949 14.0031 12.0000 12.0000 12.0000
 12.0000 15.9949 12.0000 12.0000 12.0000 12.0000 12.0000 12.0000 12.0000 12.0000
 12.0000 15.9949 12.0000 12.0000 12.0000 12.0000  1.0078  1.0078  1.0078  1.0078
  1.0078  1.0078  1.0078  1.0078  1.0078  1.0078  1.0078  1.0078  1.0078  1.0078
  1.0078  1.0078  1.0078  1.0078  1.0078  1.0078
 looking for force constants in 
 ./PDI_3_C0S1.fchk                                                              
  
 Cartesian Force Constants                  R   N=       14196                  
  
 n3=         168       14196
 g94-fc frequencies=
    -2.2   -1.2   -0.0   -0.0    0.0    4.0   18.6   28.6   36.2   55.0
    58.8   70.4   75.6   87.6   89.1  101.1  146.1  152.5  168.0  181.1
   183.4  192.7  208.7  211.7  218.1  234.2  235.4  256.0  275.7  285.9
   301.8  319.6  334.5  358.6  386.7  388.8  394.4  416.8  418.8  434.4
   440.0  443.1  447.4  466.3  480.1  483.9  498.1  501.1  505.7  515.9
   546.1  568.5  574.6  577.8  604.6  615.9  631.7  643.8  651.9  674.5
   700.1  707.3  717.0  728.8  746.7  750.5  757.3  763.2  801.9  806.7
   808.1  813.8  825.0  825.4  831.5  842.2  843.4  893.2  911.1  935.7
   943.0  945.4  956.7  971.3  974.1  976.3  987.1  988.5 1012.1 1039.5
  1062.0 1065.6 1086.8 1094.4 1109.7 1137.5 1155.5 1161.2 1168.2 1176.8
  1185.7 1196.6 1199.4 1224.2 1232.7 1242.6 1247.3 1262.4 1300.5 1315.2
  1320.8 1330.7 1352.9 1361.6 1367.0 1377.8 1382.2 1392.0 1400.2 1405.1
  1415.7 1416.1 1427.1 1432.7 1446.6 1452.9 1464.7 1478.4 1483.9 1485.0
  1493.9 1497.5 1505.0 1505.2 1520.2 1522.9 1547.0 1558.5 1575.2 1594.2
  1601.8 1613.6 1622.0 1685.6 1696.8 1724.7 1733.4 2034.7 3009.6 3034.1
  3038.2 3050.8 3092.0 3093.8 3095.3 3112.2 3132.5 3142.7 3197.6 3198.3
  3205.3 3205.8 3213.0 3213.4 3216.0 3223.2 3224.0 3239.4
 at 99999: n3=         168
 symm operator            1 :  F  nop=           0
 symm operator            2 :  F  nop=           0
 symm operator            3 :  F  nop=           0
 symm operator            4 :  F  nop=           0
 symm operator            5 :  F  nop=           0
 symm operator            6 :  F  nop=           0
 symm operator            7 :  F  nop=           0
 The point group of the molecule is  C1
 Symmetry rotation matrix:
   1.00000   0.00000   0.00000
   0.00000   1.00000   0.00000
   0.00000   0.00000   1.00000

 Projecting out zero-frequency components
 generating redundant internal coords
         300        3600          56
 search for int coords
   1 str   2   1   1.500
   2 str   3   2   1.337
   3 str   4   3   1.427
   4 str   5   4   1.411
   5 str   6   5   1.219
   6 str   7   5   1.478
   7 str   8   7   1.400
   8 str   9   8   1.380
   9 str  10   9   1.421
  10 str  11  10   1.442
  11 str  12  11   1.422
  12 str  13  12   1.380
  13 str  14  13   1.400
  14 str  15  14   1.478
  15 str  16  15   1.222
  16 str  17  15   1.401
  17 str  18  17   1.498
  18 str  19  18   1.532
  19 str  20  18   1.532
  20 str  21  17   1.407
  21 str  22  21   1.222
  22 str  23  21   1.478
  23 str  24  23   1.400
  24 str  25  24   1.380
  25 str  26  25   1.422
  26 str  27  26   1.440
  27 str  28  27   1.424
  28 str  29  28   1.379
  29 str  30  29   1.402
  30 str  31   4   1.427
  31 str  31  30   1.470
  32 str  32  31   1.219
  33 str  33   7   1.408
  34 str  33  30   1.412
  35 str  34  10   1.427
  36 str  34  27   1.427
  37 str  34  33   1.428
  38 str  35  11   1.426
  39 str  35  26   1.428
  40 str  36  14   1.411
  41 str  36  23   1.410
  42 str  36  35   1.428
  43 str  37   1   1.096
  44 str  38   1   1.096
  45 str  39   1   1.092
  46 str  40   2   1.079
  47 str  41   3   1.081
  48 str  42   8   1.082
  49 str  43   9   1.081
  50 str  44  12   1.081
  51 str  45  13   1.082
  52 str  46  18   1.088
  53 str  47  19   1.089
  54 str  48  19   1.093
  55 str  49  19   1.093
  56 str  50  20   1.089
  57 str  51  20   1.093
  58 str  52  20   1.093
  59 str  53  24   1.082
  60 str  54  25   1.081
  61 str  55  28   1.081
  62 str  56  29   1.082
 nber stretches=          62
  63 ben   1   2   3
  64 prop tor   1   2   3   4
  65 prop tor   1   2   3  41
  66 ben   1   2  40
  67 ben   2   1  37
  68 ben   2   1  38
  69 ben   2   1  39
  70 ben   2   3   4
  71 prop tor   2   3   4   5
  72 prop tor   2   3   4  31
  73 ben   2   3  41
  74 ben   3   2  40
  75 ben   3   4   5
  76 prop tor   3   4   5   6
  77 prop tor   3   4   5   7
  78 ben   3   4  31
  79 prop tor   3   4  31  30
  80 prop tor   3   4  31  32
  81 ben   4   3  41
  82 ben   4   5   6
  83 ben   4   5   7
  84 prop tor   4   5   7   8
  85 prop tor   4   5   7  33
  86 ben   4  31  30
  87 ben   4  31  32
  88 ben   5   4  31
  89 prop tor   5   4  31  30
  90 prop tor   5   4  31  32
  91 ben   5   7   8
  92 prop tor   5   7   8   9
  93 prop tor   5   7   8  42
  94 ben   5   7  33
  95 prop tor   5   7  33  30
  96 prop tor   5   7  33  34
  97 ben   6   5   7
  98 prop tor   6   5   7   8
  99 prop tor   6   5   7  33
 100 ben   7   8   9
 101 prop tor   7   8   9  10
 102 prop tor   7   8   9  43
 103 ben   7   8  42
 104 ben   7  33  30
 105 ben   7  33  34
 106 prop tor   7  33  34  10
 107 prop tor   7  33  34  27
 108 ben   8   7  33
 109 prop tor   8   7  33  30
 110 prop tor   8   7  33  34
 111 ben   8   9  10
 112 prop tor   8   9  10  11
 113 prop tor   8   9  10  34
 114 ben   8   9  43
 115 ben   9   8  42
 116 ben   9  10  11
 117 prop tor   9  10  11  12
 118 prop tor   9  10  11  35
 119 ben   9  10  34
 120 prop tor   9  10  34  27
 121 prop tor   9  10  34  33
 122 ben  10   9  43
 123 ben  10  11  12
 124 prop tor  10  11  12  13
 125 prop tor  10  11  12  44
 126 ben  10  11  35
 127 prop tor  10  11  35  26
 128 prop tor  10  11  35  36
 129 ben  10  34  27
 130 ben  10  34  33
 131 ben  11  10  34
 132 prop tor  11  10  34  27
 133 prop tor  11  10  34  33
 134 ben  11  12  13
 135 prop tor  11  12  13  14
 136 prop tor  11  12  13  45
 137 ben  11  12  44
 138 ben  11  35  26
 139 ben  11  35  36
 140 prop tor  11  35  36  14
 141 prop tor  11  35  36  23
 142 ben  12  11  35
 143 prop tor  12  11  35  26
 144 prop tor  12  11  35  36
 145 ben  12  13  14
 146 prop tor  12  13  14  15
 147 prop tor  12  13  14  36
 148 ben  12  13  45
 149 ben  13  12  44
 150 ben  13  14  15
 151 prop tor  13  14  15  16
 152 prop tor  13  14  15  17
 153 ben  13  14  36
 154 prop tor  13  14  36  23
 155 prop tor  13  14  36  35
 156 ben  14  13  45
 157 ben  14  15  16
 158 ben  14  15  17
 159 prop tor  14  15  17  18
 160 prop tor  14  15  17  21
 161 ben  14  36  23
 162 ben  14  36  35
 163 ben  15  14  36
 164 prop tor  15  14  36  23
 165 prop tor  15  14  36  35
 166 ben  15  17  18
 167 prop tor  15  17  18  19
 168 prop tor  15  17  18  20
 169 prop tor  15  17  18  46
 170 ben  15  17  21
 171 prop tor  15  17  21  22
 172 prop tor  15  17  21  23
 173 ben  16  15  17
 174 prop tor  16  15  17  18
 175 prop tor  16  15  17  21
 176 ben  17  18  19
 177 prop tor  17  18  19  47
 178 prop tor  17  18  19  48
 179 prop tor  17  18  19  49
 180 ben  17  18  20
 181 prop tor  17  18  20  50
 182 prop tor  17  18  20  51
 183 prop tor  17  18  20  52
 184 ben  17  18  46
 185 ben  17  21  22
 186 ben  17  21  23
 187 prop tor  17  21  23  24
 188 prop tor  17  21  23  36
 189 ben  18  17  21
 190 prop tor  18  17  21  22
 191 prop tor  18  17  21  23
 192 ben  18  19  47
 193 ben  18  19  48
 194 ben  18  19  49
 195 ben  18  20  50
 196 ben  18  20  51
 197 ben  18  20  52
 198 ben  19  18  20
 199 prop tor  19  18  20  50
 200 prop tor  19  18  20  51
 201 prop tor  19  18  20  52
 202 ben  19  18  46
 203 prop tor  20  18  19  47
 204 prop tor  20  18  19  48
 205 prop tor  20  18  19  49
 206 ben  20  18  46
 207 prop tor  21  17  18  19
 208 prop tor  21  17  18  20
 209 prop tor  21  17  18  46
 210 ben  21  23  24
 211 prop tor  21  23  24  25
 212 prop tor  21  23  24  53
 213 ben  21  23  36
 214 prop tor  21  23  36  14
 215 prop tor  21  23  36  35
 216 ben  22  21  23
 217 prop tor  22  21  23  24
 218 prop tor  22  21  23  36
 219 ben  23  24  25
 220 prop tor  23  24  25  26
 221 prop tor  23  24  25  54
 222 ben  23  24  53
 223 ben  23  36  35
 224 ben  24  23  36
 225 prop tor  24  23  36  14
 226 prop tor  24  23  36  35
 227 ben  24  25  26
 228 prop tor  24  25  26  27
 229 prop tor  24  25  26  35
 230 ben  24  25  54
 231 ben  25  24  53
 232 ben  25  26  27
 233 prop tor  25  26  27  28
 234 prop tor  25  26  27  34
 235 ben  25  26  35
 236 prop tor  25  26  35  11
 237 prop tor  25  26  35  36
 238 ben  26  25  54
 239 ben  26  27  28
 240 prop tor  26  27  28  29
 241 prop tor  26  27  28  55
 242 ben  26  27  34
 243 prop tor  26  27  34  10
 244 prop tor  26  27  34  33
 245 ben  26  35  36
 246 prop tor  26  35  36  14
 247 prop tor  26  35  36  23
 248 ben  27  26  35
 249 prop tor  27  26  35  11
 250 prop tor  27  26  35  36
 251 ben  27  28  29
 252 prop tor  27  28  29  30
 253 prop tor  27  28  29  56
 254 ben  27  28  55
 255 ben  27  34  33
 256 ben  28  27  34
 257 prop tor  28  27  34  10
 258 prop tor  28  27  34  33
 259 ben  28  29  30
 260 prop tor  28  29  30  31
 261 prop tor  28  29  30  33
 262 ben  28  29  56
 263 ben  29  28  55
 264 ben  29  30  31
 265 prop tor  29  30  31   4
 266 prop tor  29  30  31  32
 267 ben  29  30  33
 268 prop tor  29  30  33   7
 269 prop tor  29  30  33  34
 270 ben  30  29  56
 271 ben  30  31  32
 272 ben  30  33  34
 273 prop tor  30  33  34  10
 274 prop tor  30  33  34  27
 275 prop tor  31   4   5   6
 276 prop tor  31   4   5   7
 277 ben  31  30  33
 278 prop tor  31  30  33   7
 279 prop tor  31  30  33  34
 280 prop tor  33   7   8   9
 281 prop tor  33   7   8  42
 282 prop tor  33  30  31   4
 283 prop tor  33  30  31  32
 284 prop tor  34  10  11  12
 285 prop tor  34  10  11  35
 286 prop tor  34  27  28  29
 287 prop tor  34  27  28  55
 288 prop tor  35  11  12  13
 289 prop tor  35  11  12  44
 290 prop tor  35  26  27  28
 291 prop tor  35  26  27  34
 292 prop tor  36  14  15  16
 293 prop tor  36  14  15  17
 294 prop tor  36  23  24  25
 295 prop tor  36  23  24  53
 296 prop tor  37   1   2   3
 297 prop tor  37   1   2  40
 298 ben  37   1  38
 299 ben  37   1  39
 300 prop tor  38   1   2   3
 301 prop tor  38   1   2  40
 302 ben  38   1  39
 303 prop tor  39   1   2   3
 304 prop tor  39   1   2  40
 305 prop tor  40   2   3   4
 306 prop tor  40   2   3  41
 307 prop tor  41   3   4   5
 308 prop tor  41   3   4  31
 309 prop tor  42   8   9  10
 310 prop tor  42   8   9  43
 311 prop tor  43   9  10  11
 312 prop tor  43   9  10  34
 313 prop tor  44  12  13  14
 314 prop tor  44  12  13  45
 315 prop tor  45  13  14  15
 316 prop tor  45  13  14  36
 317 prop tor  46  18  19  47
 318 prop tor  46  18  19  48
 319 prop tor  46  18  19  49
 320 prop tor  46  18  20  50
 321 prop tor  46  18  20  51
 322 prop tor  46  18  20  52
 323 ben  47  19  48
 324 ben  47  19  49
 325 ben  48  19  49
 326 ben  50  20  51
 327 ben  50  20  52
 328 ben  51  20  52
 329 prop tor  53  24  25  26
 330 prop tor  53  24  25  54
 331 prop tor  54  25  26  27
 332 prop tor  54  25  26  35
 333 prop tor  55  28  29  30
 334 prop tor  55  28  29  56
 335 prop tor  56  29  30  31
 336 prop tor  56  29  30  33
 nber bend=             108
 nber lin bend=           0
 nber prop tor=         166
 nber impr tor=           0
 nber tot redund int=         336
 Eigenvalues of G in red int coords
    Gval -0.00000000 -0.00000000 -0.00000000 -0.00000000 -0.00000000 -0.00000000 -0.00000000 -0.00000000
    Gval -0.00000000 -0.00000000 -0.00000000 -0.00000000 -0.00000000 -0.00000000 -0.00000000 -0.00000000
    Gval -0.00000000 -0.00000000 -0.00000000 -0.00000000 -0.00000000 -0.00000000 -0.00000000 -0.00000000
    Gval -0.00000000 -0.00000000 -0.00000000 -0.00000000 -0.00000000 -0.00000000 -0.00000000 -0.00000000
    Gval -0.00000000 -0.00000000 -0.00000000 -0.00000000 -0.00000000 -0.00000000 -0.00000000 -0.00000000
    Gval -0.00000000 -0.00000000 -0.00000000 -0.00000000 -0.00000000 -0.00000000 -0.00000000 -0.00000000
    Gval -0.00000000 -0.00000000 -0.00000000 -0.00000000 -0.00000000 -0.00000000 -0.00000000 -0.00000000
    Gval -0.00000000 -0.00000000 -0.00000000 -0.00000000 -0.00000000 -0.00000000 -0.00000000 -0.00000000
    Gval -0.00000000 -0.00000000 -0.00000000 -0.00000000 -0.00000000 -0.00000000 -0.00000000 -0.00000000
    Gval -0.00000000 -0.00000000 -0.00000000 -0.00000000 -0.00000000 -0.00000000 -0.00000000 -0.00000000
    Gval -0.00000000 -0.00000000 -0.00000000 -0.00000000 -0.00000000 -0.00000000 -0.00000000 -0.00000000
    Gval -0.00000000 -0.00000000  0.00000000  0.00000000  0.00000000  0.00000000  0.00000000  0.00000000
    Gval  0.00000000  0.00000000  0.00000000  0.00000000  0.00000000  0.00000000  0.00000000  0.00000000
    Gval  0.00000000  0.00000000  0.00000000  0.00000000  0.00000000  0.00000000  0.00000000  0.00000000
    Gval  0.00000000  0.00000000  0.00000000  0.00000000  0.00000000  0.00000000  0.00000000  0.00000000
    Gval  0.00000000  0.00000000  0.00000000  0.00000000  0.00000000  0.00000000  0.00000000  0.00000000
    Gval  0.00000000  0.00000000  0.00000000  0.00000000  0.00000000  0.00000000  0.00000000  0.00000000
    Gval  0.00000000  0.00000000  0.00000000  0.00000000  0.00000000  0.00000000  0.00000000  0.00000000
    Gval  0.00000000  0.00000000  0.00000000  0.00000000  0.00000000  0.00000000  0.00000000  0.00000000
    Gval  0.00000000  0.00000000  0.00000000  0.00000000  0.00000000  0.00000000  0.00000000  0.00000000
    Gval  0.00000000  0.00000000  0.00000000  0.00000000  0.00000000  0.00000000  0.00000000  0.00000000
    Gval  0.00000000  0.00000000  0.00000000  0.00000000  0.00000000  0.00000000  0.00000083  0.00000200
    Gval  0.00000243  0.00000274  0.00000615  0.00000693  0.00000804  0.00001013  0.00001098  0.00001121
    Gval  0.00001552  0.00001615  0.00001718  0.00001791  0.00001837  0.00001901  0.00002157  0.00002349
    Gval  0.00002404  0.00002544  0.00002986  0.00003222  0.00003281  0.00003583  0.00003994  0.00004639
    Gval  0.00004885  0.00005125  0.00005294  0.00005503  0.00005868  0.00006188  0.00006196  0.00006836
    Gval  0.00007125  0.00007392  0.00008136  0.00008245  0.00008382  0.00008608  0.00008863  0.00009197
    Gval  0.00009371  0.00009510  0.00010693  0.00010703  0.00011587  0.00012154  0.00012247  0.00013403
    Gval  0.00013670  0.00013743  0.00014074  0.00015296  0.00015899  0.00016388  0.00016508  0.00018125
    Gval  0.00019339  0.00021076  0.00021462  0.00022199  0.00022898  0.00023008  0.00026762  0.00028560
    Gval  0.00028625  0.00029405  0.00033696  0.00034086  0.00035930  0.00037613  0.00038246  0.00038957
    Gval  0.00039254  0.00040578  0.00042463  0.00042617  0.00043176  0.00043557  0.00044066  0.00044217
    Gval  0.00046215  0.00046721  0.00046747  0.00046892  0.00049562  0.00053108  0.00053115  0.00053442
    Gval  0.00053717  0.00054542  0.00055408  0.00055594  0.00055601  0.00055697  0.00057194  0.00059349
    Gval  0.00059849  0.00059923  0.00059956  0.00059984  0.00060219  0.00062007  0.00062060  0.00064076
    Gval  0.00064422  0.00064504  0.00064682  0.00067007  0.00069194  0.00069357  0.00069770  0.00072776
    Gval  0.00079357  0.00081249  0.00093111  0.00098188  0.00107272  0.00109326  0.00109420  0.00109489
    Gval  0.00109540  0.00114315  0.00115567  0.00116533  0.00116554  0.00116583  0.00116612  0.00117114
    Gval  0.00117180  0.00117314  0.00119927  0.00121464  0.00128113  0.00129513  0.00141402  0.00148207
    Gval  0.00158403  0.00171623  0.00178390  0.00191866  0.00228075  0.00233921  0.00239126  0.00239328
    Gval  0.00252153  0.00252632  0.00256071  0.00279113  0.00292212  0.00292908  0.00302352  0.00304203
    Gval  0.00308132  0.00309607  0.00367428  0.00367605  0.00372120  0.00372280  0.00394426  0.00410782
  8.323277470133667E-007  8.323277470133667E-007
  1.997575323688499E-006  8.323277470133667E-007
  2.425312214648991E-006  8.323277470133667E-007
  2.744157644733884E-006  8.323277470133667E-007
  6.154969497619814E-006  8.323277470133667E-007
  6.930116079431485E-006  8.323277470133667E-007
  8.043704792438731E-006  8.323277470133667E-007
  1.013454013680919E-005  8.323277470133667E-007
  1.097695294828788E-005  8.323277470133667E-007
  1.121296823284202E-005  8.323277470133667E-007
  1.552028715915396E-005  8.323277470133667E-007
  1.615247476358090E-005  8.323277470133667E-007
  1.717659514051373E-005  8.323277470133667E-007
  1.790895482682519E-005  8.323277470133667E-007
  1.837380258320200E-005  8.323277470133667E-007
  1.900911976568284E-005  8.323277470133667E-007
  2.156690447988980E-005  8.323277470133667E-007
  2.349248654846971E-005  8.323277470133667E-007
  2.403927953922367E-005  8.323277470133667E-007
  2.543528845771439E-005  8.323277470133667E-007
  2.985876098020965E-005  8.323277470133667E-007
  3.221787441674078E-005  8.323277470133667E-007
  3.281448587640947E-005  8.323277470133667E-007
  3.582609541468364E-005  8.323277470133667E-007
  3.994083436648219E-005  8.323277470133667E-007
  4.638750285396397E-005  8.323277470133667E-007
  4.884568652686147E-005  8.323277470133667E-007
  5.124897933451246E-005  8.323277470133667E-007
  5.293892316937327E-005  8.323277470133667E-007
  5.503198648259084E-005  8.323277470133667E-007
  5.868227966527267E-005  8.323277470133667E-007
  6.188284349205335E-005  8.323277470133667E-007
  6.195525083567677E-005  8.323277470133667E-007
  6.836304441786978E-005  8.323277470133667E-007
  7.124743510928220E-005  8.323277470133667E-007
  7.392000698566480E-005  8.323277470133667E-007
[...]
 nber times 1st assigned=         100           0
 nber times 1st assigned=         101           0
 nber times 1st assigned=         102           0
 nber times 1st assigned=         103           0
 nber times 1st assigned=         104           0
 nber times 1st assigned=         105           0
 nber times 1st assigned=         106           0
 nber times 1st assigned=         107           0
 nber times 1st assigned=         108           0
 nber times 1st assigned=         109           0
 nber times 1st assigned=         110           0
 nber times 1st assigned=         111           0
 nber times 1st assigned=         112           0
 nber times 1st assigned=         113           0
 nber times 1st assigned=         114           0
 nber times 1st assigned=         115           0
 nber times 1st assigned=         116           0
 nber times 1st assigned=         117           0
 nber times 1st assigned=         118           0
 nber times 1st assigned=         119           0
 nber times 1st assigned=         120           0
 nber times 1st assigned=         121           0
 nber times 1st assigned=         122           0
 nber times 1st assigned=         123           0
 nber times 1st assigned=         124           0
 nber times 1st assigned=         125           0
 nber times 1st assigned=         126           0
 nber times 1st assigned=         127           0
 nber times 1st assigned=         128           0
 nber times 1st assigned=         129           0
 nber times 1st assigned=         130           0
 nber times 1st assigned=         131           0
 nber times 1st assigned=         132           0
 nber times 1st assigned=         133           0
 nber times 1st assigned=         134           0
 nber times 1st assigned=         135           0
 nber times 1st assigned=         136           0
 nber times 1st assigned=         137           0
 nber times 1st assigned=         138           0
 nber times 1st assigned=         139           0
 nber times 1st assigned=         140           0
 nber times 1st assigned=         141           0
 nber times 1st assigned=         142           0
 nber times 1st assigned=         143           0
 nber times 1st assigned=         144           0
 nber times 1st assigned=         145           0
 nber times 1st assigned=         146           0
 nber times 1st assigned=         147           0
 nber times 1st assigned=         148           0
 nber times 1st assigned=         149           0
 nber times 1st assigned=         150           0
 nber times 1st assigned=         151           0
 nber times 1st assigned=         152           0
 nber times 1st assigned=         153           0
 nber times 1st assigned=         154           0
 nber times 1st assigned=         155           0
 nber times 1st assigned=         156           0
 nber times 1st assigned=         157           0
 nber times 1st assigned=         158           0
 nber times 1st assigned=         159           0
 nber times 1st assigned=         160           0
 nber times 1st assigned=         161           0
 nber times 1st assigned=         162           0
 nber times 1st assigned=         163           0
 nber times 1st assigned=         164           0
 nber times 1st assigned=         165           0
 nber times 1st assigned=         166           0
 nber times 1st assigned=         167           0
 nber times 1st assigned=         168           0
 modes represented=   161.919681543761     
 p1=
    0.    0.    0.    0.   -0.    0.    0.    0.   -0.   -1.   -1.    0.   -0.    8.    0.    0.    3.    0.    0.    0.
  -10.   -0.   -0.    3.   -0.    0.    0.   -0.    1.    2.   -0.    0.   -3.   -1.    2.   -1.   -0.    1.   -5.   -4.
   -2.   -0.    0.    2.    0.   -0.    0.    1.    1.   -0.   -4.   -0.    0.    0.   -0.    0.    0.    1.    0.   -0.
    0.    0.   -0.    0.   -0.    0.   -0.    0.    0.   -0.    0.    0.    1.    0.    0.    0.    0.   -1.   -0.    1.
   -0.   -1.   -0.   -0.   -0.    0.   -0.   -0.    0.   -0.   -0.    0.   -0.    1.   -0.   -0.   -0.   -0.   -0.    0.
    0.   -0.   -0.   -0.   -0.    0.   -0.   -1.    0.    2.    1.   -1.    0.   -1.    2.    0.    0.   -1.   -1.   -0.
    0.    0.    1.   -0.   -0.   -0.    0.    0.   -0.    0.   -0.    0.   -0.    0.   -0.   -0.    0.   -0.   -1.   -0.
   -0.    0.   -2.   -0.    0.   -0.    1.    1.   -0.    0.    0.   -0.   -0.    0.    0.   -0.   -0.    0.    0.    0.
    0.    0.   -0.   -0.    0.    0.    0.   -0.
 p2=
   -0.    0.   -0.   -0.    0.    0.    0.   -0.    0.   -0.   -1.   -1.   -0.    8.   -0.   -0.   -3.    0.    0.   10.
   -0.    0.    0.    3.    0.   -0.    1.    0.    1.    1.    0.    0.    2.   -1.    0.    0.    1.    0.    0.    6.
    2.   -1.   -0.   -2.   -0.   -0.   -0.    1.    0.   -1.    5.   -0.   -0.   -0.   -0.    0.    0.   -1.    0.   -0.
   -0.    0.   -0.    0.   -0.   -0.    0.    0.   -0.   -0.   -0.   -0.   -0.   -0.   -0.   -0.   -1.   -1.    0.   -1.
    1.    0.    0.    0.   -0.    0.   -0.    0.   -0.   -0.    0.   -0.   -0.   -1.   -0.   -0.    0.    0.   -0.    0.
    0.    0.    0.   -0.   -0.   -0.   -0.    0.   -1.   -1.   -1.    0.   -0.    1.    0.   -2.    0.    0.   -0.    0.
    0.   -0.    1.   -0.    0.   -1.    0.    0.    1.    0.   -0.    0.    0.    0.   -0.   -0.    0.   -1.    0.    0.
   -0.   -1.    2.    0.   -0.   -1.   -1.    2.    0.   -0.    0.    0.    0.   -0.    0.   -0.   -0.   -0.    0.    0.
   -0.   -0.   -0.   -0.   -0.    0.    0.   -0.

 Displacement: in terms of nc of 1 THEN of nc of 2

   1     freq=    -0. Q=  0.000 lam=    -0.0     freq=    -0. Q=  0.000 lam=    -0.0
   2     freq=    -0. Q=  0.000 lam=    -0.0     freq=    -0. Q=  0.000 lam=    -0.0
   3     freq=     0. Q=  0.000 lam=     0.0     freq=    -0. Q=  0.000 lam=    -0.0
   4     freq=     0. Q=  0.000 lam=     0.0     freq=     0. Q=  0.000 lam=     0.0
   5     freq=     0. Q= -0.000 lam=     0.0     freq=     0. Q= -0.000 lam=     0.0
   6     freq=     0. Q=  0.000 lam=     0.0     freq=     0. Q=  0.000 lam=     0.0
   7     freq=    19. Q=  0.006 lam=     0.0     freq=    19. Q=  0.005 lam=     0.0
   8     freq=    28. Q=  0.001 lam=     0.0     freq=    29. Q=  0.001 lam=     0.0
   9     freq=    37. Q= -0.001 lam=     0.0     freq=    36. Q= -0.002 lam=     0.0
  10     freq=    49. Q= -0.024 lam=     0.0     freq=    55. Q= -0.010 lam=     0.0
  11     freq=    56. Q= -0.021 lam=     0.0     freq=    59. Q= -0.018 lam=     0.0
  12     freq=    63. Q=  0.013 lam=     0.0     freq=    70. Q=  0.030 lam=     0.0
  13     freq=    73. Q= -0.004 lam=     0.0     freq=    76. Q= -0.012 lam=     0.0
  14     freq=    86. Q=  0.313 lam=     4.2     freq=    88. Q=  0.316 lam=     4.4
  15     freq=    87. Q=  0.002 lam=     0.0     freq=    89. Q=  0.005 lam=     0.0
  16     freq=   101. Q=  0.001 lam=     0.0     freq=   101. Q=  0.008 lam=     0.0
  17     freq=   145. Q=  0.162 lam=     1.9     freq=   146. Q=  0.164 lam=     2.0
  18     freq=   150. Q=  0.006 lam=     0.0     freq=   153. Q=  0.001 lam=     0.0
  19     freq=   164. Q=  0.004 lam=     0.0     freq=   168. Q=  0.003 lam=     0.0
  20     freq=   176. Q=  0.004 lam=     0.0     freq=   181. Q=  0.551 lam=    27.5
  21     freq=   180. Q= -0.553 lam=    27.5     freq=   183. Q= -0.002 lam=     0.0
  22     freq=   190. Q= -0.002 lam=     0.0     freq=   193. Q= -0.000 lam=     0.0
  23     freq=   205. Q= -0.001 lam=     0.0     freq=   209. Q= -0.000 lam=     0.0
  24     freq=   210. Q=  0.188 lam=     3.7     freq=   212. Q=  0.186 lam=     3.7
  25     freq=   219. Q= -0.003 lam=     0.0     freq=   218. Q= -0.004 lam=     0.0
  26     freq=   235. Q=  0.004 lam=     0.0     freq=   234. Q=  0.001 lam=     0.0
  27     freq=   238. Q=  0.029 lam=     0.1     freq=   235. Q=  0.031 lam=     0.1
  28     freq=   260. Q= -0.001 lam=     0.0     freq=   256. Q= -0.002 lam=     0.0
  29     freq=   272. Q=  0.059 lam=     0.5     freq=   276. Q=  0.079 lam=     0.9
  30     freq=   282. Q=  0.121 lam=     2.1     freq=   286. Q=  0.101 lam=     1.5
  31     freq=   310. Q= -0.000 lam=     0.0     freq=   302. Q= -0.001 lam=     0.0
  32     freq=   320. Q=  0.006 lam=     0.0     freq=   320. Q=  0.000 lam=     0.0
  33     freq=   325. Q= -0.221 lam=     7.9     freq=   335. Q= -0.184 lam=     5.7
  34     freq=   355. Q= -0.064 lam=     0.7     freq=   359. Q= -0.093 lam=     1.6
  35     freq=   380. Q=  0.120 lam=     2.8     freq=   387. Q=  0.031 lam=     0.2
  36     freq=   386. Q= -0.097 lam=     1.8     freq=   389. Q= -0.001 lam=     0.0
  37     freq=   388. Q= -0.003 lam=     0.0     freq=   394. Q= -0.120 lam=     2.8
  38     freq=   412. Q=  0.099 lam=     2.0     freq=   417. Q=  0.000 lam=     0.0
  39     freq=   429. Q= -0.386 lam=    32.0     freq=   419. Q= -0.009 lam=     0.0
  40     freq=   432. Q= -0.294 lam=    18.7     freq=   434. Q= -0.504 lam=    55.2
  41     freq=   435. Q= -0.193 lam=     8.1     freq=   440. Q= -0.141 lam=     4.4
  42     freq=   438. Q= -0.005 lam=     0.0     freq=   443. Q= -0.083 lam=     1.5
  43     freq=   444. Q=  0.002 lam=     0.0     freq=   447. Q=  0.003 lam=     0.0
  44     freq=   461. Q=  0.148 lam=     5.1     freq=   466. Q=  0.154 lam=     5.5
  45     freq=   465. Q=  0.002 lam=     0.0     freq=   480. Q=  0.021 lam=     0.1
  46     freq=   480. Q= -0.000 lam=     0.0     freq=   484. Q= -0.000 lam=     0.0
  47     freq=   482. Q=  0.017 lam=     0.1     freq=   498. Q=  0.000 lam=     0.0
  48     freq=   501. Q=  0.108 lam=     2.9     freq=   501. Q=  0.119 lam=     3.6
  49     freq=   517. Q=  0.062 lam=     1.0     freq=   506. Q=  0.000 lam=     0.0
  50     freq=   521. Q= -0.001 lam=     0.0     freq=   516. Q= -0.060 lam=     0.9
  51     freq=   547. Q= -0.411 lam=    46.3     freq=   546. Q= -0.449 lam=    55.0
  52     freq=   572. Q= -0.025 lam=     0.2     freq=   568. Q= -0.001 lam=     0.0
  53     freq=   574. Q=  0.000 lam=     0.0     freq=   575. Q=  0.018 lam=     0.1
  54     freq=   578. Q=  0.010 lam=     0.0     freq=   578. Q=  0.045 lam=     0.6
  55     freq=   613. Q= -0.009 lam=     0.0     freq=   605. Q= -0.001 lam=     0.0
  56     freq=   615. Q=  0.001 lam=     0.0     freq=   616. Q=  0.003 lam=     0.0
  57     freq=   631. Q=  0.001 lam=     0.0     freq=   632. Q=  0.001 lam=     0.0
  58     freq=   636. Q=  0.085 lam=     2.3     freq=   644. Q=  0.140 lam=     6.3
  59     freq=   662. Q=  0.001 lam=     0.0     freq=   652. Q=  0.001 lam=     0.0
  60     freq=   705. Q= -0.000 lam=     0.0     freq=   674. Q= -0.000 lam=     0.0
  61     freq=   706. Q=  0.001 lam=     0.0     freq=   700. Q=  0.001 lam=     0.0
  62     freq=   709. Q=  0.002 lam=     0.0     freq=   707. Q=  0.010 lam=     0.0
  63     freq=   717. Q= -0.036 lam=     0.5     freq=   717. Q= -0.046 lam=     0.8
  64     freq=   721. Q=  0.005 lam=     0.0     freq=   729. Q=  0.034 lam=     0.4
  65     freq=   747. Q= -0.000 lam=     0.0     freq=   747. Q= -0.002 lam=     0.0
  66     freq=   754. Q=  0.003 lam=     0.0     freq=   750. Q=  0.002 lam=     0.0
  67     freq=   765. Q= -0.002 lam=     0.0     freq=   757. Q= -0.001 lam=     0.0
  68     freq=   772. Q=  0.001 lam=     0.0     freq=   763. Q=  0.001 lam=     0.0
  69     freq=   802. Q=  0.038 lam=     0.6     freq=   802. Q=  0.024 lam=     0.2
  70     freq=   809. Q= -0.038 lam=     0.6     freq=   807. Q= -0.001 lam=     0.0
  71     freq=   824. Q=  0.023 lam=     0.2     freq=   808. Q=  0.050 lam=     1.0
  72     freq=   835. Q=  0.002 lam=     0.0     freq=   814. Q=  0.000 lam=     0.0
  73     freq=   842. Q=  0.151 lam=     9.6     freq=   825. Q=  0.040 lam=     0.7
  74     freq=   866. Q=  0.001 lam=     0.0     freq=   825. Q=  0.000 lam=     0.0
  75     freq=   869. Q=  0.000 lam=     0.0     freq=   831. Q=  0.000 lam=     0.0
  76     freq=   874. Q=  0.000 lam=     0.0     freq=   842. Q=  0.001 lam=     0.0
  77     freq=   877. Q=  0.000 lam=     0.0     freq=   843. Q=  0.154 lam=    10.0
  78     freq=   891. Q= -0.115 lam=     5.9     freq=   893. Q= -0.115 lam=     5.9
  79     freq=   907. Q= -0.015 lam=     0.1     freq=   911. Q= -0.024 lam=     0.3
  80     freq=   932. Q=  0.067 lam=     2.1     freq=   936. Q=  0.062 lam=     1.8
  81     freq=   948. Q= -0.001 lam=     0.0     freq=   943. Q= -0.097 lam=     4.5
  82     freq=   956. Q= -0.090 lam=     3.9     freq=   945. Q= -0.001 lam=     0.0
  83     freq=   958. Q= -0.000 lam=     0.0     freq=   957. Q= -0.000 lam=     0.0
  84     freq=   965. Q= -0.050 lam=     1.2     freq=   971. Q= -0.007 lam=     0.0
  85     freq=   999. Q= -0.000 lam=     0.0     freq=   974. Q= -0.000 lam=     0.0
  86     freq=  1011. Q=  0.000 lam=     0.0     freq=   976. Q=  0.000 lam=     0.0
  87     freq=  1012. Q= -0.000 lam=     0.0     freq=   987. Q= -0.000 lam=     0.0
  88     freq=  1020. Q= -0.000 lam=     0.0     freq=   988. Q= -0.000 lam=     0.0
  89     freq=  1021. Q=  0.000 lam=     0.0     freq=  1012. Q=  0.001 lam=     0.0
  90     freq=  1036. Q= -0.037 lam=     0.7     freq=  1040. Q= -0.055 lam=     1.6
  91     freq=  1063. Q= -0.026 lam=     0.4     freq=  1062. Q= -0.016 lam=     0.1
  92     freq=  1066. Q=  0.000 lam=     0.0     freq=  1066. Q=  0.000 lam=     0.0
  93     freq=  1098. Q= -0.054 lam=     1.6     freq=  1087. Q= -0.062 lam=     2.1
  94     freq=  1099. Q=  0.092 lam=     4.7     freq=  1094. Q=  0.075 lam=     3.1
  95     freq=  1112. Q= -0.016 lam=     0.1     freq=  1110. Q= -0.039 lam=     0.8
  96     freq=  1155. Q= -0.025 lam=     0.4     freq=  1137. Q= -0.045 lam=     1.2
  97     freq=  1156. Q= -0.001 lam=     0.0     freq=  1155. Q= -0.000 lam=     0.0
  98     freq=  1157. Q= -0.054 lam=     1.7     freq=  1161. Q= -0.003 lam=     0.0
  99     freq=  1167. Q= -0.017 lam=     0.2     freq=  1168. Q= -0.028 lam=     0.5
 100     freq=  1172. Q=  0.047 lam=     1.3     freq=  1177. Q=  0.017 lam=     0.2
 101     freq=  1193. Q=  0.047 lam=     1.3     freq=  1186. Q=  0.052 lam=     1.6
 102     freq=  1200. Q= -0.026 lam=     0.4     freq=  1197. Q= -0.044 lam=     1.1
 103     freq=  1209. Q= -0.030 lam=     0.6     freq=  1199. Q= -0.027 lam=     0.4
 104     freq=  1216. Q= -0.014 lam=     0.1     freq=  1224. Q= -0.011 lam=     0.1
 105     freq=  1225. Q= -0.007 lam=     0.0     freq=  1233. Q= -0.011 lam=     0.1
 106     freq=  1236. Q=  0.008 lam=     0.0     freq=  1243. Q=  0.033 lam=     0.7
 107     freq=  1251. Q= -0.030 lam=     0.6     freq=  1247. Q= -0.059 lam=     2.2
 108     freq=  1276. Q= -0.090 lam=     5.1     freq=  1262. Q= -0.050 lam=     1.6
 109     freq=  1280. Q=  0.024 lam=     0.4     freq=  1300. Q=  0.187 lam=    22.8
 110     freq=  1316. Q=  0.235 lam=    36.5     freq=  1315. Q=  0.095 lam=     6.0
 111     freq=  1323. Q=  0.077 lam=     3.9     freq=  1321. Q=  0.074 lam=     3.6
 112     freq=  1332. Q= -0.113 lam=     8.5     freq=  1331. Q= -0.027 lam=     0.5
 113     freq=  1340. Q=  0.005 lam=     0.0     freq=  1353. Q=  0.004 lam=     0.0
 114     freq=  1364. Q= -0.173 lam=    20.4     freq=  1362. Q= -0.160 lam=    17.5
 115     freq=  1368. Q=  0.283 lam=    54.7     freq=  1367. Q=  0.066 lam=     3.0
 116     freq=  1376. Q=  0.033 lam=     0.7     freq=  1378. Q=  0.257 lam=    45.6
 117     freq=  1376. Q=  0.002 lam=     0.0     freq=  1382. Q=  0.002 lam=     0.0
 118     freq=  1387. Q= -0.106 lam=     7.7     freq=  1392. Q= -0.050 lam=     1.7
 119     freq=  1400. Q= -0.079 lam=     4.3     freq=  1400. Q= -0.001 lam=     0.0
 120     freq=  1404. Q= -0.023 lam=     0.4     freq=  1405. Q= -0.018 lam=     0.2
 121     freq=  1407. Q=  0.001 lam=     0.0     freq=  1416. Q=  0.013 lam=     0.1
 122     freq=  1417. Q=  0.033 lam=     0.8     freq=  1416. Q=  0.038 lam=     1.0
 123     freq=  1421. Q=  0.184 lam=    24.0     freq=  1427. Q=  0.176 lam=    22.1
 124     freq=  1425. Q= -0.058 lam=     2.4     freq=  1433. Q= -0.016 lam=     0.2
 125     freq=  1442. Q= -0.039 lam=     1.1     freq=  1447. Q= -0.055 lam=     2.2
 126     freq=  1455. Q= -0.060 lam=     2.7     freq=  1453. Q= -0.124 lam=    11.2
 127     freq=  1475. Q=  0.000 lam=     0.0     freq=  1465. Q=  0.016 lam=     0.2
 128     freq=  1480. Q=  0.063 lam=     3.0     freq=  1478. Q=  0.000 lam=     0.0
 129     freq=  1486. Q= -0.026 lam=     0.5     freq=  1484. Q= -0.120 lam=    10.7
 130     freq=  1486. Q=  0.000 lam=     0.0     freq=  1485. Q=  0.000 lam=     0.0
 131     freq=  1488. Q= -0.043 lam=     1.4     freq=  1494. Q= -0.019 lam=     0.3
 132     freq=  1495. Q=  0.039 lam=     1.1     freq=  1497. Q=  0.018 lam=     0.2
 133     freq=  1500. Q= -0.021 lam=     0.3     freq=  1505. Q= -0.023 lam=     0.4
 134     freq=  1503. Q=  0.000 lam=     0.0     freq=  1505. Q=  0.000 lam=     0.0
 135     freq=  1521. Q= -0.023 lam=     0.4     freq=  1520. Q= -0.073 lam=     4.0
 136     freq=  1523. Q= -0.063 lam=     3.1     freq=  1523. Q= -0.063 lam=     3.0
 137     freq=  1565. Q=  0.048 lam=     1.8     freq=  1547. Q=  0.004 lam=     0.0
 138     freq=  1571. Q= -0.031 lam=     0.8     freq=  1558. Q= -0.095 lam=     7.1
 139     freq=  1574. Q= -0.083 lam=     5.4     freq=  1575. Q= -0.034 lam=     0.9
 140     freq=  1589. Q= -0.069 lam=     3.8     freq=  1594. Q= -0.063 lam=     3.1
 141     freq=  1595. Q= -0.028 lam=     0.6     freq=  1602. Q= -0.005 lam=     0.0
 142     freq=  1609. Q=  0.009 lam=     0.1     freq=  1614. Q=  0.082 lam=     5.4
 143     freq=  1618. Q= -0.332 lam=    88.9     freq=  1622. Q= -0.373 lam=   113.0
 144     freq=  1650. Q= -0.031 lam=     0.8     freq=  1686. Q= -0.005 lam=     0.0
 145     freq=  1712. Q=  0.002 lam=     0.0     freq=  1697. Q=  0.041 lam=     1.4
 146     freq=  1716. Q= -0.026 lam=     0.6     freq=  1725. Q= -0.162 lam=    22.6
 147     freq=  1759. Q=  0.128 lam=    14.4     freq=  1733. Q=  0.238 lam=    48.9
 148     freq=  1763. Q=  0.220 lam=    42.6     freq=  2035. Q=  0.284 lam=    82.2
 149     freq=  3020. Q= -0.011 lam=     0.2     freq=  3010. Q= -0.014 lam=     0.3
 150     freq=  3042. Q=  0.000 lam=     0.0     freq=  3034. Q=  0.000 lam=     0.0
 151     freq=  3045. Q=  0.012 lam=     0.2     freq=  3038. Q=  0.014 lam=     0.3
 152     freq=  3065. Q= -0.000 lam=     0.0     freq=  3051. Q= -0.000 lam=     0.0
 153     freq=  3103. Q= -0.000 lam=     0.0     freq=  3092. Q= -0.000 lam=     0.0
 154     freq=  3106. Q=  0.012 lam=     0.2     freq=  3094. Q=  0.003 lam=     0.0
 155     freq=  3107. Q=  0.003 lam=     0.0     freq=  3095. Q=  0.013 lam=     0.2
 156     freq=  3118. Q= -0.004 lam=     0.0     freq=  3112. Q= -0.006 lam=     0.1
 157     freq=  3135. Q= -0.000 lam=     0.0     freq=  3132. Q= -0.000 lam=     0.0
 158     freq=  3146. Q=  0.008 lam=     0.1     freq=  3143. Q=  0.008 lam=     0.1
 159     freq=  3205. Q=  0.000 lam=     0.0     freq=  3198. Q=  0.000 lam=     0.0
 160     freq=  3205. Q=  0.000 lam=     0.0     freq=  3198. Q=  0.000 lam=     0.0
 161     freq=  3211. Q=  0.004 lam=     0.0     freq=  3205. Q=  0.001 lam=     0.0
 162     freq=  3211. Q=  0.002 lam=     0.0     freq=  3206. Q=  0.004 lam=     0.0
 163     freq=  3217. Q= -0.000 lam=     0.0     freq=  3213. Q= -0.001 lam=     0.0
 164     freq=  3217. Q= -0.000 lam=     0.0     freq=  3213. Q= -0.002 lam=     0.0
 165     freq=  3227. Q=  0.011 lam=     0.2     freq=  3216. Q=  0.012 lam=     0.2
 166     freq=  3228. Q=  0.000 lam=     0.0     freq=  3223. Q=  0.002 lam=     0.0
 167     freq=  3228. Q=  0.001 lam=     0.0     freq=  3224. Q=  0.001 lam=     0.0
 168     freq=  3243. Q= -0.000 lam=     0.0     freq=  3239. Q= -0.004 lam=     0.0

 total reorg energy (cm**-1, kcal/mol)=      555.      669.      1.59      1.91
 Nber of molecules processed=           2
