 Enter ifcurve (0=recti, 1=orth curvi, 2=apprx curvi, -1 = skip
 And atom ordering flag, 0= never changes, 1= use the first order thenceforth,
  2= deduce it (does read on fail), 3= always read it
 Reading file: 
 ./PDI_5_C1S0.log                                                               
                                          
  Entering Gaussian System, Link 0=g16                                          
  
 Gaussian format, type: g94, g98, g03= F F F
  #P Geom=AllCheck Guess=TCheck SCRF=Check GenChk UB3LYP/6-311G(d,p) Fre    
 energy type= B3LYP   
 Original G94 input coords:
  6  0.669118  0.576880  0.193324
  6  2.120353  0.632371 -0.083490
  6  3.097701  0.859246  0.858425
  6  4.465920  0.899627  0.527777
  6  5.402147  1.133054  1.530383
  7  6.753834  1.213913  1.451177
  6  7.434798  1.477177  2.745628
  8  6.757313  1.596382  3.734634
  6  8.889062  1.569490  2.706340
  6  9.565486  1.813541  3.895974
  6 10.950438  1.910076  3.913191
  6 11.710676  1.767617  2.748716
  6 13.172196  1.867727  2.758114
  6 13.898365  2.110218  3.926011
  6 15.292120  2.203691  3.925175
  6 15.998373  2.055996  2.746816
  6 17.488309  2.160454  2.774497
  8 18.071702  2.371301  3.818897
  7 18.168912  2.007007  1.563378
  6 19.670512  2.105504  1.545440
  6 20.146831  3.505083  1.944566
  6 20.317127  0.979216  2.356815
  6 17.530081  1.761140  0.338885
  8 18.147795  1.631161 -0.698556
  6 16.039982  1.661820  0.347815
  6 15.376603  1.420171 -0.841109
  6 13.984458  1.322659 -0.860939
  6 13.215703  1.462613  0.298421
  6 11.758181  1.361655  0.286946
  6 11.040217  1.116792 -0.891771
  6  9.657682  1.021684 -0.897790
  6  8.928599  1.167917  0.279231
  6  7.477312  1.055220  0.198220
  8  6.861522  0.843091 -0.822471
  6  9.608420  1.417344  1.499917
  6 11.034726  1.516179  1.511923
  6 13.884124  1.712684  1.533869
  6 15.305980  1.810130  1.543022
  1  0.262798 -0.392113 -0.124221
  1  0.141852  1.324054 -0.413771
  1  0.430192  0.737377  1.244654
  1  2.434706  0.481221 -1.114232
  1  2.801936  1.012394  1.893670
  1  4.780681  0.750398 -0.493499
  1  5.051246  1.278663  2.546652
  1  8.995372  1.927089  4.809224
  1 11.432915  2.100451  4.860695
  1 13.388444  2.232621  4.871396
  1 15.838264  2.391963  4.840596
  1 19.912621  1.950682  0.496624
  1 19.956739  3.715123  2.996248
  1 19.661946  4.270956  1.333965
  1 21.222984  3.572948  1.767556
  1 20.132312  1.089273  3.424538
  1 21.396647  1.001000  2.188880
  1 19.950755  0.002915  2.029549
  1 15.955972  1.309136 -1.748591
  1 13.508770  1.132860 -1.812882
  1 11.560066  0.995875 -1.830854
  1  9.123495  0.831823 -1.819888
 nber atoms=          60
  SCF Done:  E(UB3LYP) =  -1643.30671483     A.U. after    1 cycles             
  
          23          40 "  -1643.30671483"
After scan for Atom:   Atom  AN      X      Y      Z        X      Y      Z        X      Y      Z   
After scan for Atom:   Atom  AN      X      Y      Z        X      Y      Z        X      Y      Z   
After scan for Atom:   Atom  AN      X      Y      Z        X      Y      Z        X      Y      Z   
After scan for Atom:   Atom  AN      X      Y      Z        X      Y      Z        X      Y      Z   
After scan for Atom:   Atom  AN      X      Y      Z        X      Y      Z        X      Y      Z   
After scan for Atom:   Atom  AN      X      Y      Z        X      Y      Z        X      Y      Z   
After scan for Atom:   Atom  AN      X      Y      Z        X      Y      Z        X      Y      Z   
After scan for Atom:   Atom  AN      X      Y      Z        X      Y      Z        X      Y      Z   
After scan for Atom:   Atom  AN      X      Y      Z        X      Y      Z        X      Y      Z   
After scan for Atom:   Atom  AN      X      Y      Z        X      Y      Z        X      Y      Z   
After scan for Atom:   Atom  AN      X      Y      Z        X      Y      Z        X      Y      Z   
After scan for Atom:   Atom  AN      X      Y      Z        X      Y      Z        X      Y      Z   
After scan for Atom:   Atom  AN      X      Y      Z        X      Y      Z        X      Y      Z   
After scan for Atom:   Atom  AN      X      Y      Z        X      Y      Z        X      Y      Z   
After scan for Atom:   Atom  AN      X      Y      Z        X      Y      Z        X      Y      Z   
After scan for Atom:   Atom  AN      X      Y      Z        X      Y      Z        X      Y      Z   
After scan for Atom:   Atom  AN      X      Y      Z        X      Y      Z        X      Y      Z   
After scan for Atom:   Atom  AN      X      Y      Z        X      Y      Z        X      Y      Z   
After scan for Atom:   Atom  AN      X      Y      Z        X      Y      Z        X      Y      Z   
After scan for Atom:   Atom  AN      X      Y      Z        X      Y      Z        X      Y      Z   
After scan for Atom:   Atom  AN      X      Y      Z        X      Y      Z        X      Y      Z   
After scan for Atom:   Atom  AN      X      Y      Z        X      Y      Z        X      Y      Z   
After scan for Atom:   Atom  AN      X      Y      Z        X      Y      Z        X      Y      Z   
After scan for Atom:   Atom  AN      X      Y      Z        X      Y      Z        X      Y      Z   
After scan for Atom:   Atom  AN      X      Y      Z        X      Y      Z        X      Y      Z   
After scan for Atom:   Atom  AN      X      Y      Z        X      Y      Z        X      Y      Z   
After scan for Atom:   Atom  AN      X      Y      Z        X      Y      Z        X      Y      Z   
After scan for Atom:   Atom  AN      X      Y      Z        X      Y      Z        X      Y      Z   
After scan for Atom:   Atom  AN      X      Y      Z        X      Y      Z        X      Y      Z   
After scan for Atom:   Atom  AN      X      Y      Z        X      Y      Z        X      Y      Z   
After scan for Atom:   Atom  AN      X      Y      Z        X      Y      Z        X      Y      Z   
After scan for Atom:   Atom  AN      X      Y      Z        X      Y      Z        X      Y      Z   
After scan for Atom:   Atom  AN      X      Y      Z        X      Y      Z        X      Y      Z   
After scan for Atom:   Atom  AN      X      Y      Z        X      Y      Z        X      Y      Z   
After scan for Atom:   Atom  AN      X      Y      Z        X      Y      Z        X      Y      Z   
After scan for Atom:   Atom  AN      X      Y      Z        X      Y      Z        X      Y      Z   
After scan for Atom:   Atom  AN      X      Y      Z        X      Y      Z        X      Y      Z   
After scan for Atom:   Atom  AN      X      Y      Z        X      Y      Z        X      Y      Z   
After scan for Atom:   Atom  AN      X      Y      Z        X      Y      Z        X      Y      Z   
After scan for Atom:   Atom  AN      X      Y      Z        X      Y      Z        X      Y      Z   
After scan for Atom:   Atom  AN      X      Y      Z        X      Y      Z        X      Y      Z   
After scan for Atom:   Atom  AN      X      Y      Z        X      Y      Z        X      Y      Z   
After scan for Atom:   Atom  AN      X      Y      Z        X      Y      Z        X      Y      Z   
After scan for Atom:   Atom  AN      X      Y      Z        X      Y      Z        X      Y      Z   
After scan for Atom:   Atom  AN      X      Y      Z        X      Y      Z        X      Y      Z   
After scan for Atom:   Atom  AN      X      Y      Z        X      Y      Z        X      Y      Z   
After scan for Atom:   Atom  AN      X      Y      Z        X      Y      Z        X      Y      Z   
After scan for Atom:   Atom  AN      X      Y      Z        X      Y      Z        X      Y      Z   
After scan for Atom:   Atom  AN      X      Y      Z        X      Y      Z        X      Y      Z   
After scan for Atom:   Atom  AN      X      Y      Z        X      Y      Z        X      Y      Z   
After scan for Atom:   Atom  AN      X      Y      Z        X      Y      Z        X      Y      Z   
After scan for Atom:   Atom  AN      X      Y      Z        X      Y      Z        X      Y      Z   
After scan for Atom:   Atom  AN      X      Y      Z        X      Y      Z        X      Y      Z   
After scan for Atom:   Atom  AN      X      Y      Z        X      Y      Z        X      Y      Z   
After scan for Atom:   Atom  AN      X      Y      Z        X      Y      Z        X      Y      Z   
After scan for Atom:   Atom  AN      X      Y      Z        X      Y      Z        X      Y      Z   
After scan for Atom:   Atom  AN      X      Y      Z        X      Y      Z        X      Y      Z   
After scan for Atom:   Atom  AN      X      Y      Z        X      Y      Z        X      Y      Z   
 g94    frequencies=
     0.0    0.0    0.0    0.0    0.0    0.0   13.0   22.8   30.3   49.6
    50.8   57.3   69.1   80.1   84.1   96.6  100.7  109.7  157.4  163.1
   163.9  175.9  184.7  187.0  211.2  227.3  234.0  238.3  239.9  258.2
   264.6  295.8  296.0  304.5  308.1  339.1  359.9  386.2  395.7  400.3
   404.1  414.1  431.7  436.2  440.0  443.4  444.8  471.2  476.1  483.0
   491.2  501.1  529.3  538.1  554.5  576.7  582.2  589.8  621.9  626.2
   638.9  653.0  667.0  709.8  716.6  719.7  730.9  746.3  750.2  767.4
   779.2  784.4  802.1  810.1  820.6  822.0  843.9  863.5  864.5  873.2
   875.9  888.0  911.0  922.8  924.0  938.5  947.1  957.8  969.0  970.8
   987.6  994.3 1000.3 1003.9 1009.5 1013.3 1026.7 1038.7 1067.3 1087.0
  1105.2 1126.4 1155.9 1162.2 1165.2 1174.6 1179.8 1196.5 1212.5 1218.2
  1224.0 1240.2 1249.8 1261.4 1268.7 1276.2 1293.6 1305.9 1313.4 1318.1
  1321.4 1337.3 1342.6 1371.7 1375.2 1379.2 1379.6 1391.9 1398.1 1404.0
  1404.1 1421.5 1424.3 1439.7 1451.9 1455.6 1476.1 1478.2 1485.9 1488.1
  1499.5 1503.0 1503.9 1521.6 1536.3 1552.7 1565.2 1580.2 1600.7 1602.0
  1614.6 1621.3 1628.5 1639.5 1721.1 1748.9 1762.0 1787.6 3005.7 3039.5
  3042.2 3043.0 3098.8 3102.0 3116.7 3122.9 3134.7 3143.2 3145.6 3152.7
  3177.2 3201.1 3202.0 3206.3 3207.5 3213.8 3214.8 3227.5 3228.4 3244.4
 g94    symmetries=
                                                 A      A      A      A
       A      A      A      A      A      A      A      A      A      A
       A      A      A      A      A      A      A      A      A      A
       A      A      A      A      A      A      A      A      A      A
       A      A      A      A      A      A      A      A      A      A
       A      A      A      A      A      A      A      A      A      A
       A      A      A      A      A      A      A      A      A      A
       A      A      A      A      A      A      A      A      A      A
       A      A      A      A      A      A      A      A      A      A
       A      A      A      A      A      A      A      A      A      A
       A      A      A      A      A      A      A      A      A      A
       A      A      A      A      A      A      A      A      A      A
       A      A      A      A      A      A      A      A      A      A
       A      A      A      A      A      A      A      A      A      A
       A      A      A      A      A      A      A      A      A      A
       A      A      A      A      A      A      A      A      A      A
       A      A      A      A      A      A      A      A      A      A
       A      A      A      A      A      A      A      A      A      A
 atomic masses:
 12.0000 12.0000 12.0000 12.0000 12.0000 14.0031 12.0000 15.9949 12.0000 12.0000
 12.0000 12.0000 12.0000 12.0000 12.0000 12.0000 12.0000 15.9949 14.0031 12.0000
 12.0000 12.0000 12.0000 15.9949 12.0000 12.0000 12.0000 12.0000 12.0000 12.0000
 12.0000 12.0000 12.0000 15.9949 12.0000 12.0000 12.0000 12.0000  1.0078  1.0078
  1.0078  1.0078  1.0078  1.0078  1.0078  1.0078  1.0078  1.0078  1.0078  1.0078
  1.0078  1.0078  1.0078  1.0078  1.0078  1.0078  1.0078  1.0078  1.0078  1.0078
 looking for force constants in 
 ./PDI_5_C1S0.fchk                                                              
  
 Cartesian Force Constants                  R   N=       16290                  
  
 n3=         180       16290
 g94-fc frequencies=
    -1.4   -0.0   -0.0    0.0    1.6    3.7   13.0   22.8   30.3   49.6
    50.8   57.3   69.1   80.1   84.1   96.6  100.7  109.7  157.4  163.1
   164.0  175.9  184.7  187.0  211.2  227.3  234.0  238.3  239.9  258.2
   264.6  295.8  296.0  304.5  308.1  339.1  359.9  386.3  395.7  400.4
   404.1  414.1  431.7  436.2  440.0  443.4  444.8  471.2  476.2  483.0
   491.2  501.1  529.4  538.1  554.5  576.7  582.2  589.9  621.9  626.2
   638.9  653.0  667.0  709.9  716.6  719.7  730.9  746.3  750.2  767.4
   779.2  784.4  802.1  810.1  820.6  822.0  843.9  863.5  864.6  873.3
   875.9  888.0  911.0  922.8  924.0  938.5  947.1  957.8  969.0  970.8
   987.6  994.3 1000.3 1003.9 1009.5 1013.3 1026.7 1038.7 1067.3 1087.0
  1105.2 1126.4 1155.9 1162.2 1165.3 1174.6 1179.8 1196.6 1212.5 1218.2
  1224.1 1240.3 1249.8 1261.4 1268.7 1276.3 1293.7 1305.9 1313.4 1318.1
  1321.4 1337.4 1342.6 1371.7 1375.2 1379.3 1379.6 1391.9 1398.2 1404.1
  1404.1 1421.6 1424.3 1439.7 1451.9 1455.6 1476.1 1478.3 1485.9 1488.1
  1499.5 1503.1 1503.9 1521.6 1536.3 1552.8 1565.2 1580.2 1600.7 1602.0
  1614.6 1621.4 1628.6 1639.5 1721.1 1748.9 1762.1 1787.6 3005.8 3039.6
  3042.3 3043.1 3098.9 3102.1 3116.8 3123.0 3134.8 3143.3 3145.7 3152.7
  3177.3 3201.1 3202.1 3206.4 3207.6 3213.9 3214.9 3227.5 3228.5 3244.5
 at 99999: n3=         180
 symm operator            1 :  F  nop=           0
 symm operator            2 :  F  nop=           0
 symm operator            3 :  F  nop=           0
 symm operator            4 :  F  nop=           0
 symm operator            5 :  F  nop=           0
 symm operator            6 :  F  nop=           0
 symm operator            7 :  F  nop=           0
 The point group of the molecule is  C1
 Symmetry rotation matrix:
   1.00000   0.00000   0.00000
   0.00000   1.00000   0.00000
   0.00000   0.00000   1.00000

 Projecting out zero-frequency components
 generating redundant internal coords
         300        3600          60
 search for int coords
   1 str   2   1   1.478
   2 str   3   2   1.376
   3 str   4   3   1.408
   4 str   5   4   1.391
   5 str   6   5   1.356
   6 str   7   6   1.486
   7 str   8   7   1.205
   8 str   9   7   1.458
   9 str  10   9   1.390
  10 str  11  10   1.388
  11 str  12  11   1.398
  12 str  13  12   1.465
  13 str  14  13   1.396
  14 str  15  14   1.397
  15 str  16  15   1.382
  16 str  17  16   1.494
  17 str  18  17   1.215
  18 str  19  17   1.398
  19 str  20  19   1.505
  20 str  21  20   1.531
  21 str  22  20   1.531
  22 str  23  19   1.403
  23 str  24  23   1.214
  24 str  25  23   1.493
  25 str  26  25   1.383
  26 str  27  26   1.396
  27 str  28  27   1.398
  28 str  29  28   1.461
  29 str  30  29   1.402
  30 str  31  30   1.386
  31 str  32  31   1.392
  32 str  33   6   1.456
  33 str  33  32   1.458
  34 str  34  33   1.211
  35 str  35   9   1.413
  36 str  35  32   1.419
  37 str  36  12   1.432
  38 str  36  29   1.431
  39 str  36  35   1.430
  40 str  37  13   1.425
  41 str  37  28   1.427
  42 str  38  16   1.410
  43 str  38  25   1.410
  44 str  38  37   1.425
  45 str  39   1   1.098
  46 str  40   1   1.098
  47 str  41   1   1.090
  48 str  42   2   1.088
  49 str  43   3   1.088
  50 str  44   4   1.079
  51 str  45   5   1.085
  52 str  46  10   1.083
  53 str  47  11   1.080
  54 str  48  14   1.081
  55 str  49  15   1.082
  56 str  50  20   1.087
  57 str  51  21   1.089
  58 str  52  21   1.093
  59 str  53  21   1.093
  60 str  54  22   1.089
  61 str  55  22   1.093
  62 str  56  22   1.093
  63 str  57  26   1.082
  64 str  58  27   1.081
  65 str  59  30   1.080
  66 str  60  31   1.082
 nber stretches=          66
  67 ben   1   2   3
  68 prop tor   1   2   3   4
  69 prop tor   1   2   3  43
  70 ben   1   2  42
  71 ben   2   1  39
  72 ben   2   1  40
  73 ben   2   1  41
  74 ben   2   3   4
  75 prop tor   2   3   4   5
  76 prop tor   2   3   4  44
  77 ben   2   3  43
  78 ben   3   2  42
  79 ben   3   4   5
  80 prop tor   3   4   5   6
  81 prop tor   3   4   5  45
  82 ben   3   4  44
  83 ben   4   3  43
  84 ben   4   5   6
  85 prop tor   4   5   6   7
  86 prop tor   4   5   6  33
  87 ben   4   5  45
  88 ben   5   4  44
  89 ben   5   6   7
  90 prop tor   5   6   7   8
  91 prop tor   5   6   7   9
  92 ben   5   6  33
  93 prop tor   5   6  33  32
  94 prop tor   5   6  33  34
  95 ben   6   5  45
  96 ben   6   7   8
  97 ben   6   7   9
  98 prop tor   6   7   9  10
  99 prop tor   6   7   9  35
 100 ben   6  33  32
 101 ben   6  33  34
 102 ben   7   6  33
 103 prop tor   7   6  33  32
 104 prop tor   7   6  33  34
 105 ben   7   9  10
 106 prop tor   7   9  10  11
 107 prop tor   7   9  10  46
 108 ben   7   9  35
 109 prop tor   7   9  35  32
 110 prop tor   7   9  35  36
 111 ben   8   7   9
 112 prop tor   8   7   9  10
 113 prop tor   8   7   9  35
 114 ben   9  10  11
 115 prop tor   9  10  11  12
 116 prop tor   9  10  11  47
 117 ben   9  10  46
 118 ben   9  35  32
 119 ben   9  35  36
 120 prop tor   9  35  36  12
 121 prop tor   9  35  36  29
 122 ben  10   9  35
 123 prop tor  10   9  35  32
 124 prop tor  10   9  35  36
 125 ben  10  11  12
 126 prop tor  10  11  12  13
 127 prop tor  10  11  12  36
 128 ben  10  11  47
 129 ben  11  10  46
 130 ben  11  12  13
 131 prop tor  11  12  13  14
 132 prop tor  11  12  13  37
 133 ben  11  12  36
 134 prop tor  11  12  36  29
 135 prop tor  11  12  36  35
 136 ben  12  11  47
 137 ben  12  13  14
 138 prop tor  12  13  14  15
 139 prop tor  12  13  14  48
 140 ben  12  13  37
 141 prop tor  12  13  37  28
 142 prop tor  12  13  37  38
 143 ben  12  36  29
 144 ben  12  36  35
 145 ben  13  12  36
 146 prop tor  13  12  36  29
 147 prop tor  13  12  36  35
 148 ben  13  14  15
 149 prop tor  13  14  15  16
 150 prop tor  13  14  15  49
 151 ben  13  14  48
 152 ben  13  37  28
 153 ben  13  37  38
 154 prop tor  13  37  38  16
 155 prop tor  13  37  38  25
 156 ben  14  13  37
 157 prop tor  14  13  37  28
 158 prop tor  14  13  37  38
 159 ben  14  15  16
 160 prop tor  14  15  16  17
 161 prop tor  14  15  16  38
 162 ben  14  15  49
 163 ben  15  14  48
 164 ben  15  16  17
 165 prop tor  15  16  17  18
 166 prop tor  15  16  17  19
 167 ben  15  16  38
 168 prop tor  15  16  38  25
 169 prop tor  15  16  38  37
 170 ben  16  15  49
 171 ben  16  17  18
 172 ben  16  17  19
 173 prop tor  16  17  19  20
 174 prop tor  16  17  19  23
 175 ben  16  38  25
 176 ben  16  38  37
 177 ben  17  16  38
 178 prop tor  17  16  38  25
 179 prop tor  17  16  38  37
 180 ben  17  19  20
 181 prop tor  17  19  20  21
 182 prop tor  17  19  20  22
 183 prop tor  17  19  20  50
 184 ben  17  19  23
 185 prop tor  17  19  23  24
 186 prop tor  17  19  23  25
 187 ben  18  17  19
 188 prop tor  18  17  19  20
 189 prop tor  18  17  19  23
 190 ben  19  20  21
 191 prop tor  19  20  21  51
 192 prop tor  19  20  21  52
 193 prop tor  19  20  21  53
 194 ben  19  20  22
 195 prop tor  19  20  22  54
 196 prop tor  19  20  22  55
 197 prop tor  19  20  22  56
 198 ben  19  20  50
 199 ben  19  23  24
 200 ben  19  23  25
 201 prop tor  19  23  25  26
 202 prop tor  19  23  25  38
 203 ben  20  19  23
 204 prop tor  20  19  23  24
 205 prop tor  20  19  23  25
 206 ben  20  21  51
 207 ben  20  21  52
 208 ben  20  21  53
 209 ben  20  22  54
 210 ben  20  22  55
 211 ben  20  22  56
 212 ben  21  20  22
 213 prop tor  21  20  22  54
 214 prop tor  21  20  22  55
 215 prop tor  21  20  22  56
 216 ben  21  20  50
 217 prop tor  22  20  21  51
 218 prop tor  22  20  21  52
 219 prop tor  22  20  21  53
 220 ben  22  20  50
 221 prop tor  23  19  20  21
 222 prop tor  23  19  20  22
 223 prop tor  23  19  20  50
 224 ben  23  25  26
 225 prop tor  23  25  26  27
 226 prop tor  23  25  26  57
 227 ben  23  25  38
 228 prop tor  23  25  38  16
 229 prop tor  23  25  38  37
 230 ben  24  23  25
 231 prop tor  24  23  25  26
 232 prop tor  24  23  25  38
 233 ben  25  26  27
 234 prop tor  25  26  27  28
 235 prop tor  25  26  27  58
 236 ben  25  26  57
 237 ben  25  38  37
 238 ben  26  25  38
 239 prop tor  26  25  38  16
 240 prop tor  26  25  38  37
 241 ben  26  27  28
 242 prop tor  26  27  28  29
 243 prop tor  26  27  28  37
 244 ben  26  27  58
 245 ben  27  26  57
 246 ben  27  28  29
 247 prop tor  27  28  29  30
 248 prop tor  27  28  29  36
 249 ben  27  28  37
 250 prop tor  27  28  37  13
 251 prop tor  27  28  37  38
 252 ben  28  27  58
 253 ben  28  29  30
 254 prop tor  28  29  30  31
 255 prop tor  28  29  30  59
 256 ben  28  29  36
 257 prop tor  28  29  36  12
 258 prop tor  28  29  36  35
 259 ben  28  37  38
 260 prop tor  28  37  38  16
 261 prop tor  28  37  38  25
 262 ben  29  28  37
 263 prop tor  29  28  37  13
 264 prop tor  29  28  37  38
 265 ben  29  30  31
 266 prop tor  29  30  31  32
 267 prop tor  29  30  31  60
 268 ben  29  30  59
 269 ben  29  36  35
 270 ben  30  29  36
 271 prop tor  30  29  36  12
 272 prop tor  30  29  36  35
 273 ben  30  31  32
 274 prop tor  30  31  32  33
 275 prop tor  30  31  32  35
 276 ben  30  31  60
 277 ben  31  30  59
 278 ben  31  32  33
 279 prop tor  31  32  33   6
 280 prop tor  31  32  33  34
 281 ben  31  32  35
 282 prop tor  31  32  35   9
 283 prop tor  31  32  35  36
 284 ben  32  31  60
 285 ben  32  33  34
 286 ben  32  35  36
 287 prop tor  32  35  36  12
 288 prop tor  32  35  36  29
 289 prop tor  33   6   7   8
 290 prop tor  33   6   7   9
 291 ben  33  32  35
 292 prop tor  33  32  35   9
 293 prop tor  33  32  35  36
 294 prop tor  35   9  10  11
 295 prop tor  35   9  10  46
 296 prop tor  35  32  33   6
 297 prop tor  35  32  33  34
 298 prop tor  36  12  13  14
 299 prop tor  36  12  13  37
 300 prop tor  36  29  30  31
 301 prop tor  36  29  30  59
 302 prop tor  37  13  14  15
 303 prop tor  37  13  14  48
 304 prop tor  37  28  29  30
 305 prop tor  37  28  29  36
 306 prop tor  38  16  17  18
 307 prop tor  38  16  17  19
 308 prop tor  38  25  26  27
 309 prop tor  38  25  26  57
 310 prop tor  39   1   2   3
 311 prop tor  39   1   2  42
 312 ben  39   1  40
 313 ben  39   1  41
 314 prop tor  40   1   2   3
 315 prop tor  40   1   2  42
 316 ben  40   1  41
 317 prop tor  41   1   2   3
 318 prop tor  41   1   2  42
 319 prop tor  42   2   3   4
 320 prop tor  42   2   3  43
 321 prop tor  43   3   4   5
 322 prop tor  43   3   4  44
 323 prop tor  44   4   5   6
 324 prop tor  44   4   5  45
 325 prop tor  45   5   6   7
 326 prop tor  45   5   6  33
 327 prop tor  46  10  11  12
 328 prop tor  46  10  11  47
 329 prop tor  47  11  12  13
 330 prop tor  47  11  12  36
 331 prop tor  48  14  15  16
 332 prop tor  48  14  15  49
 333 prop tor  49  15  16  17
 334 prop tor  49  15  16  38
 335 prop tor  50  20  21  51
 336 prop tor  50  20  21  52
 337 prop tor  50  20  21  53
 338 prop tor  50  20  22  54
 339 prop tor  50  20  22  55
 340 prop tor  50  20  22  56
 341 ben  51  21  52
 342 ben  51  21  53
 343 ben  52  21  53
 344 ben  54  22  55
 345 ben  54  22  56
 346 ben  55  22  56
 347 prop tor  57  26  27  28
 348 prop tor  57  26  27  58
 349 prop tor  58  27  28  29
 350 prop tor  58  27  28  37
 351 prop tor  59  30  31  32
 352 prop tor  59  30  31  60
 353 prop tor  60  31  32  33
 354 prop tor  60  31  32  35
 nber bend=             114
 nber lin bend=           0
 nber prop tor=         174
 nber impr tor=           0
 nber tot redund int=         354
 Eigenvalues of G in red int coords
    Gval -0.00000000 -0.00000000 -0.00000000 -0.00000000 -0.00000000 -0.00000000 -0.00000000 -0.00000000
    Gval -0.00000000 -0.00000000 -0.00000000 -0.00000000 -0.00000000 -0.00000000 -0.00000000 -0.00000000
    Gval -0.00000000 -0.00000000 -0.00000000 -0.00000000 -0.00000000 -0.00000000 -0.00000000 -0.00000000
    Gval -0.00000000 -0.00000000 -0.00000000 -0.00000000 -0.00000000 -0.00000000 -0.00000000 -0.00000000
    Gval -0.00000000 -0.00000000 -0.00000000 -0.00000000 -0.00000000 -0.00000000 -0.00000000 -0.00000000
    Gval -0.00000000 -0.00000000 -0.00000000 -0.00000000 -0.00000000 -0.00000000 -0.00000000 -0.00000000
    Gval -0.00000000 -0.00000000 -0.00000000 -0.00000000 -0.00000000 -0.00000000 -0.00000000 -0.00000000
    Gval -0.00000000 -0.00000000 -0.00000000 -0.00000000 -0.00000000 -0.00000000 -0.00000000 -0.00000000
    Gval -0.00000000 -0.00000000 -0.00000000 -0.00000000 -0.00000000 -0.00000000 -0.00000000 -0.00000000
    Gval -0.00000000 -0.00000000 -0.00000000 -0.00000000 -0.00000000 -0.00000000 -0.00000000 -0.00000000
    Gval -0.00000000 -0.00000000 -0.00000000 -0.00000000 -0.00000000  0.00000000  0.00000000  0.00000000
    Gval  0.00000000  0.00000000  0.00000000  0.00000000  0.00000000  0.00000000  0.00000000  0.00000000
    Gval  0.00000000  0.00000000  0.00000000  0.00000000  0.00000000  0.00000000  0.00000000  0.00000000
    Gval  0.00000000  0.00000000  0.00000000  0.00000000  0.00000000  0.00000000  0.00000000  0.00000000
    Gval  0.00000000  0.00000000  0.00000000  0.00000000  0.00000000  0.00000000  0.00000000  0.00000000
    Gval  0.00000000  0.00000000  0.00000000  0.00000000  0.00000000  0.00000000  0.00000000  0.00000000
    Gval  0.00000000  0.00000000  0.00000000  0.00000000  0.00000000  0.00000000  0.00000000  0.00000000
    Gval  0.00000000  0.00000000  0.00000000  0.00000000  0.00000000  0.00000000  0.00000000  0.00000000
    Gval  0.00000000  0.00000000  0.00000000  0.00000000  0.00000000  0.00000000  0.00000000  0.00000000
    Gval  0.00000000  0.00000000  0.00000000  0.00000000  0.00000000  0.00000000  0.00000000  0.00000000
    Gval  0.00000000  0.00000000  0.00000000  0.00000000  0.00000000  0.00000000  0.00000000  0.00000000
    Gval  0.00000000  0.00000000  0.00000000  0.00000000  0.00000000  0.00000000  0.00000000  0.00000000
    Gval  0.00000000  0.00000000  0.00000000  0.00000000  0.00000040  0.00000110  0.00000159  0.00000210
    Gval  0.00000459  0.00000523  0.00000552  0.00000898  0.00001025  0.00001073  0.00001219  0.00001485
    Gval  0.00001505  0.00001641  0.00001762  0.00001802  0.00001846  0.00002135  0.00002363  0.00002441
    Gval  0.00002536  0.00002714  0.00002906  0.00003084  0.00003489  0.00003993  0.00004413  0.00004578
    Gval  0.00004911  0.00005104  0.00005151  0.00005203  0.00005362  0.00006116  0.00006325  0.00006330
    Gval  0.00006859  0.00007207  0.00007398  0.00007880  0.00008137  0.00008246  0.00008510  0.00008796
    Gval  0.00008869  0.00009204  0.00009388  0.00009462  0.00010288  0.00011419  0.00011529  0.00012130
    Gval  0.00012266  0.00013656  0.00013659  0.00013708  0.00014108  0.00015694  0.00015990  0.00016159
    Gval  0.00016932  0.00018097  0.00019516  0.00020105  0.00022271  0.00022960  0.00023053  0.00024430
    Gval  0.00026307  0.00027684  0.00028382  0.00029133  0.00029912  0.00034181  0.00034442  0.00035577
    Gval  0.00035832  0.00038277  0.00038795  0.00039130  0.00039239  0.00040898  0.00041663  0.00042047
    Gval  0.00043133  0.00043264  0.00044156  0.00044285  0.00046312  0.00046710  0.00046752  0.00049323
    Gval  0.00050632  0.00052952  0.00053463  0.00053702  0.00053923  0.00054965  0.00055459  0.00055611
    Gval  0.00055624  0.00055665  0.00059081  0.00059366  0.00059437  0.00059859  0.00059935  0.00059963
    Gval  0.00059994  0.00060218  0.00060867  0.00064171  0.00064538  0.00064589  0.00064789  0.00064909
    Gval  0.00065190  0.00067250  0.00068381  0.00069656  0.00069863  0.00073003  0.00079278  0.00082739
    Gval  0.00093927  0.00100002  0.00103721  0.00109221  0.00109576  0.00109670  0.00109748  0.00109798
    Gval  0.00114006  0.00114487  0.00116078  0.00116295  0.00116360  0.00116447  0.00116502  0.00117432
    Gval  0.00117497  0.00118562  0.00119270  0.00120190  0.00128184  0.00129864  0.00138179  0.00149712
    Gval  0.00155557  0.00172306  0.00177159  0.00191560  0.00229447  0.00235467  0.00238291  0.00240378
    Gval  0.00253140  0.00253658  0.00256285  0.00273188  0.00278884  0.00291944  0.00294253  0.00302462
    Gval  0.00304169  0.00308031  0.00310150  0.00341218  0.00365731  0.00365991  0.00370620  0.00370840
    Gval  0.00395633  0.00401098
  3.975867758377460E-007  3.975867758377460E-007
  1.097920846989198E-006  3.975867758377460E-007
  1.590463139017871E-006  3.975867758377460E-007
  2.098035969543734E-006  3.975867758377460E-007
  4.587577485027534E-006  3.975867758377460E-007
  5.228765302777238E-006  3.975867758377460E-007
  5.519965544273123E-006  3.975867758377460E-007
  8.978326706831693E-006  3.975867758377460E-007
  1.024549757737484E-005  3.975867758377460E-007
  1.073312080264010E-005  3.975867758377460E-007
  1.218666223864036E-005  3.975867758377460E-007
  1.485332988075252E-005  3.975867758377460E-007
  1.505071745244731E-005  3.975867758377460E-007
  1.640775416512527E-005  3.975867758377460E-007
  1.762480989491267E-005  3.975867758377460E-007
  1.802132225314875E-005  3.975867758377460E-007
  1.845513685038655E-005  3.975867758377460E-007
  2.135136034991004E-005  3.975867758377460E-007
  2.362702593503763E-005  3.975867758377460E-007
  2.440723358280155E-005  3.975867758377460E-007
  2.535891254754308E-005  3.975867758377460E-007
  2.714195652533115E-005  3.975867758377460E-007
  2.905753318408219E-005  3.975867758377460E-007
  3.084033742958222E-005  3.975867758377460E-007
  3.489023834290736E-005  3.975867758377460E-007
  3.992632384148027E-005  3.975867758377460E-007
  4.413103998542415E-005  3.975867758377460E-007
  4.577808554519890E-005  3.975867758377460E-007
  4.911295560863455E-005  3.975867758377460E-007
  5.104178864393552E-005  3.975867758377460E-007
  5.150724474599804E-005  3.975867758377460E-007
  5.202990964485040E-005  3.975867758377460E-007
  5.361566471738566E-005  3.975867758377460E-007
  6.116135621145253E-005  3.975867758377460E-007
  6.324932729194258E-005  3.975867758377460E-007
  6.329599974211110E-005  3.975867758377460E-007
  6.859367250344731E-005  3.975867758377460E-007
  7.206986406221544E-005  3.975867758377460E-007
  7.397636205292599E-005  3.975867758377460E-007
  7.879632237549281E-005  3.975867758377460E-007
  8.136896607549080E-005  3.975867758377460E-007
  8.245528020248506E-005  3.975867758377460E-007
  8.510440346873793E-005  3.975867758377460E-007
  8.795896596350394E-005  3.975867758377460E-007
  8.868880967242869E-005  3.975867758377460E-007
  9.203506735066848E-005  3.975867758377460E-007
  9.388194995432819E-005  3.975867758377460E-007
  9.462096987053456E-005  3.975867758377460E-007
  1.028763738450708E-004  3.975867758377460E-007
  1.141905665689435E-004  3.975867758377460E-007
  1.152900316753315E-004  3.975867758377460E-007
  1.213029769287301E-004  3.975867758377460E-007
  1.226588402659826E-004  3.975867758377460E-007
  1.365591043544818E-004  3.975867758377460E-007
  1.365852962180103E-004  3.975867758377460E-007
  1.370810003259805E-004  3.975867758377460E-007
  1.410769746321001E-004  3.975867758377460E-007
  1.569439484772432E-004  3.975867758377460E-007
  1.598994038561462E-004  3.975867758377460E-007
  1.615852303886199E-004  3.975867758377460E-007
  1.693183830923651E-004  3.975867758377460E-007
  1.809708515204971E-004  3.975867758377460E-007
  1.951600951935587E-004  3.975867758377460E-007
  2.010477973117061E-004  3.975867758377460E-007
  2.227123778624793E-004  3.975867758377460E-007
  2.296017541674231E-004  3.975867758377460E-007
  2.305284006267435E-004  3.975867758377460E-007
  2.442996439937664E-004  3.975867758377460E-007
  2.630729648402866E-004  3.975867758377460E-007
  2.768433181386938E-004  3.975867758377460E-007
  2.838198889551249E-004  3.975867758377460E-007
  2.913304374257386E-004  3.975867758377460E-007
  2.991190480320019E-004  3.975867758377460E-007
  3.418067109424802E-004  3.975867758377460E-007
  3.444157703909413E-004  3.975867758377460E-007
  3.557735009903612E-004  3.975867758377460E-007
  3.583199441623299E-004  3.975867758377460E-007
  3.827710843455472E-004  3.975867758377460E-007
  3.879505155902216E-004  3.975867758377460E-007
  3.912973193654247E-004  3.975867758377460E-007
  3.923912067696127E-004  3.975867758377460E-007
  4.089791788858866E-004  3.975867758377460E-007
  4.166327293108740E-004  3.975867758377460E-007
  4.204698615757315E-004  3.975867758377460E-007
  4.313314778434672E-004  3.975867758377460E-007
  4.326388200020300E-004  3.975867758377460E-007
  4.415632120036815E-004  3.975867758377460E-007
  4.428463089264331E-004  3.975867758377460E-007
  4.631153243053959E-004  3.975867758377460E-007
  4.670999478414810E-004  3.975867758377460E-007
  4.675232796637094E-004  3.975867758377460E-007
  4.932331291802735E-004  3.975867758377460E-007
  5.063154191674968E-004  3.975867758377460E-007
  5.295200162310794E-004  3.975867758377460E-007
  5.346269957042062E-004  3.975867758377460E-007
  5.370186491606200E-004  3.975867758377460E-007
  5.392330624088418E-004  3.975867758377460E-007
  5.496546742507710E-004  3.975867758377460E-007
  5.545870424517142E-004  3.975867758377460E-007
  5.561121370813590E-004  3.975867758377460E-007
  5.562383593546813E-004  3.975867758377460E-007
  5.566505668709297E-004  3.975867758377460E-007
  5.908067738892543E-004  3.975867758377460E-007
  5.936556191420279E-004  3.975867758377460E-007
  5.943740902554013E-004  3.975867758377460E-007
  5.985871180198756E-004  3.975867758377460E-007
  5.993503426063347E-004  3.975867758377460E-007
  5.996310716852638E-004  3.975867758377460E-007
  5.999409373737987E-004  3.975867758377460E-007
  6.021759894982390E-004  3.975867758377460E-007
  6.086741170627009E-004  3.975867758377460E-007
  6.417103819871882E-004  3.975867758377460E-007
  6.453821999347959E-004  3.975867758377460E-007
  6.458926560598259E-004  3.975867758377460E-007
  6.478931089739645E-004  3.975867758377460E-007
  6.490916164104600E-004  3.975867758377460E-007
  6.519009453456298E-004  3.975867758377460E-007
  6.724976390101621E-004  3.975867758377460E-007
  6.838111507702254E-004  3.975867758377460E-007
  6.965554949877676E-004  3.975867758377460E-007
  6.986296697169342E-004  3.975867758377460E-007
  7.300284432438477E-004  3.975867758377460E-007
  7.927835679409747E-004  3.975867758377460E-007
  8.273861668951283E-004  3.975867758377460E-007
  9.392681895423289E-004  3.975867758377460E-007
  1.000023705014312E-003  3.975867758377460E-007
  1.037206116207327E-003  3.975867758377460E-007
  1.092207842221454E-003  3.975867758377460E-007
  1.095763055735930E-003  3.975867758377460E-007
  1.096700541285356E-003  3.975867758377460E-007
  1.097478695882438E-003  3.975867758377460E-007
  1.097977002818580E-003  3.975867758377460E-007
  1.140058282176448E-003  3.975867758377460E-007
  1.144872629482296E-003  3.975867758377460E-007
  1.160781930259417E-003  3.975867758377460E-007
  1.162953766965949E-003  3.975867758377460E-007
  1.163601412365182E-003  3.975867758377460E-007
  1.164465860583953E-003  3.975867758377460E-007
  1.165019203624872E-003  3.975867758377460E-007
  1.174324315233158E-003  3.975867758377460E-007
  1.174967853894817E-003  3.975867758377460E-007
  1.185619129001945E-003  3.975867758377460E-007
  1.192702690590977E-003  3.975867758377460E-007
  1.201898437850702E-003  3.975867758377460E-007
  1.281838418595123E-003  3.975867758377460E-007
  1.298635568863287E-003  3.975867758377460E-007
  1.381785301384968E-003  3.975867758377460E-007
  1.497123139631200E-003  3.975867758377460E-007
  1.555568726198126E-003  3.975867758377460E-007
  1.723056281227610E-003  3.975867758377460E-007
  1.771590994054229E-003  3.975867758377460E-007
  1.915602644088015E-003  3.975867758377460E-007
  2.294469649334923E-003  3.975867758377460E-007
  2.354669279441368E-003  3.975867758377460E-007
  2.382914002360585E-003  3.975867758377460E-007
  2.403776310424614E-003  3.975867758377460E-007
  2.531404588734674E-003  3.975867758377460E-007
  2.536581014603415E-003  3.975867758377460E-007
  2.562853617480332E-003  3.975867758377460E-007
  2.731878400169108E-003  3.975867758377460E-007
  2.788842076572175E-003  3.975867758377460E-007
  2.919441258714228E-003  3.975867758377460E-007
  2.942532341838860E-003  3.975867758377460E-007
  3.024622876244133E-003  3.975867758377460E-007
  3.041685114092353E-003  3.975867758377460E-007
  3.080305747290697E-003  3.975867758377460E-007
  3.101495496253597E-003  3.975867758377460E-007
  3.412177185849315E-003  3.975867758377460E-007
  3.657309145353153E-003  3.975867758377460E-007
  3.659906554227183E-003  3.975867758377460E-007
  3.706198133485621E-003  3.975867758377460E-007
  3.708395885558937E-003  3.975867758377460E-007
  3.956330045859221E-003  3.975867758377460E-007
  4.010982612376279E-003  3.975867758377460E-007
 cut=1d-8, nber non-redundant internal coords=         174
 Check on Eigenvals of non-red overlap matrix:
  0.00000040  0.00000110  0.00000159  0.00000210  0.00000459  0.00000523  0.00000552  0.00000898
  0.00001025  0.00001073  0.00001219  0.00001485  0.00001505  0.00001641  0.00001762  0.00001802
  0.00001846  0.00002135  0.00002363  0.00002441  0.00002536  0.00002714  0.00002906  0.00003084
  0.00003489  0.00003993  0.00004413  0.00004578  0.00004911  0.00005104  0.00005151  0.00005203
  0.00005362  0.00006116  0.00006325  0.00006330  0.00006859  0.00007207  0.00007398  0.00007880
  0.00008137  0.00008246  0.00008510  0.00008796  0.00008869  0.00009204  0.00009388  0.00009462
  0.00010288  0.00011419  0.00011529  0.00012130  0.00012266  0.00013656  0.00013659  0.00013708
  0.00014108  0.00015694  0.00015990  0.00016159  0.00016932  0.00018097  0.00019516  0.00020105
  0.00022271  0.00022960  0.00023053  0.00024430  0.00026307  0.00027684  0.00028382  0.00029133
  0.00029912  0.00034181  0.00034442  0.00035577  0.00035832  0.00038277  0.00038795  0.00039130
  0.00039239  0.00040898  0.00041663  0.00042047  0.00043133  0.00043264  0.00044156  0.00044285
  0.00046312  0.00046710  0.00046752  0.00049323  0.00050632  0.00052952  0.00053463  0.00053702
  0.00053923  0.00054965  0.00055459  0.00055611  0.00055624  0.00055665  0.00059081  0.00059366
  0.00059437  0.00059859  0.00059935  0.00059963  0.00059994  0.00060218  0.00060867  0.00064171
  0.00064538  0.00064589  0.00064789  0.00064909  0.00065190  0.00067250  0.00068381  0.00069656
  0.00069863  0.00073003  0.00079278  0.00082739  0.00093927  0.00100002  0.00103721  0.00109221
  0.00109576  0.00109670  0.00109748  0.00109798  0.00114006  0.00114487  0.00116078  0.00116295
  0.00116360  0.00116447  0.00116502  0.00117432  0.00117497  0.00118562  0.00119270  0.00120190
  0.00128184  0.00129864  0.00138179  0.00149712  0.00155557  0.00172306  0.00177159  0.00191560
  0.00229447  0.00235467  0.00238291  0.00240378  0.00253140  0.00253658  0.00256285  0.00273188
  0.00278884  0.00291944  0.00294253  0.00302462  0.00304169  0.00308031  0.00310150  0.00341218
  0.00365731  0.00365991  0.00370620  0.00370840  0.00395633  0.00401098
 Checking for correct frequencies
 recalc frequencies=
    -0.0   -0.0   -0.0    0.0    0.0    0.0   13.0   22.8   30.3   49.6
    50.8   57.3   69.1   80.1   84.1   96.6  100.7  109.7  157.4  163.1
   164.0  175.9  184.7  187.0  211.2  227.3  234.0  238.3  239.9  258.2
   264.6  295.8  296.0  304.5  308.1  339.1  359.9  386.3  395.7  400.4
   404.1  414.1  431.7  436.2  440.0  443.4  444.8  471.2  476.2  483.0
   491.2  501.1  529.4  538.1  554.5  576.7  582.2  589.9  621.9  626.2
   638.9  653.0  667.0  709.9  716.6  719.7  730.9  746.3  750.2  767.4
   779.2  784.4  802.1  810.1  820.6  822.0  843.9  863.5  864.6  873.3
   875.9  888.0  911.0  922.8  924.0  938.5  947.1  957.8  969.0  970.8
   987.6  994.3 1000.3 1003.9 1009.5 1013.3 1026.7 1038.7 1067.3 1087.0
  1105.2 1126.4 1155.9 1162.2 1165.3 1174.6 1179.8 1196.6 1212.5 1218.2
  1224.1 1240.3 1249.8 1261.4 1268.7 1276.3 1293.7 1305.9 1313.4 1318.1
  1321.4 1337.4 1342.6 1371.7 1375.2 1379.3 1379.6 1391.9 1398.2 1404.1
  1404.1 1421.6 1424.3 1439.7 1451.9 1455.6 1476.1 1478.3 1485.9 1488.1
  1499.5 1503.1 1503.9 1521.6 1536.3 1552.8 1565.2 1580.2 1600.7 1602.0
  1614.6 1621.4 1628.6 1639.5 1721.1 1748.9 1762.1 1787.6 3005.8 3039.6
  3042.3 3043.1 3098.9 3102.1 3116.8 3123.0 3134.8 3143.3 3145.7 3152.7
  3177.3 3201.1 3202.1 3206.4 3207.6 3213.9 3214.9 3227.5 3228.5 3244.5
 recalc symmetries=
                                                                       
                                                                       
                                                                       
                                                                       
                                                                       
                                                                       
                                                                       
                                                                       
                                                                       
                                                                       
                                                                       
                                                                       
                                                                       
                                                                       
                                                                       
                                                                       
                                                                       
                                                                       
 recalc freqs check OK
 Zero-point lengths:
 10.0000 10.0000 10.0000 10.0000 10.0000 10.0000 68.7536 51.8639 45.0111 35.1999
 34.7899 32.7444 29.8194 27.6926 27.0344 25.2178 24.7014 23.6657 19.7593 19.4113
 19.3615 18.6914 18.2392 18.1305 17.0594 16.4440 16.2055 16.0579 16.0047 15.4268
 15.2395 14.4145 14.4096 14.2075 14.1230 13.4628 13.0683 12.6142 12.4620 12.3901
 12.3320 12.1827 11.9313 11.8703 11.8191 11.7738 11.7550 11.4204 11.3611 11.2799
 11.1856 11.0748 10.7751 10.6867 10.5280 10.3229 10.2746 10.2076  9.9410  9.9066
  9.8081  9.7014  9.5988  9.3049  9.2608  9.2412  9.1701  9.0747  9.0511  8.9491
  8.8809  8.8518  8.7533  8.7102  8.6541  8.6469  8.5339  8.4365  8.4314  8.3892
  8.3764  8.3193  8.2136  8.1611  8.1558  8.0925  8.0557  8.0106  7.9639  7.9567
  7.8886  7.8619  7.8386  7.8245  7.8027  7.7879  7.7370  7.6922  7.5883  7.5193
  7.4570  7.3867  7.2917  7.2721  7.2625  7.2336  7.2175  7.1669  7.1196  7.1029
  7.0858  7.0395  7.0125  6.9802  6.9601  6.9394  6.8926  6.8602  6.8406  6.8284
  6.8199  6.7790  6.7658  6.6936  6.6852  6.6753  6.6745  6.6450  6.6300  6.6161
  6.6160  6.5753  6.5688  6.5337  6.5062  6.4978  6.4525  6.4479  6.4312  6.4265
  6.4021  6.3945  6.3927  6.3554  6.3250  6.2913  6.2662  6.2364  6.1964  6.1938
  6.1697  6.1568  6.1432  6.1226  5.9758  5.9280  5.9059  5.8635  4.5218  4.4966
  4.4946  4.4941  4.4534  4.4511  4.4406  4.4362  4.4279  4.4218  4.4201  4.4152
  4.3981  4.3817  4.3810  4.3781  4.3773  4.3730  4.3723  4.3638  4.3631  4.3523
 highest evec of mol 1
  0.0002  0.0003  0.0015
  0.0014 -0.0007 -0.0046
 -0.0041 -0.0018 -0.0089
  0.0757 -0.0406 -0.2736
  0.0126 -0.0006 -0.0086
  0.0012 -0.0002 -0.0019
 -0.0004 -0.0001 -0.0005
 -0.0003 -0.0000 -0.0001
  0.0000 -0.0000 -0.0001
  0.0001 -0.0000 -0.0001
 -0.0001 -0.0000 -0.0002
 -0.0000  0.0000  0.0001
  0.0001  0.0000  0.0001
 -0.0000 -0.0000 -0.0002
  0.0000 -0.0000 -0.0001
 -0.0000  0.0000  0.0001
 -0.0000 -0.0000  0.0000
  0.0000  0.0000  0.0000
  0.0000  0.0000 -0.0000
 -0.0000  0.0000  0.0000
 -0.0000 -0.0000  0.0000
 -0.0000  0.0000  0.0000
 -0.0000 -0.0000  0.0000
  0.0000 -0.0000 -0.0000
 -0.0000 -0.0000 -0.0000
  0.0001  0.0000  0.0001
 -0.0000  0.0000  0.0002
  0.0001 -0.0000 -0.0001
 -0.0000 -0.0000 -0.0000
 -0.0000 -0.0000 -0.0001
  0.0002  0.0000  0.0000
 -0.0002 -0.0001 -0.0002
 -0.0001  0.0004  0.0028
  0.0040 -0.0002 -0.0032
 -0.0000  0.0000  0.0002
 -0.0000 -0.0000 -0.0000
 -0.0000 -0.0000 -0.0000
  0.0000 -0.0000 -0.0000
  0.0000 -0.0008 -0.0004
 -0.0001  0.0006 -0.0006
 -0.0002 -0.0004 -0.0023
 -0.0025  0.0027  0.0169
 -0.0187  0.0065  0.0466
 -0.2715  0.1327  0.9048
 -0.0201  0.0093  0.0640
 -0.0002  0.0000  0.0003
  0.0002  0.0001  0.0004
 -0.0002  0.0001  0.0004
  0.0000  0.0000  0.0001
  0.0000 -0.0000 -0.0001
 -0.0000 -0.0000 -0.0000
 -0.0000 -0.0000 -0.0000
  0.0001  0.0000 -0.0000
 -0.0000 -0.0000 -0.0000
  0.0001 -0.0000 -0.0000
 -0.0000 -0.0000 -0.0000
  0.0000 -0.0000 -0.0000
 -0.0003 -0.0001 -0.0005
 -0.0001  0.0000  0.0003
 -0.0000 -0.0000 -0.0001
 generating redundant internal coords
         300        3600          60
 Adding extra bonds for z output only
           6           6           6           6           6           7
           6           8           6           6           6           6
           6           6           6           6           6           8
           7           6           6           6           6           8
           6           6           6           6           6           6
           6           6           6           8           6           6
           6           6           1           1           1           1
           1           1           1           1           1           1
           1           1           1           1           1           1
           1           1           1           1           1           1
 search for int coords
   1 str   2   1   1.478
   2 str   3   2   1.376
   3 str   4   3   1.408
   4 str   5   4   1.391
   5 str   6   5   1.356
   6 str   7   6   1.486
   7 str   8   7   1.205
   8 str   9   7   1.458
   9 str  10   9   1.390
  10 str  11  10   1.388
  11 str  12  11   1.398
  12 str  13  12   1.465
  13 str  14  13   1.396
  14 str  15  14   1.397
  15 str  16  15   1.382
  16 str  17  16   1.494
  17 str  18  17   1.215
  18 str  19  17   1.398
  19 str  20  19   1.505
  20 str  21  20   1.531
  21 str  22  20   1.531
  22 str  23  19   1.403
  23 str  24  23   1.214
  24 str  25  23   1.493
  25 str  26  25   1.383
  26 str  27  26   1.396
  27 str  28  27   1.398
  28 str  29  28   1.461
  29 str  30  29   1.402
  30 str  31  30   1.386
  31 str  32  31   1.392
  32 str  33   6   1.456
  33 str  33  32   1.458
  34 str  34  33   1.211
  35 str  35   9   1.413
  36 str  35  32   1.419
  37 str  36  12   1.432
  38 str  36  29   1.431
  39 str  36  35   1.430
  40 str  37  13   1.425
  41 str  37  28   1.427
  42 str  38  16   1.410
  43 str  38  25   1.410
  44 str  38  37   1.425
  45 str  39   1   1.098
  46 str  40   1   1.098
  47 str  41   1   1.090
  48 str  42   2   1.088
  49 str  43   3   1.088
  50 str  44   4   1.079
  51 str  45   5   1.085
  52 str  46  10   1.083
  53 str  47  11   1.080
  54 str  48  14   1.081
  55 str  49  15   1.082
  56 str  50  20   1.087
  57 str  51  21   1.089
  58 str  52  21   1.093
  59 str  53  21   1.093
  60 str  54  22   1.089
  61 str  55  22   1.093
  62 str  56  22   1.093
  63 str  57  26   1.082
  64 str  58  27   1.081
  65 str  59  30   1.080
  66 str  60  31   1.082
 nber stretches=          66
  67 ben   1   2   3
  68 prop tor   1   2   3   4
  69 prop tor   1   2   3  43
  70 ben   1   2  42
  71 ben   2   1  39
  72 ben   2   1  40
  73 ben   2   1  41
  74 ben   2   3   4
  75 prop tor   2   3   4   5
  76 prop tor   2   3   4  44
  77 ben   2   3  43
  78 ben   3   2  42
  79 ben   3   4   5
  80 prop tor   3   4   5   6
  81 prop tor   3   4   5  45
  82 ben   3   4  44
  83 ben   4   3  43
  84 ben   4   5   6
  85 prop tor   4   5   6   7
  86 prop tor   4   5   6  33
  87 ben   4   5  45
  88 ben   5   4  44
  89 ben   5   6   7
  90 prop tor   5   6   7   8
  91 prop tor   5   6   7   9
  92 ben   5   6  33
  93 prop tor   5   6  33  32
  94 prop tor   5   6  33  34
  95 ben   6   5  45
  96 ben   6   7   8
  97 ben   6   7   9
  98 prop tor   6   7   9  10
  99 prop tor   6   7   9  35
 100 ben   6  33  32
 101 ben   6  33  34
 102 ben   7   6  33
 103 prop tor   7   6  33  32
 104 prop tor   7   6  33  34
 105 ben   7   9  10
 106 prop tor   7   9  10  11
 107 prop tor   7   9  10  46
 108 ben   7   9  35
 109 prop tor   7   9  35  32
 110 prop tor   7   9  35  36
 111 ben   8   7   9
 112 prop tor   8   7   9  10
 113 prop tor   8   7   9  35
 114 ben   9  10  11
 115 prop tor   9  10  11  12
 116 prop tor   9  10  11  47
 117 ben   9  10  46
 118 ben   9  35  32
 119 ben   9  35  36
 120 prop tor   9  35  36  12
 121 prop tor   9  35  36  29
 122 ben  10   9  35
 123 prop tor  10   9  35  32
 124 prop tor  10   9  35  36
 125 ben  10  11  12
 126 prop tor  10  11  12  13
 127 prop tor  10  11  12  36
 128 ben  10  11  47
 129 ben  11  10  46
 130 ben  11  12  13
 131 prop tor  11  12  13  14
 132 prop tor  11  12  13  37
 133 ben  11  12  36
 134 prop tor  11  12  36  29
 135 prop tor  11  12  36  35
 136 ben  12  11  47
 137 ben  12  13  14
 138 prop tor  12  13  14  15
 139 prop tor  12  13  14  48
 140 ben  12  13  37
 141 prop tor  12  13  37  28
 142 prop tor  12  13  37  38
 143 ben  12  36  29
 144 ben  12  36  35
 145 ben  13  12  36
 146 prop tor  13  12  36  29
 147 prop tor  13  12  36  35
 148 ben  13  14  15
 149 prop tor  13  14  15  16
 150 prop tor  13  14  15  49
 151 ben  13  14  48
 152 ben  13  37  28
 153 ben  13  37  38
 154 prop tor  13  37  38  16
 155 prop tor  13  37  38  25
 156 ben  14  13  37
 157 prop tor  14  13  37  28
 158 prop tor  14  13  37  38
 159 ben  14  15  16
 160 prop tor  14  15  16  17
 161 prop tor  14  15  16  38
 162 ben  14  15  49
 163 ben  15  14  48
 164 ben  15  16  17
 165 prop tor  15  16  17  18
 166 prop tor  15  16  17  19
 167 ben  15  16  38
 168 prop tor  15  16  38  25
 169 prop tor  15  16  38  37
 170 ben  16  15  49
 171 ben  16  17  18
 172 ben  16  17  19
 173 prop tor  16  17  19  20
 174 prop tor  16  17  19  23
 175 ben  16  38  25
 176 ben  16  38  37
 177 ben  17  16  38
 178 prop tor  17  16  38  25
 179 prop tor  17  16  38  37
 180 ben  17  19  20
 181 prop tor  17  19  20  21
 182 prop tor  17  19  20  22
 183 prop tor  17  19  20  50
 184 ben  17  19  23
 185 prop tor  17  19  23  24
 186 prop tor  17  19  23  25
 187 ben  18  17  19
 188 prop tor  18  17  19  20
 189 prop tor  18  17  19  23
 190 ben  19  20  21
 191 prop tor  19  20  21  51
 192 prop tor  19  20  21  52
 193 prop tor  19  20  21  53
 194 ben  19  20  22
 195 prop tor  19  20  22  54
 196 prop tor  19  20  22  55
 197 prop tor  19  20  22  56
 198 ben  19  20  50
 199 ben  19  23  24
 200 ben  19  23  25
 201 prop tor  19  23  25  26
 202 prop tor  19  23  25  38
 203 ben  20  19  23
 204 prop tor  20  19  23  24
 205 prop tor  20  19  23  25
 206 ben  20  21  51
 207 ben  20  21  52
 208 ben  20  21  53
 209 ben  20  22  54
 210 ben  20  22  55
 211 ben  20  22  56
 212 ben  21  20  22
 213 prop tor  21  20  22  54
 214 prop tor  21  20  22  55
 215 prop tor  21  20  22  56
 216 ben  21  20  50
 217 prop tor  22  20  21  51
 218 prop tor  22  20  21  52
 219 prop tor  22  20  21  53
 220 ben  22  20  50
 221 prop tor  23  19  20  21
 222 prop tor  23  19  20  22
 223 prop tor  23  19  20  50
 224 ben  23  25  26
 225 prop tor  23  25  26  27
 226 prop tor  23  25  26  57
 227 ben  23  25  38
 228 prop tor  23  25  38  16
 229 prop tor  23  25  38  37
 230 ben  24  23  25
 231 prop tor  24  23  25  26
 232 prop tor  24  23  25  38
 233 ben  25  26  27
 234 prop tor  25  26  27  28
 235 prop tor  25  26  27  58
 236 ben  25  26  57
 237 ben  25  38  37
 238 ben  26  25  38
 239 prop tor  26  25  38  16
 240 prop tor  26  25  38  37
 241 ben  26  27  28
 242 prop tor  26  27  28  29
 243 prop tor  26  27  28  37
 244 ben  26  27  58
 245 ben  27  26  57
 246 ben  27  28  29
 247 prop tor  27  28  29  30
 248 prop tor  27  28  29  36
 249 ben  27  28  37
 250 prop tor  27  28  37  13
 251 prop tor  27  28  37  38
 252 ben  28  27  58
 253 ben  28  29  30
 254 prop tor  28  29  30  31
 255 prop tor  28  29  30  59
 256 ben  28  29  36
 257 prop tor  28  29  36  12
 258 prop tor  28  29  36  35
 259 ben  28  37  38
 260 prop tor  28  37  38  16
 261 prop tor  28  37  38  25
 262 ben  29  28  37
 263 prop tor  29  28  37  13
 264 prop tor  29  28  37  38
 265 ben  29  30  31
 266 prop tor  29  30  31  32
 267 prop tor  29  30  31  60
 268 ben  29  30  59
 269 ben  29  36  35
 270 ben  30  29  36
 271 prop tor  30  29  36  12
 272 prop tor  30  29  36  35
 273 ben  30  31  32
 274 prop tor  30  31  32  33
 275 prop tor  30  31  32  35
 276 ben  30  31  60
 277 ben  31  30  59
 278 ben  31  32  33
 279 prop tor  31  32  33   6
 280 prop tor  31  32  33  34
 281 ben  31  32  35
 282 prop tor  31  32  35   9
 283 prop tor  31  32  35  36
 284 ben  32  31  60
 285 ben  32  33  34
 286 ben  32  35  36
 287 prop tor  32  35  36  12
 288 prop tor  32  35  36  29
 289 prop tor  33   6   7   8
 290 prop tor  33   6   7   9
 291 ben  33  32  35
 292 prop tor  33  32  35   9
 293 prop tor  33  32  35  36
 294 prop tor  35   9  10  11
 295 prop tor  35   9  10  46
 296 prop tor  35  32  33   6
 297 prop tor  35  32  33  34
 298 prop tor  36  12  13  14
 299 prop tor  36  12  13  37
 300 prop tor  36  29  30  31
 301 prop tor  36  29  30  59
 302 prop tor  37  13  14  15
 303 prop tor  37  13  14  48
 304 prop tor  37  28  29  30
 305 prop tor  37  28  29  36
 306 prop tor  38  16  17  18
 307 prop tor  38  16  17  19
 308 prop tor  38  25  26  27
 309 prop tor  38  25  26  57
 310 prop tor  39   1   2   3
 311 prop tor  39   1   2  42
 312 ben  39   1  40
 313 ben  39   1  41
 314 prop tor  40   1   2   3
 315 prop tor  40   1   2  42
 316 ben  40   1  41
 317 prop tor  41   1   2   3
 318 prop tor  41   1   2  42
 319 prop tor  42   2   3   4
 320 prop tor  42   2   3  43
 321 prop tor  43   3   4   5
 322 prop tor  43   3   4  44
 323 prop tor  44   4   5   6
 324 prop tor  44   4   5  45
 325 prop tor  45   5   6   7
 326 prop tor  45   5   6  33
 327 prop tor  46  10  11  12
 328 prop tor  46  10  11  47
 329 prop tor  47  11  12  13
 330 prop tor  47  11  12  36
 331 prop tor  48  14  15  16
 332 prop tor  48  14  15  49
 333 prop tor  49  15  16  17
 334 prop tor  49  15  16  38
 335 prop tor  50  20  21  51
 336 prop tor  50  20  21  52
 337 prop tor  50  20  21  53
 338 prop tor  50  20  22  54
 339 prop tor  50  20  22  55
 340 prop tor  50  20  22  56
 341 ben  51  21  52
 342 ben  51  21  53
 343 ben  52  21  53
 344 ben  54  22  55
 345 ben  54  22  56
 346 ben  55  22  56
 347 prop tor  57  26  27  28
 348 prop tor  57  26  27  58
 349 prop tor  58  27  28  29
 350 prop tor  58  27  28  37
 351 prop tor  59  30  31  32
 352 prop tor  59  30  31  60
 353 prop tor  60  31  32  33
 354 prop tor  60  31  32  35
 nber bend=             114
 nber lin bend=           0
 nber prop tor=         174
 nber impr tor=           0
 nber tot redund int=         354
 Reading file: 
 ./PDI_5_C0S1.log                                                               
                                          
  Entering Gaussian System, Link 0=g16                                          
  
 Gaussian format, type: g94, g98, g03= F F F
  #P Geom=AllCheck Guess=TCheck SCRF=Check GenChk RB3LYP TD(FC,Read)/6-3    
 energy type= TD      
 Original G94 input coords:
  6  0.670356  0.596198  0.295343
  6  2.112125  0.643662 -0.041762
  6  3.125284  0.859647  0.861088
  6  4.486844  0.897210  0.498132
  6  5.437162  1.122430  1.488403
  7  6.784903  1.204964  1.412360
  6  7.456645  1.461139  2.728515
  8  6.748819  1.568163  3.706732
  6  8.885907  1.551683  2.678620
  6  9.577382  1.790727  3.883629
  6 10.942860  1.887724  3.904299
  6 11.716282  1.752876  2.721255
  6 13.157890  1.854514  2.740156
  6 13.884682  2.092401  3.928636
  6 15.264027  2.187112  3.933558
  6 15.991624  2.049640  2.751642
  6 17.459683  2.155835  2.793160
  8 18.064186  2.361081  3.838221
  7 18.147067  2.011620  1.577515
  6 19.637210  2.111879  1.568231
  6 20.117612  3.507964  1.979828
  6 20.289580  0.983386  2.374497
  6 17.518071  1.772452  0.337698
  8 18.170536  1.655020 -0.690708
  6 16.049100  1.672548  0.341681
  6 15.379204  1.436862 -0.858309
  6 14.000052  1.337545 -0.888430
  6 13.218624  1.468960  0.280563
  6 11.773940  1.366696  0.262008
  6 11.059868  1.127050 -0.938563
  6  9.692201  1.030780 -0.951058
  6  8.947490  1.167561  0.234302
  6  7.509610  1.054072  0.145747
  8  6.876804  0.849307 -0.869298
  6  9.603158  1.407972  1.463512
  6 11.043720  1.510122  1.482494
  6 13.882923  1.710603  1.518799
  6 15.312688  1.811328  1.537561
  1  0.240830 -0.368584 -0.001737
  1  0.119657  1.352552 -0.277549
  1  0.483019  0.753301  1.357947
  1  2.384440  0.495824 -1.083577
  1  2.864578  1.008878  1.906482
  1  4.786549  0.754002 -0.527661
  1  5.094817  1.261356  2.509553
  1  9.000467  1.895696  4.793545
  1 11.432093  2.071417  4.849292
  1 13.363766  2.205767  4.868684
  1 15.808435  2.369435  4.851370
  1 19.887260  1.965060  0.519751
  1 19.906310  3.711370  3.028753
  1 19.638853  4.275591  1.366096
  1 21.197342  3.576843  1.818585
  1 20.085012  1.082135  3.439718
  1 21.372065  1.012352  2.219834
  1 19.929558  0.009288  2.032946
  1 15.966631  1.334175 -1.761762
  1 13.524034  1.154164 -1.841148
  1 11.593205  1.015832 -1.870871
  1  9.158349  0.847351 -1.874593
 nber atoms=          60
  Total Energy, E(TD-HF/TD-DFT) =  -1643.51872049                               
  
          32          49 "  -1643.51872049"
After scan for Atom:   Atom  AN      X      Y      Z        X      Y      Z        X      Y      Z   
After scan for Atom:   Atom  AN      X      Y      Z        X      Y      Z        X      Y      Z   
After scan for Atom:   Atom  AN      X      Y      Z        X      Y      Z        X      Y      Z   
After scan for Atom:   Atom  AN      X      Y      Z        X      Y      Z        X      Y      Z   
After scan for Atom:   Atom  AN      X      Y      Z        X      Y      Z        X      Y      Z   
After scan for Atom:   Atom  AN      X      Y      Z        X      Y      Z        X      Y      Z   
After scan for Atom:   Atom  AN      X      Y      Z        X      Y      Z        X      Y      Z   
After scan for Atom:   Atom  AN      X      Y      Z        X      Y      Z        X      Y      Z   
After scan for Atom:   Atom  AN      X      Y      Z        X      Y      Z        X      Y      Z   
After scan for Atom:   Atom  AN      X      Y      Z        X      Y      Z        X      Y      Z   
After scan for Atom:   Atom  AN      X      Y      Z        X      Y      Z        X      Y      Z   
After scan for Atom:   Atom  AN      X      Y      Z        X      Y      Z        X      Y      Z   
After scan for Atom:   Atom  AN      X      Y      Z        X      Y      Z        X      Y      Z   
After scan for Atom:   Atom  AN      X      Y      Z        X      Y      Z        X      Y      Z   
After scan for Atom:   Atom  AN      X      Y      Z        X      Y      Z        X      Y      Z   
After scan for Atom:   Atom  AN      X      Y      Z        X      Y      Z        X      Y      Z   
After scan for Atom:   Atom  AN      X      Y      Z        X      Y      Z        X      Y      Z   
After scan for Atom:   Atom  AN      X      Y      Z        X      Y      Z        X      Y      Z   
After scan for Atom:   Atom  AN      X      Y      Z        X      Y      Z        X      Y      Z   
After scan for Atom:   Atom  AN      X      Y      Z        X      Y      Z        X      Y      Z   
After scan for Atom:   Atom  AN      X      Y      Z        X      Y      Z        X      Y      Z   
After scan for Atom:   Atom  AN      X      Y      Z        X      Y      Z        X      Y      Z   
After scan for Atom:   Atom  AN      X      Y      Z        X      Y      Z        X      Y      Z   
After scan for Atom:   Atom  AN      X      Y      Z        X      Y      Z        X      Y      Z   
After scan for Atom:   Atom  AN      X      Y      Z        X      Y      Z        X      Y      Z   
After scan for Atom:   Atom  AN      X      Y      Z        X      Y      Z        X      Y      Z   
After scan for Atom:   Atom  AN      X      Y      Z        X      Y      Z        X      Y      Z   
After scan for Atom:   Atom  AN      X      Y      Z        X      Y      Z        X      Y      Z   
After scan for Atom:   Atom  AN      X      Y      Z        X      Y      Z        X      Y      Z   
After scan for Atom:   Atom  AN      X      Y      Z        X      Y      Z        X      Y      Z   
After scan for Atom:   Atom  AN      X      Y      Z        X      Y      Z        X      Y      Z   
After scan for Atom:   Atom  AN      X      Y      Z        X      Y      Z        X      Y      Z   
After scan for Atom:   Atom  AN      X      Y      Z        X      Y      Z        X      Y      Z   
After scan for Atom:   Atom  AN      X      Y      Z        X      Y      Z        X      Y      Z   
After scan for Atom:   Atom  AN      X      Y      Z        X      Y      Z        X      Y      Z   
After scan for Atom:   Atom  AN      X      Y      Z        X      Y      Z        X      Y      Z   
After scan for Atom:   Atom  AN      X      Y      Z        X      Y      Z        X      Y      Z   
After scan for Atom:   Atom  AN      X      Y      Z        X      Y      Z        X      Y      Z   
After scan for Atom:   Atom  AN      X      Y      Z        X      Y      Z        X      Y      Z   
After scan for Atom:   Atom  AN      X      Y      Z        X      Y      Z        X      Y      Z   
After scan for Atom:   Atom  AN      X      Y      Z        X      Y      Z        X      Y      Z   
After scan for Atom:   Atom  AN      X      Y      Z        X      Y      Z        X      Y      Z   
After scan for Atom:   Atom  AN      X      Y      Z        X      Y      Z        X      Y      Z   
After scan for Atom:   Atom  AN      X      Y      Z        X      Y      Z        X      Y      Z   
After scan for Atom:   Atom  AN      X      Y      Z        X      Y      Z        X      Y      Z   
After scan for Atom:   Atom  AN      X      Y      Z        X      Y      Z        X      Y      Z   
After scan for Atom:   Atom  AN      X      Y      Z        X      Y      Z        X      Y      Z   
After scan for Atom:   Atom  AN      X      Y      Z        X      Y      Z        X      Y      Z   
After scan for Atom:   Atom  AN      X      Y      Z        X      Y      Z        X      Y      Z   
After scan for Atom:   Atom  AN      X      Y      Z        X      Y      Z        X      Y      Z   
After scan for Atom:   Atom  AN      X      Y      Z        X      Y      Z        X      Y      Z   
After scan for Atom:   Atom  AN      X      Y      Z        X      Y      Z        X      Y      Z   
After scan for Atom:   Atom  AN      X      Y      Z        X      Y      Z        X      Y      Z   
After scan for Atom:   Atom  AN      X      Y      Z        X      Y      Z        X      Y      Z   
After scan for Atom:   Atom  AN      X      Y      Z        X      Y      Z        X      Y      Z   
After scan for Atom:   Atom  AN      X      Y      Z        X      Y      Z        X      Y      Z   
After scan for Atom:   Atom  AN      X      Y      Z        X      Y      Z        X      Y      Z   
After scan for Atom:   Atom  AN      X      Y      Z        X      Y      Z        X      Y      Z   
 g94    frequencies=
     0.0    0.0    0.0    0.0    0.0    0.0   11.1   22.9   29.0   49.7
    54.3   58.2   73.5   76.6   88.0   96.4  102.7  110.9  161.0  164.5
   168.9  178.4  189.2  194.6  212.2  228.2  235.0  238.6  241.0  256.9
   263.0  283.0  295.2  297.7  310.9  339.9  362.9  390.2  394.5  402.5
   414.7  417.7  435.2  442.5  451.3  453.2  453.9  471.8  493.3  499.4
   500.9  514.3  516.3  538.0  553.3  578.9  581.9  590.5  623.4  625.5
   641.9  662.5  668.8  711.5  715.9  729.0  747.6  757.5  766.7  772.7
   786.7  801.3  807.6  816.6  818.4  822.8  826.8  830.9  834.5  846.4
   853.0  897.0  914.8  916.6  929.1  940.0  944.1  955.9  962.9  974.5
   977.8  980.1  987.2  989.0  990.3 1035.3 1041.8 1049.7 1070.2 1094.5
  1120.1 1134.4 1149.7 1155.3 1166.3 1174.8 1190.6 1201.6 1216.7 1227.9
  1231.6 1236.5 1249.9 1259.2 1279.1 1290.3 1297.6 1303.5 1311.8 1327.7
  1337.2 1360.2 1363.0 1371.4 1372.0 1384.0 1392.4 1393.7 1398.1 1398.2
  1401.2 1412.5 1427.3 1440.4 1461.6 1462.7 1474.8 1481.8 1483.6 1484.3
  1485.7 1496.6 1506.5 1523.6 1546.9 1556.1 1568.5 1576.0 1589.0 1610.2
  1616.4 1620.7 1634.5 1670.7 1686.2 1723.2 1801.3 1824.1 3007.8 3030.5
  3035.0 3044.8 3087.8 3090.9 3110.0 3118.4 3131.9 3141.7 3142.1 3159.3
  3166.8 3194.1 3194.6 3199.5 3200.4 3209.6 3210.1 3226.1 3226.4 3251.3
 g94    symmetries=
                                                 A      A      A      A
       A      A      A      A      A      A      A      A      A      A
       A      A      A      A      A      A      A      A      A      A
       A      A      A      A      A      A      A      A      A      A
       A      A      A      A      A      A      A      A      A      A
       A      A      A      A      A      A      A      A      A      A
       A      A      A      A      A      A      A      A      A      A
       A      A      A      A      A      A      A      A      A      A
       A      A      A      A      A      A      A      A      A      A
       A      A      A      A      A      A      A      A      A      A
       A      A      A      A      A      A      A      A      A      A
       A      A      A      A      A      A      A      A      A      A
       A      A      A      A      A      A      A      A      A      A
       A      A      A      A      A      A      A      A      A      A
       A      A      A      A      A      A      A      A      A      A
       A      A      A      A      A      A      A      A      A      A
       A      A      A      A      A      A      A      A      A      A
       A      A      A      A      A      A      A      A      A      A
 atomic masses:
 12.0000 12.0000 12.0000 12.0000 12.0000 14.0031 12.0000 15.9949 12.0000 12.0000
 12.0000 12.0000 12.0000 12.0000 12.0000 12.0000 12.0000 15.9949 14.0031 12.0000
 12.0000 12.0000 12.0000 15.9949 12.0000 12.0000 12.0000 12.0000 12.0000 12.0000
 12.0000 12.0000 12.0000 15.9949 12.0000 12.0000 12.0000 12.0000  1.0078  1.0078
  1.0078  1.0078  1.0078  1.0078  1.0078  1.0078  1.0078  1.0078  1.0078  1.0078
  1.0078  1.0078  1.0078  1.0078  1.0078  1.0078  1.0078  1.0078  1.0078  1.0078
 looking for force constants in 
 ./PDI_5_C0S1.fchk                                                              
  
 Cartesian Force Constants                  R   N=       16290                  
  
 n3=         180       16290
 g94-fc frequencies=
    -0.9   -0.0    0.0    0.0    1.6    4.2   11.2   22.9   29.0   49.7
    54.3   58.2   73.5   76.6   88.0   96.4  102.7  110.9  161.1  164.5
   168.9  178.4  189.2  194.6  212.2  228.2  235.0  238.6  241.0  256.9
   263.0  283.0  295.2  297.7  310.9  339.9  362.9  390.2  394.5  402.5
   414.7  417.7  435.2  442.5  451.4  453.2  453.9  471.8  493.3  499.4
   500.9  514.3  516.3  538.0  553.4  579.0  581.9  590.5  623.4  625.5
   641.9  662.5  668.9  711.6  715.9  729.0  747.6  757.5  766.7  772.7
   786.7  801.3  807.6  816.6  818.4  822.8  826.9  831.0  834.5  846.5
   853.1  897.0  914.8  916.6  929.2  940.0  944.1  955.9  962.9  974.5
   977.8  980.1  987.2  989.0  990.3 1035.3 1041.8 1049.7 1070.2 1094.5
  1120.2 1134.4 1149.7 1155.3 1166.3 1174.9 1190.6 1201.6 1216.7 1227.9
  1231.6 1236.5 1249.9 1259.3 1279.1 1290.3 1297.7 1303.5 1311.9 1327.7
  1337.2 1360.2 1363.0 1371.4 1372.1 1384.0 1392.5 1393.7 1398.1 1398.3
  1401.2 1412.5 1427.4 1440.4 1461.7 1462.7 1474.8 1481.8 1483.7 1484.3
  1485.8 1496.6 1506.5 1523.6 1547.0 1556.2 1568.5 1576.0 1589.1 1610.2
  1616.5 1620.8 1634.6 1670.8 1686.3 1723.2 1801.4 1824.1 3007.9 3030.5
  3035.0 3044.8 3087.8 3091.0 3110.0 3118.5 3132.0 3141.8 3142.1 3159.3
  3166.9 3194.1 3194.7 3199.5 3200.4 3209.7 3210.1 3226.2 3226.5 3251.4
 at 99999: n3=         180
 symm operator            1 :  F  nop=           0
 symm operator            2 :  F  nop=           0
 symm operator            3 :  F  nop=           0
 symm operator            4 :  F  nop=           0
 symm operator            5 :  F  nop=           0
 symm operator            6 :  F  nop=           0
 symm operator            7 :  F  nop=           0
 The point group of the molecule is  C1
 Symmetry rotation matrix:
   1.00000   0.00000   0.00000
   0.00000   1.00000   0.00000
   0.00000   0.00000   1.00000

 Projecting out zero-frequency components
 generating redundant internal coords
         300        3600          60
 search for int coords
   1 str   2   1   1.481
   2 str   3   2   1.374
   3 str   4   3   1.410
   4 str   5   4   1.391
   5 str   6   5   1.352
   6 str   7   6   1.500
   7 str   8   7   1.212
   8 str   9   7   1.433
   9 str  10   9   1.410
  10 str  11  10   1.369
  11 str  12  11   1.420
  12 str  13  12   1.445
  13 str  14  13   1.413
  14 str  15  14   1.383
  15 str  16  15   1.395
  16 str  17  16   1.472
  17 str  18  17   1.225
  18 str  19  17   1.404
  19 str  20  19   1.494
  20 str  21  20   1.533
  21 str  22  20   1.533
  22 str  23  19   1.411
  23 str  24  23   1.224
  24 str  25  23   1.472
  25 str  26  25   1.394
  26 str  27  26   1.383
  27 str  28  27   1.412
  28 str  29  28   1.448
  29 str  30  29   1.417
  30 str  31  30   1.371
  31 str  32  31   1.407
  32 str  33   6   1.467
  33 str  33  32   1.445
  34 str  34  33   1.214
  35 str  35   9   1.418
  36 str  35  32   1.414
  37 str  36  12   1.430
  38 str  36  29   1.429
  39 str  36  35   1.444
  40 str  37  13   1.428
  41 str  37  28   1.426
  42 str  38  16   1.411
  43 str  38  25   1.411
  44 str  38  37   1.433
  45 str  39   1   1.097
  46 str  40   1   1.097
  47 str  41   1   1.090
  48 str  42   2   1.087
  49 str  43   3   1.088
  50 str  44   4   1.078
  51 str  45   5   1.086
  52 str  46  10   1.082
  53 str  47  11   1.080
  54 str  48  14   1.081
  55 str  49  15   1.083
  56 str  50  20   1.088
  57 str  51  21   1.089
  58 str  52  21   1.093
  59 str  53  21   1.094
  60 str  54  22   1.089
  61 str  55  22   1.094
  62 str  56  22   1.093
  63 str  57  26   1.083
  64 str  58  27   1.081
  65 str  59  30   1.080
  66 str  60  31   1.082
 nber stretches=          66
  67 ben   1   2   3
  68 prop tor   1   2   3   4
  69 prop tor   1   2   3  43
  70 ben   1   2  42
  71 ben   2   1  39
  72 ben   2   1  40
  73 ben   2   1  41
  74 ben   2   3   4
  75 prop tor   2   3   4   5
  76 prop tor   2   3   4  44
  77 ben   2   3  43
  78 ben   3   2  42
  79 ben   3   4   5
  80 prop tor   3   4   5   6
  81 prop tor   3   4   5  45
  82 ben   3   4  44
  83 ben   4   3  43
  84 ben   4   5   6
  85 prop tor   4   5   6   7
  86 prop tor   4   5   6  33
  87 ben   4   5  45
  88 ben   5   4  44
  89 ben   5   6   7
  90 prop tor   5   6   7   8
  91 prop tor   5   6   7   9
  92 ben   5   6  33
  93 prop tor   5   6  33  32
  94 prop tor   5   6  33  34
  95 ben   6   5  45
  96 ben   6   7   8
  97 ben   6   7   9
  98 prop tor   6   7   9  10
  99 prop tor   6   7   9  35
 100 ben   6  33  32
 101 ben   6  33  34
 102 ben   7   6  33
 103 prop tor   7   6  33  32
 104 prop tor   7   6  33  34
 105 ben   7   9  10
 106 prop tor   7   9  10  11
 107 prop tor   7   9  10  46
 108 ben   7   9  35
 109 prop tor   7   9  35  32
 110 prop tor   7   9  35  36
 111 ben   8   7   9
 112 prop tor   8   7   9  10
 113 prop tor   8   7   9  35
 114 ben   9  10  11
 115 prop tor   9  10  11  12
 116 prop tor   9  10  11  47
 117 ben   9  10  46
 118 ben   9  35  32
 119 ben   9  35  36
 120 prop tor   9  35  36  12
 121 prop tor   9  35  36  29
 122 ben  10   9  35
 123 prop tor  10   9  35  32
 124 prop tor  10   9  35  36
 125 ben  10  11  12
 126 prop tor  10  11  12  13
 127 prop tor  10  11  12  36
 128 ben  10  11  47
 129 ben  11  10  46
 130 ben  11  12  13
 131 prop tor  11  12  13  14
 132 prop tor  11  12  13  37
 133 ben  11  12  36
 134 prop tor  11  12  36  29
 135 prop tor  11  12  36  35
 136 ben  12  11  47
 137 ben  12  13  14
 138 prop tor  12  13  14  15
 139 prop tor  12  13  14  48
 140 ben  12  13  37
 141 prop tor  12  13  37  28
 142 prop tor  12  13  37  38
 143 ben  12  36  29
 144 ben  12  36  35
 145 ben  13  12  36
 146 prop tor  13  12  36  29
 147 prop tor  13  12  36  35
 148 ben  13  14  15
 149 prop tor  13  14  15  16
 150 prop tor  13  14  15  49
 151 ben  13  14  48
 152 ben  13  37  28
 153 ben  13  37  38
 154 prop tor  13  37  38  16
 155 prop tor  13  37  38  25
 156 ben  14  13  37
 157 prop tor  14  13  37  28
 158 prop tor  14  13  37  38
 159 ben  14  15  16
 160 prop tor  14  15  16  17
 161 prop tor  14  15  16  38
 162 ben  14  15  49
 163 ben  15  14  48
 164 ben  15  16  17
 165 prop tor  15  16  17  18
 166 prop tor  15  16  17  19
 167 ben  15  16  38
 168 prop tor  15  16  38  25
 169 prop tor  15  16  38  37
 170 ben  16  15  49
 171 ben  16  17  18
 172 ben  16  17  19
 173 prop tor  16  17  19  20
 174 prop tor  16  17  19  23
 175 ben  16  38  25
 176 ben  16  38  37
 177 ben  17  16  38
 178 prop tor  17  16  38  25
 179 prop tor  17  16  38  37
 180 ben  17  19  20
 181 prop tor  17  19  20  21
 182 prop tor  17  19  20  22
 183 prop tor  17  19  20  50
 184 ben  17  19  23
 185 prop tor  17  19  23  24
 186 prop tor  17  19  23  25
 187 ben  18  17  19
 188 prop tor  18  17  19  20
 189 prop tor  18  17  19  23
 190 ben  19  20  21
 191 prop tor  19  20  21  51
 192 prop tor  19  20  21  52
 193 prop tor  19  20  21  53
 194 ben  19  20  22
 195 prop tor  19  20  22  54
 196 prop tor  19  20  22  55
 197 prop tor  19  20  22  56
 198 ben  19  20  50
 199 ben  19  23  24
 200 ben  19  23  25
 201 prop tor  19  23  25  26
 202 prop tor  19  23  25  38
 203 ben  20  19  23
 204 prop tor  20  19  23  24
 205 prop tor  20  19  23  25
 206 ben  20  21  51
 207 ben  20  21  52
 208 ben  20  21  53
 209 ben  20  22  54
 210 ben  20  22  55
 211 ben  20  22  56
 212 ben  21  20  22
 213 prop tor  21  20  22  54
 214 prop tor  21  20  22  55
 215 prop tor  21  20  22  56
 216 ben  21  20  50
 217 prop tor  22  20  21  51
 218 prop tor  22  20  21  52
 219 prop tor  22  20  21  53
 220 ben  22  20  50
 221 prop tor  23  19  20  21
 222 prop tor  23  19  20  22
 223 prop tor  23  19  20  50
 224 ben  23  25  26
 225 prop tor  23  25  26  27
 226 prop tor  23  25  26  57
 227 ben  23  25  38
 228 prop tor  23  25  38  16
 229 prop tor  23  25  38  37
 230 ben  24  23  25
 231 prop tor  24  23  25  26
 232 prop tor  24  23  25  38
 233 ben  25  26  27
 234 prop tor  25  26  27  28
 235 prop tor  25  26  27  58
 236 ben  25  26  57
 237 ben  25  38  37
 238 ben  26  25  38
 239 prop tor  26  25  38  16
 240 prop tor  26  25  38  37
 241 ben  26  27  28
 242 prop tor  26  27  28  29
 243 prop tor  26  27  28  37
 244 ben  26  27  58
 245 ben  27  26  57
 246 ben  27  28  29
 247 prop tor  27  28  29  30
 248 prop tor  27  28  29  36
 249 ben  27  28  37
 250 prop tor  27  28  37  13
 251 prop tor  27  28  37  38
 252 ben  28  27  58
 253 ben  28  29  30
 254 prop tor  28  29  30  31
 255 prop tor  28  29  30  59
 256 ben  28  29  36
 257 prop tor  28  29  36  12
 258 prop tor  28  29  36  35
 259 ben  28  37  38
 260 prop tor  28  37  38  16
 261 prop tor  28  37  38  25
 262 ben  29  28  37
 263 prop tor  29  28  37  13
 264 prop tor  29  28  37  38
 265 ben  29  30  31
 266 prop tor  29  30  31  32
 267 prop tor  29  30  31  60
 268 ben  29  30  59
 269 ben  29  36  35
 270 ben  30  29  36
 271 prop tor  30  29  36  12
 272 prop tor  30  29  36  35
 273 ben  30  31  32
 274 prop tor  30  31  32  33
 275 prop tor  30  31  32  35
 276 ben  30  31  60
 277 ben  31  30  59
 278 ben  31  32  33
 279 prop tor  31  32  33   6
 280 prop tor  31  32  33  34
 281 ben  31  32  35
 282 prop tor  31  32  35   9
 283 prop tor  31  32  35  36
 284 ben  32  31  60
 285 ben  32  33  34
 286 ben  32  35  36
 287 prop tor  32  35  36  12
 288 prop tor  32  35  36  29
 289 prop tor  33   6   7   8
 290 prop tor  33   6   7   9
 291 ben  33  32  35
 292 prop tor  33  32  35   9
 293 prop tor  33  32  35  36
 294 prop tor  35   9  10  11
 295 prop tor  35   9  10  46
 296 prop tor  35  32  33   6
 297 prop tor  35  32  33  34
 298 prop tor  36  12  13  14
 299 prop tor  36  12  13  37
 300 prop tor  36  29  30  31
 301 prop tor  36  29  30  59
 302 prop tor  37  13  14  15
 303 prop tor  37  13  14  48
 304 prop tor  37  28  29  30
 305 prop tor  37  28  29  36
 306 prop tor  38  16  17  18
 307 prop tor  38  16  17  19
 308 prop tor  38  25  26  27
 309 prop tor  38  25  26  57
 310 prop tor  39   1   2   3
 311 prop tor  39   1   2  42
 312 ben  39   1  40
 313 ben  39   1  41
 314 prop tor  40   1   2   3
 315 prop tor  40   1   2  42
 316 ben  40   1  41
 317 prop tor  41   1   2   3
 318 prop tor  41   1   2  42
 319 prop tor  42   2   3   4
 320 prop tor  42   2   3  43
 321 prop tor  43   3   4   5
 322 prop tor  43   3   4  44
 323 prop tor  44   4   5   6
 324 prop tor  44   4   5  45
 325 prop tor  45   5   6   7
 326 prop tor  45   5   6  33
 327 prop tor  46  10  11  12
 328 prop tor  46  10  11  47
 329 prop tor  47  11  12  13
 330 prop tor  47  11  12  36
 331 prop tor  48  14  15  16
 332 prop tor  48  14  15  49
 333 prop tor  49  15  16  17
 334 prop tor  49  15  16  38
 335 prop tor  50  20  21  51
 336 prop tor  50  20  21  52
 337 prop tor  50  20  21  53
 338 prop tor  50  20  22  54
 339 prop tor  50  20  22  55
 340 prop tor  50  20  22  56
 341 ben  51  21  52
 342 ben  51  21  53
 343 ben  52  21  53
 344 ben  54  22  55
 345 ben  54  22  56
 346 ben  55  22  56
 347 prop tor  57  26  27  28
 348 prop tor  57  26  27  58
 349 prop tor  58  27  28  29
 350 prop tor  58  27  28  37
 351 prop tor  59  30  31  32
 352 prop tor  59  30  31  60
 353 prop tor  60  31  32  33
 354 prop tor  60  31  32  35
 nber bend=             114
 nber lin bend=           0
 nber prop tor=         174
 nber impr tor=           0
 nber tot redund int=         354
 Eigenvalues of G in red int coords
    Gval -0.00000000 -0.00000000 -0.00000000 -0.00000000 -0.00000000 -0.00000000 -0.00000000 -0.00000000
    Gval -0.00000000 -0.00000000 -0.00000000 -0.00000000 -0.00000000 -0.00000000 -0.00000000 -0.00000000
    Gval -0.00000000 -0.00000000 -0.00000000 -0.00000000 -0.00000000 -0.00000000 -0.00000000 -0.00000000
    Gval -0.00000000 -0.00000000 -0.00000000 -0.00000000 -0.00000000 -0.00000000 -0.00000000 -0.00000000
    Gval -0.00000000 -0.00000000 -0.00000000 -0.00000000 -0.00000000 -0.00000000 -0.00000000 -0.00000000
    Gval -0.00000000 -0.00000000 -0.00000000 -0.00000000 -0.00000000 -0.00000000 -0.00000000 -0.00000000
    Gval -0.00000000 -0.00000000 -0.00000000 -0.00000000 -0.00000000 -0.00000000 -0.00000000 -0.00000000
    Gval -0.00000000 -0.00000000 -0.00000000 -0.00000000 -0.00000000 -0.00000000 -0.00000000 -0.00000000
    Gval -0.00000000 -0.00000000 -0.00000000 -0.00000000 -0.00000000 -0.00000000 -0.00000000 -0.00000000
    Gval -0.00000000 -0.00000000 -0.00000000 -0.00000000 -0.00000000 -0.00000000 -0.00000000 -0.00000000
    Gval -0.00000000 -0.00000000 -0.00000000 -0.00000000 -0.00000000 -0.00000000 -0.00000000 -0.00000000
    Gval -0.00000000 -0.00000000 -0.00000000 -0.00000000 -0.00000000  0.00000000  0.00000000  0.00000000
    Gval  0.00000000  0.00000000  0.00000000  0.00000000  0.00000000  0.00000000  0.00000000  0.00000000
    Gval  0.00000000  0.00000000  0.00000000  0.00000000  0.00000000  0.00000000  0.00000000  0.00000000
    Gval  0.00000000  0.00000000  0.00000000  0.00000000  0.00000000  0.00000000  0.00000000  0.00000000
    Gval  0.00000000  0.00000000  0.00000000  0.00000000  0.00000000  0.00000000  0.00000000  0.00000000
[...]
 nber times 1st assigned=         136           0
 nber times 1st assigned=         137           0
 nber times 1st assigned=         138           0
 nber times 1st assigned=         139           0
 nber times 1st assigned=         140           0
 nber times 1st assigned=         141           0
 nber times 1st assigned=         142           0
 nber times 1st assigned=         143           0
 nber times 1st assigned=         144           0
 nber times 1st assigned=         145           0
 nber times 1st assigned=         146           0
 nber times 1st assigned=         147           0
 nber times 1st assigned=         148           0
 nber times 1st assigned=         149           0
 nber times 1st assigned=         150           0
 nber times 1st assigned=         151           0
 nber times 1st assigned=         152           0
 nber times 1st assigned=         153           0
 nber times 1st assigned=         154           0
 nber times 1st assigned=         155           0
 nber times 1st assigned=         156           0
 nber times 1st assigned=         157           0
 nber times 1st assigned=         158           0
 nber times 1st assigned=         159           0
 nber times 1st assigned=         160           0
 nber times 1st assigned=         161           0
 nber times 1st assigned=         162           0
 nber times 1st assigned=         163           0
 nber times 1st assigned=         164           0
 nber times 1st assigned=         165           0
 nber times 1st assigned=         166           0
 nber times 1st assigned=         167           0
 nber times 1st assigned=         168           0
 nber times 1st assigned=         169           0
 nber times 1st assigned=         170           0
 nber times 1st assigned=         171           0
 nber times 1st assigned=         172           0
 nber times 1st assigned=         173           0
 nber times 1st assigned=         174           0
 nber times 1st assigned=         175           0
 nber times 1st assigned=         176           0
 nber times 1st assigned=         177           0
 nber times 1st assigned=         178           0
 nber times 1st assigned=         179           0
 nber times 1st assigned=         180           0
 modes represented=   174.074779728652     
 p1=
   -0.   -0.    0.   -0.   -0.   -0.   -1.   -0.    0.  -30.   -1.   -0.    0.    0.    0.   -0.    0.   -1.   -0.   13.
    0.    0.   -0.   -4.    0.    1.    0.    0.   -0.   -1.    0.   -0.    2.   -2.    0.    0.    3.    3.   -0.    3.
    4.    1.   -4.   -1.    1.    0.   -0.    1.   -0.   -0.    2.    1.    0.    4.    1.    0.   -0.   -0.    0.   -0.
    0.    0.    0.   -0.   -0.    0.    0.    0.   -0.    0.   -0.    0.   -0.    0.    0.    0.   -1.   -0.   -0.   -0.
    0.   -1.   -0.    0.   -0.    0.    0.   -0.   -0.    0.   -0.   -0.   -0.    0.   -0.    0.    0.   -0.   -0.    1.
   -0.    1.   -0.   -0.    0.   -1.    0.    0.   -0.   -0.   -0.    0.    1.    0.    0.   -0.    2.   -1.   -0.   -2.
    0.    0.    0.    3.    0.   -0.   -1.   -0.    0.    2.   -0.   -0.   -1.    0.    1.   -0.    1.   -0.    0.    0.
   -0.    0.    0.    0.   -0.   -0.    0.    0.    0.    1.   -2.   -0.    0.   -0.    0.    0.    1.    1.    0.   -0.
   -0.   -0.    0.    0.    0.   -0.    0.   -0.    0.   -0.    0.   -0.   -0.   -0.   -0.   -0.   -0.   -0.   -0.    0.
 p2=
    0.    0.    0.   -0.    0.    0.    1.    0.    0.   30.   -0.   -0.   -0.   -0.   -0.   -0.   -0.    1.    0.   13.
    0.    0.   -5.    0.    0.   -1.    0.    0.    0.   -0.    1.   -0.    0.    2.   -1.    0.    2.    0.    1.    1.
   -2.    0.   -4.    2.   -2.    0.   -5.   -1.   -3.   -1.    0.    0.   -0.    5.   -1.    0.   -0.    0.    0.    0.
    1.   -0.    0.   -0.    0.   -0.   -0.    0.   -0.    0.   -0.    0.    0.   -0.    0.    0.   -0.   -0.    0.    1.
   -0.   -0.   -0.    0.    0.    0.   -0.    0.   -0.    0.    0.    0.    0.   -0.   -0.    0.    0.    0.   -0.   -1.
   -1.    1.    0.   -0.    0.    0.   -0.    0.   -0.    0.    0.   -0.    1.   -1.    2.   -0.   -3.    0.    0.    0.
   -1.   -1.   -0.    2.   -1.    0.   -0.    1.    0.   -0.   -0.    0.    1.   -0.   -0.   -0.   -0.   -0.    0.    0.
   -0.    0.    0.   -0.   -0.   -0.   -0.    0.   -0.    1.   -0.   -2.   -2.   -0.   -0.    1.    1.   -1.   -0.   -0.
   -0.   -0.    0.   -0.   -0.    0.    0.    0.    0.   -0.    0.   -0.    0.    0.    0.    0.   -0.   -0.   -0.   -0.

 Displacement: in terms of nc of 1 THEN of nc of 2

   1     freq=    -0. Q= -0.000 lam=    -0.0     freq=    -0. Q= -0.000 lam=    -0.0
   2     freq=    -0. Q= -0.000 lam=    -0.0     freq=    -0. Q= -0.000 lam=    -0.0
   3     freq=    -0. Q=  0.000 lam=    -0.0     freq=    -0. Q=  0.000 lam=    -0.0
   4     freq=     0. Q= -0.000 lam=     0.0     freq=     0. Q= -0.000 lam=     0.0
   5     freq=     0. Q= -0.000 lam=     0.0     freq=     0. Q= -0.000 lam=     0.0
   6     freq=     0. Q= -0.000 lam=     0.0     freq=     0. Q= -0.000 lam=     0.0
   7     freq=    13. Q= -0.010 lam=     0.0     freq=    11. Q= -0.009 lam=     0.0
   8     freq=    23. Q= -0.003 lam=     0.0     freq=    23. Q= -0.004 lam=     0.0
   9     freq=    30. Q=  0.005 lam=     0.0     freq=    29. Q=  0.005 lam=     0.0
  10     freq=    50. Q= -0.853 lam=    18.1     freq=    50. Q= -0.857 lam=    18.3
  11     freq=    51. Q= -0.034 lam=     0.0     freq=    54. Q= -0.014 lam=     0.0
  12     freq=    57. Q= -0.005 lam=     0.0     freq=    58. Q= -0.002 lam=     0.0
  13     freq=    69. Q=  0.005 lam=     0.0     freq=    73. Q=  0.004 lam=     0.0
  14     freq=    80. Q=  0.003 lam=     0.0     freq=    77. Q=  0.007 lam=     0.0
  15     freq=    84. Q=  0.000 lam=     0.0     freq=    88. Q=  0.002 lam=     0.0
  16     freq=    97. Q= -0.002 lam=     0.0     freq=    96. Q= -0.004 lam=     0.0
  17     freq=   101. Q=  0.001 lam=     0.0     freq=   103. Q=  0.002 lam=     0.0
  18     freq=   110. Q= -0.050 lam=     0.1     freq=   111. Q= -0.053 lam=     0.2
  19     freq=   157. Q= -0.007 lam=     0.0     freq=   161. Q= -0.012 lam=     0.0
  20     freq=   163. Q=  0.695 lam=    39.4     freq=   164. Q=  0.688 lam=    39.0
  21     freq=   164. Q=  0.001 lam=     0.0     freq=   169. Q=  0.003 lam=     0.0
  22     freq=   176. Q=  0.002 lam=     0.0     freq=   178. Q=  0.000 lam=     0.0
  23     freq=   185. Q= -0.005 lam=     0.0     freq=   189. Q= -0.255 lam=     6.1
  24     freq=   187. Q= -0.232 lam=     5.0     freq=   195. Q= -0.000 lam=     0.0
  25     freq=   211. Q=  0.002 lam=     0.0     freq=   212. Q=  0.002 lam=     0.0
  26     freq=   227. Q=  0.073 lam=     0.6     freq=   228. Q=  0.076 lam=     0.7
  27     freq=   234. Q=  0.003 lam=     0.0     freq=   235. Q=  0.000 lam=     0.0
  28     freq=   238. Q=  0.008 lam=     0.0     freq=   239. Q=  0.012 lam=     0.0
  29     freq=   240. Q= -0.000 lam=     0.0     freq=   241. Q= -0.000 lam=     0.0
  30     freq=   258. Q= -0.059 lam=     0.4     freq=   257. Q= -0.001 lam=     0.0
  31     freq=   265. Q=  0.001 lam=     0.0     freq=   263. Q=  0.080 lam=     0.8
  32     freq=   296. Q= -0.013 lam=     0.0     freq=   283. Q= -0.001 lam=     0.0
  33     freq=   296. Q=  0.135 lam=     2.7     freq=   295. Q=  0.001 lam=     0.0
  34     freq=   304. Q= -0.149 lam=     3.4     freq=   298. Q= -0.109 lam=     1.8
  35     freq=   308. Q=  0.001 lam=     0.0     freq=   311. Q=  0.103 lam=     1.7
  36     freq=   339. Q=  0.000 lam=     0.0     freq=   340. Q=  0.000 lam=     0.0
  37     freq=   360. Q=  0.224 lam=     9.0     freq=   363. Q=  0.135 lam=     3.3
  38     freq=   386. Q=  0.245 lam=    11.6     freq=   390. Q=  0.001 lam=     0.0
  39     freq=   396. Q= -0.003 lam=     0.0     freq=   394. Q= -0.118 lam=     2.8
  40     freq=   400. Q=  0.237 lam=    11.2     freq=   402. Q=  0.050 lam=     0.5
  41     freq=   404. Q=  0.291 lam=    17.2     freq=   415. Q=  0.160 lam=     5.3
  42     freq=   414. Q=  0.106 lam=     2.3     freq=   418. Q=  0.000 lam=     0.0
  43     freq=   432. Q= -0.325 lam=    22.9     freq=   435. Q= -0.374 lam=    30.4
  44     freq=   436. Q= -0.094 lam=     1.9     freq=   442. Q= -0.150 lam=     5.0
  45     freq=   440. Q=  0.118 lam=     3.1     freq=   451. Q=  0.143 lam=     4.6
  46     freq=   443. Q=  0.000 lam=     0.0     freq=   453. Q=  0.007 lam=     0.0
  47     freq=   445. Q= -0.000 lam=     0.0     freq=   454. Q= -0.401 lam=    36.5
  48     freq=   471. Q=  0.103 lam=     2.5     freq=   472. Q=  0.097 lam=     2.2
  49     freq=   476. Q= -0.002 lam=     0.0     freq=   493. Q= -0.277 lam=    18.9
  50     freq=   483. Q= -0.000 lam=     0.0     freq=   499. Q= -0.051 lam=     0.7
  51     freq=   491. Q=  0.183 lam=     8.2     freq=   501. Q=  0.002 lam=     0.0
  52     freq=   501. Q=  0.058 lam=     0.8     freq=   514. Q=  0.001 lam=     0.0
  53     freq=   529. Q=  0.000 lam=     0.0     freq=   516. Q=  0.000 lam=     0.0
  54     freq=   538. Q=  0.377 lam=    38.3     freq=   538. Q=  0.487 lam=    63.7
  55     freq=   554. Q=  0.117 lam=     3.8     freq=   553. Q=  0.048 lam=     0.6
  56     freq=   577. Q=  0.013 lam=     0.0     freq=   579. Q=  0.019 lam=     0.1
  57     freq=   582. Q= -0.030 lam=     0.3     freq=   582. Q= -0.045 lam=     0.6
  58     freq=   590. Q= -0.002 lam=     0.0     freq=   590. Q= -0.002 lam=     0.0
  59     freq=   622. Q=  0.022 lam=     0.1     freq=   623. Q=  0.001 lam=     0.0
  60     freq=   626. Q= -0.001 lam=     0.0     freq=   625. Q= -0.001 lam=     0.0
  61     freq=   639. Q=  0.010 lam=     0.0     freq=   642. Q=  0.073 lam=     1.7
  62     freq=   653. Q=  0.000 lam=     0.0     freq=   663. Q=  0.000 lam=     0.0
  63     freq=   667. Q=  0.000 lam=     0.0     freq=   669. Q=  0.000 lam=     0.0
  64     freq=   710. Q= -0.054 lam=     1.0     freq=   712. Q= -0.005 lam=     0.0
  65     freq=   717. Q= -0.012 lam=     0.1     freq=   716. Q= -0.035 lam=     0.4
  66     freq=   720. Q=  0.033 lam=     0.4     freq=   729. Q=  0.016 lam=     0.1
  67     freq=   731. Q=  0.001 lam=     0.0     freq=   748. Q=  0.002 lam=     0.0
  68     freq=   746. Q=  0.000 lam=     0.0     freq=   758. Q=  0.001 lam=     0.0
  69     freq=   750. Q= -0.001 lam=     0.0     freq=   767. Q= -0.002 lam=     0.0
  70     freq=   767. Q=  0.002 lam=     0.0     freq=   773. Q=  0.000 lam=     0.0
  71     freq=   779. Q= -0.003 lam=     0.0     freq=   787. Q= -0.002 lam=     0.0
  72     freq=   784. Q=  0.000 lam=     0.0     freq=   801. Q=  0.015 lam=     0.1
  73     freq=   802. Q= -0.004 lam=     0.0     freq=   808. Q= -0.014 lam=     0.1
  74     freq=   810. Q=  0.019 lam=     0.1     freq=   817. Q=  0.000 lam=     0.0
  75     freq=   821. Q=  0.007 lam=     0.0     freq=   818. Q=  0.000 lam=     0.0
  76     freq=   822. Q=  0.000 lam=     0.0     freq=   823. Q=  0.000 lam=     0.0
  77     freq=   844. Q= -0.158 lam=    10.5     freq=   827. Q= -0.000 lam=     0.0
  78     freq=   863. Q= -0.001 lam=     0.0     freq=   831. Q= -0.001 lam=     0.0
  79     freq=   865. Q= -0.000 lam=     0.0     freq=   834. Q= -0.001 lam=     0.0
  80     freq=   873. Q= -0.001 lam=     0.0     freq=   846. Q= -0.169 lam=    12.1
  81     freq=   876. Q=  0.000 lam=     0.0     freq=   853. Q=  0.002 lam=     0.0
  82     freq=   888. Q= -0.078 lam=     2.7     freq=   897. Q= -0.011 lam=     0.1
  83     freq=   911. Q= -0.039 lam=     0.7     freq=   915. Q= -0.000 lam=     0.0
  84     freq=   923. Q=  0.012 lam=     0.1     freq=   917. Q=  0.014 lam=     0.1
  85     freq=   924. Q= -0.000 lam=     0.0     freq=   929. Q= -0.023 lam=     0.3
  86     freq=   938. Q=  0.018 lam=     0.2     freq=   940. Q=  0.012 lam=     0.1
  87     freq=   947. Q=  0.000 lam=     0.0     freq=   944. Q=  0.000 lam=     0.0
  88     freq=   958. Q= -0.000 lam=     0.0     freq=   956. Q= -0.000 lam=     0.0
  89     freq=   969. Q= -0.041 lam=     0.8     freq=   963. Q= -0.052 lam=     1.3
  90     freq=   971. Q=  0.000 lam=     0.0     freq=   974. Q=  0.000 lam=     0.0
  91     freq=   988. Q= -0.010 lam=     0.0     freq=   978. Q= -0.000 lam=     0.0
  92     freq=   994. Q= -0.056 lam=     1.5     freq=   980. Q= -0.041 lam=     0.8
  93     freq=  1000. Q= -0.000 lam=     0.0     freq=   987. Q= -0.000 lam=     0.0
  94     freq=  1004. Q=  0.000 lam=     0.0     freq=   989. Q=  0.000 lam=     0.0
  95     freq=  1009. Q= -0.000 lam=     0.0     freq=   990. Q= -0.000 lam=     0.0
  96     freq=  1013. Q=  0.000 lam=     0.0     freq=  1035. Q=  0.000 lam=     0.0
  97     freq=  1027. Q=  0.000 lam=     0.0     freq=  1042. Q=  0.000 lam=     0.0
  98     freq=  1039. Q= -0.000 lam=     0.0     freq=  1050. Q= -0.039 lam=     0.8
  99     freq=  1067. Q= -0.019 lam=     0.2     freq=  1070. Q= -0.015 lam=     0.1
 100     freq=  1087. Q=  0.181 lam=    17.8     freq=  1095. Q=  0.104 lam=     6.0
 101     freq=  1105. Q= -0.017 lam=     0.2     freq=  1120. Q= -0.185 lam=    19.1
 102     freq=  1126. Q=  0.119 lam=     8.0     freq=  1134. Q=  0.137 lam=    10.7
 103     freq=  1156. Q= -0.000 lam=     0.0     freq=  1150. Q= -0.012 lam=     0.1
 104     freq=  1162. Q= -0.004 lam=     0.0     freq=  1155. Q= -0.000 lam=     0.0
 105     freq=  1165. Q=  0.041 lam=     1.0     freq=  1166. Q=  0.020 lam=     0.2
 106     freq=  1175. Q= -0.119 lam=     8.4     freq=  1175. Q= -0.024 lam=     0.3
 107     freq=  1180. Q=  0.067 lam=     2.7     freq=  1191. Q=  0.047 lam=     1.3
 108     freq=  1197. Q=  0.019 lam=     0.2     freq=  1202. Q=  0.004 lam=     0.0
 109     freq=  1212. Q= -0.026 lam=     0.4     freq=  1217. Q= -0.051 lam=     1.6
 110     freq=  1218. Q= -0.045 lam=     1.2     freq=  1228. Q= -0.023 lam=     0.3
 111     freq=  1224. Q= -0.001 lam=     0.0     freq=  1232. Q= -0.010 lam=     0.1
 112     freq=  1240. Q=  0.027 lam=     0.5     freq=  1236. Q=  0.006 lam=     0.0
 113     freq=  1250. Q=  0.099 lam=     6.1     freq=  1250. Q=  0.073 lam=     3.3
 114     freq=  1261. Q=  0.040 lam=     1.0     freq=  1259. Q=  0.077 lam=     3.7
 115     freq=  1269. Q=  0.006 lam=     0.0     freq=  1279. Q=  0.307 lam=    60.4
 116     freq=  1276. Q= -0.003 lam=     0.0     freq=  1290. Q= -0.059 lam=     2.2
 117     freq=  1294. Q=  0.293 lam=    55.6     freq=  1298. Q=  0.410 lam=   108.9
 118     freq=  1306. Q= -0.169 lam=    18.7     freq=  1303. Q= -0.048 lam=     1.5
 119     freq=  1313. Q= -0.016 lam=     0.2     freq=  1312. Q= -0.067 lam=     3.0
 120     freq=  1318. Q= -0.328 lam=    70.9     freq=  1328. Q= -0.009 lam=     0.1
 121     freq=  1321. Q=  0.038 lam=     1.0     freq=  1337. Q=  0.080 lam=     4.3
 122     freq=  1337. Q=  0.042 lam=     1.2     freq=  1360. Q=  0.094 lam=     6.1
 123     freq=  1343. Q=  0.017 lam=     0.2     freq=  1363. Q=  0.069 lam=     3.2
 124     freq=  1372. Q=  0.388 lam=   103.0     freq=  1371. Q=  0.358 lam=    87.8
 125     freq=  1375. Q=  0.021 lam=     0.3     freq=  1372. Q=  0.181 lam=    22.5
 126     freq=  1379. Q= -0.002 lam=     0.0     freq=  1384. Q= -0.001 lam=     0.0
 127     freq=  1380. Q= -0.082 lam=     4.7     freq=  1392. Q= -0.049 lam=     1.6
 128     freq=  1392. Q= -0.002 lam=     0.0     freq=  1394. Q= -0.087 lam=     5.3
 129     freq=  1398. Q=  0.059 lam=     2.4     freq=  1398. Q=  0.001 lam=     0.0
 130     freq=  1404. Q=  0.333 lam=    78.0     freq=  1398. Q=  0.009 lam=     0.1
 131     freq=  1404. Q= -0.021 lam=     0.3     freq=  1401. Q= -0.019 lam=     0.3
 132     freq=  1422. Q= -0.051 lam=     1.9     freq=  1413. Q= -0.072 lam=     3.7
 133     freq=  1424. Q= -0.113 lam=     9.1     freq=  1427. Q= -0.130 lam=    12.1
 134     freq=  1440. Q=  0.027 lam=     0.5     freq=  1440. Q=  0.043 lam=     1.3
 135     freq=  1452. Q=  0.108 lam=     8.4     freq=  1462. Q=  0.074 lam=     4.0
 136     freq=  1456. Q= -0.000 lam=     0.0     freq=  1463. Q= -0.001 lam=     0.0
 137     freq=  1476. Q=  0.085 lam=     5.3     freq=  1475. Q=  0.002 lam=     0.0
 138     freq=  1478. Q= -0.042 lam=     1.3     freq=  1482. Q= -0.027 lam=     0.5
 139     freq=  1486. Q=  0.000 lam=     0.0     freq=  1484. Q=  0.061 lam=     2.8
 140     freq=  1488. Q=  0.038 lam=     1.1     freq=  1484. Q=  0.000 lam=     0.0
 141     freq=  1499. Q= -0.021 lam=     0.3     freq=  1486. Q= -0.010 lam=     0.1
 142     freq=  1503. Q=  0.028 lam=     0.6     freq=  1497. Q=  0.028 lam=     0.6
 143     freq=  1504. Q=  0.001 lam=     0.0     freq=  1507. Q=  0.000 lam=     0.0
 144     freq=  1522. Q=  0.025 lam=     0.5     freq=  1524. Q=  0.027 lam=     0.6
 145     freq=  1536. Q= -0.029 lam=     0.6     freq=  1547. Q= -0.016 lam=     0.2
 146     freq=  1553. Q= -0.067 lam=     3.5     freq=  1556. Q= -0.053 lam=     2.2
 147     freq=  1565. Q=  0.049 lam=     1.9     freq=  1568. Q=  0.021 lam=     0.4
 148     freq=  1580. Q=  0.053 lam=     2.2     freq=  1576. Q=  0.038 lam=     1.1
 149     freq=  1601. Q=  0.073 lam=     4.2     freq=  1589. Q=  0.010 lam=     0.1
 150     freq=  1602. Q=  0.205 lam=    33.7     freq=  1610. Q=  0.174 lam=    24.5
 151     freq=  1615. Q= -0.378 lam=   115.4     freq=  1616. Q= -0.006 lam=     0.0
 152     freq=  1621. Q= -0.072 lam=     4.2     freq=  1621. Q= -0.363 lam=   106.9
 153     freq=  1629. Q=  0.067 lam=     3.7     freq=  1635. Q=  0.273 lam=    60.9
 154     freq=  1639. Q= -0.031 lam=     0.8     freq=  1671. Q= -0.027 lam=     0.6
 155     freq=  1721. Q=  0.000 lam=     0.0     freq=  1686. Q=  0.008 lam=     0.0
 156     freq=  1749. Q=  0.049 lam=     2.1     freq=  1723. Q=  0.232 lam=    46.3
 157     freq=  1762. Q=  0.206 lam=    37.3     freq=  1801. Q=  0.190 lam=    32.3
 158     freq=  1788. Q=  0.124 lam=    13.7     freq=  1824. Q=  0.087 lam=     6.9
 159     freq=  3006. Q=  0.005 lam=     0.0     freq=  3008. Q=  0.006 lam=     0.1
 160     freq=  3040. Q= -0.000 lam=     0.0     freq=  3030. Q= -0.000 lam=     0.0
 161     freq=  3042. Q= -0.000 lam=     0.0     freq=  3035. Q= -0.014 lam=     0.3
 162     freq=  3043. Q= -0.013 lam=     0.3     freq=  3045. Q= -0.000 lam=     0.0
 163     freq=  3099. Q=  0.000 lam=     0.0     freq=  3088. Q=  0.000 lam=     0.0
 164     freq=  3102. Q=  0.013 lam=     0.2     freq=  3091. Q=  0.012 lam=     0.2
 165     freq=  3117. Q=  0.005 lam=     0.0     freq=  3110. Q=  0.007 lam=     0.1
 166     freq=  3123. Q= -0.000 lam=     0.0     freq=  3118. Q= -0.000 lam=     0.0
 167     freq=  3135. Q=  0.000 lam=     0.0     freq=  3132. Q=  0.000 lam=     0.0
 168     freq=  3143. Q= -0.006 lam=     0.1     freq=  3142. Q= -0.007 lam=     0.1
 169     freq=  3146. Q=  0.008 lam=     0.1     freq=  3142. Q=  0.004 lam=     0.0
 170     freq=  3153. Q= -0.008 lam=     0.1     freq=  3159. Q= -0.011 lam=     0.2
 171     freq=  3177. Q=  0.005 lam=     0.0     freq=  3167. Q=  0.007 lam=     0.1
 172     freq=  3201. Q= -0.003 lam=     0.0     freq=  3194. Q= -0.003 lam=     0.0
 173     freq=  3202. Q= -0.001 lam=     0.0     freq=  3195. Q= -0.000 lam=     0.0
 174     freq=  3206. Q= -0.001 lam=     0.0     freq=  3199. Q= -0.001 lam=     0.0
 175     freq=  3208. Q= -0.000 lam=     0.0     freq=  3200. Q= -0.001 lam=     0.0
 176     freq=  3214. Q= -0.001 lam=     0.0     freq=  3210. Q= -0.001 lam=     0.0
 177     freq=  3215. Q= -0.001 lam=     0.0     freq=  3210. Q= -0.001 lam=     0.0
 178     freq=  3227. Q= -0.003 lam=     0.0     freq=  3226. Q= -0.001 lam=     0.0
 179     freq=  3228. Q= -0.002 lam=     0.0     freq=  3226. Q= -0.000 lam=     0.0
 180     freq=  3244. Q=  0.009 lam=     0.1     freq=  3251. Q=  0.008 lam=     0.1

 total reorg energy (cm**-1, kcal/mol)=      859.      925.      2.46      2.64
 Nber of molecules processed=           2
