 Enter ifcurve (0=recti, 1=orth curvi, 2=apprx curvi, -1 = skip
 And atom ordering flag, 0= never changes, 1= use the first order thenceforth,
  2= deduce it (does read on fail), 3= always read it
 Reading file: 
 ./Benzene_Conj_2_C0S0.log                                                      
                                          
  Entering Gaussian System, Link 0=g16                                          
  
 Gaussian format, type: g94, g98, g03= F F F
  #P Geom=AllCheck Guess=TCheck SCRF=Check GenChk RB3LYP/6-311G(d,p) Fre    
 energy type= B3LYP   
 Original G94 input coords:
  6  2.476712 -1.404830  0.000000
  6  1.221874 -0.721547  0.000000
  6  0.000000 -1.401596  0.000000
  6 -1.221874 -0.721547  0.000000
  6 -2.476712 -1.404830  0.000000
  6 -3.654888 -0.712222  0.000000
  6 -3.654888  0.712222  0.000000
  6 -2.476712  1.404830  0.000000
  6 -1.221874  0.721547  0.000000
  6  0.000000  1.401596  0.000000
  6  1.221874  0.721547  0.000000
  6  2.476712  1.404830  0.000000
  6  3.654888  0.712222  0.000000
  6  3.654888 -0.712222  0.000000
  1  2.476147 -2.489888  0.000000
  1  0.000000 -2.487504  0.000000
  1 -2.476147 -2.489888  0.000000
  1 -4.599423 -1.244469  0.000000
  1 -4.599423  1.244469  0.000000
  1 -2.476147  2.489888  0.000000
  1  0.000000  2.487504  0.000000
  1  2.476147  2.489888  0.000000
  1  4.599423  1.244469  0.000000
  1  4.599423 -1.244469  0.000000
 nber atoms=          24
 Original standard coords:
  6  0.000000  2.476712  1.404830
  6  0.000000  1.221874  0.721547
  6  0.000000  0.000000  1.401596
  6  0.000000 -1.221874  0.721547
  6  0.000000 -2.476712  1.404830
  6  0.000000 -3.654888  0.712222
  6  0.000000 -3.654888 -0.712222
  6  0.000000 -2.476712 -1.404830
  6  0.000000 -1.221874 -0.721547
  6  0.000000  0.000000 -1.401596
  6  0.000000  1.221874 -0.721547
  6  0.000000  2.476712 -1.404830
  6  0.000000  3.654888 -0.712222
  6  0.000000  3.654888  0.712222
  1  0.000000  2.476147  2.489888
  1  0.000000  0.000000  2.487504
  1  0.000000 -2.476147  2.489888
  1  0.000000 -4.599423  1.244469
  1  0.000000 -4.599423 -1.244469
  1  0.000000 -2.476147 -2.489888
  1  0.000000  0.000000 -2.487504
  1  0.000000  2.476147 -2.489888
  1  0.000000  4.599423 -1.244469
  1  0.000000  4.599423  1.244469
  SCF Done:  E(RB3LYP) =  -539.655145862     A.U. after    1 cycles             
  
          23          40 "  -539.655145862"
After scan for Atom:   Atom  AN      X      Y      Z        X      Y      Z        X      Y      Z   
After scan for Atom:   Atom  AN      X      Y      Z        X      Y      Z        X      Y      Z   
After scan for Atom:   Atom  AN      X      Y      Z        X      Y      Z        X      Y      Z   
After scan for Atom:   Atom  AN      X      Y      Z        X      Y      Z        X      Y      Z   
After scan for Atom:   Atom  AN      X      Y      Z        X      Y      Z        X      Y      Z   
After scan for Atom:   Atom  AN      X      Y      Z        X      Y      Z        X      Y      Z   
After scan for Atom:   Atom  AN      X      Y      Z        X      Y      Z        X      Y      Z   
After scan for Atom:   Atom  AN      X      Y      Z        X      Y      Z        X      Y      Z   
After scan for Atom:   Atom  AN      X      Y      Z        X      Y      Z        X      Y      Z   
After scan for Atom:   Atom  AN      X      Y      Z        X      Y      Z        X      Y      Z   
After scan for Atom:   Atom  AN      X      Y      Z        X      Y      Z        X      Y      Z   
After scan for Atom:   Atom  AN      X      Y      Z        X      Y      Z        X      Y      Z   
After scan for Atom:   Atom  AN      X      Y      Z        X      Y      Z        X      Y      Z   
After scan for Atom:   Atom  AN      X      Y      Z        X      Y      Z        X      Y      Z   
After scan for Atom:   Atom  AN      X      Y      Z        X      Y      Z        X      Y      Z   
After scan for Atom:   Atom  AN      X      Y      Z        X      Y      Z        X      Y      Z   
After scan for Atom:   Atom  AN      X      Y      Z        X      Y      Z        X      Y      Z   
After scan for Atom:   Atom  AN      X      Y      Z        X      Y      Z        X      Y      Z   
After scan for Atom:   Atom  AN      X      Y      Z        X      Y      Z        X      Y      Z   
After scan for Atom:   Atom  AN      X      Y      Z        X      Y      Z        X      Y      Z   
After scan for Atom:   Atom  AN      X      Y      Z        X      Y      Z        X      Y      Z   
After scan for Atom:   Atom  AN      X      Y      Z        X      Y      Z        X      Y      Z   
 g94    frequencies=
     0.0    0.0    0.0    0.0    0.0    0.0   90.9  121.0  235.6  235.8
   269.0  386.9  395.9  398.0  478.4  483.9  506.6  535.6  591.1  617.6
   642.4  661.3  740.4  758.9  763.3  769.6  781.9  820.8  843.9  865.9
   894.8  911.2  918.8  929.2  967.4  972.2  995.1  996.0 1026.2 1031.0
  1126.7 1158.7 1173.1 1188.6 1189.9 1210.6 1289.6 1290.6 1294.6 1338.9
  1375.8 1414.3 1414.6 1427.6 1482.0 1486.8 1516.7 1579.2 1593.6 1624.3
  1667.9 1670.3 3153.0 3155.0 3156.8 3157.7 3161.4 3162.9 3174.7 3175.0
  3186.9 3187.4
 g94    symmetries=
                                                B3     AU     B1     B1
      B2     B3     B3     AG     B3     B1     AU     B3     B2     B2
      AG     B1     B3     AU     AG     B1     B2     B2     B2     AU
      B3     B2     B1     B3     B1     B3     AU     B2     B2     AG
      B3     B2     B1     B2     AG     B3     AG     B1     B3     B1
      B2     B3     B2     AG     B2     B1     AG     B2     AG     B3
      B3     B1     B1     AG     B3     B1     B2     AG     B3     B1
      B2     AG
 atomic masses:
 12.0000 12.0000 12.0000 12.0000 12.0000 12.0000 12.0000 12.0000 12.0000 12.0000
 12.0000 12.0000 12.0000 12.0000  1.0078  1.0078  1.0078  1.0078  1.0078  1.0078
  1.0078  1.0078  1.0078  1.0078
 looking for force constants in 
 ./Benzene_Conj_2_C0S0.fchk                                                     
  
 Cartesian Force Constants                  R   N=        2628                  
  
 n3=          72        2628
 g94-fc frequencies=
    -1.7   -0.0   -0.0   -0.0    0.8    2.4   90.9  121.0  235.6  235.8
   269.0  386.9  395.9  398.0  478.5  484.0  506.6  535.6  591.1  617.6
   642.4  661.3  740.4  758.9  763.3  769.6  781.9  820.9  844.0  865.9
   894.8  911.2  918.8  929.2  967.4  972.2  995.1  996.0 1026.2 1031.0
  1126.7 1158.7 1173.1 1188.6 1189.9 1210.6 1289.6 1290.6 1294.6 1339.0
  1375.8 1414.3 1414.6 1427.6 1482.0 1486.9 1516.7 1579.3 1593.7 1624.4
  1667.9 1670.3 3153.0 3155.1 3156.9 3157.8 3161.5 3163.0 3174.8 3175.1
  3187.0 3187.5
 at 99999: n3=          72
 symm operator            1 :  T  nop=           1
 symm operator            2 :  T  nop=           2
 symm operator            3 :  T  nop=           3
 symm operator            4 :  T  nop=           4
 symm operator            5 :  T  nop=           5
 symm operator            6 :  T  nop=           6
 symm operator            7 :  T  nop=           7
 The point group of the molecule is D2H
 enforcing symm op           1  jsymt=          -1          -1           1
 enforcing symm op           2  jsymt=          -1           1          -1
 enforcing symm op           3  jsymt=           1          -1          -1
 enforcing symm op           4  jsymt=          -1          -1          -1
 enforcing symm op           5  jsymt=           1           1          -1
 enforcing symm op           6  jsymt=           1          -1           1
 enforcing symm op           7  jsymt=          -1           1           1
 cartesian coord symmetries:
 Ag :   12 Au :    5 B1g:    5 B1u:   12 B2g:    7 B2u:   12 B3g:   12 B3u:    7
 Symmetry rotation matrix:
   1.00000   0.00000   0.00000
   0.00000   1.00000   0.00000
   0.00000   0.00000   1.00000

 Projecting out zero-frequency components
 generating redundant internal coords
         300        3600          24
 search for int coords
   1 str   2   1   1.429
   2 str   3   2   1.398
   3 str   4   3   1.398
   4 str   5   4   1.429
   5 str   6   5   1.367
   6 str   7   6   1.424
   7 str   8   7   1.367
   8 str   9   4   1.443
   9 str   9   8   1.429
  10 str  10   9   1.398
  11 str  11   2   1.443
  12 str  11  10   1.398
  13 str  12  11   1.429
  14 str  13  12   1.367
  15 str  14   1   1.367
  16 str  14  13   1.424
  17 str  15   1   1.085
  18 str  16   3   1.086
  19 str  17   5   1.085
  20 str  18   6   1.084
  21 str  19   7   1.084
  22 str  20   8   1.085
  23 str  21  10   1.086
  24 str  22  12   1.085
  25 str  23  13   1.084
  26 str  24  14   1.084
 nber stretches=          26
  27 ben   1   2   3
  28 prop tor   1   2   3   4
  29 prop tor   1   2   3  16
  30 ben   1   2  11
  31 prop tor   1   2  11  10
  32 prop tor   1   2  11  12
  33 ben   1  14  13
  34 ben   1  14  24
  35 ben   2   1  14
  36 prop tor   2   1  14  13
  37 prop tor   2   1  14  24
  38 ben   2   1  15
  39 ben   2   3   4
  40 prop tor   2   3   4   5
  41 prop tor   2   3   4   9
  42 ben   2   3  16
  43 ben   2  11  10
  44 ben   2  11  12
  45 prop tor   2  11  12  13
  46 prop tor   2  11  12  22
  47 ben   3   2  11
  48 prop tor   3   2  11  10
  49 prop tor   3   2  11  12
  50 ben   3   4   5
  51 prop tor   3   4   5   6
  52 prop tor   3   4   5  17
  53 ben   3   4   9
  54 prop tor   3   4   9   8
  55 prop tor   3   4   9  10
  56 ben   4   3  16
  57 ben   4   5   6
  58 prop tor   4   5   6   7
  59 prop tor   4   5   6  18
  60 ben   4   5  17
  61 ben   4   9   8
  62 ben   4   9  10
  63 prop tor   4   9  10  11
  64 prop tor   4   9  10  21
  65 ben   5   4   9
  66 prop tor   5   4   9   8
  67 prop tor   5   4   9  10
  68 ben   5   6   7
  69 prop tor   5   6   7   8
  70 prop tor   5   6   7  19
  71 ben   5   6  18
  72 ben   6   5  17
  73 ben   6   7   8
  74 prop tor   6   7   8   9
  75 prop tor   6   7   8  20
  76 ben   6   7  19
  77 ben   7   6  18
  78 ben   7   8   9
  79 prop tor   7   8   9   4
  80 prop tor   7   8   9  10
  81 ben   7   8  20
  82 ben   8   7  19
  83 ben   8   9  10
  84 prop tor   8   9  10  11
  85 prop tor   8   9  10  21
  86 prop tor   9   4   5   6
  87 prop tor   9   4   5  17
  88 ben   9   8  20
  89 ben   9  10  11
  90 prop tor   9  10  11   2
  91 prop tor   9  10  11  12
  92 ben   9  10  21
  93 ben  10  11  12
  94 prop tor  10  11  12  13
  95 prop tor  10  11  12  22
  96 prop tor  11   2   3   4
  97 prop tor  11   2   3  16
  98 ben  11  10  21
  99 ben  11  12  13
 100 prop tor  11  12  13  14
 101 prop tor  11  12  13  23
 102 ben  11  12  22
 103 ben  12  13  14
 104 prop tor  12  13  14   1
 105 prop tor  12  13  14  24
 106 ben  12  13  23
 107 ben  13  12  22
 108 ben  13  14  24
 109 prop tor  14   1   2   3
 110 prop tor  14   1   2  11
 111 ben  14   1  15
 112 ben  14  13  23
 113 prop tor  15   1   2   3
 114 prop tor  15   1   2  11
 115 prop tor  15   1  14  13
 116 prop tor  15   1  14  24
 117 prop tor  16   3   4   5
 118 prop tor  16   3   4   9
 119 prop tor  17   5   6   7
 120 prop tor  17   5   6  18
 121 prop tor  18   6   7   8
 122 prop tor  18   6   7  19
 123 prop tor  19   7   8   9
 124 prop tor  19   7   8  20
 125 prop tor  20   8   9   4
 126 prop tor  20   8   9  10
 127 prop tor  21  10  11   2
 128 prop tor  21  10  11  12
 129 prop tor  22  12  13  14
 130 prop tor  22  12  13  23
 131 prop tor  23  13  14   1
 132 prop tor  23  13  14  24
 nber bend=              42
 nber lin bend=           0
 nber prop tor=          64
 nber impr tor=           0
 nber tot redund int=         132
 Eigenvalues of G in red int coords
    Gval -0.00000000 -0.00000000 -0.00000000 -0.00000000 -0.00000000 -0.00000000 -0.00000000 -0.00000000
    Gval -0.00000000 -0.00000000 -0.00000000 -0.00000000 -0.00000000 -0.00000000 -0.00000000 -0.00000000
    Gval -0.00000000 -0.00000000 -0.00000000 -0.00000000 -0.00000000 -0.00000000 -0.00000000 -0.00000000
    Gval -0.00000000 -0.00000000 -0.00000000 -0.00000000 -0.00000000 -0.00000000 -0.00000000 -0.00000000
    Gval -0.00000000 -0.00000000  0.00000000  0.00000000  0.00000000  0.00000000  0.00000000  0.00000000
    Gval  0.00000000  0.00000000  0.00000000  0.00000000  0.00000000  0.00000000  0.00000000  0.00000000
    Gval  0.00000000  0.00000000  0.00000000  0.00000000  0.00000000  0.00000000  0.00000000  0.00000000
    Gval  0.00000000  0.00000000  0.00000000  0.00000000  0.00000000  0.00000000  0.00000000  0.00000000
    Gval  0.00000000  0.00000000  0.00000846  0.00000982  0.00002851  0.00003511  0.00003539  0.00004269
    Gval  0.00004885  0.00005231  0.00005594  0.00006522  0.00007280  0.00007856  0.00009181  0.00010120
    Gval  0.00010302  0.00012397  0.00013434  0.00015060  0.00018765  0.00021085  0.00022485  0.00025645
    Gval  0.00029370  0.00031541  0.00032639  0.00037868  0.00039220  0.00041610  0.00041831  0.00048552
    Gval  0.00059308  0.00059313  0.00059670  0.00059710  0.00060868  0.00061707  0.00062824  0.00064106
    Gval  0.00065413  0.00065934  0.00074863  0.00076121  0.00083209  0.00103873  0.00104952  0.00105230
    Gval  0.00111199  0.00111451  0.00111942  0.00112480  0.00116107  0.00116152  0.00117026  0.00117026
    Gval  0.00175677  0.00175763  0.00178808  0.00197563  0.00254067  0.00264678  0.00301614  0.00318286
    Gval  0.00350939  0.00360694  0.00400084  0.00401095
  8.463930851332640E-006  8.463930851332640E-006
  9.823130745050917E-006  8.463930851332640E-006
  2.850987358778976E-005  8.463930851332640E-006
  3.510553257233437E-005  8.463930851332640E-006
  3.539413200312101E-005  8.463930851332640E-006
  4.268560679062913E-005  8.463930851332640E-006
  4.885059977326790E-005  8.463930851332640E-006
  5.231485510954204E-005  8.463930851332640E-006
  5.594453154776135E-005  8.463930851332640E-006
  6.522243219904755E-005  8.463930851332640E-006
  7.280397292825005E-005  8.463930851332640E-006
  7.855903666172585E-005  8.463930851332640E-006
  9.181469992213257E-005  8.463930851332640E-006
  1.011985956840579E-004  8.463930851332640E-006
  1.030158213504328E-004  8.463930851332640E-006
  1.239728214057765E-004  8.463930851332640E-006
  1.343376718354544E-004  8.463930851332640E-006
  1.506040725092544E-004  8.463930851332640E-006
  1.876462766705868E-004  8.463930851332640E-006
  2.108452889573017E-004  8.463930851332640E-006
  2.248453018731642E-004  8.463930851332640E-006
  2.564460044260415E-004  8.463930851332640E-006
  2.937029626585691E-004  8.463930851332640E-006
  3.154084661614618E-004  8.463930851332640E-006
  3.263909123945709E-004  8.463930851332640E-006
  3.786818951235360E-004  8.463930851332640E-006
  3.922036074954684E-004  8.463930851332640E-006
  4.161049937720917E-004  8.463930851332640E-006
  4.183110827734634E-004  8.463930851332640E-006
  4.855187769942199E-004  8.463930851332640E-006
  5.930837838646405E-004  8.463930851332640E-006
  5.931347710173095E-004  8.463930851332640E-006
  5.967019631275281E-004  8.463930851332640E-006
  5.971041248245499E-004  8.463930851332640E-006
  6.086822452354406E-004  8.463930851332640E-006
  6.170724017710819E-004  8.463930851332640E-006
  6.282410614622188E-004  8.463930851332640E-006
  6.410611999983146E-004  8.463930851332640E-006
  6.541342446418988E-004  8.463930851332640E-006
  6.593442597987419E-004  8.463930851332640E-006
  7.486286275367370E-004  8.463930851332640E-006
  7.612093316501948E-004  8.463930851332640E-006
  8.320878766210212E-004  8.463930851332640E-006
  1.038732996617454E-003  8.463930851332640E-006
  1.049516152053341E-003  8.463930851332640E-006
  1.052301352648371E-003  8.463930851332640E-006
  1.111993390415477E-003  8.463930851332640E-006
  1.114508953022926E-003  8.463930851332640E-006
  1.119423703098606E-003  8.463930851332640E-006
  1.124798910033490E-003  8.463930851332640E-006
  1.161066422685972E-003  8.463930851332640E-006
  1.161524342473124E-003  8.463930851332640E-006
  1.170259040700688E-003  8.463930851332640E-006
  1.170261213191257E-003  8.463930851332640E-006
  1.756766148731524E-003  8.463930851332640E-006
  1.757625451804582E-003  8.463930851332640E-006
  1.788083164253916E-003  8.463930851332640E-006
  1.975628043887917E-003  8.463930851332640E-006
  2.540669950668914E-003  8.463930851332640E-006
  2.646777466125556E-003  8.463930851332640E-006
  3.016140935836820E-003  8.463930851332640E-006
  3.182855948542838E-003  8.463930851332640E-006
  3.509390745282708E-003  8.463930851332640E-006
  3.606942394085755E-003  8.463930851332640E-006
  4.000841143319507E-003  8.463930851332640E-006
  4.010945858692723E-003  8.463930851332640E-006
 cut=1d-8, nber non-redundant internal coords=          66
 Check on Eigenvals of non-red overlap matrix:
  0.00000846  0.00000982  0.00002851  0.00003511  0.00003539  0.00004269  0.00004885  0.00005231
  0.00005594  0.00006522  0.00007280  0.00007856  0.00009181  0.00010120  0.00010302  0.00012397
  0.00013434  0.00015060  0.00018765  0.00021085  0.00022485  0.00025645  0.00029370  0.00031541
  0.00032639  0.00037868  0.00039220  0.00041610  0.00041831  0.00048552  0.00059308  0.00059313
  0.00059670  0.00059710  0.00060868  0.00061707  0.00062824  0.00064106  0.00065413  0.00065934
  0.00074863  0.00076121  0.00083209  0.00103873  0.00104952  0.00105230  0.00111199  0.00111451
  0.00111942  0.00112480  0.00116107  0.00116152  0.00117026  0.00117026  0.00175677  0.00175763
  0.00178808  0.00197563  0.00254067  0.00264678  0.00301614  0.00318286  0.00350939  0.00360694
  0.00400084  0.00401095
 Checking for correct frequencies
 recalc frequencies=
    -0.0   -0.0   -0.0   -0.0    0.0    0.0   90.9  121.0  235.6  235.8
   269.0  386.9  395.9  398.0  478.5  484.0  506.6  535.6  591.1  617.6
   642.4  661.3  740.4  758.9  763.3  769.6  781.9  820.9  844.0  865.9
   894.8  911.2  918.8  929.2  967.4  972.2  995.1  996.0 1026.2 1031.0
  1126.7 1158.7 1173.1 1188.6 1189.9 1210.6 1289.6 1290.6 1294.6 1339.0
  1375.8 1414.3 1414.6 1427.6 1482.0 1486.9 1516.7 1579.3 1593.7 1624.4
  1667.9 1670.3 3153.0 3155.1 3156.9 3157.8 3161.5 3163.0 3174.8 3175.1
  3187.0 3187.5
 recalc symmetries=
     B1u    B2u    B2g    B3u    B1g    B3g    B3u    Au     B1g    B1u
     B2g    B3u    B3g    Ag     B3u    B1g    Au     B3g    B2g    B2u
     Ag     B1u    B3u    Au     Ag     B1g    B2g    B2u    B2g    Au 
     B3u    B2g    B1u    B3g    B1g    B3u    Au     B2g    B2u    Ag 
     B3g    B2u    B1u    B2u    Ag     B3g    Ag     B1u    B3g    B1u
     B2u    B3g    B2u    Ag     B2u    B1u    Ag     B2u    Ag     B3g
     B3g    B1u    B1u    Ag     B3g    B1u    B2u    Ag     B3g    B1u
     B2u    Ag 
 recalc freqs check OK
 Zero-point lengths:
 10.0000 10.0000 10.0000 10.0000 10.0000 10.0000 26.0060 22.5395 16.1510 16.1439
 15.1150 12.6035 12.4593 12.4265 11.3338 11.2692 11.0146 10.7121 10.1966  9.9757
  9.7811  9.6406  9.1109  8.9991  8.9730  8.9365  8.8659  8.6529  8.5337  8.4248
  8.2876  8.2126  8.1788  8.1328  7.9705  7.9510  7.8590  7.8553  7.7388  7.7209
  7.3856  7.2829  7.2380  7.1908  7.1868  7.1251  6.9034  6.9007  6.8901  6.7750
  6.6837  6.5922  6.5913  6.5614  6.4398  6.4293  6.3657  6.2383  6.2100  6.1511
  6.0703  6.0659  4.4150  4.4136  4.4123  4.4117  4.4091  4.4081  4.3998  4.3996
  4.3914  4.3911
 highest evec of mol 1
  0.0000  0.0064 -0.0634
  0.0000  0.0027  0.0005
  0.0000  0.0000 -0.0093
  0.0000 -0.0027  0.0005
  0.0000 -0.0064 -0.0634
  0.0000  0.1175 -0.0660
  0.0000  0.1175  0.0660
  0.0000 -0.0064  0.0634
  0.0000 -0.0027 -0.0005
  0.0000  0.0000  0.0093
  0.0000  0.0027 -0.0005
  0.0000  0.0064  0.0634
  0.0000 -0.1175  0.0660
  0.0000 -0.1175 -0.0660
  0.0000 -0.0018  0.1977
  0.0000  0.0000  0.0312
  0.0000  0.0018  0.1977
  0.0000 -0.3774  0.2138
  0.0000 -0.3774 -0.2138
  0.0000  0.0018 -0.1977
  0.0000  0.0000 -0.0312
  0.0000 -0.0018 -0.1977
  0.0000  0.3774 -0.2138
  0.0000  0.3774  0.2138
 generating redundant internal coords
         300        3600          24
 Adding extra bonds for z output only
           6           6           6           6           6           6
           6           6           6           6           6           6
           6           6           1           1           1           1
           1           1           1           1           1           1
 search for int coords
   1 str   2   1   1.429
   2 str   3   2   1.398
   3 str   4   3   1.398
   4 str   5   4   1.429
   5 str   6   5   1.367
   6 str   7   6   1.424
   7 str   8   7   1.367
   8 str   9   4   1.443
   9 str   9   8   1.429
  10 str  10   9   1.398
  11 str  11   2   1.443
  12 str  11  10   1.398
  13 str  12  11   1.429
  14 str  13  12   1.367
  15 str  14   1   1.367
  16 str  14  13   1.424
  17 str  15   1   1.085
  18 str  16   3   1.086
  19 str  17   5   1.085
  20 str  18   6   1.084
  21 str  19   7   1.084
  22 str  20   8   1.085
  23 str  21  10   1.086
  24 str  22  12   1.085
  25 str  23  13   1.084
  26 str  24  14   1.084
 nber stretches=          26
  27 ben   1   2   3
  28 prop tor   1   2   3   4
  29 prop tor   1   2   3  16
  30 ben   1   2  11
  31 prop tor   1   2  11  10
  32 prop tor   1   2  11  12
  33 ben   1  14  13
  34 ben   1  14  24
  35 ben   2   1  14
  36 prop tor   2   1  14  13
  37 prop tor   2   1  14  24
  38 ben   2   1  15
  39 ben   2   3   4
  40 prop tor   2   3   4   5
  41 prop tor   2   3   4   9
  42 ben   2   3  16
  43 ben   2  11  10
  44 ben   2  11  12
  45 prop tor   2  11  12  13
  46 prop tor   2  11  12  22
  47 ben   3   2  11
  48 prop tor   3   2  11  10
  49 prop tor   3   2  11  12
  50 ben   3   4   5
  51 prop tor   3   4   5   6
  52 prop tor   3   4   5  17
  53 ben   3   4   9
  54 prop tor   3   4   9   8
  55 prop tor   3   4   9  10
  56 ben   4   3  16
  57 ben   4   5   6
  58 prop tor   4   5   6   7
  59 prop tor   4   5   6  18
  60 ben   4   5  17
  61 ben   4   9   8
  62 ben   4   9  10
  63 prop tor   4   9  10  11
  64 prop tor   4   9  10  21
  65 ben   5   4   9
  66 prop tor   5   4   9   8
  67 prop tor   5   4   9  10
  68 ben   5   6   7
  69 prop tor   5   6   7   8
  70 prop tor   5   6   7  19
  71 ben   5   6  18
  72 ben   6   5  17
  73 ben   6   7   8
  74 prop tor   6   7   8   9
  75 prop tor   6   7   8  20
  76 ben   6   7  19
  77 ben   7   6  18
  78 ben   7   8   9
  79 prop tor   7   8   9   4
  80 prop tor   7   8   9  10
  81 ben   7   8  20
  82 ben   8   7  19
  83 ben   8   9  10
  84 prop tor   8   9  10  11
  85 prop tor   8   9  10  21
  86 prop tor   9   4   5   6
  87 prop tor   9   4   5  17
  88 ben   9   8  20
  89 ben   9  10  11
  90 prop tor   9  10  11   2
  91 prop tor   9  10  11  12
  92 ben   9  10  21
  93 ben  10  11  12
  94 prop tor  10  11  12  13
  95 prop tor  10  11  12  22
  96 prop tor  11   2   3   4
  97 prop tor  11   2   3  16
  98 ben  11  10  21
  99 ben  11  12  13
 100 prop tor  11  12  13  14
 101 prop tor  11  12  13  23
 102 ben  11  12  22
 103 ben  12  13  14
 104 prop tor  12  13  14   1
 105 prop tor  12  13  14  24
 106 ben  12  13  23
 107 ben  13  12  22
 108 ben  13  14  24
 109 prop tor  14   1   2   3
 110 prop tor  14   1   2  11
 111 ben  14   1  15
 112 ben  14  13  23
 113 prop tor  15   1   2   3
 114 prop tor  15   1   2  11
 115 prop tor  15   1  14  13
 116 prop tor  15   1  14  24
 117 prop tor  16   3   4   5
 118 prop tor  16   3   4   9
 119 prop tor  17   5   6   7
 120 prop tor  17   5   6  18
 121 prop tor  18   6   7   8
 122 prop tor  18   6   7  19
 123 prop tor  19   7   8   9
 124 prop tor  19   7   8  20
 125 prop tor  20   8   9   4
 126 prop tor  20   8   9  10
 127 prop tor  21  10  11   2
 128 prop tor  21  10  11  12
 129 prop tor  22  12  13  14
 130 prop tor  22  12  13  23
 131 prop tor  23  13  14   1
 132 prop tor  23  13  14  24
 nber bend=              42
 nber lin bend=           0
 nber prop tor=          64
 nber impr tor=           0
 nber tot redund int=         132
 Reading file: 
 ./Benzene_Conj_2_C-1S0.log                                                     
                                          
  Entering Gaussian System, Link 0=g16                                          
  
 Gaussian format, type: g94, g98, g03= F F F
  #P Geom=AllCheck Guess=TCheck SCRF=Check GenChk UB3LYP/6-311G(d,p) Fre    
 energy type= B3LYP   
 Original G94 input coords:
  6  2.489352 -1.395859  0.000000
  6  1.239406 -0.725327  0.000000
  6  0.000000 -1.400935  0.000000
  6 -1.239406 -0.725327  0.000000
  6 -2.489352 -1.395859  0.000000
  6 -3.695923 -0.700728  0.000000
  6 -3.695923  0.700728  0.000000
  6 -2.489352  1.395859  0.000000
  6 -1.239406  0.725327  0.000000
  6  0.000000  1.400935  0.000000
  6  1.239406  0.725327  0.000000
  6  2.489352  1.395859  0.000000
  6  3.695923  0.700728  0.000000
  6  3.695923 -0.700728  0.000000
  1  2.489939 -2.483597  0.000000
  1  0.000000 -2.488899  0.000000
  1 -2.489939 -2.483597  0.000000
  1 -4.636388 -1.246168  0.000000
  1 -4.636388  1.246168  0.000000
  1 -2.489939  2.483597  0.000000
  1  0.000000  2.488899  0.000000
  1  2.489939  2.483597  0.000000
  1  4.636388  1.246168  0.000000
  1  4.636388 -1.246168  0.000000
 nber atoms=          24
 Original standard coords:
  6  0.000000  2.489352  1.395859
  6  0.000000  1.239406  0.725327
  6  0.000000  0.000000  1.400935
  6  0.000000 -1.239406  0.725327
  6  0.000000 -2.489352  1.395859
  6  0.000000 -3.695923  0.700728
  6  0.000000 -3.695923 -0.700728
  6  0.000000 -2.489352 -1.395859
  6  0.000000 -1.239406 -0.725327
  6  0.000000  0.000000 -1.400935
  6  0.000000  1.239406 -0.725327
  6  0.000000  2.489352 -1.395859
  6  0.000000  3.695923 -0.700728
  6  0.000000  3.695923  0.700728
  1  0.000000  2.489939  2.483597
  1  0.000000  0.000000  2.488899
  1  0.000000 -2.489939  2.483597
  1  0.000000 -4.636388  1.246168
  1  0.000000 -4.636388 -1.246168
  1  0.000000 -2.489939 -2.483597
  1  0.000000  0.000000 -2.488899
  1  0.000000  2.489939 -2.483597
  1  0.000000  4.636388 -1.246168
  1  0.000000  4.636388  1.246168
  SCF Done:  E(UB3LYP) =  -539.670647363     A.U. after    1 cycles             
  
          23          40 "  -539.670647363"
After scan for Atom:   Atom  AN      X      Y      Z        X      Y      Z        X      Y      Z   
After scan for Atom:   Atom  AN      X      Y      Z        X      Y      Z        X      Y      Z   
After scan for Atom:   Atom  AN      X      Y      Z        X      Y      Z        X      Y      Z   
After scan for Atom:   Atom  AN      X      Y      Z        X      Y      Z        X      Y      Z   
After scan for Atom:   Atom  AN      X      Y      Z        X      Y      Z        X      Y      Z   
After scan for Atom:   Atom  AN      X      Y      Z        X      Y      Z        X      Y      Z   
After scan for Atom:   Atom  AN      X      Y      Z        X      Y      Z        X      Y      Z   
After scan for Atom:   Atom  AN      X      Y      Z        X      Y      Z        X      Y      Z   
After scan for Atom:   Atom  AN      X      Y      Z        X      Y      Z        X      Y      Z   
After scan for Atom:   Atom  AN      X      Y      Z        X      Y      Z        X      Y      Z   
After scan for Atom:   Atom  AN      X      Y      Z        X      Y      Z        X      Y      Z   
After scan for Atom:   Atom  AN      X      Y      Z        X      Y      Z        X      Y      Z   
After scan for Atom:   Atom  AN      X      Y      Z        X      Y      Z        X      Y      Z   
After scan for Atom:   Atom  AN      X      Y      Z        X      Y      Z        X      Y      Z   
After scan for Atom:   Atom  AN      X      Y      Z        X      Y      Z        X      Y      Z   
After scan for Atom:   Atom  AN      X      Y      Z        X      Y      Z        X      Y      Z   
After scan for Atom:   Atom  AN      X      Y      Z        X      Y      Z        X      Y      Z   
After scan for Atom:   Atom  AN      X      Y      Z        X      Y      Z        X      Y      Z   
After scan for Atom:   Atom  AN      X      Y      Z        X      Y      Z        X      Y      Z   
After scan for Atom:   Atom  AN      X      Y      Z        X      Y      Z        X      Y      Z   
After scan for Atom:   Atom  AN      X      Y      Z        X      Y      Z        X      Y      Z   
After scan for Atom:   Atom  AN      X      Y      Z        X      Y      Z        X      Y      Z   
 g94    frequencies=
     0.0    0.0    0.0    0.0    0.0    0.0   91.0  114.7  235.3  250.8
   252.1  334.4  392.5  395.1  463.7  469.8  538.8  543.3  576.7  614.7
   628.4  661.6  685.2  714.3  726.1  740.4  747.8  752.4  768.5  808.2
   813.5  831.6  841.1  844.0  889.8  890.5  905.1  909.7 1042.6 1043.7
  1096.0 1134.5 1154.8 1168.1 1174.2 1197.3 1259.7 1275.1 1281.7 1292.1
  1355.3 1384.9 1399.4 1409.3 1457.7 1467.2 1493.2 1510.3 1548.2 1553.5
  1575.0 1592.0 3107.4 3107.7 3112.6 3115.4 3116.4 3121.7 3129.4 3130.5
  3146.2 3147.8
 g94    symmetries=
                                                B3     AU     B1     B1
      B2     B3     B3     AG     B3     B1     B3     AU     B2     B2
      AG     B1     B3     B1     AU     B2     AG     B2     B3     AU
      B2     B2     B1     B3     AU     B2     B1     B3     B2     AG
      B3     B1     B2     AG     B3     B2     AG     B3     B1     B1
      B2     AG     B3     B2     B1     B2     B3     AG     B2     B3
      AG     B1     B1     B3     AG     B1     B2     AG     B3     B1
      B2     AG
 atomic masses:
 12.0000 12.0000 12.0000 12.0000 12.0000 12.0000 12.0000 12.0000 12.0000 12.0000
 12.0000 12.0000 12.0000 12.0000  1.0078  1.0078  1.0078  1.0078  1.0078  1.0078
  1.0078  1.0078  1.0078  1.0078
 looking for force constants in 
 ./Benzene_Conj_2_C-1S0.fchk                                                    
  
 Cartesian Force Constants                  R   N=        2628                  
  
 n3=          72        2628
 g94-fc frequencies=
    -0.0   -0.0   -0.0    3.7    3.9    7.2   91.0  114.7  235.3  250.9
   252.1  334.4  392.5  395.1  463.7  469.8  538.8  543.3  576.8  614.7
   628.4  661.6  685.2  714.3  726.2  740.4  747.8  752.4  768.6  808.3
   813.5  831.6  841.2  844.0  889.8  890.6  905.2  909.7 1042.6 1043.8
  1096.0 1134.5 1154.8 1168.1 1174.3 1197.3 1259.7 1275.1 1281.7 1292.2
  1355.4 1385.0 1399.4 1409.4 1457.8 1467.3 1493.3 1510.3 1548.2 1553.6
  1575.0 1592.0 3107.5 3107.8 3112.6 3115.4 3116.4 3121.7 3129.5 3130.6
  3146.3 3147.9
 at 99999: n3=          72
 symm operator            1 :  T  nop=           1
 symm operator            2 :  T  nop=           2
 symm operator            3 :  T  nop=           3
 symm operator            4 :  T  nop=           4
 symm operator            5 :  T  nop=           5
 symm operator            6 :  T  nop=           6
 symm operator            7 :  T  nop=           7
 The point group of the molecule is D2H
 enforcing symm op           1  jsymt=          -1          -1           1
 enforcing symm op           2  jsymt=          -1           1          -1
 enforcing symm op           3  jsymt=           1          -1          -1
 enforcing symm op           4  jsymt=          -1          -1          -1
 enforcing symm op           5  jsymt=           1           1          -1
 enforcing symm op           6  jsymt=           1          -1           1
 enforcing symm op           7  jsymt=          -1           1           1
 cartesian coord symmetries:
 Ag :   12 Au :    5 B1g:    5 B1u:   12 B2g:    7 B2u:   12 B3g:   12 B3u:    7
 Symmetry rotation matrix:
   1.00000   0.00000   0.00000
   0.00000   1.00000   0.00000
   0.00000   0.00000   1.00000

 Projecting out zero-frequency components
 generating redundant internal coords
         300        3600          24
 search for int coords
   1 str   2   1   1.418
   2 str   3   2   1.412
   3 str   4   3   1.412
   4 str   5   4   1.418
   5 str   6   5   1.392
   6 str   7   6   1.401
   7 str   8   7   1.392
   8 str   9   4   1.451
   9 str   9   8   1.418
  10 str  10   9   1.412
  11 str  11   2   1.451
  12 str  11  10   1.412
  13 str  12  11   1.418
  14 str  13  12   1.392
  15 str  14   1   1.392
  16 str  14  13   1.401
  17 str  15   1   1.088
  18 str  16   3   1.088
  19 str  17   5   1.088
  20 str  18   6   1.087
  21 str  19   7   1.087
  22 str  20   8   1.088
  23 str  21  10   1.088
  24 str  22  12   1.088
  25 str  23  13   1.087
  26 str  24  14   1.087
 nber stretches=          26
  27 ben   1   2   3
  28 prop tor   1   2   3   4
  29 prop tor   1   2   3  16
  30 ben   1   2  11
  31 prop tor   1   2  11  10
  32 prop tor   1   2  11  12
  33 ben   1  14  13
  34 ben   1  14  24
  35 ben   2   1  14
  36 prop tor   2   1  14  13
  37 prop tor   2   1  14  24
  38 ben   2   1  15
  39 ben   2   3   4
  40 prop tor   2   3   4   5
  41 prop tor   2   3   4   9
  42 ben   2   3  16
  43 ben   2  11  10
  44 ben   2  11  12
  45 prop tor   2  11  12  13
  46 prop tor   2  11  12  22
  47 ben   3   2  11
  48 prop tor   3   2  11  10
  49 prop tor   3   2  11  12
  50 ben   3   4   5
  51 prop tor   3   4   5   6
  52 prop tor   3   4   5  17
  53 ben   3   4   9
  54 prop tor   3   4   9   8
  55 prop tor   3   4   9  10
  56 ben   4   3  16
  57 ben   4   5   6
  58 prop tor   4   5   6   7
  59 prop tor   4   5   6  18
  60 ben   4   5  17
  61 ben   4   9   8
  62 ben   4   9  10
  63 prop tor   4   9  10  11
  64 prop tor   4   9  10  21
  65 ben   5   4   9
  66 prop tor   5   4   9   8
  67 prop tor   5   4   9  10
  68 ben   5   6   7
  69 prop tor   5   6   7   8
  70 prop tor   5   6   7  19
  71 ben   5   6  18
  72 ben   6   5  17
  73 ben   6   7   8
  74 prop tor   6   7   8   9
  75 prop tor   6   7   8  20
  76 ben   6   7  19
  77 ben   7   6  18
  78 ben   7   8   9
  79 prop tor   7   8   9   4
  80 prop tor   7   8   9  10
  81 ben   7   8  20
  82 ben   8   7  19
  83 ben   8   9  10
  84 prop tor   8   9  10  11
  85 prop tor   8   9  10  21
  86 prop tor   9   4   5   6
  87 prop tor   9   4   5  17
  88 ben   9   8  20
  89 ben   9  10  11
  90 prop tor   9  10  11   2
  91 prop tor   9  10  11  12
  92 ben   9  10  21
  93 ben  10  11  12
  94 prop tor  10  11  12  13
  95 prop tor  10  11  12  22
  96 prop tor  11   2   3   4
  97 prop tor  11   2   3  16
  98 ben  11  10  21
  99 ben  11  12  13
 100 prop tor  11  12  13  14
 101 prop tor  11  12  13  23
 102 ben  11  12  22
 103 ben  12  13  14
 104 prop tor  12  13  14   1
 105 prop tor  12  13  14  24
 106 ben  12  13  23
 107 ben  13  12  22
 108 ben  13  14  24
 109 prop tor  14   1   2   3
 110 prop tor  14   1   2  11
 111 ben  14   1  15
 112 ben  14  13  23
 113 prop tor  15   1   2   3
 114 prop tor  15   1   2  11
 115 prop tor  15   1  14  13
 116 prop tor  15   1  14  24
 117 prop tor  16   3   4   5
 118 prop tor  16   3   4   9
 119 prop tor  17   5   6   7
 120 prop tor  17   5   6  18
 121 prop tor  18   6   7   8
 122 prop tor  18   6   7  19
 123 prop tor  19   7   8   9
 124 prop tor  19   7   8  20
 125 prop tor  20   8   9   4
 126 prop tor  20   8   9  10
 127 prop tor  21  10  11   2
 128 prop tor  21  10  11  12
 129 prop tor  22  12  13  14
 130 prop tor  22  12  13  23
 131 prop tor  23  13  14   1
 132 prop tor  23  13  14  24
 nber bend=              42
 nber lin bend=           0
 nber prop tor=          64
 nber impr tor=           0
 nber tot redund int=         132
 Eigenvalues of G in red int coords
    Gval -0.00000000 -0.00000000 -0.00000000 -0.00000000 -0.00000000 -0.00000000 -0.00000000 -0.00000000
    Gval -0.00000000 -0.00000000 -0.00000000 -0.00000000 -0.00000000 -0.00000000 -0.00000000 -0.00000000
    Gval -0.00000000 -0.00000000 -0.00000000 -0.00000000 -0.00000000 -0.00000000 -0.00000000 -0.00000000
    Gval -0.00000000 -0.00000000 -0.00000000 -0.00000000 -0.00000000 -0.00000000 -0.00000000 -0.00000000
    Gval -0.00000000 -0.00000000 -0.00000000 -0.00000000 -0.00000000  0.00000000  0.00000000  0.00000000
    Gval  0.00000000  0.00000000  0.00000000  0.00000000  0.00000000  0.00000000  0.00000000  0.00000000
    Gval  0.00000000  0.00000000  0.00000000  0.00000000  0.00000000  0.00000000  0.00000000  0.00000000
    Gval  0.00000000  0.00000000  0.00000000  0.00000000  0.00000000  0.00000000  0.00000000  0.00000000
    Gval  0.00000000  0.00000000  0.00000840  0.00000977  0.00002871  0.00003498  0.00003561  0.00004256
    Gval  0.00004841  0.00005273  0.00005597  0.00006513  0.00007292  0.00007856  0.00009151  0.00010049
    Gval  0.00010279  0.00012381  0.00013420  0.00014956  0.00018868  0.00020807  0.00022246  0.00025632
    Gval  0.00029346  0.00031340  0.00032659  0.00037843  0.00039057  0.00041078  0.00041725  0.00048780
    Gval  0.00059310  0.00059315  0.00059666  0.00059708  0.00060840  0.00061692  0.00062702  0.00064030
    Gval  0.00065356  0.00065874  0.00074771  0.00076828  0.00081542  0.00102562  0.00104442  0.00104731
    Gval  0.00110680  0.00111026  0.00111256  0.00111859  0.00115081  0.00115142  0.00116478  0.00116478
    Gval  0.00174970  0.00175009  0.00178480  0.00195487  0.00252390  0.00264278  0.00298080  0.00316337
    Gval  0.00346233  0.00356431  0.00398857  0.00399768
  8.399103654665220E-006  8.399103654665220E-006
  9.773626830087034E-006  8.399103654665220E-006
  2.871285897348852E-005  8.399103654665220E-006
  3.498485925505328E-005  8.399103654665220E-006
  3.560658602037719E-005  8.399103654665220E-006
  4.255899838193105E-005  8.399103654665220E-006
  4.841179627090343E-005  8.399103654665220E-006
  5.273337954695040E-005  8.399103654665220E-006
  5.596946590165941E-005  8.399103654665220E-006
  6.512863508550313E-005  8.399103654665220E-006
  7.291573284559771E-005  8.399103654665220E-006
  7.856048253874466E-005  8.399103654665220E-006
  9.151419332291218E-005  8.399103654665220E-006
  1.004889226114218E-004  8.399103654665220E-006
  1.027920347782280E-004  8.399103654665220E-006
  1.238089654869776E-004  8.399103654665220E-006
  1.342042796376531E-004  8.399103654665220E-006
  1.495626177349874E-004  8.399103654665220E-006
  1.886815285801896E-004  8.399103654665220E-006
  2.080679764073462E-004  8.399103654665220E-006
  2.224568989805129E-004  8.399103654665220E-006
  2.563165381422843E-004  8.399103654665220E-006
  2.934574223626501E-004  8.399103654665220E-006
  3.134028188650006E-004  8.399103654665220E-006
  3.265916922815395E-004  8.399103654665220E-006
  3.784271243454656E-004  8.399103654665220E-006
  3.905682186245682E-004  8.399103654665220E-006
  4.107797458520743E-004  8.399103654665220E-006
  4.172493976662811E-004  8.399103654665220E-006
  4.878022355930988E-004  8.399103654665220E-006
  5.931005162863864E-004  8.399103654665220E-006
  5.931513010830107E-004  8.399103654665220E-006
  5.966642374103630E-004  8.399103654665220E-006
  5.970837302852110E-004  8.399103654665220E-006
  6.084027772166147E-004  8.399103654665220E-006
  6.169239280502237E-004  8.399103654665220E-006
  6.270162841418658E-004  8.399103654665220E-006
  6.403047256494633E-004  8.399103654665220E-006
  6.535598893447822E-004  8.399103654665220E-006
  6.587371272363967E-004  8.399103654665220E-006
  7.477063709811261E-004  8.399103654665220E-006
  7.682799204405492E-004  8.399103654665220E-006
  8.154233218606964E-004  8.399103654665220E-006
  1.025622376549869E-003  8.399103654665220E-006
  1.044419859257151E-003  8.399103654665220E-006
  1.047311045603462E-003  8.399103654665220E-006
  1.106796293475338E-003  8.399103654665220E-006
  1.110257231911507E-003  8.399103654665220E-006
  1.112555035538724E-003  8.399103654665220E-006
  1.118585569318472E-003  8.399103654665220E-006
  1.150806437602362E-003  8.399103654665220E-006
  1.151415356721013E-003  8.399103654665220E-006
  1.164782749032478E-003  8.399103654665220E-006
  1.164783105756266E-003  8.399103654665220E-006
  1.749698619229272E-003  8.399103654665220E-006
  1.750089225062651E-003  8.399103654665220E-006
  1.784796073059953E-003  8.399103654665220E-006
  1.954873416079217E-003  8.399103654665220E-006
  2.523899326834142E-003  8.399103654665220E-006
  2.642777377235808E-003  8.399103654665220E-006
  2.980804772036153E-003  8.399103654665220E-006
  3.163368490080969E-003  8.399103654665220E-006
  3.462326988988793E-003  8.399103654665220E-006
  3.564306628991056E-003  8.399103654665220E-006
  3.988565651623573E-003  8.399103654665220E-006
  3.997681540421434E-003  8.399103654665220E-006
 cut=1d-8, nber non-redundant internal coords=          66
 Check on Eigenvals of non-red overlap matrix:
  0.00000840  0.00000977  0.00002871  0.00003498  0.00003561  0.00004256  0.00004841  0.00005273
  0.00005597  0.00006513  0.00007292  0.00007856  0.00009151  0.00010049  0.00010279  0.00012381
  0.00013420  0.00014956  0.00018868  0.00020807  0.00022246  0.00025632  0.00029346  0.00031340
  0.00032659  0.00037843  0.00039057  0.00041078  0.00041725  0.00048780  0.00059310  0.00059315
  0.00059666  0.00059708  0.00060840  0.00061692  0.00062702  0.00064030  0.00065356  0.00065874
  0.00074771  0.00076828  0.00081542  0.00102562  0.00104442  0.00104731  0.00110680  0.00111026
  0.00111256  0.00111859  0.00115081  0.00115142  0.00116478  0.00116478  0.00174970  0.00175009
  0.00178480  0.00195487  0.00252390  0.00264278  0.00298080  0.00316337  0.00346233  0.00356431
  0.00398857  0.00399768
 Checking for correct frequencies
 recalc frequencies=
    -0.0   -0.0   -0.0   -0.0   -0.0   -0.0   91.0  114.7  235.3  250.9
   252.1  334.4  392.5  395.1  463.7  469.8  538.8  543.3  576.8  614.7
   628.4  661.6  685.2  714.3  726.2  740.4  747.8  752.4  768.6  808.3
   813.5  831.6  841.2  844.0  889.8  890.6  905.2  909.7 1042.6 1043.8
  1096.0 1134.5 1154.8 1168.1 1174.3 1197.3 1259.7 1275.1 1281.7 1292.2
  1355.4 1385.0 1399.4 1409.4 1457.8 1467.3 1493.3 1510.3 1548.2 1553.6
  1575.0 1592.0 3107.5 3107.8 3112.6 3115.4 3116.4 3121.7 3129.5 3130.6
  3146.3 3147.9
 recalc symmetries=
     B2u    B1u    B3g    B2g    B1g    B3u    B3u    Au     B1u    B1g
     B2g    B3u    B3g    Ag     B3u    B1g    B3g    Au     B2g    B2u
     Ag     B1u    B3u    B1g    Au     B2g    Ag     B2g    B3u    Au 
     B2u    B2g    B1g    B3u    Au     B2g    B1u    B3g    B2u    Ag 
     B3g    B1u    B2u    Ag     B3g    B2u    Ag     B3g    B1u    B1u
     B2u    Ag     B3g    B2u    B1u    B2u    B3g    Ag     B2u    B3g
     Ag     B1u    B1u    B3g    Ag     B1u    B2u    Ag     B3g    B1u
     B2u    Ag 
 recalc freqs check OK
 Zero-point lengths:
 10.0000 10.0000 10.0000 10.0000 10.0000 10.0000 25.9924 23.1442 16.1620 15.6525
 15.6139 13.5570 12.5127 12.4723 11.5122 11.4379 10.6802 10.6355 10.3228  9.9993
  9.8892  9.6384  9.4708  9.2760  9.1999  9.1107  9.0659  9.0380  8.9424  8.7201
  8.6921  8.5970  8.5479  8.5335  8.3108  8.3074  8.2401  8.2196  7.6778  7.6735
  7.4884  7.3603  7.2952  7.2537  7.2345  7.1646  6.9849  6.9426  6.9247  6.8966
  6.7339  6.6615  6.6270  6.6036  6.4931  6.4720  6.4155  6.3792  6.3005  6.2897
  6.2468  6.2134  4.4472  4.4470  4.4436  4.4416  4.4409  4.4371  4.4316  4.4308
  4.4197  4.4186
 highest evec of mol 2
  0.0000  0.0052 -0.0731
  0.0000  0.0021  0.0001
  0.0000  0.0000 -0.0241
  0.0000 -0.0021  0.0001
  0.0000 -0.0052 -0.0731
  0.0000  0.1097 -0.0657
  0.0000  0.1097  0.0657
  0.0000 -0.0052  0.0731
  0.0000 -0.0021 -0.0001
  0.0000  0.0000  0.0241
  0.0000  0.0021 -0.0001
  0.0000  0.0052  0.0731
  0.0000 -0.1097  0.0657
  0.0000 -0.1097 -0.0657
  0.0000 -0.0016  0.2354
  0.0000  0.0000  0.0809
  0.0000  0.0016  0.2354
  0.0000 -0.3554  0.2073
  0.0000 -0.3554 -0.2073
  0.0000  0.0016 -0.2354
  0.0000  0.0000 -0.0809
  0.0000 -0.0016 -0.2354
  0.0000  0.3554 -0.2073
  0.0000  0.3554  0.2073
 Enter nber and list of atoms to keep of mol #2
 keep list:          24           1           2           3           4
           5           6           7           8           9          10
          11          12          13          14          15          16
          17          18          19          20          21          22
          23          24
 reordering atoms
           1   2.48935200000000     
           2   1.23940600000000     
           3  8.458842092382145E-017
           4  -1.23940600000000     
           5  -2.48935200000000     
           6  -3.69592300000000     
           7  -3.69592300000000     
           8  -2.48935200000000     
           9  -1.23940600000000     
          10  8.458842092382145E-017
          11   1.23940600000000     
          12   2.48935200000000     
          13   3.69592300000000     
          14   3.69592300000000     
          15   2.48993900000000     
          16  8.458842092382145E-017
          17  -2.48993900000000     
          18  -4.63638800000000     
          19  -4.63638800000000     
          20  -2.48993900000000     
          21  8.458842092382145E-017
          22   2.48993900000000     
          23   4.63638800000000     
          24   4.63638800000000     
           1           1
           2           2
           3           3
           4           4
           5           5
           6           6
           7           7
           8           8
           9           9
          10          10
          11          11
          12          12
          13          13
          14          14
          15          15
          16          16
          17          17
          18          18
          19          19
          20          20
          21          21
          22          22
          23          23
          24          24
 initial cartes coords mol 1
   6   0.00000   1.40483   2.47671
   6   0.00000   0.72155   1.22187
   6   0.00000   1.40160   0.00000
   6   0.00000   0.72155  -1.22187
   6   0.00000   1.40483  -2.47671
   6   0.00000   0.71222  -3.65489
   6   0.00000  -0.71222  -3.65489
   6   0.00000  -1.40483  -2.47671
   6   0.00000  -0.72155  -1.22187
   6   0.00000  -1.40160   0.00000
   6   0.00000  -0.72155   1.22187
   6   0.00000  -1.40483   2.47671
   6   0.00000  -0.71222   3.65489
   6   0.00000   0.71222   3.65489
   1   0.00000   2.48989   2.47615
   1   0.00000   2.48750   0.00000
   1   0.00000   2.48989  -2.47615
   1   0.00000   1.24447  -4.59942
   1   0.00000  -1.24447  -4.59942
   1   0.00000  -2.48989  -2.47615
   1   0.00000  -2.48750   0.00000
   1   0.00000  -2.48989   2.47615
   1   0.00000  -1.24447   4.59942
   1   0.00000   1.24447   4.59942
 initial cartes coords mol 2
   6   0.00000   1.39586   2.48935
   6   0.00000   0.72533   1.23941
   6   0.00000   1.40094   0.00000
   6   0.00000   0.72533  -1.23941
   6   0.00000   1.39586  -2.48935
   6   0.00000   0.70073  -3.69592
   6   0.00000  -0.70073  -3.69592
   6   0.00000  -1.39586  -2.48935
   6   0.00000  -0.72533  -1.23941
   6   0.00000  -1.40094   0.00000
   6   0.00000  -0.72533   1.23941
   6   0.00000  -1.39586   2.48935
   6   0.00000  -0.70073   3.69592
   6   0.00000   0.70073   3.69592
   1   0.00000   2.48360   2.48994
   1   0.00000   2.48890   0.00000
   1   0.00000   2.48360  -2.48994
   1   0.00000   1.24617  -4.63639
   1   0.00000  -1.24617  -4.63639
   1   0.00000  -2.48360  -2.48994
   1   0.00000  -2.48890   0.00000
   1   0.00000  -2.48360   2.48994
   1   0.00000  -1.24617   4.63639
   1   0.00000   1.24617   4.63639
 loop 1 0
 mod cartes coords mol 2
   6   0.00000   1.39586   2.48935
   6   0.00000   0.72533   1.23941
   6   0.00000   1.40094   0.00000
   6   0.00000   0.72533  -1.23941
   6   0.00000   1.39586  -2.48935
   6   0.00000   0.70073  -3.69592
   6   0.00000  -0.70073  -3.69592
   6   0.00000  -1.39586  -2.48935
   6   0.00000  -0.72533  -1.23941
   6   0.00000  -1.40094   0.00000
   6   0.00000  -0.72533   1.23941
   6   0.00000  -1.39586   2.48935
   6   0.00000  -0.70073   3.69592
   6   0.00000   0.70073   3.69592
   1   0.00000   2.48360   2.48994
   1   0.00000   2.48890   0.00000
   1   0.00000   2.48360  -2.48994
   1   0.00000   1.24617  -4.63639
   1   0.00000  -1.24617  -4.63639
   1   0.00000  -2.48360  -2.48994
   1   0.00000  -2.48890   0.00000
   1   0.00000  -2.48360   2.48994
   1   0.00000  -1.24617   4.63639
   1   0.00000   1.24617   4.63639
 read in order, maxerr=  0.04 for atom   7
 final axis swaps:           1           1           1
 final xyz swap pattern=           1
 reorder list:
   1   2   3   4   5   6   7   8   9  10  11  12  13  14  15  16  17  18  19  20
  21  22  23  24
 axis signs=           1           1           1
  6     0.000000  1.395859  2.489352     0.000000  1.404830  2.476712
  6     0.000000  0.725327  1.239406     0.000000  0.721547  1.221874
  6     0.000000  1.400935  0.000000     0.000000  1.401596  0.000000
  6     0.000000  0.725327 -1.239406     0.000000  0.721547 -1.221874
  6     0.000000  1.395859 -2.489352     0.000000  1.404830 -2.476712
  6     0.000000  0.700728 -3.695923     0.000000  0.712222 -3.654888
  6     0.000000 -0.700728 -3.695923     0.000000 -0.712222 -3.654888
  6     0.000000 -1.395859 -2.489352     0.000000 -1.404830 -2.476712
  6     0.000000 -0.725327 -1.239406     0.000000 -0.721547 -1.221874
  6     0.000000 -1.400935  0.000000     0.000000 -1.401596  0.000000
  6     0.000000 -0.725327  1.239406     0.000000 -0.721547  1.221874
  6     0.000000 -1.395859  2.489352     0.000000 -1.404830  2.476712
  6     0.000000 -0.700728  3.695923     0.000000 -0.712222  3.654888
  6     0.000000  0.700728  3.695923     0.000000  0.712222  3.654888
  1     0.000000  2.483597  2.489939     0.000000  2.489888  2.476147
  1     0.000000  2.488899  0.000000     0.000000  2.487504  0.000000
  1     0.000000  2.483597 -2.489939     0.000000  2.489888 -2.476147
  1     0.000000  1.246168 -4.636388     0.000000  1.244469 -4.599423
  1     0.000000 -1.246168 -4.636388     0.000000 -1.244469 -4.599423
  1     0.000000 -2.483597 -2.489939     0.000000 -2.489888 -2.476147
  1     0.000000 -2.488899  0.000000     0.000000 -2.487504  0.000000
  1     0.000000 -2.483597  2.489939     0.000000 -2.489888  2.476147
  1     0.000000 -1.246168  4.636388     0.000000 -1.244469  4.599423
  1     0.000000  1.246168  4.636388     0.000000  1.244469  4.599423
 generating redundant internal coords
         300        3600          24
 Adding extra bonds for z output only
           6           6           6           6           6           6
           6           6           6           6           6           6
           6           6           1           1           1           1
           1           1           1           1           1           1
 search for int coords
   1 str   2   1   1.418
   2 str   3   2   1.412
   3 str   4   3   1.412
   4 str   5   4   1.418
   5 str   6   5   1.392
   6 str   7   6   1.401
   7 str   8   7   1.392
   8 str   9   4   1.451
   9 str   9   8   1.418
  10 str  10   9   1.412
  11 str  11   2   1.451
  12 str  11  10   1.412
  13 str  12  11   1.418
  14 str  13  12   1.392
  15 str  14   1   1.392
  16 str  14  13   1.401
  17 str  15   1   1.088
  18 str  16   3   1.088
  19 str  17   5   1.088
  20 str  18   6   1.087
  21 str  19   7   1.087
  22 str  20   8   1.088
  23 str  21  10   1.088
  24 str  22  12   1.088
  25 str  23  13   1.087
  26 str  24  14   1.087
 nber stretches=          26
  27 ben   1   2   3
  28 prop tor   1   2   3   4
  29 prop tor   1   2   3  16
  30 ben   1   2  11
  31 prop tor   1   2  11  10
  32 prop tor   1   2  11  12
  33 ben   1  14  13
  34 ben   1  14  24
  35 ben   2   1  14
  36 prop tor   2   1  14  13
  37 prop tor   2   1  14  24
  38 ben   2   1  15
  39 ben   2   3   4
  40 prop tor   2   3   4   5
  41 prop tor   2   3   4   9
  42 ben   2   3  16
  43 ben   2  11  10
  44 ben   2  11  12
  45 prop tor   2  11  12  13
  46 prop tor   2  11  12  22
  47 ben   3   2  11
  48 prop tor   3   2  11  10
  49 prop tor   3   2  11  12
  50 ben   3   4   5
  51 prop tor   3   4   5   6
  52 prop tor   3   4   5  17
  53 ben   3   4   9
  54 prop tor   3   4   9   8
  55 prop tor   3   4   9  10
  56 ben   4   3  16
  57 ben   4   5   6
  58 prop tor   4   5   6   7
  59 prop tor   4   5   6  18
  60 ben   4   5  17
  61 ben   4   9   8
  62 ben   4   9  10
  63 prop tor   4   9  10  11
  64 prop tor   4   9  10  21
  65 ben   5   4   9
  66 prop tor   5   4   9   8
  67 prop tor   5   4   9  10
  68 ben   5   6   7
  69 prop tor   5   6   7   8
  70 prop tor   5   6   7  19
  71 ben   5   6  18
  72 ben   6   5  17
  73 ben   6   7   8
  74 prop tor   6   7   8   9
  75 prop tor   6   7   8  20
  76 ben   6   7  19
  77 ben   7   6  18
  78 ben   7   8   9
  79 prop tor   7   8   9   4
  80 prop tor   7   8   9  10
  81 ben   7   8  20
  82 ben   8   7  19
  83 ben   8   9  10
  84 prop tor   8   9  10  11
  85 prop tor   8   9  10  21
  86 prop tor   9   4   5   6
  87 prop tor   9   4   5  17
  88 ben   9   8  20
  89 ben   9  10  11
  90 prop tor   9  10  11   2
  91 prop tor   9  10  11  12
  92 ben   9  10  21
  93 ben  10  11  12
  94 prop tor  10  11  12  13
  95 prop tor  10  11  12  22
  96 prop tor  11   2   3   4
  97 prop tor  11   2   3  16
  98 ben  11  10  21
  99 ben  11  12  13
 100 prop tor  11  12  13  14
 101 prop tor  11  12  13  23
 102 ben  11  12  22
 103 ben  12  13  14
 104 prop tor  12  13  14   1
 105 prop tor  12  13  14  24
 106 ben  12  13  23
 107 ben  13  12  22
 108 ben  13  14  24
 109 prop tor  14   1   2   3
 110 prop tor  14   1   2  11
 111 ben  14   1  15
 112 ben  14  13  23
 113 prop tor  15   1   2   3
 114 prop tor  15   1   2  11
 115 prop tor  15   1  14  13
 116 prop tor  15   1  14  24
 117 prop tor  16   3   4   5
 118 prop tor  16   3   4   9
 119 prop tor  17   5   6   7
 120 prop tor  17   5   6  18
 121 prop tor  18   6   7   8
 122 prop tor  18   6   7  19
 123 prop tor  19   7   8   9
 124 prop tor  19   7   8  20
 125 prop tor  20   8   9   4
 126 prop tor  20   8   9  10
 127 prop tor  21  10  11   2
 128 prop tor  21  10  11  12
 129 prop tor  22  12  13  14
 130 prop tor  22  12  13  23
 131 prop tor  23  13  14   1
 132 prop tor  23  13  14  24
 nber bend=              42
 nber lin bend=           0
 nber prop tor=          64
 nber impr tor=           0
 nber tot redund int=         132
 generating redundant internal coords
         300        3600          24
 search for int coords
   1 str   2   1   1.429
   2 str   3   2   1.398
   3 str   4   3   1.398
   4 str   5   4   1.429
   5 str   6   5   1.367
   6 str   7   6   1.424
   7 str   8   7   1.367
   8 str   9   4   1.443
   9 str   9   8   1.429
  10 str  10   9   1.398
  11 str  11   2   1.443
  12 str  11  10   1.398
  13 str  12  11   1.429
  14 str  13  12   1.367
  15 str  14   1   1.367
  16 str  14  13   1.424
  17 str  15   1   1.085
  18 str  16   3   1.086
  19 str  17   5   1.085
  20 str  18   6   1.084
  21 str  19   7   1.084
  22 str  20   8   1.085
  23 str  21  10   1.086
  24 str  22  12   1.085
  25 str  23  13   1.084
  26 str  24  14   1.084
 nber stretches=          26
  27 ben   1   2   3
  28 prop tor   1   2   3   4
  29 prop tor   1   2   3  16
  30 ben   1   2  11
  31 prop tor   1   2  11  10
  32 prop tor   1   2  11  12
  33 ben   1  14  13
  34 ben   1  14  24
  35 ben   2   1  14
  36 prop tor   2   1  14  13
  37 prop tor   2   1  14  24
  38 ben   2   1  15
  39 ben   2   3   4
  40 prop tor   2   3   4   5
  41 prop tor   2   3   4   9
  42 ben   2   3  16
  43 ben   2  11  10
  44 ben   2  11  12
  45 prop tor   2  11  12  13
  46 prop tor   2  11  12  22
  47 ben   3   2  11
  48 prop tor   3   2  11  10
  49 prop tor   3   2  11  12
  50 ben   3   4   5
  51 prop tor   3   4   5   6
  52 prop tor   3   4   5  17
  53 ben   3   4   9
  54 prop tor   3   4   9   8
  55 prop tor   3   4   9  10
  56 ben   4   3  16
  57 ben   4   5   6
  58 prop tor   4   5   6   7
  59 prop tor   4   5   6  18
  60 ben   4   5  17
  61 ben   4   9   8
  62 ben   4   9  10
  63 prop tor   4   9  10  11
  64 prop tor   4   9  10  21
  65 ben   5   4   9
  66 prop tor   5   4   9   8
  67 prop tor   5   4   9  10
  68 ben   5   6   7
  69 prop tor   5   6   7   8
  70 prop tor   5   6   7  19
  71 ben   5   6  18
  72 ben   6   5  17
  73 ben   6   7   8
  74 prop tor   6   7   8   9
  75 prop tor   6   7   8  20
  76 ben   6   7  19
  77 ben   7   6  18
  78 ben   7   8   9
  79 prop tor   7   8   9   4
  80 prop tor   7   8   9  10
  81 ben   7   8  20
  82 ben   8   7  19
  83 ben   8   9  10
  84 prop tor   8   9  10  11
  85 prop tor   8   9  10  21
  86 prop tor   9   4   5   6
  87 prop tor   9   4   5  17
  88 ben   9   8  20
  89 ben   9  10  11
  90 prop tor   9  10  11   2
  91 prop tor   9  10  11  12
  92 ben   9  10  21
  93 ben  10  11  12
  94 prop tor  10  11  12  13
  95 prop tor  10  11  12  22
  96 prop tor  11   2   3   4
  97 prop tor  11   2   3  16
  98 ben  11  10  21
  99 ben  11  12  13
 100 prop tor  11  12  13  14
 101 prop tor  11  12  13  23
 102 ben  11  12  22
 103 ben  12  13  14
 104 prop tor  12  13  14   1
 105 prop tor  12  13  14  24
 106 ben  12  13  23
 107 ben  13  12  22
 108 ben  13  14  24
 109 prop tor  14   1   2   3
 110 prop tor  14   1   2  11
 111 ben  14   1  15
 112 ben  14  13  23
 113 prop tor  15   1   2   3
 114 prop tor  15   1   2  11
 115 prop tor  15   1  14  13
 116 prop tor  15   1  14  24
 117 prop tor  16   3   4   5
 118 prop tor  16   3   4   9
 119 prop tor  17   5   6   7
 120 prop tor  17   5   6  18
 121 prop tor  18   6   7   8
 122 prop tor  18   6   7  19
 123 prop tor  19   7   8   9
 124 prop tor  19   7   8  20
 125 prop tor  20   8   9   4
 126 prop tor  20   8   9  10
 127 prop tor  21  10  11   2
 128 prop tor  21  10  11  12
 129 prop tor  22  12  13  14
 130 prop tor  22  12  13  23
 131 prop tor  23  13  14   1
 132 prop tor  23  13  14  24
 nber bend=              42
 nber lin bend=           0
 nber prop tor=          64
 nber impr tor=           0
 nber tot redund int=         132
 Eigenvalues of G in red int coords
    Gval -0.00000000 -0.00000000 -0.00000000 -0.00000000 -0.00000000 -0.00000000 -0.00000000 -0.00000000
    Gval -0.00000000 -0.00000000 -0.00000000 -0.00000000 -0.00000000 -0.00000000 -0.00000000 -0.00000000
    Gval -0.00000000 -0.00000000 -0.00000000 -0.00000000 -0.00000000 -0.00000000 -0.00000000 -0.00000000
    Gval -0.00000000 -0.00000000 -0.00000000 -0.00000000 -0.00000000 -0.00000000 -0.00000000 -0.00000000
    Gval  0.00000000  0.00000000  0.00000000  0.00000000  0.00000000  0.00000000  0.00000000  0.00000000
    Gval  0.00000000  0.00000000  0.00000000  0.00000000  0.00000000  0.00000000  0.00000000  0.00000000
    Gval  0.00000000  0.00000000  0.00000000  0.00000000  0.00000000  0.00000000  0.00000000  0.00000000
    Gval  0.00000000  0.00000000  0.00000000  0.00000000  0.00000000  0.00000000  0.00000000  0.00000000
    Gval  0.00000000  0.00000000  0.00000846  0.00000982  0.00002851  0.00003511  0.00003539  0.00004269
    Gval  0.00004885  0.00005231  0.00005594  0.00006522  0.00007280  0.00007856  0.00009181  0.00010120
    Gval  0.00010302  0.00012397  0.00013434  0.00015060  0.00018765  0.00021085  0.00022485  0.00025645
    Gval  0.00029370  0.00031541  0.00032639  0.00037868  0.00039220  0.00041610  0.00041831  0.00048552
    Gval  0.00059308  0.00059313  0.00059670  0.00059710  0.00060868  0.00061707  0.00062824  0.00064106
    Gval  0.00065413  0.00065934  0.00074863  0.00076121  0.00083209  0.00103873  0.00104952  0.00105230
    Gval  0.00111199  0.00111451  0.00111942  0.00112480  0.00116107  0.00116152  0.00117026  0.00117026
    Gval  0.00175677  0.00175763  0.00178808  0.00197563  0.00254067  0.00264678  0.00301614  0.00318286
    Gval  0.00350939  0.00360694  0.00400084  0.00401095
  8.463930851332618E-006  8.463930851332618E-006
  9.823130745050815E-006  8.463930851332618E-006
  2.850987358778998E-005  8.463930851332618E-006
  3.510553257233437E-005  8.463930851332618E-006
  3.539413200312129E-005  8.463930851332618E-006
  4.268560679062900E-005  8.463930851332618E-006
  4.885059977326796E-005  8.463930851332618E-006
  5.231485510954214E-005  8.463930851332618E-006
  5.594453154776134E-005  8.463930851332618E-006
  6.522243219904759E-005  8.463930851332618E-006
  7.280397292825080E-005  8.463930851332618E-006
  7.855903666172605E-005  8.463930851332618E-006
  9.181469992213255E-005  8.463930851332618E-006
  1.011985956840578E-004  8.463930851332618E-006
  1.030158213504332E-004  8.463930851332618E-006
  1.239728214057766E-004  8.463930851332618E-006
  1.343376718354549E-004  8.463930851332618E-006
  1.506040725092548E-004  8.463930851332618E-006
  1.876462766705876E-004  8.463930851332618E-006
  2.108452889573023E-004  8.463930851332618E-006
  2.248453018731648E-004  8.463930851332618E-006
  2.564460044260418E-004  8.463930851332618E-006
  2.937029626585698E-004  8.463930851332618E-006
  3.154084661614617E-004  8.463930851332618E-006
  3.263909123945712E-004  8.463930851332618E-006
  3.786818951235358E-004  8.463930851332618E-006
  3.922036074954680E-004  8.463930851332618E-006
  4.161049937720921E-004  8.463930851332618E-006
  4.183110827734626E-004  8.463930851332618E-006
  4.855187769942207E-004  8.463930851332618E-006
  5.930837838646400E-004  8.463930851332618E-006
  5.931347710173090E-004  8.463930851332618E-006
  5.967019631275283E-004  8.463930851332618E-006
  5.971041248245501E-004  8.463930851332618E-006
  6.086822452354402E-004  8.463930851332618E-006
  6.170724017710820E-004  8.463930851332618E-006
  6.282410614622196E-004  8.463930851332618E-006
  6.410611999983148E-004  8.463930851332618E-006
  6.541342446418988E-004  8.463930851332618E-006
  6.593442597987424E-004  8.463930851332618E-006
  7.486286275367384E-004  8.463930851332618E-006
  7.612093316501937E-004  8.463930851332618E-006
  8.320878766210228E-004  8.463930851332618E-006
  1.038732996617453E-003  8.463930851332618E-006
  1.049516152053341E-003  8.463930851332618E-006
  1.052301352648371E-003  8.463930851332618E-006
  1.111993390415478E-003  8.463930851332618E-006
  1.114508953022927E-003  8.463930851332618E-006
  1.119423703098606E-003  8.463930851332618E-006
  1.124798910033492E-003  8.463930851332618E-006
  1.161066422685971E-003  8.463930851332618E-006
  1.161524342473123E-003  8.463930851332618E-006
  1.170259040700688E-003  8.463930851332618E-006
  1.170261213191258E-003  8.463930851332618E-006
  1.756766148731524E-003  8.463930851332618E-006
  1.757625451804580E-003  8.463930851332618E-006
  1.788083164253915E-003  8.463930851332618E-006
  1.975628043887922E-003  8.463930851332618E-006
  2.540669950668908E-003  8.463930851332618E-006
  2.646777466125553E-003  8.463930851332618E-006
  3.016140935836811E-003  8.463930851332618E-006
  3.182855948542820E-003  8.463930851332618E-006
  3.509390745282693E-003  8.463930851332618E-006
  3.606942394085753E-003  8.463930851332618E-006
  4.000841143319503E-003  8.463930851332618E-006
  4.010945858692719E-003  8.463930851332618E-006
 cut=1d-8, nber non-redundant internal coords=          66
 Check on Eigenvals of non-red overlap matrix:
  0.00000846  0.00000982  0.00002851  0.00003511  0.00003539  0.00004269  0.00004885  0.00005231
  0.00005594  0.00006522  0.00007280  0.00007856  0.00009181  0.00010120  0.00010302  0.00012397
  0.00013434  0.00015060  0.00018765  0.00021085  0.00022485  0.00025645  0.00029370  0.00031541
  0.00032639  0.00037868  0.00039220  0.00041610  0.00041831  0.00048552  0.00059308  0.00059313
  0.00059670  0.00059710  0.00060868  0.00061707  0.00062824  0.00064106  0.00065413  0.00065934
  0.00074863  0.00076121  0.00083209  0.00103873  0.00104952  0.00105230  0.00111199  0.00111451
  0.00111942  0.00112480  0.00116107  0.00116152  0.00117026  0.00117026  0.00175677  0.00175763
  0.00178808  0.00197563  0.00254067  0.00264678  0.00301614  0.00318286  0.00350939  0.00360694
  0.00400084  0.00401095
 generating redundant internal coords
         300        3600          24
 search for int coords
   1 str   2   1   1.418
   2 str   3   2   1.412
   3 str   4   3   1.412
   4 str   5   4   1.418
   5 str   6   5   1.392
   6 str   7   6   1.401
   7 str   8   7   1.392
   8 str   9   4   1.451
   9 str   9   8   1.418
  10 str  10   9   1.412
  11 str  11   2   1.451
  12 str  11  10   1.412
  13 str  12  11   1.418
  14 str  13  12   1.392
  15 str  14   1   1.392
  16 str  14  13   1.401
  17 str  15   1   1.088
  18 str  16   3   1.088
  19 str  17   5   1.088
  20 str  18   6   1.087
  21 str  19   7   1.087
  22 str  20   8   1.088
  23 str  21  10   1.088
  24 str  22  12   1.088
  25 str  23  13   1.087
  26 str  24  14   1.087
 nber stretches=          26
  27 ben   1   2   3
  28 prop tor   1   2   3   4
  29 prop tor   1   2   3  16
  30 ben   1   2  11
  31 prop tor   1   2  11  10
  32 prop tor   1   2  11  12
  33 ben   1  14  13
  34 ben   1  14  24
  35 ben   2   1  14
  36 prop tor   2   1  14  13
  37 prop tor   2   1  14  24
  38 ben   2   1  15
  39 ben   2   3   4
  40 prop tor   2   3   4   5
  41 prop tor   2   3   4   9
  42 ben   2   3  16
  43 ben   2  11  10
  44 ben   2  11  12
  45 prop tor   2  11  12  13
  46 prop tor   2  11  12  22
  47 ben   3   2  11
  48 prop tor   3   2  11  10
  49 prop tor   3   2  11  12
  50 ben   3   4   5
  51 prop tor   3   4   5   6
  52 prop tor   3   4   5  17
  53 ben   3   4   9
  54 prop tor   3   4   9   8
  55 prop tor   3   4   9  10
  56 ben   4   3  16
  57 ben   4   5   6
  58 prop tor   4   5   6   7
  59 prop tor   4   5   6  18
  60 ben   4   5  17
  61 ben   4   9   8
  62 ben   4   9  10
  63 prop tor   4   9  10  11
  64 prop tor   4   9  10  21
  65 ben   5   4   9
  66 prop tor   5   4   9   8
  67 prop tor   5   4   9  10
  68 ben   5   6   7
  69 prop tor   5   6   7   8
  70 prop tor   5   6   7  19
  71 ben   5   6  18
  72 ben   6   5  17
  73 ben   6   7   8
  74 prop tor   6   7   8   9
  75 prop tor   6   7   8  20
  76 ben   6   7  19
  77 ben   7   6  18
  78 ben   7   8   9
  79 prop tor   7   8   9   4
  80 prop tor   7   8   9  10
  81 ben   7   8  20
  82 ben   8   7  19
  83 ben   8   9  10
  84 prop tor   8   9  10  11
  85 prop tor   8   9  10  21
  86 prop tor   9   4   5   6
  87 prop tor   9   4   5  17
  88 ben   9   8  20
  89 ben   9  10  11
  90 prop tor   9  10  11   2
  91 prop tor   9  10  11  12
  92 ben   9  10  21
  93 ben  10  11  12
  94 prop tor  10  11  12  13
  95 prop tor  10  11  12  22
  96 prop tor  11   2   3   4
  97 prop tor  11   2   3  16
  98 ben  11  10  21
  99 ben  11  12  13
 100 prop tor  11  12  13  14
 101 prop tor  11  12  13  23
 102 ben  11  12  22
 103 ben  12  13  14
 104 prop tor  12  13  14   1
 105 prop tor  12  13  14  24
 106 ben  12  13  23
 107 ben  13  12  22
 108 ben  13  14  24
 109 prop tor  14   1   2   3
 110 prop tor  14   1   2  11
 111 ben  14   1  15
 112 ben  14  13  23
 113 prop tor  15   1   2   3
 114 prop tor  15   1   2  11
 115 prop tor  15   1  14  13
 116 prop tor  15   1  14  24
 117 prop tor  16   3   4   5
 118 prop tor  16   3   4   9
 119 prop tor  17   5   6   7
 120 prop tor  17   5   6  18
 121 prop tor  18   6   7   8
 122 prop tor  18   6   7  19
 123 prop tor  19   7   8   9
 124 prop tor  19   7   8  20
 125 prop tor  20   8   9   4
 126 prop tor  20   8   9  10
 127 prop tor  21  10  11   2
 128 prop tor  21  10  11  12
 129 prop tor  22  12  13  14
 130 prop tor  22  12  13  23
 131 prop tor  23  13  14   1
 132 prop tor  23  13  14  24
 nber bend=              42
 nber lin bend=           0
 nber prop tor=          64
 nber impr tor=           0
 nber tot redund int=         132
 Eigenvalues of G in red int coords
    Gval -0.00000000 -0.00000000 -0.00000000 -0.00000000 -0.00000000 -0.00000000 -0.00000000 -0.00000000
    Gval -0.00000000 -0.00000000 -0.00000000 -0.00000000 -0.00000000 -0.00000000 -0.00000000 -0.00000000
    Gval -0.00000000 -0.00000000 -0.00000000 -0.00000000 -0.00000000 -0.00000000 -0.00000000 -0.00000000
    Gval -0.00000000 -0.00000000 -0.00000000 -0.00000000 -0.00000000 -0.00000000 -0.00000000 -0.00000000
    Gval -0.00000000 -0.00000000 -0.00000000 -0.00000000  0.00000000  0.00000000  0.00000000  0.00000000
    Gval  0.00000000  0.00000000  0.00000000  0.00000000  0.00000000  0.00000000  0.00000000  0.00000000
    Gval  0.00000000  0.00000000  0.00000000  0.00000000  0.00000000  0.00000000  0.00000000  0.00000000
    Gval  0.00000000  0.00000000  0.00000000  0.00000000  0.00000000  0.00000000  0.00000000  0.00000000
    Gval  0.00000000  0.00000000  0.00000840  0.00000977  0.00002871  0.00003498  0.00003561  0.00004256
    Gval  0.00004841  0.00005273  0.00005597  0.00006513  0.00007292  0.00007856  0.00009151  0.00010049
    Gval  0.00010279  0.00012381  0.00013420  0.00014956  0.00018868  0.00020807  0.00022246  0.00025632
    Gval  0.00029346  0.00031340  0.00032659  0.00037843  0.00039057  0.00041078  0.00041725  0.00048780
    Gval  0.00059310  0.00059315  0.00059666  0.00059708  0.00060840  0.00061692  0.00062702  0.00064030
    Gval  0.00065356  0.00065874  0.00074771  0.00076828  0.00081542  0.00102562  0.00104442  0.00104731
    Gval  0.00110680  0.00111026  0.00111256  0.00111859  0.00115081  0.00115142  0.00116478  0.00116478
    Gval  0.00174970  0.00175009  0.00178480  0.00195487  0.00252390  0.00264278  0.00298080  0.00316337
    Gval  0.00346233  0.00356431  0.00398857  0.00399768
  8.399103654665296E-006  8.399103654665296E-006
  9.773626830087013E-006  8.399103654665296E-006
  2.871285897348857E-005  8.399103654665296E-006
  3.498485925505325E-005  8.399103654665296E-006
  3.560658602037667E-005  8.399103654665296E-006
  4.255899838193110E-005  8.399103654665296E-006
  4.841179627090341E-005  8.399103654665296E-006
  5.273337954695036E-005  8.399103654665296E-006
  5.596946590165927E-005  8.399103654665296E-006
  6.512863508550314E-005  8.399103654665296E-006
  7.291573284559775E-005  8.399103654665296E-006
  7.856048253874473E-005  8.399103654665296E-006
  9.151419332291233E-005  8.399103654665296E-006
  1.004889226114220E-004  8.399103654665296E-006
  1.027920347782282E-004  8.399103654665296E-006
  1.238089654869775E-004  8.399103654665296E-006
  1.342042796376530E-004  8.399103654665296E-006
  1.495626177349874E-004  8.399103654665296E-006
  1.886815285801898E-004  8.399103654665296E-006
  2.080679764073464E-004  8.399103654665296E-006
  2.224568989805122E-004  8.399103654665296E-006
  2.563165381422846E-004  8.399103654665296E-006
  2.934574223626478E-004  8.399103654665296E-006
  3.134028188650006E-004  8.399103654665296E-006
  3.265916922815394E-004  8.399103654665296E-006
  3.784271243454653E-004  8.399103654665296E-006
  3.905682186245676E-004  8.399103654665296E-006
  4.107797458520747E-004  8.399103654665296E-006
  4.172493976662805E-004  8.399103654665296E-006
  4.878022355930988E-004  8.399103654665296E-006
  5.931005162863864E-004  8.399103654665296E-006
  5.931513010830108E-004  8.399103654665296E-006
  5.966642374103623E-004  8.399103654665296E-006
  5.970837302852103E-004  8.399103654665296E-006
  6.084027772166142E-004  8.399103654665296E-006
  6.169239280502226E-004  8.399103654665296E-006
  6.270162841418638E-004  8.399103654665296E-006
  6.403047256494621E-004  8.399103654665296E-006
  6.535598893447813E-004  8.399103654665296E-006
  6.587371272363951E-004  8.399103654665296E-006
  7.477063709811246E-004  8.399103654665296E-006
  7.682799204405494E-004  8.399103654665296E-006
  8.154233218606944E-004  8.399103654665296E-006
  1.025622376549870E-003  8.399103654665296E-006
  1.044419859257152E-003  8.399103654665296E-006
  1.047311045603463E-003  8.399103654665296E-006
  1.106796293475339E-003  8.399103654665296E-006
  1.110257231911508E-003  8.399103654665296E-006
  1.112555035538725E-003  8.399103654665296E-006
  1.118585569318473E-003  8.399103654665296E-006
  1.150806437602362E-003  8.399103654665296E-006
  1.151415356721013E-003  8.399103654665296E-006
  1.164782749032479E-003  8.399103654665296E-006
  1.164783105756268E-003  8.399103654665296E-006
  1.749698619229276E-003  8.399103654665296E-006
  1.750089225062654E-003  8.399103654665296E-006
  1.784796073059948E-003  8.399103654665296E-006
  1.954873416079217E-003  8.399103654665296E-006
  2.523899326834139E-003  8.399103654665296E-006
  2.642777377235803E-003  8.399103654665296E-006
  2.980804772036153E-003  8.399103654665296E-006
  3.163368490080967E-003  8.399103654665296E-006
  3.462326988988793E-003  8.399103654665296E-006
  3.564306628991056E-003  8.399103654665296E-006
  3.988565651623575E-003  8.399103654665296E-006
  3.997681540421436E-003  8.399103654665296E-006
 cut=1d-8, nber non-redundant internal coords=          66
 Check on Eigenvals of non-red overlap matrix:
  0.00000840  0.00000977  0.00002871  0.00003498  0.00003561  0.00004256  0.00004841  0.00005273
  0.00005597  0.00006513  0.00007292  0.00007856  0.00009151  0.00010049  0.00010279  0.00012381
  0.00013420  0.00014956  0.00018868  0.00020807  0.00022246  0.00025632  0.00029346  0.00031340
  0.00032659  0.00037843  0.00039057  0.00041078  0.00041725  0.00048780  0.00059310  0.00059315
  0.00059666  0.00059708  0.00060840  0.00061692  0.00062702  0.00064030  0.00065356  0.00065874
  0.00074771  0.00076828  0.00081542  0.00102562  0.00104442  0.00104731  0.00110680  0.00111026
  0.00111256  0.00111859  0.00115081  0.00115142  0.00116478  0.00116478  0.00174970  0.00175009
  0.00178480  0.00195487  0.00252390  0.00264278  0.00298080  0.00316337  0.00346233  0.00356431
  0.00398857  0.00399768
 d1=
   0.0 -12.9   0.0   0.0  -0.0  -3.4   0.0  -0.0   0.0   0.5   0.0  -0.0   3.8  -0.0  -0.0   4.5   0.0   0.0   0.0  -0.6
   0.0  -0.0  -0.0   0.0   0.0  -0.0   0.0  -0.0   2.3   0.0   0.2  -0.0   0.0   0.0  -0.2   0.0   0.0  -1.2   0.0  -0.0
   0.0  -0.0   0.0   0.0  -0.0   0.7  -0.0   0.0   0.0  -0.0  -0.2  -0.0   0.0   0.0   0.0  -0.0   0.0   0.0  -0.0  -0.0
   0.0   0.0  -0.0  -0.0  -0.0   0.0
 d2=
   0.0  12.9  -0.0  -0.0   0.0  -3.5   0.0   0.0  -0.0  -0.5   0.0  -0.0   3.8  -0.0  -0.0   4.5  -0.0   0.0   0.0   0.6
  -0.0   0.0  -0.0  -0.0  -0.0   0.0  -0.0  -0.0   2.3  -0.0  -0.2  -0.0  -0.0   0.0  -0.2   0.0  -0.0  -1.2   0.0  -0.0
   0.0   0.0  -0.0  -0.0  -0.0  -0.7  -0.0  -0.0   0.0   0.0   0.2  -0.0  -0.0  -0.0   0.0  -0.0  -0.0   0.0   0.0   0.0
   0.0  -0.0  -0.0   0.0   0.0  -0.0
 curvilinear- renormalizn of Dush matrix done
  mol 1 sym            1  -> mol 2 sym            1
  mol 1 sym            2  -> mol 2 sym            2
  mol 1 sym            3  -> mol 2 sym            3
  mol 1 sym            4  -> mol 2 sym            4
  mol 1 sym            5  -> mol 2 sym            5
  mol 1 sym            6  -> mol 2 sym            6
  mol 1 sym            7  -> mol 2 sym            7
  mol 1 sym            8  -> mol 2 sym            8

 Dushinsky matrix, ncs 2 in terms of ncs 1

   mode   freq    coeff     %      %tot     of    at

   1 B2u    -0.  0.0000     0.0     0.0  20 B2u   618.
   2 B1u    -0.  0.0000     0.0     0.0  10 B1u   236.
   3 B3g    -0. -0.0000     0.0     0.0  13 B3g   396.
   4 B2g    -0. -0.0000     0.0     0.0  11 B2g   269.
   5 B1g    -0. -0.0000     0.0     0.0  35 B1g   967.
   6 B3u    -0. -0.0000     0.0     0.0   7 B3u    91.
   7 B3u    91.  0.9980    99.6   100.7   7 B3u    91.
   8 Au    115.  0.9998   100.0   100.2   8 Au    121.
   9 B1u   235.  0.9999   100.0    99.7  10 B1u   236.
  10 B1g   251.  0.9970    99.4    98.9   9 B1g   236.
  11 B2g   252.  0.9919    98.4   100.1  11 B2g   269.
  12 B3u   334.  0.9919    98.4   100.0  12 B3u   387.
  13 B3g   393.  0.9998   100.0    98.8  13 B3g   396.
  14 Ag    395.  0.9999   100.0   100.2  14 Ag    398.
  15 B3u   464.  0.9952    99.0   100.1  15 B3u   478.
  16 B1g   470.  0.9966    99.3   100.8  16 B1g   484.
  17 B3g   539.  0.9998   100.0   100.2  18 B3g   536.
  18 Au    543.  0.9915    98.3    98.0  17 Au    507.
  19 B2g   577. -0.9869    97.4    98.4  19 B2g   591.
  20 B2u   615. -0.9995    99.9    99.4  20 B2u   618.
  21 Ag    628.  0.9991    99.8    98.8  21 Ag    642.
  22 B1u   662.  0.9995    99.9   100.5  22 B1u   661.
  23 B3u   685.  0.9832    96.7    99.4  23 B3u   740.
  24 B1g   714.  0.9880    97.6    99.9  26 B1g   770.
  25 Au    726. -0.9578    91.7    99.5  24 Au    759.
  26 B2g   740. -0.6627    43.9    98.7  27 B2g   782.
                 0.6186    38.3          29 B2g   844.
                -0.4121    17.0          32 B2g   911.
  27 Ag    748. -0.9992    99.8    98.7  25 Ag    763.
  28 B2g   752.  0.6907    47.7    99.5  27 B2g   782.
                 0.7118    50.7          29 B2g   844.
  29 B3u   769.  0.9915    98.3    99.2  31 B3u   895.
  30 Au    808. -0.9667    93.5   100.0  30 Au    866.
  31 B2u   813. -0.9947    98.9    99.4  28 B2u   821.
  32 B2g   832. -0.3278    10.7    99.8  29 B2g   844.
                -0.9067    82.2          32 B2g   911.
  33 B1g   841.  0.9893    97.9    98.7  35 B1g   967.
  34 B3u   844.  0.9915    98.3    98.8  36 B3u   972.
  35 Au    890.  0.9882    97.7    99.5  37 Au    995.
  36 B2g   891. -0.9846    96.9    99.5  38 B2g   996.
  37 B1u   905.  0.9987    99.7    98.6  33 B1u   919.
  38 B3g   910. -0.9893    97.9   100.1  34 B3g   929.
  39 B2u  1043. -0.9776    95.6   100.1  39 B2u  1026.
  40 Ag   1044. -0.9866    97.3   100.1  40 Ag   1031.
  41 B3g  1096.  0.9889    97.8    99.3  41 B3g  1127.
  42 B1u  1134. -0.9933    98.7    99.5  43 B1u  1173.
  43 B2u  1155. -0.6450    41.6    99.5  42 B2u  1159.
                 0.7411    54.9          44 B2u  1189.
  44 Ag   1168.  0.9905    98.1    99.4  45 Ag   1190.
  45 B3g  1174.  0.9708    94.3   100.0  46 B3g  1211.
  46 B2u  1197.  0.7243    52.5    99.9  42 B2u  1159.
                 0.6521    42.5          44 B2u  1189.
  47 Ag   1260. -0.9344    87.3    99.8  47 Ag   1290.
                -0.3337    11.1          54 Ag   1428.
  48 B3g  1275. -0.9937    98.7    99.7  49 B3g  1295.
  49 B1u  1282.  0.9722    94.5    99.5  48 B1u  1291.
  50 B1u  1292. -0.9614    92.4    99.3  50 B1u  1339.
  51 B2u  1355.  0.9452    89.3    99.7  53 B2u  1415.
  52 Ag   1385. -0.3451    11.9    99.7  47 Ag   1290.
                 0.9266    85.9          54 Ag   1428.
  53 B3g  1399.  0.9984    99.7    99.3  52 B3g  1414.
  54 B2u  1409.  0.9732    94.7    99.9  51 B2u  1376.
  55 B1u  1458. -0.9825    96.5    99.9  56 B1u  1487.
  56 B2u  1467.  0.9183    84.3    99.3  55 B2u  1482.
                 0.3194    10.2          58 B2u  1579.
  57 B3g  1493. -0.9686    93.8   100.0  61 B3g  1668.
  58 Ag   1510.  0.9393    88.2    99.3  57 Ag   1517.
  59 B2u  1548. -0.3603    13.0    99.0  55 B2u  1482.
                 0.9098    82.8          58 B2u  1579.
  60 B3g  1554.  0.9849    97.0   100.5  60 B3g  1624.
  61 Ag   1575.  0.9476    89.8    99.5  59 Ag   1594.
  62 B1u  1592. -0.9912    98.3   100.4  62 B1u  1670.
  63 B1u  3107. -0.6867    47.2   100.0  63 B1u  3153.
                 0.7082    50.2          66 B1u  3158.
  64 B3g  3108. -0.9795    95.9   100.0  65 B3g  3157.
  65 Ag   3113.  0.8998    81.0   100.0  64 Ag   3155.
                -0.4359    19.0          68 Ag   3163.
  66 B1u  3115.  0.7266    52.8   100.0  63 B1u  3153.
                 0.6636    44.0          66 B1u  3158.
  67 B2u  3116.  0.9970    99.4   100.0  67 B2u  3161.
  68 Ag   3122.  0.4346    18.9   100.0  64 Ag   3155.
                 0.8931    79.8          68 Ag   3163.
  69 B3g  3129.  0.9795    96.0   100.0  69 B3g  3175.
  70 B1u  3131.  0.9704    94.2   100.0  70 B1u  3175.
  71 B2u  3146.  0.9970    99.4   100.0  71 B2u  3187.
  72 Ag   3148.  0.9932    98.6   100.0  72 Ag   3187.
 nber times 1st assigned=           1           0
 nber times 1st assigned=           2           0
 nber times 1st assigned=           3           0
 nber times 1st assigned=           4           0
 nber times 1st assigned=           5           0
 nber times 1st assigned=           6           0
 nber times 1st assigned=           8           0
 nber times 1st assigned=           9           0
 nber times 1st assigned=          12           0
 nber times 1st assigned=          14           0
 nber times 1st assigned=          15           0
 nber times 1st assigned=          16           0
 nber times 1st assigned=          17           0
 nber times 1st assigned=          18           0
 nber times 1st assigned=          19           0
 nber times 1st assigned=          21           0
 nber times 1st assigned=          22           0
 nber times 1st assigned=          23           0
 nber times 1st assigned=          24           0
 nber times 1st assigned=          25           0
 nber times 1st assigned=          26           0
 nber times 1st assigned=          27           0
 nber times 1st assigned=          28           0
 nber times 1st assigned=          29           0
 nber times 1st assigned=          30           0
 nber times 1st assigned=          31           0
 nber times 1st assigned=          32           0
 nber times 1st assigned=          33           0
 nber times 1st assigned=          34           0
 nber times 1st assigned=          36           0
 nber times 1st assigned=          37           0
 nber times 1st assigned=          38           0
 nber times 1st assigned=          39           0
 nber times 1st assigned=          40           0
 nber times 1st assigned=          41           0
 nber times 1st assigned=          42           0
 nber times 1st assigned=          43           0
 nber times 1st assigned=          44           0
 nber times 1st assigned=          45           0
 nber times 1st assigned=          46           0
 nber times 1st assigned=          47           0
 nber times 1st assigned=          48           0
 nber times 1st assigned=          49           0
 nber times 1st assigned=          50           0
 nber times 1st assigned=          51           0
 nber times 1st assigned=          52           0
 nber times 1st assigned=          53           0
 nber times 1st assigned=          54           0
 nber times 1st assigned=          55           0
 nber times 1st assigned=          56           0
 nber times 1st assigned=          57           0
 nber times 1st assigned=          58           0
 nber times 1st assigned=          59           0
 nber times 1st assigned=          60           0
 nber times 1st assigned=          61           0
 nber times 1st assigned=          62           0
 nber times 1st assigned=          63           0
 nber times 1st assigned=          64           0
 nber times 1st assigned=          65           0
 nber times 1st assigned=          66           0
 nber times 1st assigned=          67           0
 nber times 1st assigned=          68           0
 nber times 1st assigned=          69           0
 nber times 1st assigned=          70           0
 nber times 1st assigned=          71           0
 nber times 1st assigned=          72           0
 Dushinsky matrix written to .out file
 modes represented=   65.7720695510834     

 Dushinsky matrix, ncs 1 in terms of ncs 2

   mode   freq    coeff     %      %tot     of    at

   7 B3u    91.  0.9980    99.6   100.6   7 B3u    91.
   8 Au    121.  0.9998   100.0   100.3   8 Au    115.
   9 B1g   236.  0.9970    99.4    99.0  10 B1g   251.
  10 B1u   236.  0.9999   100.0    99.8   9 B1u   235.
  11 B2g   269.  0.9919    98.4    99.9  11 B2g   252.
  12 B3u   387.  0.9919    98.4   100.2  12 B3u   334.
  13 B3g   396.  0.9998   100.0    98.8  13 B3g   393.
  14 Ag    398.  0.9999   100.0   100.3  14 Ag    395.
  15 B3u   478.  0.9952    99.0   100.0  15 B3u   464.
  16 B1g   484.  0.9966    99.3   100.7  16 B1g   470.
  17 Au    507.  0.9915    98.3    98.0  18 Au    543.
  18 B3g   536.  0.9998   100.0   100.3  17 B3g   539.
  19 B2g   591. -0.9869    97.4    98.7  19 B2g   577.
  20 B2u   618. -0.9995    99.9    99.4  20 B2u   615.
  21 Ag    642.  0.9991    99.8    98.8  21 Ag    628.
  22 B1u   661.  0.9995    99.9   100.6  22 B1u   662.
  23 B3u   740.  0.9832    96.7    99.6  23 B3u   685.
  24 Au    759. -0.9578    91.7    99.5  25 Au    726.
  25 Ag    763. -0.9992    99.8    98.7  27 Ag    748.
  26 B1g   770.  0.9880    97.6   100.1  24 B1g   714.
  27 B2g   782. -0.6627    43.9    99.0  26 B2g   740.
                 0.6907    47.7          28 B2g   752.
  28 B2u   821. -0.9947    98.9    99.5  31 B2u   813.
  29 B2g   844.  0.6186    38.3    99.5  26 B2g   740.
                 0.7118    50.7          28 B2g   752.
                -0.3278    10.7          32 B2g   832.
  30 Au    866. -0.9667    93.5   100.1  30 Au    808.
  31 B3u   895.  0.9915    98.3    99.1  29 B3u   769.
  32 B2g   911. -0.4121    17.0    99.5  26 B2g   740.
                -0.9067    82.2          32 B2g   832.
  33 B1u   919.  0.9987    99.7    98.6  37 B1u   905.
  34 B3g   929. -0.9893    97.9   100.0  38 B3g   910.
  35 B1g   967.  0.9893    97.9    98.6  33 B1g   841.
  36 B3u   972.  0.9915    98.3    98.7  34 B3u   844.
  37 Au    995.  0.9882    97.7    99.5  35 Au    890.
  38 B2g   996. -0.9846    96.9    99.4  36 B2g   891.
  39 B2u  1026. -0.9776    95.6   100.0  39 B2u  1043.
  40 Ag   1031. -0.9866    97.3   100.1  40 Ag   1044.
  41 B3g  1127.  0.9889    97.8    99.3  41 B3g  1096.
  42 B2u  1159. -0.6450    41.6    99.9  43 B2u  1155.
                 0.7243    52.5          46 B2u  1197.
  43 B1u  1173. -0.9933    98.7    99.4  42 B1u  1134.
  44 B2u  1189.  0.7411    54.9    99.5  43 B2u  1155.
                 0.6521    42.5          46 B2u  1197.
  45 Ag   1190.  0.9905    98.1    99.4  44 Ag   1168.
  46 B3g  1211.  0.9708    94.3    99.8  45 B3g  1174.
  47 Ag   1290. -0.9344    87.3   100.0  47 Ag   1260.
                -0.3451    11.9          52 Ag   1385.
  48 B1u  1291.  0.9722    94.5    99.4  49 B1u  1282.
  49 B3g  1295. -0.9937    98.7    99.6  48 B3g  1275.
  50 B1u  1339. -0.9614    92.4    99.2  50 B1u  1292.
  51 B2u  1376.  0.9732    94.7    99.8  54 B2u  1409.
  52 B3g  1414.  0.9984    99.7    99.3  53 B3g  1399.
  53 B2u  1415.  0.9452    89.3    99.7  51 B2u  1355.
  54 Ag   1428. -0.3337    11.1    99.5  47 Ag   1260.
                 0.9266    85.9          52 Ag   1385.
  55 B2u  1482.  0.9183    84.3    99.1  56 B2u  1467.
                -0.3603    13.0          59 B2u  1548.
  56 B1u  1487. -0.9825    96.5    99.8  55 B1u  1458.
  57 Ag   1517.  0.9393    88.2    99.0  58 Ag   1510.
  58 B2u  1579.  0.3194    10.2    99.4  56 B2u  1467.
                 0.9098    82.8          59 B2u  1548.
  59 Ag   1594.  0.9476    89.8    99.7  61 Ag   1575.
  60 B3g  1624.  0.9849    97.0   100.4  60 B3g  1554.
  61 B3g  1668. -0.9686    93.8   100.3  57 B3g  1493.
  62 B1u  1670. -0.9912    98.3   100.6  62 B1u  1592.
  63 B1u  3153. -0.6867    47.2   100.0  63 B1u  3107.
                 0.7266    52.8          66 B1u  3115.
  64 Ag   3155.  0.8998    81.0   100.0  65 Ag   3113.
                 0.4346    18.9          68 Ag   3122.
  65 B3g  3157. -0.9795    95.9   100.0  64 B3g  3108.
  66 B1u  3158.  0.7082    50.2   100.0  63 B1u  3107.
                 0.6636    44.0          66 B1u  3115.
  67 B2u  3161.  0.9970    99.4   100.0  67 B2u  3116.
  68 Ag   3163. -0.4359    19.0   100.0  65 Ag   3113.
                 0.8931    79.8          68 Ag   3122.
  69 B3g  3175.  0.9795    96.0   100.0  69 B3g  3129.
  70 B1u  3175.  0.9704    94.2   100.0  70 B1u  3131.
  71 B2u  3187.  0.9970    99.4   100.0  71 B2u  3146.
  72 Ag   3187.  0.9932    98.6   100.0  72 Ag   3148.
 nber times 1st assigned=           1           0
 nber times 1st assigned=           2           0
 nber times 1st assigned=           3           0
 nber times 1st assigned=           4           0
 nber times 1st assigned=           5           0
 nber times 1st assigned=           6           0
 nber times 1st assigned=           7           0
 nber times 1st assigned=           8           0
 nber times 1st assigned=           9           0
 nber times 1st assigned=          10           0
 nber times 1st assigned=          11           0
 nber times 1st assigned=          12           0
 nber times 1st assigned=          13           0
 nber times 1st assigned=          14           0
 nber times 1st assigned=          15           0
 nber times 1st assigned=          16           0
 nber times 1st assigned=          17           0
 nber times 1st assigned=          18           0
 nber times 1st assigned=          19           0
 nber times 1st assigned=          20           0
 nber times 1st assigned=          21           0
 nber times 1st assigned=          22           0
 nber times 1st assigned=          23           0
 nber times 1st assigned=          24           0
 nber times 1st assigned=          25           0
 nber times 1st assigned=          26           0
 nber times 1st assigned=          27           0
 nber times 1st assigned=          28           0
 nber times 1st assigned=          29           0
 nber times 1st assigned=          30           0
 nber times 1st assigned=          31           0
 nber times 1st assigned=          32           0
 nber times 1st assigned=          33           0
 nber times 1st assigned=          34           0
 nber times 1st assigned=          35           0
 nber times 1st assigned=          36           0
 nber times 1st assigned=          37           0
 nber times 1st assigned=          38           0
 nber times 1st assigned=          39           0
 nber times 1st assigned=          40           0
 nber times 1st assigned=          41           0
 nber times 1st assigned=          42           0
 nber times 1st assigned=          43           0
 nber times 1st assigned=          44           0
 nber times 1st assigned=          45           0
 nber times 1st assigned=          46           0
 nber times 1st assigned=          47           0
 nber times 1st assigned=          48           0
 nber times 1st assigned=          49           0
 nber times 1st assigned=          50           0
 nber times 1st assigned=          51           0
 nber times 1st assigned=          52           0
 nber times 1st assigned=          53           0
 nber times 1st assigned=          54           0
 nber times 1st assigned=          55           0
 nber times 1st assigned=          56           0
 nber times 1st assigned=          57           0
 nber times 1st assigned=          58           0
 nber times 1st assigned=          59           0
 nber times 1st assigned=          60           0
 nber times 1st assigned=          61           0
 nber times 1st assigned=          62           0
 nber times 1st assigned=          63           0
 nber times 1st assigned=          64           0
 nber times 1st assigned=          65           0
 nber times 1st assigned=          66           0
 nber times 1st assigned=          67           0
 nber times 1st assigned=          68           0
 nber times 1st assigned=          69           0
 nber times 1st assigned=          70           0
 nber times 1st assigned=          71           0
 nber times 1st assigned=          72           0
 modes represented=   65.7720695510834     
 p1=
   -0.   -0.   -0.   -0.    0.   -0.   -0.   -0.   -0.   -0.   -0.    0.   -0.   13.   -0.   -0.   -0.   -0.   -0.   -0.
    2.    0.    0.    0.   -0.    0.    0.    0.   -0.    0.   -0.   -0.   -0.   -0.   -0.    0.    0.   -0.    0.    0.
    0.   -0.    0.   -0.   -2.    0.    3.    0.    0.    0.   -0.    0.   -0.   -4.    0.   -0.    0.    0.    3.   -0.
   -0.    0.    0.    0.    0.    0.    0.    0.    0.    0.   -0.    0.
 p2=
   -0.    0.    0.   -0.    0.   -0.    0.    0.    0.    0.    0.    0.    0.  -13.    0.    0.    0.    0.   -0.    0.
   -2.   -0.   -0.   -0.    0.    0.   -0.    0.    0.    0.   -0.   -0.    0.   -0.   -0.   -0.   -0.    0.   -0.   -0.
    0.   -0.   -0.    2.    0.    0.    1.    0.    0.    0.   -0.    5.   -0.   -0.   -0.    0.    0.   -1.    0.    0.
   -3.    0.   -0.   -0.    0.    0.   -0.   -0.    0.   -0.    0.   -0.

 Displacement: in terms of nc of 1 THEN of nc of 2

   1 B1u freq=    -0. Q= -0.000 lam=    -0.0 B2u freq=    -0. Q= -0.000 lam=    -0.0
   2 B2u freq=    -0. Q= -0.000 lam=    -0.0 B1u freq=    -0. Q= -0.000 lam=    -0.0
   3 B2g freq=    -0. Q= -0.000 lam=    -0.0 B3g freq=    -0. Q= -0.000 lam=    -0.0
   4 B3u freq=    -0. Q= -0.000 lam=    -0.0 B2g freq=    -0. Q= -0.000 lam=    -0.0
   5 B1g freq=     0. Q=  0.000 lam=     0.0 B1g freq=    -0. Q=  0.000 lam=    -0.0
   6 B3g freq=     0. Q= -0.000 lam=     0.0 B3u freq=    -0. Q= -0.000 lam=    -0.0
   7 B3u freq=    91. Q= -0.000 lam=     0.0 B3u freq=    91. Q= -0.000 lam=     0.0
   8 Au  freq=   121. Q= -0.000 lam=     0.0 Au  freq=   115. Q= -0.000 lam=     0.0
   9 B1g freq=   236. Q= -0.000 lam=     0.0 B1u freq=   235. Q= -0.000 lam=     0.0
  10 B1u freq=   236. Q= -0.000 lam=     0.0 B1g freq=   251. Q= -0.000 lam=     0.0
  11 B2g freq=   269. Q= -0.000 lam=     0.0 B2g freq=   252. Q= -0.000 lam=     0.0
  12 B3u freq=   387. Q=  0.000 lam=     0.0 B3u freq=   334. Q=  0.000 lam=     0.0
  13 B3g freq=   396. Q= -0.000 lam=     0.0 B3g freq=   393. Q= -0.000 lam=     0.0
  14 Ag  freq=   398. Q=  1.074 lam=   229.5 Ag  freq=   395. Q=  1.074 lam=   227.9
  15 B3u freq=   478. Q= -0.000 lam=     0.0 B3u freq=   464. Q= -0.000 lam=     0.0
  16 B1g freq=   484. Q= -0.000 lam=     0.0 B1g freq=   470. Q= -0.000 lam=     0.0
  17 Au  freq=   507. Q= -0.000 lam=     0.0 B3g freq=   539. Q= -0.000 lam=     0.0
  18 B3g freq=   536. Q= -0.000 lam=     0.0 Au  freq=   543. Q= -0.000 lam=     0.0
  19 B2g freq=   591. Q= -0.000 lam=     0.0 B2g freq=   577. Q= -0.000 lam=     0.0
  20 B2u freq=   618. Q= -0.000 lam=     0.0 B2u freq=   615. Q= -0.000 lam=     0.0
  21 Ag  freq=   642. Q=  0.242 lam=    18.9 Ag  freq=   628. Q=  0.231 lam=    16.7
  22 B1u freq=   661. Q=  0.000 lam=     0.0 B1u freq=   662. Q=  0.000 lam=     0.0
  23 B3u freq=   740. Q=  0.000 lam=     0.0 B3u freq=   685. Q=  0.000 lam=     0.0
  24 Au  freq=   759. Q=  0.000 lam=     0.0 B1g freq=   714. Q=  0.000 lam=     0.0
  25 Ag  freq=   763. Q= -0.022 lam=     0.2 Au  freq=   726. Q= -0.000 lam=     0.0
  26 B1g freq=   770. Q=  0.000 lam=     0.0 B2g freq=   740. Q=  0.000 lam=     0.0
  27 B2g freq=   782. Q=  0.000 lam=     0.0 Ag  freq=   748. Q=  0.017 lam=     0.1
  28 B2u freq=   821. Q=  0.000 lam=     0.0 B2g freq=   752. Q=  0.000 lam=     0.0
  29 B2g freq=   844. Q= -0.000 lam=     0.0 B3u freq=   769. Q= -0.000 lam=     0.0
  30 Au  freq=   866. Q=  0.000 lam=     0.0 Au  freq=   808. Q=  0.000 lam=     0.0
  31 B3u freq=   895. Q= -0.000 lam=     0.0 B2u freq=   813. Q= -0.000 lam=     0.0
  32 B2g freq=   911. Q= -0.000 lam=     0.0 B2g freq=   832. Q= -0.000 lam=     0.0
  33 B1u freq=   919. Q= -0.000 lam=     0.0 B1g freq=   841. Q= -0.000 lam=     0.0
  34 B3g freq=   929. Q= -0.000 lam=     0.0 B3u freq=   844. Q= -0.000 lam=     0.0
  35 B1g freq=   967. Q= -0.000 lam=     0.0 Au  freq=   890. Q= -0.000 lam=     0.0
  36 B3u freq=   972. Q=  0.000 lam=     0.0 B2g freq=   891. Q=  0.000 lam=     0.0
  37 Au  freq=   995. Q=  0.000 lam=     0.0 B1u freq=   905. Q=  0.000 lam=     0.0
  38 B2g freq=   996. Q= -0.000 lam=     0.0 B3g freq=   910. Q= -0.000 lam=     0.0
  39 B2u freq=  1026. Q=  0.000 lam=     0.0 B2u freq=  1043. Q=  0.000 lam=     0.0
  40 Ag  freq=  1031. Q=  0.034 lam=     0.6 Ag  freq=  1044. Q=  0.061 lam=     1.9
  41 B3g freq=  1127. Q=  0.000 lam=     0.0 B3g freq=  1096. Q=  0.000 lam=     0.0
  42 B2u freq=  1159. Q= -0.000 lam=     0.0 B1u freq=  1134. Q= -0.000 lam=     0.0
  43 B1u freq=  1173. Q=  0.000 lam=     0.0 B2u freq=  1155. Q=  0.000 lam=     0.0
  44 B2u freq=  1189. Q= -0.000 lam=     0.0 Ag  freq=  1168. Q= -0.287 lam=    48.1
  45 Ag  freq=  1190. Q= -0.300 lam=    53.5 B3g freq=  1174. Q= -0.000 lam=     0.0
  46 B3g freq=  1211. Q=  0.000 lam=     0.0 B2u freq=  1197. Q=  0.000 lam=     0.0
  47 Ag  freq=  1290. Q=  0.364 lam=    85.3 Ag  freq=  1260. Q=  0.138 lam=    12.0
  48 B1u freq=  1291. Q=  0.000 lam=     0.0 B3g freq=  1275. Q=  0.000 lam=     0.0
  49 B3g freq=  1295. Q=  0.000 lam=     0.0 B1u freq=  1282. Q=  0.000 lam=     0.0
  50 B1u freq=  1339. Q=  0.000 lam=     0.0 B1u freq=  1292. Q=  0.000 lam=     0.0
  51 B2u freq=  1376. Q= -0.000 lam=     0.0 B2u freq=  1355. Q= -0.000 lam=     0.0
  52 B3g freq=  1414. Q=  0.000 lam=     0.0 Ag  freq=  1385. Q=  0.694 lam=   333.6
  53 B2u freq=  1415. Q= -0.000 lam=     0.0 B3g freq=  1399. Q= -0.000 lam=     0.0
  54 Ag  freq=  1428. Q= -0.634 lam=   286.7 B2u freq=  1409. Q= -0.000 lam=     0.0
  55 B2u freq=  1482. Q=  0.000 lam=     0.0 B1u freq=  1458. Q=  0.000 lam=     0.0
  56 B1u freq=  1487. Q= -0.000 lam=     0.0 B2u freq=  1467. Q= -0.000 lam=     0.0
  57 Ag  freq=  1517. Q=  0.033 lam=     0.8 B3g freq=  1493. Q=  0.000 lam=     0.0
  58 B2u freq=  1579. Q=  0.000 lam=     0.0 Ag  freq=  1510. Q=  0.212 lam=    34.0
  59 Ag  freq=  1594. Q=  0.445 lam=   157.8 B2u freq=  1548. Q=  0.000 lam=     0.0
  60 B3g freq=  1624. Q= -0.000 lam=     0.0 B3g freq=  1554. Q= -0.000 lam=     0.0
  61 B3g freq=  1668. Q= -0.000 lam=     0.0 Ag  freq=  1575. Q= -0.403 lam=   128.2
  62 B1u freq=  1670. Q=  0.000 lam=     0.0 B1u freq=  1592. Q=  0.000 lam=     0.0
  63 B1u freq=  3153. Q=  0.000 lam=     0.0 B1u freq=  3107. Q=  0.000 lam=     0.0
  64 Ag  freq=  3155. Q=  0.007 lam=     0.1 B3g freq=  3108. Q=  0.000 lam=     0.0
  65 B3g freq=  3157. Q=  0.000 lam=     0.0 Ag  freq=  3113. Q=  0.002 lam=     0.0
  66 B1u freq=  3158. Q=  0.000 lam=     0.0 B1u freq=  3115. Q=  0.000 lam=     0.0
  67 B2u freq=  3161. Q=  0.000 lam=     0.0 B2u freq=  3116. Q=  0.000 lam=     0.0
  68 Ag  freq=  3163. Q=  0.021 lam=     0.7 Ag  freq=  3122. Q=  0.013 lam=     0.2
  69 B3g freq=  3175. Q=  0.000 lam=     0.0 B3g freq=  3129. Q=  0.000 lam=     0.0
  70 B1u freq=  3175. Q=  0.000 lam=     0.0 B1u freq=  3131. Q=  0.000 lam=     0.0
  71 B2u freq=  3187. Q= -0.000 lam=     0.0 B2u freq=  3146. Q= -0.000 lam=     0.0
  72 Ag  freq=  3187. Q=  0.059 lam=     5.5 Ag  freq=  3148. Q=  0.067 lam=     7.1

 total reorg energy (cm**-1, kcal/mol)=      840.      810.      2.40      2.32
 Nber of molecules processed=           2
