 Enter ifcurve (0=recti, 1=orth curvi, 2=apprx curvi, -1 = skip
 And atom ordering flag, 0= never changes, 1= use the first order thenceforth,
  2= deduce it (does read on fail), 3= always read it
 Reading file: 
 ./Circulene_1_C0S0.log                                                         
                                          
  Entering Gaussian System, Link 0=g16                                          
  
 Gaussian format, type: g94, g98, g03= F F F
  #P Geom=AllCheck Guess=TCheck SCRF=Check GenChk RB3LYP/6-311G(d,p) Fre    
 energy type= B3LYP   
 Original G94 input coords:
  6  3.529138 -1.246946  0.000000
  6  2.844456 -2.432851  0.000000
  6  1.422468 -2.463787  0.000000
  6  0.684682 -3.679797  0.000000
  6 -0.684682 -3.679797  0.000000
  6 -1.422468 -2.463787  0.000000
  6 -2.844456 -2.432851  0.000000
  6 -3.529138 -1.246946  0.000000
  6 -2.844936  0.000000  0.000000
  6 -3.529138  1.246946  0.000000
  6 -2.844456  2.432851  0.000000
  6 -1.422468  2.463787  0.000000
  6 -0.684682  3.679797  0.000000
  6  0.684682  3.679797  0.000000
  6  1.422468  2.463787  0.000000
  6  2.844456  2.432851  0.000000
  6  3.529138  1.246946  0.000000
  6  2.844936  0.000000  0.000000
  6  1.425694  0.000000  0.000000
  6  0.712847 -1.234687  0.000000
  6 -0.712847 -1.234687  0.000000
  6 -1.425694  0.000000  0.000000
  6 -0.712847  1.234687  0.000000
  6  0.712847  1.234687  0.000000
  1  4.614185 -1.244826  0.000000
  1  3.385143 -3.373589  0.000000
  1  1.229042 -4.618415  0.000000
  1 -1.229042 -4.618415  0.000000
  1 -3.385143 -3.373589  0.000000
  1 -4.614185 -1.244826  0.000000
  1 -4.614185  1.244826  0.000000
  1 -3.385143  3.373589  0.000000
  1 -1.229042  4.618415  0.000000
  1  1.229042  4.618415  0.000000
  1  3.385143  3.373589  0.000000
  1  4.614185  1.244826  0.000000
 nber atoms=          36
 Original standard coords:
  6  1.246946  3.529138  0.000000
  6  2.432851  2.844456  0.000000
  6  2.463787  1.422468  0.000000
  6  3.679797  0.684682  0.000000
  6  3.679797 -0.684682  0.000000
  6  2.463787 -1.422468  0.000000
  6  2.432851 -2.844456  0.000000
  6  1.246946 -3.529138  0.000000
  6  0.000000 -2.844936  0.000000
  6 -1.246946 -3.529138  0.000000
  6 -2.432851 -2.844456  0.000000
  6 -2.463787 -1.422468  0.000000
  6 -3.679797 -0.684682  0.000000
  6 -3.679797  0.684682  0.000000
  6 -2.463787  1.422468  0.000000
  6 -2.432851  2.844456  0.000000
  6 -1.246946  3.529138  0.000000
  6  0.000000  2.844936  0.000000
  6  0.000000  1.425694  0.000000
  6  1.234687  0.712847  0.000000
  6  1.234687 -0.712847  0.000000
  6  0.000000 -1.425694  0.000000
  6 -1.234687 -0.712847  0.000000
  6 -1.234687  0.712847  0.000000
  1  1.244826  4.614185  0.000000
  1  3.373589  3.385143  0.000000
  1  4.618415  1.229042  0.000000
  1  4.618415 -1.229042  0.000000
  1  3.373589 -3.385143  0.000000
  1  1.244826 -4.614185  0.000000
  1 -1.244826 -4.614185  0.000000
  1 -3.373589 -3.385143  0.000000
  1 -4.618415 -1.229042  0.000000
  1 -4.618415  1.229042  0.000000
  1 -3.373589  3.385143  0.000000
  1 -1.244826  4.614185  0.000000
  SCF Done:  E(RB3LYP) =  -922.093081032     A.U. after    1 cycles             
  
          23          40 "  -922.093081032"
After scan for Atom:   Atom  AN      X      Y      Z        X      Y      Z        X      Y      Z   
After scan for Atom:   Atom  AN      X      Y      Z        X      Y      Z        X      Y      Z   
After scan for Atom:   Atom  AN      X      Y      Z        X      Y      Z        X      Y      Z   
After scan for Atom:   Atom  AN      X      Y      Z        X      Y      Z        X      Y      Z   
After scan for Atom:   Atom  AN      X      Y      Z        X      Y      Z        X      Y      Z   
After scan for Atom:   Atom  AN      X      Y      Z        X      Y      Z        X      Y      Z   
After scan for Atom:   Atom  AN      X      Y      Z        X      Y      Z        X      Y      Z   
After scan for Atom:   Atom  AN      X      Y      Z        X      Y      Z        X      Y      Z   
After scan for Atom:   Atom  AN      X      Y      Z        X      Y      Z        X      Y      Z   
After scan for Atom:   Atom  AN      X      Y      Z        X      Y      Z        X      Y      Z   
After scan for Atom:   Atom  AN      X      Y      Z        X      Y      Z        X      Y      Z   
After scan for Atom:   Atom  AN      X      Y      Z        X      Y      Z        X      Y      Z   
After scan for Atom:   Atom  AN      X      Y      Z        X      Y      Z        X      Y      Z   
After scan for Atom:   Atom  AN      X      Y      Z        X      Y      Z        X      Y      Z   
After scan for Atom:   Atom  AN      X      Y      Z        X      Y      Z        X      Y      Z   
After scan for Atom:   Atom  AN      X      Y      Z        X      Y      Z        X      Y      Z   
After scan for Atom:   Atom  AN      X      Y      Z        X      Y      Z        X      Y      Z   
After scan for Atom:   Atom  AN      X      Y      Z        X      Y      Z        X      Y      Z   
After scan for Atom:   Atom  AN      X      Y      Z        X      Y      Z        X      Y      Z   
After scan for Atom:   Atom  AN      X      Y      Z        X      Y      Z        X      Y      Z   
After scan for Atom:   Atom  AN      X      Y      Z        X      Y      Z        X      Y      Z   
After scan for Atom:   Atom  AN      X      Y      Z        X      Y      Z        X      Y      Z   
After scan for Atom:   Atom  AN      X      Y      Z        X      Y      Z        X      Y      Z   
After scan for Atom:   Atom  AN      X      Y      Z        X      Y      Z        X      Y      Z   
After scan for Atom:   Atom  AN      X      Y      Z        X      Y      Z        X      Y      Z   
After scan for Atom:   Atom  AN      X      Y      Z        X      Y      Z        X      Y      Z   
After scan for Atom:   Atom  AN      X      Y      Z        X      Y      Z        X      Y      Z   
After scan for Atom:   Atom  AN      X      Y      Z        X      Y      Z        X      Y      Z   
After scan for Atom:   Atom  AN      X      Y      Z        X      Y      Z        X      Y      Z   
After scan for Atom:   Atom  AN      X      Y      Z        X      Y      Z        X      Y      Z   
After scan for Atom:   Atom  AN      X      Y      Z        X      Y      Z        X      Y      Z   
After scan for Atom:   Atom  AN      X      Y      Z        X      Y      Z        X      Y      Z   
After scan for Atom:   Atom  AN      X      Y      Z        X      Y      Z        X      Y      Z   
After scan for Atom:   Atom  AN      X      Y      Z        X      Y      Z        X      Y      Z   
 g94    frequencies=
     0.0    0.0    0.0    0.0    0.0    0.0   87.8   87.8  126.3  164.5
   226.7  297.0  297.0  302.3  302.3  370.0  370.0  385.0  385.0  456.9
   456.9  481.1  484.9  498.1  498.1  530.1  553.2  553.2  565.0  565.3
   624.3  646.0  671.8  671.8  680.7  690.6  690.6  772.7  772.7  775.7
   783.6  785.1  785.1  818.1  818.1  823.9  823.9  854.2  854.2  873.9
   941.9  959.8  966.4  966.4  977.0  977.0  983.3 1009.6 1009.6 1049.4
  1159.0 1159.0 1159.2 1181.8 1181.8 1184.3 1212.6 1237.4 1237.4 1244.2
  1249.2 1249.2 1258.2 1338.2 1338.2 1371.7 1373.4 1423.1 1423.1 1424.9
  1424.9 1444.8 1465.1 1465.1 1481.2 1481.2 1518.5 1533.4 1533.4 1573.2
  1583.5 1639.0 1653.7 1653.7 1653.8 1653.8 3154.9 3155.8 3155.8 3157.5
  3157.5 3158.4 3172.6 3173.6 3173.6 3175.4 3175.4 3176.8
 g94    symmetries=
                                                E2     E2     A2     B1
      B2     E1     E1     E2     E2     E2     E2     E1     E1     E1
      E1     B2     A1     E2     E2     A1     E2     E2     B1     A2
      B2     A2     E1     E1     B1     E2     E2     E2     E2     B1
      B2     E1     E1     E2     E2     E1     E1     E1     E1     A2
      A2     A1     E1     E1     E2     E2     B2     E2     E2     A1
      E1     E1     B2     E2     E2     B1     B2     E1     E1     A1
      E2     E2     A2     E1     E1     A1     B2     E2     E2     E1
      E1     B1     E2     E2     E2     E2     B2     E1     E1     A2
      B1     A1     E1     E1     E2     E2     A2     E1     E1     E2
      E2     B1     B2     E2     E2     E1     E1     A1
 atomic masses:
 12.0000 12.0000 12.0000 12.0000 12.0000 12.0000 12.0000 12.0000 12.0000 12.0000
 12.0000 12.0000 12.0000 12.0000 12.0000 12.0000 12.0000 12.0000 12.0000 12.0000
 12.0000 12.0000 12.0000 12.0000  1.0078  1.0078  1.0078  1.0078  1.0078  1.0078
  1.0078  1.0078  1.0078  1.0078  1.0078  1.0078
 looking for force constants in 
 ./Circulene_1_C0S0.fchk                                                        
  
 Cartesian Force Constants                  R   N=        5886                  
  
 n3=         108        5886
 g94-fc frequencies=
    -4.7   -3.7   -3.7   -0.0   -0.0    0.0   87.8   87.8  126.3  164.5
   226.7  297.0  297.0  302.3  302.3  370.0  370.0  385.0  385.0  457.0
   457.0  481.2  484.9  498.1  498.1  530.1  553.2  553.2  565.0  565.4
   624.3  646.0  671.8  671.8  680.7  690.6  690.6  772.8  772.8  775.8
   783.7  785.1  785.1  818.1  818.1  823.9  823.9  854.3  854.3  873.9
   941.9  959.8  966.4  966.4  977.0  977.0  983.3 1009.7 1009.7 1049.4
  1159.0 1159.0 1159.2 1181.8 1181.8 1184.3 1212.7 1237.4 1237.4 1244.2
  1249.3 1249.3 1258.3 1338.3 1338.3 1371.8 1373.4 1423.2 1423.2 1424.9
  1424.9 1444.8 1465.1 1465.1 1481.3 1481.3 1518.5 1533.5 1533.5 1573.2
  1583.6 1639.0 1653.8 1653.8 1653.9 1653.9 3155.0 3155.9 3155.9 3157.6
  3157.6 3158.4 3172.6 3173.7 3173.7 3175.5 3175.5 3176.8
 at 99999: n3=         108
 symm operator            1 :  T  nop=           1
 symm operator            2 :  T  nop=           2
 symm operator            3 :  T  nop=           3
 symm operator            4 :  T  nop=           4
 symm operator            5 :  T  nop=           5
 symm operator            6 :  T  nop=           6
 symm operator            7 :  T  nop=           7
 The point group of the molecule is D2H
 enforcing symm op           1  jsymt=          -1          -1           1
 enforcing symm op           2  jsymt=          -1           1          -1
 enforcing symm op           3  jsymt=           1          -1          -1
 enforcing symm op           4  jsymt=          -1          -1          -1
 enforcing symm op           5  jsymt=           1           1          -1
 enforcing symm op           6  jsymt=           1          -1           1
 enforcing symm op           7  jsymt=          -1           1           1
 cartesian coord symmetries:
 Ag :   18 Au :    8 B1g:   18 B1u:   10 B2g:    8 B2u:   18 B3g:   10 B3u:   18
 Symmetry rotation matrix:
   1.00000   0.00000   0.00000
   0.00000   1.00000   0.00000
   0.00000   0.00000   1.00000

 Projecting out zero-frequency components
 generating redundant internal coords
         300        3600          36
 search for int coords
   1 str   2   1   1.369
   2 str   3   2   1.422
   3 str   4   3   1.422
   4 str   5   4   1.369
   5 str   6   5   1.422
   6 str   7   6   1.422
   7 str   8   7   1.369
   8 str   9   8   1.422
   9 str  10   9   1.422
  10 str  11  10   1.369
  11 str  12  11   1.422
  12 str  13  12   1.422
  13 str  14  13   1.369
  14 str  15  14   1.422
  15 str  16  15   1.422
  16 str  17  16   1.369
  17 str  18   1   1.422
  18 str  18  17   1.422
  19 str  19  18   1.419
  20 str  20   3   1.419
  21 str  20  19   1.426
  22 str  21   6   1.419
  23 str  21  20   1.426
  24 str  22   9   1.419
  25 str  22  21   1.426
  26 str  23  12   1.419
  27 str  23  22   1.426
  28 str  24  15   1.419
  29 str  24  19   1.426
  30 str  24  23   1.426
  31 str  25   1   1.085
  32 str  26   2   1.085
  33 str  27   4   1.085
  34 str  28   5   1.085
  35 str  29   7   1.085
  36 str  30   8   1.085
  37 str  31  10   1.085
  38 str  32  11   1.085
  39 str  33  13   1.085
  40 str  34  14   1.085
  41 str  35  16   1.085
  42 str  36  17   1.085
 nber stretches=          42
  43 ben   1   2   3
  44 prop tor   1   2   3   4
  45 prop tor   1   2   3  20
  46 ben   1   2  26
  47 ben   1  18  17
  48 ben   1  18  19
  49 prop tor   1  18  19  20
  50 prop tor   1  18  19  24
  51 ben   2   1  18
  52 prop tor   2   1  18  17
  53 prop tor   2   1  18  19
  54 ben   2   1  25
  55 ben   2   3   4
  56 prop tor   2   3   4   5
  57 prop tor   2   3   4  27
  58 ben   2   3  20
  59 prop tor   2   3  20  19
  60 prop tor   2   3  20  21
  61 ben   3   2  26
  62 ben   3   4   5
  63 prop tor   3   4   5   6
  64 prop tor   3   4   5  28
  65 ben   3   4  27
  66 ben   3  20  19
  67 ben   3  20  21
  68 prop tor   3  20  21   6
  69 prop tor   3  20  21  22
  70 ben   4   3  20
  71 prop tor   4   3  20  19
  72 prop tor   4   3  20  21
  73 ben   4   5   6
  74 prop tor   4   5   6   7
  75 prop tor   4   5   6  21
  76 ben   4   5  28
  77 ben   5   4  27
  78 ben   5   6   7
  79 prop tor   5   6   7   8
  80 prop tor   5   6   7  29
  81 ben   5   6  21
  82 prop tor   5   6  21  20
  83 prop tor   5   6  21  22
  84 ben   6   5  28
  85 ben   6   7   8
  86 prop tor   6   7   8   9
  87 prop tor   6   7   8  30
  88 ben   6   7  29
  89 ben   6  21  20
  90 ben   6  21  22
  91 prop tor   6  21  22   9
  92 prop tor   6  21  22  23
  93 ben   7   6  21
  94 prop tor   7   6  21  20
  95 prop tor   7   6  21  22
  96 ben   7   8   9
  97 prop tor   7   8   9  10
  98 prop tor   7   8   9  22
  99 ben   7   8  30
 100 ben   8   7  29
 101 ben   8   9  10
 102 prop tor   8   9  10  11
 103 prop tor   8   9  10  31
 104 ben   8   9  22
 105 prop tor   8   9  22  21
 106 prop tor   8   9  22  23
 107 ben   9   8  30
 108 ben   9  10  11
 109 prop tor   9  10  11  12
 110 prop tor   9  10  11  32
 111 ben   9  10  31
 112 ben   9  22  21
 113 ben   9  22  23
 114 prop tor   9  22  23  12
 115 prop tor   9  22  23  24
 116 ben  10   9  22
 117 prop tor  10   9  22  21
 118 prop tor  10   9  22  23
 119 ben  10  11  12
 120 prop tor  10  11  12  13
 121 prop tor  10  11  12  23
 122 ben  10  11  32
 123 ben  11  10  31
 124 ben  11  12  13
 125 prop tor  11  12  13  14
 126 prop tor  11  12  13  33
 127 ben  11  12  23
 128 prop tor  11  12  23  22
 129 prop tor  11  12  23  24
 130 ben  12  11  32
 131 ben  12  13  14
 132 prop tor  12  13  14  15
 133 prop tor  12  13  14  34
 134 ben  12  13  33
 135 ben  12  23  22
 136 ben  12  23  24
 137 prop tor  12  23  24  15
 138 prop tor  12  23  24  19
 139 ben  13  12  23
 140 prop tor  13  12  23  22
 141 prop tor  13  12  23  24
 142 ben  13  14  15
 143 prop tor  13  14  15  16
 144 prop tor  13  14  15  24
 145 ben  13  14  34
 146 ben  14  13  33
 147 ben  14  15  16
 148 prop tor  14  15  16  17
 149 prop tor  14  15  16  35
 150 ben  14  15  24
 151 prop tor  14  15  24  19
 152 prop tor  14  15  24  23
 153 ben  15  14  34
 154 ben  15  16  17
 155 prop tor  15  16  17  18
 156 prop tor  15  16  17  36
 157 ben  15  16  35
 158 ben  15  24  19
 159 ben  15  24  23
 160 ben  16  15  24
 161 prop tor  16  15  24  19
 162 prop tor  16  15  24  23
 163 ben  16  17  18
 164 prop tor  16  17  18   1
 165 prop tor  16  17  18  19
 166 ben  16  17  36
 167 ben  17  16  35
 168 ben  17  18  19
 169 prop tor  17  18  19  20
 170 prop tor  17  18  19  24
 171 prop tor  18   1   2   3
 172 prop tor  18   1   2  26
 173 ben  18   1  25
 174 ben  18  17  36
 175 ben  18  19  20
 176 prop tor  18  19  20   3
 177 prop tor  18  19  20  21
 178 ben  18  19  24
 179 prop tor  18  19  24  15
 180 prop tor  18  19  24  23
 181 ben  19  20  21
 182 prop tor  19  20  21   6
 183 prop tor  19  20  21  22
 184 ben  19  24  23
 185 prop tor  20   3   4   5
 186 prop tor  20   3   4  27
 187 ben  20  19  24
 188 prop tor  20  19  24  15
 189 prop tor  20  19  24  23
 190 ben  20  21  22
 191 prop tor  20  21  22   9
 192 prop tor  20  21  22  23
 193 prop tor  21   6   7   8
 194 prop tor  21   6   7  29
 195 ben  21  22  23
 196 prop tor  21  22  23  12
 197 prop tor  21  22  23  24
 198 prop tor  22   9  10  11
 199 prop tor  22   9  10  31
 200 ben  22  23  24
 201 prop tor  22  23  24  15
 202 prop tor  22  23  24  19
 203 prop tor  23  12  13  14
 204 prop tor  23  12  13  33
 205 prop tor  24  15  16  17
 206 prop tor  24  15  16  35
 207 prop tor  24  19  20   3
 208 prop tor  24  19  20  21
 209 prop tor  25   1   2   3
 210 prop tor  25   1   2  26
 211 prop tor  25   1  18  17
 212 prop tor  25   1  18  19
 213 prop tor  26   2   3   4
 214 prop tor  26   2   3  20
 215 prop tor  27   4   5   6
 216 prop tor  27   4   5  28
 217 prop tor  28   5   6   7
 218 prop tor  28   5   6  21
 219 prop tor  29   7   8   9
 220 prop tor  29   7   8  30
 221 prop tor  30   8   9  10
 222 prop tor  30   8   9  22
 223 prop tor  31  10  11  12
 224 prop tor  31  10  11  32
 225 prop tor  32  11  12  13
 226 prop tor  32  11  12  23
 227 prop tor  33  13  14  15
 228 prop tor  33  13  14  34
 229 prop tor  34  14  15  16
 230 prop tor  34  14  15  24
 231 prop tor  35  16  17  18
 232 prop tor  35  16  17  36
 233 prop tor  36  17  18   1
 234 prop tor  36  17  18  19
 nber bend=              72
 nber lin bend=           0
 nber prop tor=         120
 nber impr tor=           0
 nber tot redund int=         234
 Eigenvalues of G in red int coords
    Gval -0.00000000 -0.00000000 -0.00000000 -0.00000000 -0.00000000 -0.00000000 -0.00000000 -0.00000000
    Gval -0.00000000 -0.00000000 -0.00000000 -0.00000000 -0.00000000 -0.00000000 -0.00000000 -0.00000000
    Gval -0.00000000 -0.00000000 -0.00000000 -0.00000000 -0.00000000 -0.00000000 -0.00000000 -0.00000000
    Gval -0.00000000 -0.00000000 -0.00000000 -0.00000000 -0.00000000 -0.00000000 -0.00000000 -0.00000000
    Gval -0.00000000 -0.00000000 -0.00000000 -0.00000000 -0.00000000 -0.00000000 -0.00000000 -0.00000000
    Gval -0.00000000 -0.00000000 -0.00000000 -0.00000000 -0.00000000 -0.00000000 -0.00000000 -0.00000000
    Gval -0.00000000 -0.00000000 -0.00000000 -0.00000000 -0.00000000 -0.00000000 -0.00000000 -0.00000000
    Gval -0.00000000 -0.00000000 -0.00000000 -0.00000000 -0.00000000 -0.00000000 -0.00000000 -0.00000000
    Gval -0.00000000 -0.00000000  0.00000000  0.00000000  0.00000000  0.00000000  0.00000000  0.00000000
    Gval  0.00000000  0.00000000  0.00000000  0.00000000  0.00000000  0.00000000  0.00000000  0.00000000
    Gval  0.00000000  0.00000000  0.00000000  0.00000000  0.00000000  0.00000000  0.00000000  0.00000000
    Gval  0.00000000  0.00000000  0.00000000  0.00000000  0.00000000  0.00000000  0.00000000  0.00000000
    Gval  0.00000000  0.00000000  0.00000000  0.00000000  0.00000000  0.00000000  0.00000000  0.00000000
    Gval  0.00000000  0.00000000  0.00000000  0.00000000  0.00000000  0.00000000  0.00000000  0.00000000
    Gval  0.00000000  0.00000000  0.00000000  0.00000000  0.00000000  0.00000000  0.00000000  0.00000000
    Gval  0.00000000  0.00000000  0.00000000  0.00000000  0.00000000  0.00000000  0.00000000  0.00000000
    Gval  0.00000000  0.00000000  0.00000000  0.00000000  0.00001095  0.00001412  0.00001412  0.00001480
    Gval  0.00001480  0.00003250  0.00003250  0.00003655  0.00003713  0.00003939  0.00003939  0.00004882
    Gval  0.00004882  0.00006130  0.00006616  0.00007256  0.00007256  0.00007666  0.00008052  0.00008392
    Gval  0.00008393  0.00008393  0.00009387  0.00009387  0.00012050  0.00012215  0.00012227  0.00012227
    Gval  0.00014689  0.00015032  0.00015032  0.00018606  0.00018606  0.00022279  0.00022424  0.00024727
    Gval  0.00024727  0.00029275  0.00033126  0.00033126  0.00034494  0.00034494  0.00035761  0.00037422
    Gval  0.00037422  0.00039224  0.00039317  0.00039317  0.00040753  0.00043714  0.00043714  0.00046484
    Gval  0.00048541  0.00048541  0.00059577  0.00059705  0.00059705  0.00059962  0.00059962  0.00060163
    Gval  0.00062765  0.00063537  0.00063537  0.00065054  0.00065054  0.00065938  0.00069333  0.00069333
    Gval  0.00086420  0.00095091  0.00095091  0.00107562  0.00108007  0.00108125  0.00108125  0.00109160
    Gval  0.00109160  0.00109657  0.00115861  0.00115952  0.00115952  0.00116108  0.00116108  0.00116180
    Gval  0.00133805  0.00149031  0.00149031  0.00207876  0.00210798  0.00210798  0.00235204  0.00235204
    Gval  0.00249458  0.00249458  0.00261044  0.00284104  0.00353330  0.00362195  0.00362195  0.00375977
    Gval  0.00375977  0.00381702
  1.094796456843363E-005  1.094796456843363E-005
  1.411775492292741E-005  1.094796456843363E-005
  1.411775873454337E-005  1.094796456843363E-005
  1.479840843980587E-005  1.094796456843363E-005
  1.479841016825160E-005  1.094796456843363E-005
  3.250029890448101E-005  1.094796456843363E-005
  3.250029930002308E-005  1.094796456843363E-005
  3.654724727170569E-005  1.094796456843363E-005
  3.713173003961748E-005  1.094796456843363E-005
  3.939345705204563E-005  1.094796456843363E-005
  3.939346863776804E-005  1.094796456843363E-005
  4.881580615043199E-005  1.094796456843363E-005
  4.881581145782204E-005  1.094796456843363E-005
  6.130142591761826E-005  1.094796456843363E-005
  6.615544266385446E-005  1.094796456843363E-005
  7.255702140571440E-005  1.094796456843363E-005
  7.255702246120355E-005  1.094796456843363E-005
  7.666042007822309E-005  1.094796456843363E-005
  8.052397232168698E-005  1.094796456843363E-005
  8.392089589223752E-005  1.094796456843363E-005
  8.392662037957904E-005  1.094796456843363E-005
  8.392663031771956E-005  1.094796456843363E-005
  9.386510154791569E-005  1.094796456843363E-005
  9.386510701547093E-005  1.094796456843363E-005
  1.205019077692840E-004  1.094796456843363E-005
  1.221510622039801E-004  1.094796456843363E-005
  1.222667290494928E-004  1.094796456843363E-005
  1.222667708130485E-004  1.094796456843363E-005
  1.468897737678581E-004  1.094796456843363E-005
  1.503174564797361E-004  1.094796456843363E-005
  1.503174614196859E-004  1.094796456843363E-005
  1.860562687344142E-004  1.094796456843363E-005
  1.860563044382633E-004  1.094796456843363E-005
  2.227904185874327E-004  1.094796456843363E-005
  2.242381019051069E-004  1.094796456843363E-005
  2.472676011100683E-004  1.094796456843363E-005
  2.472676359616321E-004  1.094796456843363E-005
  2.927495146468915E-004  1.094796456843363E-005
  3.312577236066930E-004  1.094796456843363E-005
  3.312577590267113E-004  1.094796456843363E-005
  3.449354741723580E-004  1.094796456843363E-005
  3.449355724790129E-004  1.094796456843363E-005
  3.576065310106243E-004  1.094796456843363E-005
  3.742219622789353E-004  1.094796456843363E-005
  3.742223079956014E-004  1.094796456843363E-005
  3.922399769717632E-004  1.094796456843363E-005
  3.931684227857258E-004  1.094796456843363E-005
  3.931684722739129E-004  1.094796456843363E-005
  4.075250574444780E-004  1.094796456843363E-005
  4.371381765078908E-004  1.094796456843363E-005
  4.371382737735259E-004  1.094796456843363E-005
  4.648378483052033E-004  1.094796456843363E-005
  4.854081083655686E-004  1.094796456843363E-005
  4.854081191479654E-004  1.094796456843363E-005
  5.957723806530134E-004  1.094796456843363E-005
  5.970536067501291E-004  1.094796456843363E-005
  5.970536101389380E-004  1.094796456843363E-005
  5.996233401033506E-004  1.094796456843363E-005
  5.996233429277346E-004  1.094796456843363E-005
  6.016286183651252E-004  1.094796456843363E-005
  6.276511811881180E-004  1.094796456843363E-005
  6.353707630420411E-004  1.094796456843363E-005
  6.353707744032140E-004  1.094796456843363E-005
  6.505362903442602E-004  1.094796456843363E-005
  6.505363107291629E-004  1.094796456843363E-005
  6.593805323346747E-004  1.094796456843363E-005
  6.933312841310690E-004  1.094796456843363E-005
  6.933313116852428E-004  1.094796456843363E-005
  8.642045074681443E-004  1.094796456843363E-005
  9.509092634532947E-004  1.094796456843363E-005
  9.509093172936601E-004  1.094796456843363E-005
  1.075619600522823E-003  1.094796456843363E-005
  1.080067308100575E-003  1.094796456843363E-005
  1.081253123624010E-003  1.094796456843363E-005
  1.081253449608798E-003  1.094796456843363E-005
  1.091598430078392E-003  1.094796456843363E-005
  1.091598908781499E-003  1.094796456843363E-005
  1.096572124835909E-003  1.094796456843363E-005
  1.158606748201039E-003  1.094796456843363E-005
  1.159519875798609E-003  1.094796456843363E-005
  1.159520203714810E-003  1.094796456843363E-005
  1.161082376744899E-003  1.094796456843363E-005
  1.161082600405685E-003  1.094796456843363E-005
  1.161798592811608E-003  1.094796456843363E-005
  1.338046326082511E-003  1.094796456843363E-005
  1.490312511037985E-003  1.094796456843363E-005
  1.490312517351806E-003  1.094796456843363E-005
  2.078756303680238E-003  1.094796456843363E-005
  2.107978512454346E-003  1.094796456843363E-005
  2.107979026159552E-003  1.094796456843363E-005
  2.352037545504342E-003  1.094796456843363E-005
  2.352038444398445E-003  1.094796456843363E-005
  2.494577527490102E-003  1.094796456843363E-005
  2.494579849569831E-003  1.094796456843363E-005
  2.610444562031723E-003  1.094796456843363E-005
  2.841039403935226E-003  1.094796456843363E-005
  3.533302193233062E-003  1.094796456843363E-005
  3.621952603296170E-003  1.094796456843363E-005
  3.621953740119803E-003  1.094796456843363E-005
  3.759774486802186E-003  1.094796456843363E-005
  3.759774878438460E-003  1.094796456843363E-005
  3.817018709543581E-003  1.094796456843363E-005
 cut=1d-8, nber non-redundant internal coords=         102
 Check on Eigenvals of non-red overlap matrix:
  0.00001095  0.00001412  0.00001412  0.00001480  0.00001480  0.00003250  0.00003250  0.00003655
  0.00003713  0.00003939  0.00003939  0.00004882  0.00004882  0.00006130  0.00006616  0.00007256
  0.00007256  0.00007666  0.00008052  0.00008392  0.00008393  0.00008393  0.00009387  0.00009387
  0.00012050  0.00012215  0.00012227  0.00012227  0.00014689  0.00015032  0.00015032  0.00018606
  0.00018606  0.00022279  0.00022424  0.00024727  0.00024727  0.00029275  0.00033126  0.00033126
  0.00034494  0.00034494  0.00035761  0.00037422  0.00037422  0.00039224  0.00039317  0.00039317
  0.00040753  0.00043714  0.00043714  0.00046484  0.00048541  0.00048541  0.00059577  0.00059705
  0.00059705  0.00059962  0.00059962  0.00060163  0.00062765  0.00063537  0.00063537  0.00065054
  0.00065054  0.00065938  0.00069333  0.00069333  0.00086420  0.00095091  0.00095091  0.00107562
  0.00108007  0.00108125  0.00108125  0.00109160  0.00109160  0.00109657  0.00115861  0.00115952
  0.00115952  0.00116108  0.00116108  0.00116180  0.00133805  0.00149031  0.00149031  0.00207876
  0.00210798  0.00210798  0.00235204  0.00235204  0.00249458  0.00249458  0.00261044  0.00284104
  0.00353330  0.00362195  0.00362195  0.00375977  0.00375977  0.00381702
 Checking for correct frequencies
 recalc frequencies=
    -0.0   -0.0   -0.0   -0.0    0.0    0.0   87.8   87.8  126.3  164.5
   226.7  297.0  297.0  302.3  302.3  370.0  370.0  385.0  385.0  457.0
   457.0  481.2  484.9  498.1  498.1  530.1  553.2  553.2  565.0  565.4
   624.3  646.0  671.8  671.8  680.7  690.6  690.6  772.8  772.8  775.8
   783.7  785.1  785.1  818.1  818.1  823.9  823.9  854.3  854.3  873.9
   941.9  959.8  966.4  966.4  977.0  977.0  983.3 1009.7 1009.7 1049.4
  1159.0 1159.0 1159.2 1181.8 1181.8 1184.3 1212.7 1237.4 1237.4 1244.2
  1249.3 1249.3 1258.3 1338.3 1338.3 1371.8 1373.4 1423.2 1423.2 1424.9
  1424.9 1444.8 1465.1 1465.1 1481.3 1481.3 1518.5 1533.5 1533.5 1573.2
  1583.6 1639.0 1653.8 1653.8 1653.9 1653.9 3155.0 3155.9 3155.9 3157.6
  3157.6 3158.4 3172.6 3173.7 3173.7 3175.5 3175.5 3176.8
 recalc symmetries=
     B2u    B3u    B2g    B1u    B3g    B1g    Au     B1u    B1u    B2g
     B3g    B3g    B2g    B1u    Au     Ag     B1g    B2u    B3u    B2g
     B3g    B3u    Ag     B1g    Ag     Au     B1u    Au     B2u    B1u
     B3g    B1g    B2g    B3g    B2u    B1g    Ag     B1u    Au     B2g
     B3g    B2u    B3u    B1u    Au     B2u    B3u    B2g    B3g    B1u
     B1g    Au     B3g    B2g    Au     B1u    B3g    Ag     B1g    Ag 
     B2u    B3u    B3u    B1g    Ag     B2u    B3u    B2u    B3u    Ag 
     B1g    Ag     B1g    B2u    B3u    Ag     B3u    B1g    Ag     B2u
     B3u    B2u    B1g    Ag     B1g    Ag     B3u    B2u    B3u    B1g
     B2u    Ag     B2u    B3u    Ag     B1g    B1g    B2u    B3u    B1g
     Ag     B2u    B3u    Ag     B1g    B3u    B2u    Ag 
 recalc freqs check OK
 Zero-point lengths:
 10.0000 10.0000 10.0000 10.0000 10.0000 10.0000 26.4611 26.4610 22.0617 19.3287
 16.4640 14.3862 14.3862 14.2586 14.2586 12.8888 12.8888 12.6339 12.6339 11.5974
 11.5974 11.3019 11.2586 11.1076 11.1076 10.7677 10.5401 10.5401 10.4293 10.4264
  9.9219  9.7539  9.5646  9.5646  9.5022  9.4336  9.4336  8.9182  8.9182  8.9009
  8.8559  8.8475  8.8475  8.6675  8.6675  8.6367  8.6367  8.4821  8.4821  8.3860
  8.0779  8.0020  7.9746  7.9746  7.9312  7.9312  7.9058  7.8020  7.8020  7.6529
  7.2819  7.2819  7.2815  7.2114  7.2114  7.2037  7.1191  7.0476  7.0476  7.0284
  7.0141  7.0141  6.9889  6.7768  6.7768  6.6936  6.6896  6.5715  6.5715  6.5675
  6.5675  6.5222  6.4767  6.4767  6.4414  6.4414  6.3619  6.3308  6.3308  6.2503
  6.2299  6.1235  6.0962  6.0962  6.0960  6.0960  4.4136  4.4130  4.4130  4.4118
  4.4118  4.4112  4.4013  4.4006  4.4006  4.3994  4.3994  4.3984
 highest evec of mol 1
 -0.0042  0.0848  0.0000
  0.0756  0.0388  0.0000
 -0.0016 -0.0009  0.0000
  0.0714  0.0460  0.0000
  0.0714 -0.0460  0.0000
 -0.0016  0.0009  0.0000
  0.0756 -0.0388  0.0000
 -0.0042 -0.0848  0.0000
  0.0000  0.0018  0.0000
  0.0042 -0.0848  0.0000
 -0.0756 -0.0388  0.0000
  0.0016  0.0009  0.0000
 -0.0714 -0.0460  0.0000
 -0.0714  0.0460  0.0000
  0.0016 -0.0009  0.0000
 -0.0756  0.0388  0.0000
  0.0042  0.0848  0.0000
  0.0000 -0.0018  0.0000
  0.0000 -0.0009  0.0000
 -0.0008 -0.0004  0.0000
 -0.0008  0.0004  0.0000
  0.0000  0.0009  0.0000
  0.0008  0.0004  0.0000
  0.0008 -0.0004  0.0000
  0.0005 -0.2759  0.0000
 -0.2392 -0.1375  0.0000
 -0.2387 -0.1384  0.0000
 -0.2387  0.1384  0.0000
 -0.2392  0.1375  0.0000
  0.0005  0.2759  0.0000
 -0.0005  0.2759  0.0000
  0.2392  0.1375  0.0000
  0.2387  0.1384  0.0000
  0.2387 -0.1384  0.0000
  0.2392 -0.1375  0.0000
 -0.0005 -0.2759  0.0000
 generating redundant internal coords
         300        3600          36
 Adding extra bonds for z output only
           6           6           6           6           6           6
           6           6           6           6           6           6
           6           6           6           6           6           6
           6           6           6           6           6           6
           1           1           1           1           1           1
           1           1           1           1           1           1
 search for int coords
   1 str   2   1   1.369
   2 str   3   2   1.422
   3 str   4   3   1.422
   4 str   5   4   1.369
   5 str   6   5   1.422
   6 str   7   6   1.422
   7 str   8   7   1.369
   8 str   9   8   1.422
   9 str  10   9   1.422
  10 str  11  10   1.369
  11 str  12  11   1.422
  12 str  13  12   1.422
  13 str  14  13   1.369
  14 str  15  14   1.422
  15 str  16  15   1.422
  16 str  17  16   1.369
  17 str  18   1   1.422
  18 str  18  17   1.422
  19 str  19  18   1.419
  20 str  20   3   1.419
  21 str  20  19   1.426
  22 str  21   6   1.419
  23 str  21  20   1.426
  24 str  22   9   1.419
  25 str  22  21   1.426
  26 str  23  12   1.419
  27 str  23  22   1.426
  28 str  24  15   1.419
  29 str  24  19   1.426
  30 str  24  23   1.426
  31 str  25   1   1.085
  32 str  26   2   1.085
  33 str  27   4   1.085
  34 str  28   5   1.085
  35 str  29   7   1.085
  36 str  30   8   1.085
  37 str  31  10   1.085
  38 str  32  11   1.085
  39 str  33  13   1.085
  40 str  34  14   1.085
  41 str  35  16   1.085
  42 str  36  17   1.085
 nber stretches=          42
  43 ben   1   2   3
  44 prop tor   1   2   3   4
  45 prop tor   1   2   3  20
  46 ben   1   2  26
  47 ben   1  18  17
  48 ben   1  18  19
  49 prop tor   1  18  19  20
  50 prop tor   1  18  19  24
  51 ben   2   1  18
  52 prop tor   2   1  18  17
  53 prop tor   2   1  18  19
  54 ben   2   1  25
  55 ben   2   3   4
  56 prop tor   2   3   4   5
  57 prop tor   2   3   4  27
  58 ben   2   3  20
  59 prop tor   2   3  20  19
  60 prop tor   2   3  20  21
  61 ben   3   2  26
  62 ben   3   4   5
  63 prop tor   3   4   5   6
  64 prop tor   3   4   5  28
  65 ben   3   4  27
  66 ben   3  20  19
  67 ben   3  20  21
  68 prop tor   3  20  21   6
  69 prop tor   3  20  21  22
  70 ben   4   3  20
  71 prop tor   4   3  20  19
  72 prop tor   4   3  20  21
  73 ben   4   5   6
  74 prop tor   4   5   6   7
  75 prop tor   4   5   6  21
  76 ben   4   5  28
  77 ben   5   4  27
  78 ben   5   6   7
  79 prop tor   5   6   7   8
  80 prop tor   5   6   7  29
  81 ben   5   6  21
  82 prop tor   5   6  21  20
  83 prop tor   5   6  21  22
  84 ben   6   5  28
  85 ben   6   7   8
  86 prop tor   6   7   8   9
  87 prop tor   6   7   8  30
  88 ben   6   7  29
  89 ben   6  21  20
  90 ben   6  21  22
  91 prop tor   6  21  22   9
  92 prop tor   6  21  22  23
  93 ben   7   6  21
  94 prop tor   7   6  21  20
  95 prop tor   7   6  21  22
  96 ben   7   8   9
  97 prop tor   7   8   9  10
  98 prop tor   7   8   9  22
  99 ben   7   8  30
 100 ben   8   7  29
 101 ben   8   9  10
 102 prop tor   8   9  10  11
 103 prop tor   8   9  10  31
 104 ben   8   9  22
 105 prop tor   8   9  22  21
 106 prop tor   8   9  22  23
 107 ben   9   8  30
 108 ben   9  10  11
 109 prop tor   9  10  11  12
 110 prop tor   9  10  11  32
 111 ben   9  10  31
 112 ben   9  22  21
 113 ben   9  22  23
 114 prop tor   9  22  23  12
 115 prop tor   9  22  23  24
 116 ben  10   9  22
 117 prop tor  10   9  22  21
 118 prop tor  10   9  22  23
 119 ben  10  11  12
 120 prop tor  10  11  12  13
 121 prop tor  10  11  12  23
 122 ben  10  11  32
 123 ben  11  10  31
 124 ben  11  12  13
 125 prop tor  11  12  13  14
 126 prop tor  11  12  13  33
 127 ben  11  12  23
 128 prop tor  11  12  23  22
 129 prop tor  11  12  23  24
 130 ben  12  11  32
 131 ben  12  13  14
 132 prop tor  12  13  14  15
 133 prop tor  12  13  14  34
 134 ben  12  13  33
 135 ben  12  23  22
 136 ben  12  23  24
 137 prop tor  12  23  24  15
 138 prop tor  12  23  24  19
 139 ben  13  12  23
 140 prop tor  13  12  23  22
 141 prop tor  13  12  23  24
 142 ben  13  14  15
 143 prop tor  13  14  15  16
 144 prop tor  13  14  15  24
 145 ben  13  14  34
 146 ben  14  13  33
 147 ben  14  15  16
 148 prop tor  14  15  16  17
 149 prop tor  14  15  16  35
 150 ben  14  15  24
 151 prop tor  14  15  24  19
 152 prop tor  14  15  24  23
 153 ben  15  14  34
 154 ben  15  16  17
 155 prop tor  15  16  17  18
 156 prop tor  15  16  17  36
 157 ben  15  16  35
 158 ben  15  24  19
 159 ben  15  24  23
 160 ben  16  15  24
 161 prop tor  16  15  24  19
 162 prop tor  16  15  24  23
 163 ben  16  17  18
 164 prop tor  16  17  18   1
 165 prop tor  16  17  18  19
 166 ben  16  17  36
 167 ben  17  16  35
 168 ben  17  18  19
 169 prop tor  17  18  19  20
 170 prop tor  17  18  19  24
 171 prop tor  18   1   2   3
 172 prop tor  18   1   2  26
 173 ben  18   1  25
 174 ben  18  17  36
 175 ben  18  19  20
 176 prop tor  18  19  20   3
 177 prop tor  18  19  20  21
 178 ben  18  19  24
 179 prop tor  18  19  24  15
 180 prop tor  18  19  24  23
 181 ben  19  20  21
 182 prop tor  19  20  21   6
 183 prop tor  19  20  21  22
 184 ben  19  24  23
 185 prop tor  20   3   4   5
 186 prop tor  20   3   4  27
 187 ben  20  19  24
 188 prop tor  20  19  24  15
 189 prop tor  20  19  24  23
 190 ben  20  21  22
 191 prop tor  20  21  22   9
 192 prop tor  20  21  22  23
 193 prop tor  21   6   7   8
 194 prop tor  21   6   7  29
 195 ben  21  22  23
 196 prop tor  21  22  23  12
 197 prop tor  21  22  23  24
 198 prop tor  22   9  10  11
 199 prop tor  22   9  10  31
 200 ben  22  23  24
 201 prop tor  22  23  24  15
 202 prop tor  22  23  24  19
 203 prop tor  23  12  13  14
 204 prop tor  23  12  13  33
 205 prop tor  24  15  16  17
 206 prop tor  24  15  16  35
 207 prop tor  24  19  20   3
 208 prop tor  24  19  20  21
 209 prop tor  25   1   2   3
 210 prop tor  25   1   2  26
 211 prop tor  25   1  18  17
 212 prop tor  25   1  18  19
 213 prop tor  26   2   3   4
 214 prop tor  26   2   3  20
 215 prop tor  27   4   5   6
 216 prop tor  27   4   5  28
 217 prop tor  28   5   6   7
 218 prop tor  28   5   6  21
 219 prop tor  29   7   8   9
 220 prop tor  29   7   8  30
 221 prop tor  30   8   9  10
 222 prop tor  30   8   9  22
 223 prop tor  31  10  11  12
 224 prop tor  31  10  11  32
 225 prop tor  32  11  12  13
 226 prop tor  32  11  12  23
 227 prop tor  33  13  14  15
 228 prop tor  33  13  14  34
 229 prop tor  34  14  15  16
 230 prop tor  34  14  15  24
 231 prop tor  35  16  17  18
 232 prop tor  35  16  17  36
 233 prop tor  36  17  18   1
 234 prop tor  36  17  18  19
 nber bend=              72
 nber lin bend=           0
 nber prop tor=         120
 nber impr tor=           0
 nber tot redund int=         234
 Reading file: 
 ./Circulene_1_C1S0.log                                                         
                                          
  Entering Gaussian System, Link 0=g16                                          
  
 Gaussian format, type: g94, g98, g03= F F F
  #P Geom=AllCheck Guess=TCheck SCRF=Check GenChk UB3LYP/6-311G(d,p) Fre    
 energy type= B3LYP   
 Original G94 input coords:
  6  3.542799 -1.244697  0.000000
  6  2.856114 -2.428292  0.000000
  6  1.422560 -2.457861  0.000000
  6  0.696429 -3.660526  0.000000
  6 -0.696429 -3.660526  0.000000
  6 -1.422560 -2.457861  0.000000
  6 -2.856114 -2.428292  0.000000
  6 -3.542799 -1.244697  0.000000
  6 -2.855375  0.000000  0.000000
  6 -3.542799  1.244697  0.000000
  6 -2.856114  2.428292  0.000000
  6 -1.422560  2.457861  0.000000
  6 -0.696429  3.660526  0.000000
  6  0.696429  3.660526  0.000000
  6  1.422560  2.457861  0.000000
  6  2.856114  2.428292  0.000000
  6  3.542799  1.244697  0.000000
  6  2.855375  0.000000  0.000000
  6  1.419911  0.000000  0.000000
  6  0.711468 -1.226691  0.000000
  6 -0.711468 -1.226691  0.000000
  6 -1.419911  0.000000  0.000000
  6 -0.711468  1.226691  0.000000
  6  0.711468  1.226691  0.000000
  1  4.625706 -1.243319  0.000000
  1  3.394551 -3.369608  0.000000
  1  1.231208 -4.603424  0.000000
  1 -1.231208 -4.603424  0.000000
  1 -3.394551 -3.369608  0.000000
  1 -4.625706 -1.243319  0.000000
  1 -4.625706  1.243319  0.000000
  1 -3.394551  3.369608  0.000000
  1 -1.231208  4.603424  0.000000
  1  1.231208  4.603424  0.000000
  1  3.394551  3.369608  0.000000
  1  4.625706  1.243319  0.000000
 nber atoms=          36
 Original standard coords:
  6  0.000000  1.244697  3.542799
  6  0.000000  2.428292  2.856114
  6  0.000000  2.457861  1.422560
  6  0.000000  3.660526  0.696429
  6  0.000000  3.660526 -0.696429
  6  0.000000  2.457861 -1.422560
  6  0.000000  2.428292 -2.856114
  6  0.000000  1.244697 -3.542799
  6  0.000000  0.000000 -2.855375
  6  0.000000 -1.244697 -3.542799
  6  0.000000 -2.428292 -2.856114
  6  0.000000 -2.457861 -1.422560
  6  0.000000 -3.660526 -0.696429
  6  0.000000 -3.660526  0.696429
  6  0.000000 -2.457861  1.422560
  6  0.000000 -2.428292  2.856114
  6  0.000000 -1.244697  3.542799
  6  0.000000  0.000000  2.855375
  6  0.000000  0.000000  1.419911
  6  0.000000  1.226691  0.711468
  6  0.000000  1.226691 -0.711468
  6  0.000000  0.000000 -1.419911
  6  0.000000 -1.226691 -0.711468
  6  0.000000 -1.226691  0.711468
  1  0.000000  1.243319  4.625706
  1  0.000000  3.369608  3.394551
  1  0.000000  4.603424  1.231208
  1  0.000000  4.603424 -1.231208
  1  0.000000  3.369608 -3.394551
  1  0.000000  1.243319 -4.625706
  1  0.000000 -1.243319 -4.625706
  1  0.000000 -3.369608 -3.394551
  1  0.000000 -4.603424 -1.231208
  1  0.000000 -4.603424  1.231208
  1  0.000000 -3.369608  3.394551
  1  0.000000 -1.243319  4.625706
  SCF Done:  E(UB3LYP) =  -921.835120860     A.U. after    1 cycles             
  
          23          40 "  -921.835120860"
After scan for Atom:   Atom  AN      X      Y      Z        X      Y      Z        X      Y      Z   
After scan for Atom:   Atom  AN      X      Y      Z        X      Y      Z        X      Y      Z   
After scan for Atom:   Atom  AN      X      Y      Z        X      Y      Z        X      Y      Z   
After scan for Atom:   Atom  AN      X      Y      Z        X      Y      Z        X      Y      Z   
After scan for Atom:   Atom  AN      X      Y      Z        X      Y      Z        X      Y      Z   
After scan for Atom:   Atom  AN      X      Y      Z        X      Y      Z        X      Y      Z   
After scan for Atom:   Atom  AN      X      Y      Z        X      Y      Z        X      Y      Z   
After scan for Atom:   Atom  AN      X      Y      Z        X      Y      Z        X      Y      Z   
After scan for Atom:   Atom  AN      X      Y      Z        X      Y      Z        X      Y      Z   
After scan for Atom:   Atom  AN      X      Y      Z        X      Y      Z        X      Y      Z   
After scan for Atom:   Atom  AN      X      Y      Z        X      Y      Z        X      Y      Z   
After scan for Atom:   Atom  AN      X      Y      Z        X      Y      Z        X      Y      Z   
After scan for Atom:   Atom  AN      X      Y      Z        X      Y      Z        X      Y      Z   
After scan for Atom:   Atom  AN      X      Y      Z        X      Y      Z        X      Y      Z   
After scan for Atom:   Atom  AN      X      Y      Z        X      Y      Z        X      Y      Z   
After scan for Atom:   Atom  AN      X      Y      Z        X      Y      Z        X      Y      Z   
After scan for Atom:   Atom  AN      X      Y      Z        X      Y      Z        X      Y      Z   
After scan for Atom:   Atom  AN      X      Y      Z        X      Y      Z        X      Y      Z   
After scan for Atom:   Atom  AN      X      Y      Z        X      Y      Z        X      Y      Z   
After scan for Atom:   Atom  AN      X      Y      Z        X      Y      Z        X      Y      Z   
After scan for Atom:   Atom  AN      X      Y      Z        X      Y      Z        X      Y      Z   
After scan for Atom:   Atom  AN      X      Y      Z        X      Y      Z        X      Y      Z   
After scan for Atom:   Atom  AN      X      Y      Z        X      Y      Z        X      Y      Z   
After scan for Atom:   Atom  AN      X      Y      Z        X      Y      Z        X      Y      Z   
After scan for Atom:   Atom  AN      X      Y      Z        X      Y      Z        X      Y      Z   
After scan for Atom:   Atom  AN      X      Y      Z        X      Y      Z        X      Y      Z   
After scan for Atom:   Atom  AN      X      Y      Z        X      Y      Z        X      Y      Z   
After scan for Atom:   Atom  AN      X      Y      Z        X      Y      Z        X      Y      Z   
After scan for Atom:   Atom  AN      X      Y      Z        X      Y      Z        X      Y      Z   
After scan for Atom:   Atom  AN      X      Y      Z        X      Y      Z        X      Y      Z   
After scan for Atom:   Atom  AN      X      Y      Z        X      Y      Z        X      Y      Z   
After scan for Atom:   Atom  AN      X      Y      Z        X      Y      Z        X      Y      Z   
After scan for Atom:   Atom  AN      X      Y      Z        X      Y      Z        X      Y      Z   
After scan for Atom:   Atom  AN      X      Y      Z        X      Y      Z        X      Y      Z   
 g94    frequencies=
     0.0    0.0    0.0    0.0    0.0    0.0  -94.5   83.9   87.4  122.2
   158.5  218.7  280.1  291.5  296.4  296.8  371.5  380.7  384.8  435.8
   442.4  468.6  479.1  485.5  497.9  498.0  527.2  546.5  559.2  567.4
   584.0  638.8  660.9  666.4  669.5  677.1  688.7  710.9  739.8  746.4
   761.1  774.6  777.8  792.0  805.3  818.6  826.4  833.2  869.6  874.7
   894.1  941.2  979.8  986.0  992.4 1000.1 1002.8 1003.9 1007.5 1031.9
  1057.4 1152.1 1164.0 1166.8 1175.3 1183.9 1212.1 1227.4 1241.7 1243.6
  1246.1 1261.2 1265.3 1335.5 1336.6 1349.3 1383.1 1387.5 1401.5 1420.8
  1427.2 1438.9 1449.8 1457.4 1480.5 1494.4 1497.4 1526.0 1526.4 1545.5
  1570.1 1573.6 1601.1 1612.4 1629.4 1649.4 3179.2 3179.6 3180.0 3180.5
  3181.9 3182.1 3194.2 3194.3 3197.9 3197.9 3200.0 3200.2
 g94    symmetries=
                                                B3     AU     B3     B3
      B1     B2     B1     AU     B2     B3     AG     B2     B1     B1
      B2     B2     B3     AG     AG     AU     AU     B3     B1     B3
      B2     B3     B1     B2     B3     B1     AG     B2     B3     AU
      B3     B1     B2     B1     B1     AU     B2     B3     B2     B1
      B3     B3     AU     B2     B1     AU     B3     AG     B2     B3
      AG     B2     B2     B1     AG     B1     B3     B2     AG     B2
      B1     B3     AG     B1     B3     B2     AG     B2     B2     B1
      AG     B3     B1     AG     AG     B3     B2     B1     B2     B3
      B1     B3     B2     AG     B1     AG     B3     B1     B2     AG
      B3     B1     B2     AG     B3     B2     B1     AG
 atomic masses:
 12.0000 12.0000 12.0000 12.0000 12.0000 12.0000 12.0000 12.0000 12.0000 12.0000
 12.0000 12.0000 12.0000 12.0000 12.0000 12.0000 12.0000 12.0000 12.0000 12.0000
 12.0000 12.0000 12.0000 12.0000  1.0078  1.0078  1.0078  1.0078  1.0078  1.0078
  1.0078  1.0078  1.0078  1.0078  1.0078  1.0078
 looking for force constants in 
 ./Circulene_1_C1S0.fchk                                                        
  
 Cartesian Force Constants                  R   N=        5886                  
  
 n3=         108        5886
 g94-fc frequencies=
   -94.5   -6.6   -6.5   -5.2   -0.0    0.0    0.0   83.9   87.4  122.2
   158.5  218.7  280.1  291.5  296.4  296.8  371.5  380.8  384.8  435.8
   442.4  468.6  479.1  485.5  497.9  498.0  527.2  546.5  559.2  567.4
   584.0  638.8  660.9  666.4  669.5  677.1  688.7  711.0  739.8  746.4
   761.1  774.6  777.9  792.0  805.3  818.6  826.4  833.2  869.7  874.8
   894.1  941.2  979.8  986.0  992.4 1000.1 1002.8 1003.9 1007.5 1031.9
  1057.4 1152.1 1164.1 1166.9 1175.3 1183.9 1212.1 1227.5 1241.7 1243.6
  1246.1 1261.2 1265.3 1335.5 1336.7 1349.3 1383.1 1387.6 1401.5 1420.8
  1427.3 1438.9 1449.8 1457.4 1480.5 1494.5 1497.4 1526.0 1526.5 1545.5
  1570.1 1573.6 1601.1 1612.5 1629.5 1649.4 3179.3 3179.7 3180.1 3180.6
  3181.9 3182.2 3194.3 3194.4 3197.9 3198.0 3200.1 3200.3
 at 99999: n3=         108
 symm operator            1 :  T  nop=           1
 symm operator            2 :  T  nop=           2
 symm operator            3 :  T  nop=           3
 symm operator            4 :  T  nop=           4
 symm operator            5 :  T  nop=           5
 symm operator            6 :  T  nop=           6
 symm operator            7 :  T  nop=           7
 The point group of the molecule is D2H
 enforcing symm op           1  jsymt=          -1          -1           1
 enforcing symm op           2  jsymt=          -1           1          -1
 enforcing symm op           3  jsymt=           1          -1          -1
 enforcing symm op           4  jsymt=          -1          -1          -1
 enforcing symm op           5  jsymt=           1           1          -1
 enforcing symm op           6  jsymt=           1          -1           1
 enforcing symm op           7  jsymt=          -1           1           1
 cartesian coord symmetries:
 Ag :   18 Au :    8 B1g:    8 B1u:   18 B2g:   10 B2u:   18 B3g:   18 B3u:   10
 Symmetry rotation matrix:
   1.00000   0.00000   0.00000
   0.00000   1.00000   0.00000
   0.00000   0.00000   1.00000

 Projecting out zero-frequency components
 generating redundant internal coords
         300        3600          36
 search for int coords
   1 str   2   1   1.368
   2 str   3   2   1.434
   3 str   4   3   1.405
   4 str   5   4   1.393
   5 str   6   5   1.405
   6 str   7   6   1.434
   7 str   8   7   1.368
   8 str   9   8   1.422
   9 str  10   9   1.422
  10 str  11  10   1.368
  11 str  12  11   1.434
  12 str  13  12   1.405
  13 str  14  13   1.393
  14 str  15  14   1.405
  15 str  16  15   1.434
  16 str  17  16   1.368
  17 str  18   1   1.422
  18 str  18  17   1.422
  19 str  19  18   1.435
  20 str  20   3   1.422
  21 str  20  19   1.417
  22 str  21   6   1.422
  23 str  21  20   1.423
  24 str  22   9   1.435
  25 str  22  21   1.417
  26 str  23  12   1.422
  27 str  23  22   1.417
  28 str  24  15   1.422
  29 str  24  19   1.417
  30 str  24  23   1.423
  31 str  25   1   1.083
  32 str  26   2   1.084
  33 str  27   4   1.084
  34 str  28   5   1.084
  35 str  29   7   1.084
  36 str  30   8   1.083
  37 str  31  10   1.083
  38 str  32  11   1.084
  39 str  33  13   1.084
  40 str  34  14   1.084
  41 str  35  16   1.084
  42 str  36  17   1.083
 nber stretches=          42
  43 ben   1   2   3
  44 prop tor   1   2   3   4
  45 prop tor   1   2   3  20
  46 ben   1   2  26
  47 ben   1  18  17
  48 ben   1  18  19
  49 prop tor   1  18  19  20
  50 prop tor   1  18  19  24
  51 ben   2   1  18
  52 prop tor   2   1  18  17
  53 prop tor   2   1  18  19
  54 ben   2   1  25
  55 ben   2   3   4
  56 prop tor   2   3   4   5
  57 prop tor   2   3   4  27
  58 ben   2   3  20
  59 prop tor   2   3  20  19
  60 prop tor   2   3  20  21
  61 ben   3   2  26
  62 ben   3   4   5
  63 prop tor   3   4   5   6
  64 prop tor   3   4   5  28
  65 ben   3   4  27
  66 ben   3  20  19
  67 ben   3  20  21
  68 prop tor   3  20  21   6
  69 prop tor   3  20  21  22
  70 ben   4   3  20
  71 prop tor   4   3  20  19
  72 prop tor   4   3  20  21
  73 ben   4   5   6
  74 prop tor   4   5   6   7
  75 prop tor   4   5   6  21
  76 ben   4   5  28
  77 ben   5   4  27
  78 ben   5   6   7
  79 prop tor   5   6   7   8
  80 prop tor   5   6   7  29
  81 ben   5   6  21
  82 prop tor   5   6  21  20
  83 prop tor   5   6  21  22
  84 ben   6   5  28
  85 ben   6   7   8
  86 prop tor   6   7   8   9
  87 prop tor   6   7   8  30
  88 ben   6   7  29
  89 ben   6  21  20
  90 ben   6  21  22
  91 prop tor   6  21  22   9
  92 prop tor   6  21  22  23
  93 ben   7   6  21
  94 prop tor   7   6  21  20
  95 prop tor   7   6  21  22
  96 ben   7   8   9
  97 prop tor   7   8   9  10
  98 prop tor   7   8   9  22
  99 ben   7   8  30
 100 ben   8   7  29
 101 ben   8   9  10
 102 prop tor   8   9  10  11
 103 prop tor   8   9  10  31
 104 ben   8   9  22
 105 prop tor   8   9  22  21
 106 prop tor   8   9  22  23
 107 ben   9   8  30
 108 ben   9  10  11
 109 prop tor   9  10  11  12
 110 prop tor   9  10  11  32
 111 ben   9  10  31
 112 ben   9  22  21
 113 ben   9  22  23
 114 prop tor   9  22  23  12
 115 prop tor   9  22  23  24
 116 ben  10   9  22
 117 prop tor  10   9  22  21
 118 prop tor  10   9  22  23
 119 ben  10  11  12
 120 prop tor  10  11  12  13
 121 prop tor  10  11  12  23
 122 ben  10  11  32
 123 ben  11  10  31
 124 ben  11  12  13
 125 prop tor  11  12  13  14
 126 prop tor  11  12  13  33
 127 ben  11  12  23
 128 prop tor  11  12  23  22
 129 prop tor  11  12  23  24
 130 ben  12  11  32
 131 ben  12  13  14
 132 prop tor  12  13  14  15
 133 prop tor  12  13  14  34
 134 ben  12  13  33
 135 ben  12  23  22
 136 ben  12  23  24
 137 prop tor  12  23  24  15
 138 prop tor  12  23  24  19
 139 ben  13  12  23
 140 prop tor  13  12  23  22
 141 prop tor  13  12  23  24
 142 ben  13  14  15
 143 prop tor  13  14  15  16
 144 prop tor  13  14  15  24
 145 ben  13  14  34
 146 ben  14  13  33
 147 ben  14  15  16
 148 prop tor  14  15  16  17
 149 prop tor  14  15  16  35
 150 ben  14  15  24
 151 prop tor  14  15  24  19
 152 prop tor  14  15  24  23
 153 ben  15  14  34
 154 ben  15  16  17
 155 prop tor  15  16  17  18
 156 prop tor  15  16  17  36
 157 ben  15  16  35
 158 ben  15  24  19
 159 ben  15  24  23
 160 ben  16  15  24
 161 prop tor  16  15  24  19
 162 prop tor  16  15  24  23
 163 ben  16  17  18
 164 prop tor  16  17  18   1
 165 prop tor  16  17  18  19
 166 ben  16  17  36
 167 ben  17  16  35
 168 ben  17  18  19
 169 prop tor  17  18  19  20
 170 prop tor  17  18  19  24
 171 prop tor  18   1   2   3
 172 prop tor  18   1   2  26
 173 ben  18   1  25
 174 ben  18  17  36
 175 ben  18  19  20
 176 prop tor  18  19  20   3
 177 prop tor  18  19  20  21
 178 ben  18  19  24
 179 prop tor  18  19  24  15
 180 prop tor  18  19  24  23
 181 ben  19  20  21
 182 prop tor  19  20  21   6
 183 prop tor  19  20  21  22
 184 ben  19  24  23
 185 prop tor  20   3   4   5
 186 prop tor  20   3   4  27
 187 ben  20  19  24
 188 prop tor  20  19  24  15
 189 prop tor  20  19  24  23
 190 ben  20  21  22
 191 prop tor  20  21  22   9
 192 prop tor  20  21  22  23
 193 prop tor  21   6   7   8
 194 prop tor  21   6   7  29
 195 ben  21  22  23
 196 prop tor  21  22  23  12
 197 prop tor  21  22  23  24
 198 prop tor  22   9  10  11
 199 prop tor  22   9  10  31
 200 ben  22  23  24
 201 prop tor  22  23  24  15
 202 prop tor  22  23  24  19
 203 prop tor  23  12  13  14
 204 prop tor  23  12  13  33
 205 prop tor  24  15  16  17
 206 prop tor  24  15  16  35
 207 prop tor  24  19  20   3
 208 prop tor  24  19  20  21
 209 prop tor  25   1   2   3
 210 prop tor  25   1   2  26
 211 prop tor  25   1  18  17
 212 prop tor  25   1  18  19
 213 prop tor  26   2   3   4
 214 prop tor  26   2   3  20
 215 prop tor  27   4   5   6
 216 prop tor  27   4   5  28
 217 prop tor  28   5   6   7
 218 prop tor  28   5   6  21
 219 prop tor  29   7   8   9
 220 prop tor  29   7   8  30
 221 prop tor  30   8   9  10
 222 prop tor  30   8   9  22
 223 prop tor  31  10  11  12
 224 prop tor  31  10  11  32
 225 prop tor  32  11  12  13
 226 prop tor  32  11  12  23
 227 prop tor  33  13  14  15
 228 prop tor  33  13  14  34
 229 prop tor  34  14  15  16
 230 prop tor  34  14  15  24
 231 prop tor  35  16  17  18
 232 prop tor  35  16  17  36
 233 prop tor  36  17  18   1
 234 prop tor  36  17  18  19
 nber bend=              72
 nber lin bend=           0
 nber prop tor=         120
 nber impr tor=           0
 nber tot redund int=         234
 Eigenvalues of G in red int coords
    Gval -0.00000000 -0.00000000 -0.00000000 -0.00000000 -0.00000000 -0.00000000 -0.00000000 -0.00000000
    Gval -0.00000000 -0.00000000 -0.00000000 -0.00000000 -0.00000000 -0.00000000 -0.00000000 -0.00000000
    Gval -0.00000000 -0.00000000 -0.00000000 -0.00000000 -0.00000000 -0.00000000 -0.00000000 -0.00000000
    Gval -0.00000000 -0.00000000 -0.00000000 -0.00000000 -0.00000000 -0.00000000 -0.00000000 -0.00000000
    Gval -0.00000000 -0.00000000 -0.00000000 -0.00000000 -0.00000000 -0.00000000 -0.00000000 -0.00000000
    Gval -0.00000000 -0.00000000 -0.00000000 -0.00000000 -0.00000000 -0.00000000 -0.00000000 -0.00000000
    Gval -0.00000000 -0.00000000 -0.00000000 -0.00000000 -0.00000000 -0.00000000 -0.00000000 -0.00000000
    Gval -0.00000000 -0.00000000 -0.00000000 -0.00000000 -0.00000000 -0.00000000 -0.00000000 -0.00000000
    Gval -0.00000000 -0.00000000 -0.00000000 -0.00000000 -0.00000000  0.00000000  0.00000000  0.00000000
    Gval  0.00000000  0.00000000  0.00000000  0.00000000  0.00000000  0.00000000  0.00000000  0.00000000
    Gval  0.00000000  0.00000000  0.00000000  0.00000000  0.00000000  0.00000000  0.00000000  0.00000000
    Gval  0.00000000  0.00000000  0.00000000  0.00000000  0.00000000  0.00000000  0.00000000  0.00000000
    Gval  0.00000000  0.00000000  0.00000000  0.00000000  0.00000000  0.00000000  0.00000000  0.00000000
    Gval  0.00000000  0.00000000  0.00000000  0.00000000  0.00000000  0.00000000  0.00000000  0.00000000
    Gval  0.00000000  0.00000000  0.00000000  0.00000000  0.00000000  0.00000000  0.00000000  0.00000000
    Gval  0.00000000  0.00000000  0.00000000  0.00000000  0.00000000  0.00000000  0.00000000  0.00000000
    Gval  0.00000000  0.00000000  0.00000000  0.00000000  0.00001095  0.00001404  0.00001419  0.00001477
    Gval  0.00001485  0.00003244  0.00003261  0.00003660  0.00003714  0.00003924  0.00003942  0.00004865
    Gval  0.00004879  0.00006108  0.00006566  0.00007244  0.00007259  0.00007665  0.00008050  0.00008359
    Gval  0.00008404  0.00008422  0.00009389  0.00009394  0.00012053  0.00012142  0.00012250  0.00012263
    Gval  0.00014689  0.00014979  0.00015030  0.00018490  0.00018748  0.00022014  0.00022310  0.00024662
    Gval  0.00024866  0.00029323  0.00033121  0.00033403  0.00034443  0.00034485  0.00035622  0.00036842
    Gval  0.00037586  0.00039224  0.00039235  0.00039282  0.00040629  0.00043520  0.00043723  0.00046817
    Gval  0.00048477  0.00048794  0.00059576  0.00059701  0.00059708  0.00059956  0.00059968  0.00060164
    Gval  0.00062740  0.00063487  0.00063533  0.00065002  0.00065039  0.00065901  0.00068505  0.00069235
    Gval  0.00085851  0.00095285  0.00095464  0.00107744  0.00107836  0.00108333  0.00108468  0.00109343
    Gval  0.00109548  0.00109953  0.00115890  0.00115911  0.00116228  0.00116261  0.00116407  0.00116426
    Gval  0.00134057  0.00148588  0.00148935  0.00208868  0.00211478  0.00211484  0.00235353  0.00235706
    Gval  0.00249574  0.00251285  0.00262133  0.00285042  0.00353753  0.00362054  0.00363243  0.00375768
    Gval  0.00377196  0.00382242
  1.095133125627640E-005  1.095133125627640E-005
  1.403919328215042E-005  1.095133125627640E-005
  1.418548820481798E-005  1.095133125627640E-005
  1.477498780617266E-005  1.095133125627640E-005
  1.484648657316748E-005  1.095133125627640E-005
  3.243924131444153E-005  1.095133125627640E-005
  3.261124278224840E-005  1.095133125627640E-005
  3.659531650540508E-005  1.095133125627640E-005
  3.713555183263735E-005  1.095133125627640E-005
  3.924105917902647E-005  1.095133125627640E-005
  3.941653601379513E-005  1.095133125627640E-005
  4.864960089087818E-005  1.095133125627640E-005
  4.878997066797375E-005  1.095133125627640E-005
  6.107581039778404E-005  1.095133125627640E-005
  6.566230148384861E-005  1.095133125627640E-005
  7.243628947881791E-005  1.095133125627640E-005
  7.259016234906728E-005  1.095133125627640E-005
  7.664888000659566E-005  1.095133125627640E-005
  8.050420152679966E-005  1.095133125627640E-005
  8.359239421068440E-005  1.095133125627640E-005
  8.403968655032404E-005  1.095133125627640E-005
  8.421673502742773E-005  1.095133125627640E-005
  9.389015775330624E-005  1.095133125627640E-005
  9.394000990360471E-005  1.095133125627640E-005
  1.205339919292186E-004  1.095133125627640E-005
  1.214170812371840E-004  1.095133125627640E-005
  1.225005179680558E-004  1.095133125627640E-005
  1.226293628631389E-004  1.095133125627640E-005
  1.468903612789806E-004  1.095133125627640E-005
  1.497904052732093E-004  1.095133125627640E-005
  1.502974732062065E-004  1.095133125627640E-005
  1.848991859016800E-004  1.095133125627640E-005
  1.874779569492256E-004  1.095133125627640E-005
  2.201446562746418E-004  1.095133125627640E-005
  2.230953813096269E-004  1.095133125627640E-005
  2.466248333413213E-004  1.095133125627640E-005
  2.486630158516311E-004  1.095133125627640E-005
  2.932314544084122E-004  1.095133125627640E-005
  3.312116328460849E-004  1.095133125627640E-005
  3.340299594927354E-004  1.095133125627640E-005
  3.444343812146646E-004  1.095133125627640E-005
  3.448483403649109E-004  1.095133125627640E-005
  3.562168634271545E-004  1.095133125627640E-005
  3.684178596677963E-004  1.095133125627640E-005
  3.758600779571860E-004  1.095133125627640E-005
  3.922369898109671E-004  1.095133125627640E-005
  3.923546338320917E-004  1.095133125627640E-005
  3.928159196858089E-004  1.095133125627640E-005
  4.062905907666182E-004  1.095133125627640E-005
  4.352011313078757E-004  1.095133125627640E-005
  4.372255552404459E-004  1.095133125627640E-005
  4.681704903167654E-004  1.095133125627640E-005
  4.847652015683493E-004  1.095133125627640E-005
  4.879378334861172E-004  1.095133125627640E-005
  5.957627655364472E-004  1.095133125627640E-005
  5.970063350149122E-004  1.095133125627640E-005
  5.970838855902283E-004  1.095133125627640E-005
  5.995649247770442E-004  1.095133125627640E-005
  5.996772347368715E-004  1.095133125627640E-005
  6.016417754329924E-004  1.095133125627640E-005
  6.273971203123786E-004  1.095133125627640E-005
  6.348687630503002E-004  1.095133125627640E-005
  6.353347586295752E-004  1.095133125627640E-005
  6.500171832326087E-004  1.095133125627640E-005
  6.503931159330776E-004  1.095133125627640E-005
  6.590110606819563E-004  1.095133125627640E-005
  6.850512065522584E-004  1.095133125627640E-005
  6.923462476347410E-004  1.095133125627640E-005
  8.585110995007126E-004  1.095133125627640E-005
  9.528457054914789E-004  1.095133125627640E-005
  9.546374016125333E-004  1.095133125627640E-005
  1.077440241576862E-003  1.095133125627640E-005
  1.078361783724100E-003  1.095133125627640E-005
  1.083328061781087E-003  1.095133125627640E-005
  1.084679349338900E-003  1.095133125627640E-005
  1.093433218659454E-003  1.095133125627640E-005
  1.095482193757106E-003  1.095133125627640E-005
  1.099533055658544E-003  1.095133125627640E-005
  1.158900890998202E-003  1.095133125627640E-005
  1.159111862089965E-003  1.095133125627640E-005
  1.162283425041527E-003  1.095133125627640E-005
  1.162611481165254E-003  1.095133125627640E-005
  1.164069856765848E-003  1.095133125627640E-005
  1.164257777915140E-003  1.095133125627640E-005
  1.340571525085877E-003  1.095133125627640E-005
  1.485879892577283E-003  1.095133125627640E-005
  1.489348165079640E-003  1.095133125627640E-005
  2.088681615028447E-003  1.095133125627640E-005
  2.114784899853185E-003  1.095133125627640E-005
  2.114835353931203E-003  1.095133125627640E-005
  2.353527351553241E-003  1.095133125627640E-005
  2.357060425089714E-003  1.095133125627640E-005
  2.495742423864771E-003  1.095133125627640E-005
  2.512854085214429E-003  1.095133125627640E-005
  2.621333035594195E-003  1.095133125627640E-005
  2.850423932208327E-003  1.095133125627640E-005
  3.537529783317299E-003  1.095133125627640E-005
  3.620537765506755E-003  1.095133125627640E-005
  3.632429769631471E-003  1.095133125627640E-005
  3.757684863209362E-003  1.095133125627640E-005
  3.771962529009733E-003  1.095133125627640E-005
  3.822423957980858E-003  1.095133125627640E-005
 cut=1d-8, nber non-redundant internal coords=         102
 Check on Eigenvals of non-red overlap matrix:
  0.00001095  0.00001404  0.00001419  0.00001477  0.00001485  0.00003244  0.00003261  0.00003660
  0.00003714  0.00003924  0.00003942  0.00004865  0.00004879  0.00006108  0.00006566  0.00007244
  0.00007259  0.00007665  0.00008050  0.00008359  0.00008404  0.00008422  0.00009389  0.00009394
  0.00012053  0.00012142  0.00012250  0.00012263  0.00014689  0.00014979  0.00015030  0.00018490
  0.00018748  0.00022014  0.00022310  0.00024662  0.00024866  0.00029323  0.00033121  0.00033403
  0.00034443  0.00034485  0.00035622  0.00036842  0.00037586  0.00039224  0.00039235  0.00039282
  0.00040629  0.00043520  0.00043723  0.00046817  0.00048477  0.00048794  0.00059576  0.00059701
  0.00059708  0.00059956  0.00059968  0.00060164  0.00062740  0.00063487  0.00063533  0.00065002
  0.00065039  0.00065901  0.00068505  0.00069235  0.00085851  0.00095285  0.00095464  0.00107744
  0.00107836  0.00108333  0.00108468  0.00109343  0.00109548  0.00109953  0.00115890  0.00115911
  0.00116228  0.00116261  0.00116407  0.00116426  0.00134057  0.00148588  0.00148935  0.00208868
  0.00211478  0.00211484  0.00235353  0.00235706  0.00249574  0.00251285  0.00262133  0.00285042
  0.00353753  0.00362054  0.00363243  0.00375768  0.00377196  0.00382242
 Checking for correct frequencies
 recalc frequencies=
   -94.5   -0.0   -0.0    0.0    0.0    0.0    0.0   83.9   87.4  122.2
   158.5  218.7  280.1  291.5  296.4  296.8  371.5  380.8  384.8  435.8
   442.4  468.6  479.1  485.5  497.9  498.0  527.2  546.5  559.2  567.4
   584.0  638.8  660.9  666.4  669.5  677.1  688.7  711.0  739.8  746.4
   761.1  774.6  777.9  792.0  805.3  818.6  826.4  833.2  869.7  874.8
   894.1  941.2  979.8  986.0  992.4 1000.1 1002.8 1003.9 1007.5 1031.9
  1057.4 1152.1 1164.1 1166.9 1175.3 1183.9 1212.1 1227.5 1241.7 1243.6
  1246.1 1261.2 1265.3 1335.5 1336.7 1349.3 1383.1 1387.6 1401.5 1420.8
  1427.3 1438.9 1449.8 1457.4 1480.5 1494.5 1497.4 1526.0 1526.5 1545.5
  1570.1 1573.6 1601.1 1612.5 1629.5 1649.4 3179.3 3179.7 3180.1 3180.6
  3181.9 3182.2 3194.3 3194.4 3197.9 3198.0 3200.1 3200.3
 recalc symmetries=
     B3g    B1u    B2u    B1g    B2g    B3u    B3g    Au     B3u    B3u
     B1g    B2g    B1g    Au     B2g    B3u    Ag     B2u    B1u    B1g
     B2g    B2u    B3g    Ag     Ag     Au     Au     B3u    B1u    B3u
     B2g    B3g    B1g    B2g    B3g    B1u    Ag     B2g    B3g    Au 
     B3u    B1u    B2u    B1g    B1u    Au     B2u    B3u    B2g    B1g
     B3u    B3g    Au     B2g    B1g    Au     B3u    Ag     B2g    B3g
     Ag     B2u    B2u    B1u    Ag     B1u    B3g    B2u    Ag     B2u
     B1u    B3g    Ag     B1u    B3g    B2u    Ag     B2u    B2u    B1u
     Ag     B3g    B1u    Ag     Ag     B3g    B2u    B1u    B2u    B3g
     B1u    B3g    B2u    Ag     B1u    Ag     B3g    B1u    B2u    Ag 
     B3g    B1u    B2u    Ag     B3g    B2u    B1u    Ag 
 recalc freqs check OK
 Zero-point lengths:
 25.5028 10.0000 10.0000 10.0000 10.0000 10.0000 10.0000 27.0713 26.5109 22.4282
 19.6897 16.7625 14.8138 14.5210 14.4000 14.3891 12.8616 12.7050 12.6381 11.8752
 11.7862 11.4523 11.3262 11.2512 11.1102 11.1089 10.7974 10.6051 10.4840 10.4075
 10.2583  9.8087  9.6432  9.6037  9.5809  9.5272  9.4465  9.2976  9.1144  9.0742
  8.9860  8.9074  8.8888  8.8092  8.7362  8.6650  8.6239  8.5884  8.4066  8.3821
  8.2908  8.0808  7.9199  7.8949  7.8695  7.8391  7.8287  7.8243  7.8105  7.7174
  7.6237  7.3037  7.2662  7.2575  7.2314  7.2049  7.1206  7.0761  7.0354  7.0301
  7.0229  6.9807  6.9694  6.7837  6.7809  6.7489  6.6661  6.6553  6.6221  6.5769
  6.5621  6.5355  6.5109  6.4938  6.4430  6.4129  6.4065  6.3462  6.3453  6.3060
  6.2565  6.2494  6.1956  6.1738  6.1415  6.1042  4.3967  4.3965  4.3962  4.3959
  4.3949  4.3948  4.3864  4.3863  4.3839  4.3839  4.3824  4.3823
 highest evec of mol 2
  0.0000 -0.0041  0.1342
  0.0000  0.0544  0.0244
  0.0000  0.0001 -0.0026
  0.0000  0.0085  0.0057
  0.0000  0.0085 -0.0057
  0.0000  0.0001  0.0026
  0.0000  0.0544 -0.0244
  0.0000 -0.0041 -0.1342
  0.0000  0.0000  0.0029
  0.0000  0.0041 -0.1342
  0.0000 -0.0544 -0.0244
  0.0000 -0.0001  0.0026
  0.0000 -0.0085 -0.0057
  0.0000 -0.0085  0.0057
  0.0000 -0.0001 -0.0026
  0.0000 -0.0544  0.0244
  0.0000  0.0041  0.1342
  0.0000  0.0000 -0.0029
  0.0000  0.0000 -0.0019
  0.0000 -0.0001 -0.0002
  0.0000 -0.0001  0.0002
  0.0000  0.0000  0.0019
  0.0000  0.0001  0.0002
  0.0000  0.0001 -0.0002
  0.0000 -0.0001 -0.4384
  0.0000 -0.1631 -0.0916
  0.0000 -0.0293 -0.0164
  0.0000 -0.0293  0.0164
  0.0000 -0.1631  0.0916
  0.0000 -0.0001  0.4384
  0.0000  0.0001  0.4384
  0.0000  0.1631  0.0916
  0.0000  0.0293  0.0164
  0.0000  0.0293 -0.0164
  0.0000  0.1631 -0.0916
  0.0000  0.0001 -0.4384
 Enter nber and list of atoms to keep of mol #2
 keep list:          36           1           2           3           4
           5           6           7           8           9          10
          11          12          13          14          15          16
          17          18          19          20          21          22
          23          24          25          26          27          28
          29          30          31          32          33          34
          35          36
 reordering atoms
           1   3.54279900000000     
           2   2.85611400000000     
           3   1.42256000000000     
           4  0.696429000000000     
           5 -0.696429000000000     
           6  -1.42256000000000     
           7  -2.85611400000000     
           8  -3.54279900000000     
           9  -2.85537500000000     
          10  -3.54279900000000     
          11  -2.85611400000000     
          12  -1.42256000000000     
          13 -0.696429000000000     
          14  0.696429000000000     
          15   1.42256000000000     
          16   2.85611400000000     
          17   3.54279900000000     
          18   2.85537500000000     
          19   1.41991100000000     
          20  0.711468000000000     
          21 -0.711468000000000     
          22  -1.41991100000000     
          23 -0.711468000000000     
          24  0.711468000000000     
          25   4.62570600000000     
          26   3.39455100000000     
          27   1.23120800000000     
          28  -1.23120800000000     
          29  -3.39455100000000     
          30  -4.62570600000000     
          31  -4.62570600000000     
          32  -3.39455100000000     
          33  -1.23120800000000     
          34   1.23120800000000     
          35   3.39455100000000     
          36   4.62570600000000     
           1           1
           2           2
           3           3
           4           4
           5           5
           6           6
           7           7
           8           8
           9           9
          10          10
          11          11
          12          12
          13          13
          14          14
          15          15
          16          16
          17          17
          18          18
          19          19
          20          20
          21          21
          22          22
          23          23
          24          24
          25          25
          26          26
          27          27
          28          28
          29          29
          30          30
          31          31
          32          32
          33          33
          34          34
          35          35
          36          36
 initial cartes coords mol 1
   6   0.00000   3.52914   1.24695
   6   0.00000   2.84446   2.43285
   6   0.00000   1.42247   2.46379
   6   0.00000   0.68468   3.67980
   6   0.00000  -0.68468   3.67980
   6   0.00000  -1.42247   2.46379
   6   0.00000  -2.84446   2.43285
   6   0.00000  -3.52914   1.24695
   6   0.00000  -2.84494   0.00000
   6   0.00000  -3.52914  -1.24695
   6   0.00000  -2.84446  -2.43285
   6   0.00000  -1.42247  -2.46379
   6   0.00000  -0.68468  -3.67980
   6   0.00000   0.68468  -3.67980
   6   0.00000   1.42247  -2.46379
   6   0.00000   2.84446  -2.43285
   6   0.00000   3.52914  -1.24695
   6   0.00000   2.84494   0.00000
   6   0.00000   1.42569   0.00000
   6   0.00000   0.71285   1.23469
   6   0.00000  -0.71285   1.23469
   6   0.00000  -1.42569   0.00000
   6   0.00000  -0.71285  -1.23469
   6   0.00000   0.71285  -1.23469
   1   0.00000   4.61418   1.24483
   1   0.00000   3.38514   3.37359
   1   0.00000   1.22904   4.61841
   1   0.00000  -1.22904   4.61841
   1   0.00000  -3.38514   3.37359
   1   0.00000  -4.61418   1.24483
   1   0.00000  -4.61418  -1.24483
   1   0.00000  -3.38514  -3.37359
   1   0.00000  -1.22904  -4.61841
   1   0.00000   1.22904  -4.61841
   1   0.00000   3.38514  -3.37359
   1   0.00000   4.61418  -1.24483
 initial cartes coords mol 2
   6   0.00000  -1.24470   3.54280
   6   0.00000  -2.42829   2.85611
   6   0.00000  -2.45786   1.42256
   6   0.00000  -3.66053   0.69643
   6   0.00000  -3.66053  -0.69643
   6   0.00000  -2.45786  -1.42256
   6   0.00000  -2.42829  -2.85611
   6   0.00000  -1.24470  -3.54280
   6   0.00000   0.00000  -2.85537
   6   0.00000   1.24470  -3.54280
   6   0.00000   2.42829  -2.85611
   6   0.00000   2.45786  -1.42256
   6   0.00000   3.66053  -0.69643
   6   0.00000   3.66053   0.69643
   6   0.00000   2.45786   1.42256
   6   0.00000   2.42829   2.85611
   6   0.00000   1.24470   3.54280
   6   0.00000   0.00000   2.85537
   6   0.00000   0.00000   1.41991
   6   0.00000  -1.22669   0.71147
   6   0.00000  -1.22669  -0.71147
   6   0.00000   0.00000  -1.41991
   6   0.00000   1.22669  -0.71147
   6   0.00000   1.22669   0.71147
   1   0.00000  -1.24332   4.62571
   1   0.00000  -3.36961   3.39455
   1   0.00000  -4.60342   1.23121
   1   0.00000  -4.60342  -1.23121
   1   0.00000  -3.36961  -3.39455
   1   0.00000  -1.24332  -4.62571
   1   0.00000   1.24332  -4.62571
   1   0.00000   3.36961  -3.39455
   1   0.00000   4.60342  -1.23121
   1   0.00000   4.60342   1.23121
   1   0.00000   3.36961   3.39455
   1   0.00000   1.24332   4.62571
 loop 1 0
 mod cartes coords mol 2
   6   0.00000  -1.24470   3.54280
   6   0.00000  -2.42829   2.85611
   6   0.00000  -2.45786   1.42256
   6   0.00000  -3.66053   0.69643
   6   0.00000  -3.66053  -0.69643
   6   0.00000  -2.45786  -1.42256
   6   0.00000  -2.42829  -2.85611
   6   0.00000  -1.24470  -3.54280
   6   0.00000   0.00000  -2.85537
   6   0.00000   1.24470  -3.54280
   6   0.00000   2.42829  -2.85611
   6   0.00000   2.45786  -1.42256
   6   0.00000   3.66053  -0.69643
   6   0.00000   3.66053   0.69643
   6   0.00000   2.45786   1.42256
   6   0.00000   2.42829   2.85611
   6   0.00000   1.24470   3.54280
   6   0.00000   0.00000   2.85537
   6   0.00000   0.00000   1.41991
   6   0.00000  -1.22669   0.71147
   6   0.00000  -1.22669  -0.71147
   6   0.00000   0.00000  -1.41991
   6   0.00000   1.22669  -0.71147
   6   0.00000   1.22669   0.71147
   1   0.00000  -1.24332   4.62571
   1   0.00000  -3.36961   3.39455
   1   0.00000  -4.60342   1.23121
   1   0.00000  -4.60342  -1.23121
   1   0.00000  -3.36961  -3.39455
   1   0.00000  -1.24332  -4.62571
   1   0.00000   1.24332  -4.62571
   1   0.00000   3.36961  -3.39455
   1   0.00000   4.60342  -1.23121
   1   0.00000   4.60342   1.23121
   1   0.00000   3.36961   3.39455
   1   0.00000   1.24332   4.62571
 read in order, maxerr=  6.77 for atom  30
 loop 1 1
 mod cartes coords mol 2
   6   0.00000  -1.24470   3.54280
   6   0.00000  -2.42829   2.85611
   6   0.00000  -2.45786   1.42256
   6   0.00000  -3.66053   0.69643
   6   0.00000  -3.66053  -0.69643
   6   0.00000  -2.45786  -1.42256
   6   0.00000  -2.42829  -2.85611
   6   0.00000  -1.24470  -3.54280
   6   0.00000   0.00000  -2.85537
   6   0.00000   1.24470  -3.54280
   6   0.00000   2.42829  -2.85611
   6   0.00000   2.45786  -1.42256
   6   0.00000   3.66053  -0.69643
   6   0.00000   3.66053   0.69643
   6   0.00000   2.45786   1.42256
   6   0.00000   2.42829   2.85611
   6   0.00000   1.24470   3.54280
   6   0.00000   0.00000   2.85537
   6   0.00000   0.00000   1.41991
   6   0.00000  -1.22669   0.71147
   6   0.00000  -1.22669  -0.71147
   6   0.00000   0.00000  -1.41991
   6   0.00000   1.22669  -0.71147
   6   0.00000   1.22669   0.71147
   1   0.00000  -1.24332   4.62571
   1   0.00000  -3.36961   3.39455
   1   0.00000  -4.60342   1.23121
   1   0.00000  -4.60342  -1.23121
   1   0.00000  -3.36961  -3.39455
   1   0.00000  -1.24332  -4.62571
   1   0.00000   1.24332  -4.62571
   1   0.00000   3.36961  -3.39455
   1   0.00000   4.60342  -1.23121
   1   0.00000   4.60342   1.23121
   1   0.00000   3.36961   3.39455
   1   0.00000   1.24332   4.62571
 read in order, maxerr=  6.77 for atom  30
 loop 1 2
 mod cartes coords mol 2
   6   0.00000   1.24470   3.54280
   6   0.00000   2.42829   2.85611
   6   0.00000   2.45786   1.42256
   6   0.00000   3.66053   0.69643
   6   0.00000   3.66053  -0.69643
   6   0.00000   2.45786  -1.42256
   6   0.00000   2.42829  -2.85611
   6   0.00000   1.24470  -3.54280
   6   0.00000   0.00000  -2.85537
   6   0.00000  -1.24470  -3.54280
   6   0.00000  -2.42829  -2.85611
   6   0.00000  -2.45786  -1.42256
   6   0.00000  -3.66053  -0.69643
   6   0.00000  -3.66053   0.69643
   6   0.00000  -2.45786   1.42256
   6   0.00000  -2.42829   2.85611
   6   0.00000  -1.24470   3.54280
   6   0.00000   0.00000   2.85537
   6   0.00000   0.00000   1.41991
   6   0.00000   1.22669   0.71147
   6   0.00000   1.22669  -0.71147
   6   0.00000   0.00000  -1.41991
   6   0.00000  -1.22669  -0.71147
   6   0.00000  -1.22669   0.71147
   1   0.00000   1.24332   4.62571
   1   0.00000   3.36961   3.39455
   1   0.00000   4.60342   1.23121
   1   0.00000   4.60342  -1.23121
   1   0.00000   3.36961  -3.39455
   1   0.00000   1.24332  -4.62571
   1   0.00000  -1.24332  -4.62571
   1   0.00000  -3.36961  -3.39455
   1   0.00000  -4.60342  -1.23121
   1   0.00000  -4.60342   1.23121
   1   0.00000  -3.36961   3.39455
   1   0.00000  -1.24332   4.62571
 read in order, maxerr=  9.56 for atom  29
 loop 1 3
 mod cartes coords mol 2
   6   0.00000   1.24470   3.54280
   6   0.00000   2.42829   2.85611
   6   0.00000   2.45786   1.42256
   6   0.00000   3.66053   0.69643
   6   0.00000   3.66053  -0.69643
   6   0.00000   2.45786  -1.42256
   6   0.00000   2.42829  -2.85611
   6   0.00000   1.24470  -3.54280
   6   0.00000   0.00000  -2.85537
   6   0.00000  -1.24470  -3.54280
   6   0.00000  -2.42829  -2.85611
   6   0.00000  -2.45786  -1.42256
   6   0.00000  -3.66053  -0.69643
   6   0.00000  -3.66053   0.69643
   6   0.00000  -2.45786   1.42256
   6   0.00000  -2.42829   2.85611
   6   0.00000  -1.24470   3.54280
   6   0.00000   0.00000   2.85537
   6   0.00000   0.00000   1.41991
   6   0.00000   1.22669   0.71147
   6   0.00000   1.22669  -0.71147
   6   0.00000   0.00000  -1.41991
   6   0.00000  -1.22669  -0.71147
   6   0.00000  -1.22669   0.71147
   1   0.00000   1.24332   4.62571
   1   0.00000   3.36961   3.39455
   1   0.00000   4.60342   1.23121
   1   0.00000   4.60342  -1.23121
   1   0.00000   3.36961  -3.39455
   1   0.00000   1.24332  -4.62571
   1   0.00000  -1.24332  -4.62571
   1   0.00000  -3.36961  -3.39455
   1   0.00000  -4.60342  -1.23121
   1   0.00000  -4.60342   1.23121
   1   0.00000  -3.36961   3.39455
   1   0.00000  -1.24332   4.62571
 read in order, maxerr=  9.56 for atom  29
 loop 1 4
 mod cartes coords mol 2
   6   0.00000  -1.24470  -3.54280
   6   0.00000  -2.42829  -2.85611
   6   0.00000  -2.45786  -1.42256
   6   0.00000  -3.66053  -0.69643
   6   0.00000  -3.66053   0.69643
   6   0.00000  -2.45786   1.42256
   6   0.00000  -2.42829   2.85611
   6   0.00000  -1.24470   3.54280
   6   0.00000   0.00000   2.85537
   6   0.00000   1.24470   3.54280
   6   0.00000   2.42829   2.85611
   6   0.00000   2.45786   1.42256
   6   0.00000   3.66053   0.69643
   6   0.00000   3.66053  -0.69643
   6   0.00000   2.45786  -1.42256
   6   0.00000   2.42829  -2.85611
   6   0.00000   1.24470  -3.54280
   6   0.00000   0.00000  -2.85537
   6   0.00000   0.00000  -1.41991
   6   0.00000  -1.22669  -0.71147
   6   0.00000  -1.22669   0.71147
   6   0.00000   0.00000   1.41991
   6   0.00000   1.22669   0.71147
   6   0.00000   1.22669  -0.71147
   1   0.00000  -1.24332  -4.62571
   1   0.00000  -3.36961  -3.39455
   1   0.00000  -4.60342  -1.23121
   1   0.00000  -4.60342   1.23121
   1   0.00000  -3.36961   3.39455
   1   0.00000  -1.24332   4.62571
   1   0.00000   1.24332   4.62571
   1   0.00000   3.36961   3.39455
   1   0.00000   4.60342   1.23121
   1   0.00000   4.60342  -1.23121
   1   0.00000   3.36961  -3.39455
   1   0.00000   1.24332  -4.62571
 read in order, maxerr=  9.56 for atom  26
 loop 1 5
 mod cartes coords mol 2
   6   0.00000  -1.24470  -3.54280
   6   0.00000  -2.42829  -2.85611
   6   0.00000  -2.45786  -1.42256
   6   0.00000  -3.66053  -0.69643
   6   0.00000  -3.66053   0.69643
   6   0.00000  -2.45786   1.42256
   6   0.00000  -2.42829   2.85611
   6   0.00000  -1.24470   3.54280
   6   0.00000   0.00000   2.85537
   6   0.00000   1.24470   3.54280
   6   0.00000   2.42829   2.85611
   6   0.00000   2.45786   1.42256
   6   0.00000   3.66053   0.69643
   6   0.00000   3.66053  -0.69643
   6   0.00000   2.45786  -1.42256
   6   0.00000   2.42829  -2.85611
   6   0.00000   1.24470  -3.54280
   6   0.00000   0.00000  -2.85537
   6   0.00000   0.00000  -1.41991
   6   0.00000  -1.22669  -0.71147
   6   0.00000  -1.22669   0.71147
   6   0.00000   0.00000   1.41991
   6   0.00000   1.22669   0.71147
[...]
  66 B2u  1184. -0.9770    95.5   100.5  66 B1u  1184.
  67 B3u  1213.  0.4204    17.7    99.9  63 B2u  1164.
                 0.4759    22.7          68 B2u  1227.
                 0.6743    45.5          70 B2u  1244.
  68 B2u  1237.  0.9690    93.9   100.2  71 B1u  1246.
  69 B3u  1237.  0.7171    51.4   100.1  68 B2u  1227.
                -0.6673    44.5          70 B2u  1244.
  70 Ag   1244.  0.7332    53.8   100.1  69 Ag   1242.
                -0.6765    45.8          73 Ag   1265.
  71 B1g  1249. -0.3471    12.0    99.9  39 B3g   740.
                -0.5451    29.7          67 B3g  1212.
                -0.6673    44.5          75 B3g  1337.
  72 Ag   1249. -0.6361    40.5   100.0  69 Ag   1242.
                -0.7103    50.5          73 Ag   1265.
  73 B1g  1258.  0.9964    99.3   100.0  72 B3g  1261.
  74 B2u  1338.  0.9728    94.6   100.0  74 B1u  1336.
  75 B3u  1338.  0.9809    96.2   100.1  76 B2u  1349.
  76 Ag   1372. -0.9648    93.1   100.0  77 Ag   1383.
  77 B3u  1373. -0.7376    54.4    99.9  78 B2u  1388.
                -0.6213    38.6          79 B2u  1401.
  78 B1g  1423. -0.8981    80.7   100.3  82 B3g  1439.
  79 Ag   1423.  0.9644    93.0   100.1  81 Ag   1427.
  80 B2u  1425.  0.9478    89.8   100.2  80 B1u  1421.
  81 B3u  1425. -0.5766    33.2   100.2  78 B2u  1388.
                 0.7202    51.9          79 B2u  1401.
                -0.3243    10.5          87 B2u  1497.
  82 B2u  1445. -0.9756    95.2   100.0  83 B1u  1450.
  83 B1g  1465.  0.4257    18.1    99.8  75 B3g  1337.
                -0.4089    16.7          82 B3g  1439.
                -0.7054    49.8          90 B3g  1545.
  84 Ag   1465.  0.6340    40.2   100.3  84 Ag   1457.
                 0.7058    49.8          85 Ag   1480.
  85 B1g  1481. -0.9492    90.1    99.7  86 B3g  1494.
  86 Ag   1481.  0.7203    51.9   100.2  84 Ag   1457.
                -0.6540    42.8          85 Ag   1480.
  87 B3u  1518. -0.7057    49.8   100.0  87 B2u  1497.
                 0.6436    41.4          89 B2u  1526.
  88 B2u  1533. -0.8210    67.4    99.9  88 B1u  1526.
                -0.5382    29.0          91 B1u  1570.
  89 B3u  1533.  0.6104    37.3    99.9  87 B2u  1497.
                 0.7522    56.6          89 B2u  1526.
  90 B1g  1573.  0.9455    89.4    99.8  92 B3g  1574.
  91 B2u  1584. -0.5273    27.8   100.3  88 B1u  1526.
                 0.8129    66.1          91 B1u  1570.
  92 Ag   1639. -0.9791    95.9   100.1  94 Ag   1612.
  93 B2u  1654. -0.9854    97.1    99.9  95 B1u  1629.
  94 B3u  1654. -0.9780    95.6   100.2  93 B2u  1601.
  95 Ag   1654.  0.9887    97.7   100.3  96 Ag   1649.
  96 B1g  1654.  0.3305    10.9    99.9   1 B3g   -94.
                -0.4608    21.2          39 B3g   740.
                 0.4066    16.5          75 B3g  1337.
                 0.6120    37.5          90 B3g  1545.
  97 B1g  3155.  0.9595    92.1   100.0  97 B3g  3179.
  98 B2u  3156.  0.9371    87.8   100.0  98 B1u  3180.
  99 B3u  3156. -0.9311    86.7   100.0  99 B2u  3180.
                 0.3612    13.0         106 B2u  3198.
 100 B1g  3158. -0.9689    93.9   100.0 101 B3g  3182.
 101 Ag   3158.  0.9465    89.6   100.0 100 Ag   3180.
                 0.3216    10.3         108 Ag   3200.
 102 B2u  3158.  0.9220    85.0   100.0 102 B1u  3182.
 103 B3u  3173.  0.6398    40.9   100.0 103 B2u  3194.
                -0.7039    49.5         106 B2u  3198.
 104 Ag   3174. -0.8358    69.9   100.0 104 Ag   3194.
                -0.5118    26.2         108 Ag   3200.
 105 B1g  3174.  0.9288    86.3   100.0 105 B3g  3198.
 106 B3u  3175. -0.7668    58.8   100.0 103 B2u  3194.
                -0.6116    37.4         106 B2u  3198.
 107 B2u  3175.  0.9438    89.1   100.0 107 B1u  3200.
 108 Ag   3177. -0.5483    30.1   100.0 104 Ag   3194.
                 0.7966    63.5         108 Ag   3200.
 nber times 1st assigned=           1           0
 nber times 1st assigned=           2           0
 nber times 1st assigned=           3           0
 nber times 1st assigned=           4           0
 nber times 1st assigned=           5           0
 nber times 1st assigned=           6           0
 nber times 1st assigned=           7           0
 nber times 1st assigned=           8           0
 nber times 1st assigned=           9           0
 nber times 1st assigned=          10           0
 nber times 1st assigned=          11           0
 nber times 1st assigned=          12           0
 nber times 1st assigned=          13           0
 nber times 1st assigned=          14           0
 nber times 1st assigned=          15           0
 nber times 1st assigned=          16           0
 nber times 1st assigned=          17           0
 nber times 1st assigned=          18           0
 nber times 1st assigned=          19           0
 nber times 1st assigned=          20           0
 nber times 1st assigned=          21           0
 nber times 1st assigned=          22           0
 nber times 1st assigned=          23           0
 nber times 1st assigned=          24           0
 nber times 1st assigned=          25           0
 nber times 1st assigned=          26           0
 nber times 1st assigned=          27           0
 nber times 1st assigned=          28           0
 nber times 1st assigned=          29           0
 nber times 1st assigned=          30           0
 nber times 1st assigned=          31           0
 nber times 1st assigned=          32           0
 nber times 1st assigned=          33           0
 nber times 1st assigned=          34           0
 nber times 1st assigned=          35           0
 nber times 1st assigned=          36           0
 nber times 1st assigned=          37           0
 nber times 1st assigned=          38           0
 nber times 1st assigned=          39           0
 nber times 1st assigned=          40           0
 nber times 1st assigned=          41           0
 nber times 1st assigned=          42           0
 nber times 1st assigned=          43           0
 nber times 1st assigned=          44           0
 nber times 1st assigned=          45           0
 nber times 1st assigned=          46           0
 nber times 1st assigned=          47           0
 nber times 1st assigned=          48           0
 nber times 1st assigned=          49           0
 nber times 1st assigned=          50           0
 nber times 1st assigned=          51           0
 nber times 1st assigned=          52           0
 nber times 1st assigned=          53           0
 nber times 1st assigned=          54           0
 nber times 1st assigned=          55           0
 nber times 1st assigned=          56           0
 nber times 1st assigned=          57           0
 nber times 1st assigned=          58           0
 nber times 1st assigned=          59           0
 nber times 1st assigned=          60           0
 nber times 1st assigned=          61           0
 nber times 1st assigned=          62           0
 nber times 1st assigned=          63           0
 nber times 1st assigned=          64           0
 nber times 1st assigned=          65           0
 nber times 1st assigned=          66           0
 nber times 1st assigned=          67           0
 nber times 1st assigned=          68           0
 nber times 1st assigned=          69           0
 nber times 1st assigned=          70           0
 nber times 1st assigned=          71           0
 nber times 1st assigned=          72           0
 nber times 1st assigned=          73           0
 nber times 1st assigned=          74           0
 nber times 1st assigned=          75           0
 nber times 1st assigned=          76           0
 nber times 1st assigned=          77           0
 nber times 1st assigned=          78           0
 nber times 1st assigned=          79           0
 nber times 1st assigned=          80           0
 nber times 1st assigned=          81           0
 nber times 1st assigned=          82           0
 nber times 1st assigned=          83           0
 nber times 1st assigned=          84           0
 nber times 1st assigned=          85           0
 nber times 1st assigned=          86           0
 nber times 1st assigned=          87           0
 nber times 1st assigned=          88           0
 nber times 1st assigned=          89           0
 nber times 1st assigned=          90           0
 nber times 1st assigned=          91           0
 nber times 1st assigned=          92           0
 nber times 1st assigned=          93           0
 nber times 1st assigned=          94           0
 nber times 1st assigned=          95           0
 nber times 1st assigned=          96           0
 nber times 1st assigned=          97           0
 nber times 1st assigned=          98           0
 nber times 1st assigned=          99           0
 nber times 1st assigned=         100           0
 nber times 1st assigned=         101           0
 nber times 1st assigned=         102           0
 nber times 1st assigned=         103           0
 nber times 1st assigned=         104           0
 nber times 1st assigned=         105           0
 nber times 1st assigned=         106           0
 nber times 1st assigned=         107           0
 nber times 1st assigned=         108           0
 modes represented=   102.007385192891     
 p1=
   -0.   -0.   -0.    0.   -0.    0.   -0.   -0.   -0.   -0.   -0.    0.    0.    0.    0.    8.   -0.    0.   -0.   -0.
   -0.    0.    1.    0.    2.   -0.    0.   -0.    0.    0.    0.   -0.   -0.   -0.   -0.   -0.   -0.    0.   -0.    0.
   -0.   -0.    0.   -0.    0.    0.    0.   -0.    0.    0.    0.   -0.    0.    0.   -0.   -0.    0.   -1.    0.    1.
    0.   -0.   -0.    0.   -2.   -0.   -0.    0.    0.   -1.    0.    2.   -0.    0.    0.    2.    0.   -0.   -1.    0.
   -0.   -0.    0.    1.    0.   -0.    0.    0.    0.   -0.   -0.   -1.   -0.    0.    3.   -0.   -0.   -0.   -0.   -0.
    0.   -0.    0.   -0.   -0.    0.    0.    0.
 p2=
    0.    0.    0.   -0.   -0.    0.   -0.    0.    0.   -0.   -0.    0.   -0.   -0.   -0.   -0.    8.   -0.   -0.    0.
    0.    0.    0.    1.   -2.    0.    0.   -0.   -0.    0.   -0.    0.    0.   -0.   -0.   -0.   -0.    0.   -0.   -0.
    0.    0.   -0.   -0.   -0.    0.    0.    0.   -0.    0.   -0.   -0.    0.   -0.   -0.    0.    0.    1.   -0.    0.
    2.   -0.   -0.   -0.   -1.    0.   -0.   -0.    2.    0.    0.    0.    0.   -0.   -0.   -0.    3.   -0.    0.    0.
    1.    0.   -0.   -1.   -1.   -0.   -0.   -0.   -0.   -0.    0.    0.   -0.   -1.   -0.   -3.    0.    0.    0.   -0.
   -0.   -0.    0.    0.    0.    0.   -0.   -0.

 Displacement: in terms of nc of 1 THEN of nc of 2

   1 B2u freq=    -0. Q= -0.000 lam=    -0.0 B3g freq=   -94. Q= -0.000 lam=    -0.0
   2 B3u freq=    -0. Q= -0.000 lam=    -0.0 B1u freq=    -0. Q= -0.000 lam=    -0.0
   3 B2g freq=    -0. Q= -0.000 lam=    -0.0 B2u freq=    -0. Q= -0.000 lam=    -0.0
   4 B1u freq=    -0. Q=  0.000 lam=    -0.0 B1g freq=     0. Q=  0.000 lam=     0.0
   5 B3g freq=     0. Q= -0.000 lam=     0.0 B2g freq=     0. Q= -0.000 lam=     0.0
   6 B1g freq=     0. Q=  0.000 lam=     0.0 B3u freq=     0. Q=  0.000 lam=     0.0
   7 Au  freq=    88. Q= -0.000 lam=     0.0 B3g freq=     0. Q= -0.000 lam=     0.0
   8 B1u freq=    88. Q= -0.000 lam=     0.0 Au  freq=    84. Q= -0.000 lam=     0.0
   9 B1u freq=   126. Q= -0.000 lam=     0.0 B3u freq=    87. Q= -0.000 lam=     0.0
  10 B2g freq=   165. Q= -0.000 lam=     0.0 B3u freq=   122. Q= -0.000 lam=     0.0
  11 B3g freq=   227. Q= -0.000 lam=     0.0 B1g freq=   159. Q= -0.000 lam=     0.0
  12 B3g freq=   297. Q=  0.000 lam=     0.0 B2g freq=   219. Q=  0.000 lam=     0.0
  13 B2g freq=   297. Q=  0.000 lam=     0.0 B1g freq=   280. Q=  0.000 lam=     0.0
  14 B1u freq=   302. Q=  0.000 lam=     0.0 Au  freq=   291. Q=  0.000 lam=     0.0
  15 Au  freq=   302. Q=  0.000 lam=     0.0 B2g freq=   296. Q=  0.000 lam=     0.0
  16 Ag  freq=   370. Q=  0.598 lam=    66.2 B3u freq=   297. Q=  0.000 lam=     0.0
  17 B1g freq=   370. Q= -0.000 lam=     0.0 Ag  freq=   372. Q= -0.600 lam=    66.8
  18 B2u freq=   385. Q=  0.000 lam=     0.0 B2u freq=   381. Q=  0.000 lam=     0.0
  19 B3u freq=   385. Q= -0.000 lam=     0.0 B1u freq=   385. Q= -0.000 lam=     0.0
  20 B2g freq=   457. Q= -0.000 lam=     0.0 B1g freq=   436. Q= -0.000 lam=     0.0
  21 B3g freq=   457. Q= -0.000 lam=     0.0 B2g freq=   442. Q= -0.000 lam=     0.0
  22 B3u freq=   481. Q=  0.000 lam=     0.0 B2u freq=   469. Q=  0.000 lam=     0.0
  23 Ag  freq=   485. Q=  0.063 lam=     1.0 B3g freq=   479. Q=  0.000 lam=     0.0
  24 B1g freq=   498. Q=  0.000 lam=     0.0 Ag  freq=   485. Q=  0.055 lam=     0.7
  25 Ag  freq=   498. Q=  0.213 lam=    11.3 Ag  freq=   498. Q=  0.221 lam=    12.1
  26 Au  freq=   530. Q= -0.000 lam=     0.0 Au  freq=   498. Q= -0.000 lam=     0.0
  27 B1u freq=   553. Q=  0.000 lam=     0.0 Au  freq=   527. Q=  0.000 lam=     0.0
  28 Au  freq=   553. Q= -0.000 lam=     0.0 B3u freq=   546. Q= -0.000 lam=     0.0
  29 B2u freq=   565. Q=  0.000 lam=     0.0 B1u freq=   559. Q=  0.000 lam=     0.0
  30 B1u freq=   565. Q=  0.000 lam=     0.0 B3u freq=   567. Q=  0.000 lam=     0.0
  31 B3g freq=   624. Q=  0.000 lam=     0.0 B2g freq=   584. Q=  0.000 lam=     0.0
  32 B1g freq=   646. Q= -0.000 lam=     0.0 B3g freq=   639. Q= -0.000 lam=     0.0
  33 B2g freq=   672. Q= -0.000 lam=     0.0 B1g freq=   661. Q= -0.000 lam=     0.0
  34 B3g freq=   672. Q= -0.000 lam=     0.0 B2g freq=   666. Q= -0.000 lam=     0.0
  35 B2u freq=   681. Q= -0.000 lam=     0.0 B3g freq=   670. Q= -0.000 lam=     0.0
  36 B1g freq=   691. Q= -0.000 lam=     0.0 B1u freq=   677. Q= -0.000 lam=     0.0
  37 Ag  freq=   691. Q= -0.049 lam=     0.8 Ag  freq=   689. Q= -0.047 lam=     0.8
  38 B1u freq=   773. Q=  0.000 lam=     0.0 B2g freq=   711. Q=  0.000 lam=     0.0
  39 Au  freq=   773. Q= -0.000 lam=     0.0 B3g freq=   740. Q= -0.000 lam=     0.0
  40 B2g freq=   776. Q=  0.000 lam=     0.0 Au  freq=   746. Q=  0.000 lam=     0.0
  41 B3g freq=   784. Q= -0.000 lam=     0.0 B3u freq=   761. Q= -0.000 lam=     0.0
  42 B2u freq=   785. Q= -0.000 lam=     0.0 B1u freq=   775. Q= -0.000 lam=     0.0
  43 B3u freq=   785. Q=  0.000 lam=     0.0 B2u freq=   778. Q=  0.000 lam=     0.0
  44 B1u freq=   818. Q= -0.000 lam=     0.0 B1g freq=   792. Q= -0.000 lam=     0.0
  45 Au  freq=   818. Q=  0.000 lam=     0.0 B1u freq=   805. Q=  0.000 lam=     0.0
  46 B2u freq=   824. Q=  0.000 lam=     0.0 Au  freq=   819. Q=  0.000 lam=     0.0
  47 B3u freq=   824. Q=  0.000 lam=     0.0 B2u freq=   826. Q=  0.000 lam=     0.0
  48 B2g freq=   854. Q= -0.000 lam=     0.0 B3u freq=   833. Q= -0.000 lam=     0.0
  49 B3g freq=   854. Q=  0.000 lam=     0.0 B2g freq=   870. Q=  0.000 lam=     0.0
  50 B1u freq=   874. Q=  0.000 lam=     0.0 B1g freq=   875. Q=  0.000 lam=     0.0
  51 B1g freq=   942. Q=  0.000 lam=     0.0 B3u freq=   894. Q=  0.000 lam=     0.0
  52 Au  freq=   960. Q= -0.000 lam=     0.0 B3g freq=   941. Q= -0.000 lam=     0.0
  53 B3g freq=   966. Q=  0.000 lam=     0.0 Au  freq=   980. Q=  0.000 lam=     0.0
  54 B2g freq=   966. Q=  0.000 lam=     0.0 B2g freq=   986. Q=  0.000 lam=     0.0
  55 Au  freq=   977. Q= -0.000 lam=     0.0 B1g freq=   992. Q= -0.000 lam=     0.0
  56 B1u freq=   977. Q= -0.000 lam=     0.0 Au  freq=  1000. Q= -0.000 lam=     0.0
  57 B3g freq=   983. Q=  0.000 lam=     0.0 B3u freq=  1003. Q=  0.000 lam=     0.0
  58 Ag  freq=  1010. Q= -0.134 lam=     9.1 Ag  freq=  1004. Q= -0.134 lam=     9.0
  59 B1g freq=  1010. Q=  0.000 lam=     0.0 B2g freq=  1007. Q=  0.000 lam=     0.0
  60 Ag  freq=  1049. Q=  0.182 lam=    17.4 B3g freq=  1032. Q=  0.000 lam=     0.0
  61 B2u freq=  1159. Q=  0.000 lam=     0.0 Ag  freq=  1057. Q=  0.213 lam=    23.9
  62 B3u freq=  1159. Q= -0.000 lam=     0.0 B2u freq=  1152. Q= -0.000 lam=     0.0
  63 B3u freq=  1159. Q= -0.000 lam=     0.0 B2u freq=  1164. Q= -0.000 lam=     0.0
  64 B1g freq=  1182. Q=  0.000 lam=     0.0 B1u freq=  1167. Q=  0.000 lam=     0.0
  65 Ag  freq=  1182. Q= -0.225 lam=    30.0 Ag  freq=  1175. Q= -0.207 lam=    25.3
  66 B2u freq=  1184. Q= -0.000 lam=     0.0 B1u freq=  1184. Q= -0.000 lam=     0.0
  67 B3u freq=  1213. Q= -0.000 lam=     0.0 B3g freq=  1212. Q= -0.000 lam=     0.0
  68 B2u freq=  1237. Q=  0.000 lam=     0.0 B2u freq=  1227. Q=  0.000 lam=     0.0
  69 B3u freq=  1237. Q=  0.000 lam=     0.0 Ag  freq=  1242. Q=  0.276 lam=    47.2
  70 Ag  freq=  1244. Q= -0.167 lam=    17.4 B2u freq=  1244. Q= -0.000 lam=     0.0
  71 B1g freq=  1249. Q=  0.000 lam=     0.0 B1u freq=  1246. Q=  0.000 lam=     0.0
  72 Ag  freq=  1249. Q=  0.259 lam=    41.9 B3g freq=  1261. Q=  0.000 lam=     0.0
  73 B1g freq=  1258. Q= -0.000 lam=     0.0 Ag  freq=  1265. Q= -0.046 lam=     1.3
  74 B2u freq=  1338. Q=  0.000 lam=     0.0 B1u freq=  1336. Q=  0.000 lam=     0.0
  75 B3u freq=  1338. Q=  0.000 lam=     0.0 B3g freq=  1337. Q=  0.000 lam=     0.0
  76 Ag  freq=  1372. Q=  0.333 lam=    76.1 B2u freq=  1349. Q=  0.000 lam=     0.0
  77 B3u freq=  1373. Q=  0.000 lam=     0.0 Ag  freq=  1383. Q=  0.393 lam=   106.9
  78 B1g freq=  1423. Q= -0.000 lam=     0.0 B2u freq=  1388. Q= -0.000 lam=     0.0
  79 Ag  freq=  1423. Q= -0.120 lam=    10.3 B2u freq=  1401. Q= -0.000 lam=     0.0
  80 B2u freq=  1425. Q=  0.000 lam=     0.0 B1u freq=  1421. Q=  0.000 lam=     0.0
  81 B3u freq=  1425. Q= -0.000 lam=     0.0 Ag  freq=  1427. Q= -0.123 lam=    10.9
  82 B2u freq=  1445. Q= -0.000 lam=     0.0 B3g freq=  1439. Q= -0.000 lam=     0.0
  83 B1g freq=  1465. Q=  0.000 lam=     0.0 B1u freq=  1450. Q=  0.000 lam=     0.0
  84 Ag  freq=  1465. Q=  0.217 lam=    34.6 Ag  freq=  1457. Q=  0.092 lam=     6.1
  85 B1g freq=  1481. Q=  0.000 lam=     0.0 Ag  freq=  1480. Q=  0.199 lam=    29.3
  86 Ag  freq=  1481. Q= -0.030 lam=     0.6 B3g freq=  1494. Q= -0.000 lam=     0.0
  87 B3u freq=  1518. Q=  0.000 lam=     0.0 B2u freq=  1497. Q=  0.000 lam=     0.0
  88 B2u freq=  1533. Q=  0.000 lam=     0.0 B1u freq=  1526. Q=  0.000 lam=     0.0
  89 B3u freq=  1533. Q=  0.000 lam=     0.0 B2u freq=  1526. Q=  0.000 lam=     0.0
  90 B1g freq=  1573. Q= -0.000 lam=     0.0 B3g freq=  1545. Q= -0.000 lam=     0.0
  91 B2u freq=  1584. Q= -0.000 lam=     0.0 B1u freq=  1570. Q= -0.000 lam=     0.0
  92 Ag  freq=  1639. Q= -0.162 lam=    21.4 B3g freq=  1574. Q= -0.000 lam=     0.0
  93 B2u freq=  1654. Q= -0.000 lam=     0.0 B2u freq=  1601. Q= -0.000 lam=     0.0
  94 B3u freq=  1654. Q=  0.000 lam=     0.0 Ag  freq=  1612. Q=  0.175 lam=    24.7
  95 Ag  freq=  1654. Q=  0.482 lam=   191.9 B1u freq=  1629. Q=  0.000 lam=     0.0
  96 B1g freq=  1654. Q= -0.000 lam=     0.0 Ag  freq=  1649. Q= -0.434 lam=   155.0
  97 B1g freq=  3155. Q= -0.000 lam=     0.0 B3g freq=  3179. Q= -0.000 lam=     0.0
  98 B2u freq=  3156. Q= -0.000 lam=     0.0 B1u freq=  3180. Q= -0.000 lam=     0.0
  99 B3u freq=  3156. Q= -0.000 lam=     0.0 B2u freq=  3180. Q= -0.000 lam=     0.0
 100 B1g freq=  3158. Q= -0.000 lam=     0.0 Ag  freq=  3180. Q= -0.003 lam=     0.0
 101 Ag  freq=  3158. Q=  0.019 lam=     0.6 B3g freq=  3182. Q=  0.000 lam=     0.0
 102 B2u freq=  3158. Q= -0.000 lam=     0.0 B1u freq=  3182. Q= -0.000 lam=     0.0
 103 B3u freq=  3173. Q=  0.000 lam=     0.0 B2u freq=  3194. Q=  0.000 lam=     0.0
 104 Ag  freq=  3174. Q= -0.005 lam=     0.0 Ag  freq=  3194. Q= -0.019 lam=     0.6
 105 B1g freq=  3174. Q= -0.000 lam=     0.0 B3g freq=  3198. Q= -0.000 lam=     0.0
 106 B3u freq=  3175. Q=  0.000 lam=     0.0 B2u freq=  3198. Q=  0.000 lam=     0.0
 107 B2u freq=  3175. Q=  0.000 lam=     0.0 B1u freq=  3200. Q=  0.000 lam=     0.0
 108 Ag  freq=  3177. Q=  0.051 lam=     4.1 Ag  freq=  3200. Q=  0.049 lam=     3.9

 total reorg energy (cm**-1, kcal/mol)=      535.      525.      1.53      1.50
 Nber of molecules processed=           2
