 Enter ifcurve (0=recti, 1=orth curvi, 2=apprx curvi, -1 = skip
 And atom ordering flag, 0= never changes, 1= use the first order thenceforth,
  2= deduce it (does read on fail), 3= always read it
 Reading file: 
 ./conjugated_carbonyls_2_C0S0.log                                              
                                          
  Entering Gaussian System, Link 0=g16                                          
  
 Gaussian format, type: g94, g98, g03= F F F
  #P Geom=AllCheck Guess=TCheck SCRF=Check Test GenChk RB3LYP/6-311G(d,p    
 energy type= B3LYP   
 Original G94 input coords:
  8  1.388478 -3.252945  0.000000
  6  0.787599 -2.202256  0.000000
  6 -0.787599 -2.202256  0.000000
  8 -1.388478 -3.252945  0.000000
  6 -1.416693 -0.885435  0.000000
 16 -3.137612 -0.650581  0.000000
  6 -2.926761  1.060352  0.000000
  6 -1.609300  1.437185  0.000000
  6 -0.730531  0.319859  0.000000
  6  0.730531  0.319859  0.000000
  6  1.609300  1.437185  0.000000
  6  2.926761  1.060352  0.000000
 16  3.137612 -0.650581  0.000000
  6  1.416693 -0.885435  0.000000
  1 -3.793756  1.703919  0.000000
  1 -1.288787  2.469902  0.000000
  1  1.288787  2.469902  0.000000
  1  3.793756  1.703919  0.000000
 nber atoms=          18
  SCF Done:  E(RB3LYP) =  -1330.45420980     A.U. after    1 cycles             
  
          23          40 "  -1330.45420980"
After scan for Atom:   Atom  AN      X      Y      Z        X      Y      Z        X      Y      Z   
After scan for Atom:   Atom  AN      X      Y      Z        X      Y      Z        X      Y      Z   
After scan for Atom:   Atom  AN      X      Y      Z        X      Y      Z        X      Y      Z   
After scan for Atom:   Atom  AN      X      Y      Z        X      Y      Z        X      Y      Z   
After scan for Atom:   Atom  AN      X      Y      Z        X      Y      Z        X      Y      Z   
After scan for Atom:   Atom  AN      X      Y      Z        X      Y      Z        X      Y      Z   
After scan for Atom:   Atom  AN      X      Y      Z        X      Y      Z        X      Y      Z   
After scan for Atom:   Atom  AN      X      Y      Z        X      Y      Z        X      Y      Z   
After scan for Atom:   Atom  AN      X      Y      Z        X      Y      Z        X      Y      Z   
After scan for Atom:   Atom  AN      X      Y      Z        X      Y      Z        X      Y      Z   
After scan for Atom:   Atom  AN      X      Y      Z        X      Y      Z        X      Y      Z   
After scan for Atom:   Atom  AN      X      Y      Z        X      Y      Z        X      Y      Z   
After scan for Atom:   Atom  AN      X      Y      Z        X      Y      Z        X      Y      Z   
After scan for Atom:   Atom  AN      X      Y      Z        X      Y      Z        X      Y      Z   
After scan for Atom:   Atom  AN      X      Y      Z        X      Y      Z        X      Y      Z   
After scan for Atom:   Atom  AN      X      Y      Z        X      Y      Z        X      Y      Z   
 g94    frequencies=
     0.0    0.0    0.0    0.0    0.0    0.0   67.4   96.2  139.6  148.5
   201.9  265.4  297.1  327.0  361.2  386.7  416.9  468.7  489.9  539.7
   539.9  618.0  673.8  691.1  696.0  743.0  753.9  778.6  825.2  832.9
   855.6  877.0  891.4  891.8  895.3 1006.2 1104.7 1124.0 1197.2 1232.0
  1256.8 1301.2 1383.0 1434.1 1444.6 1454.5 1560.2 1562.1 1742.2 1765.4
  3207.7 3212.1 3240.2 3240.6
 g94    symmetries=
                                                 A      A      A      A
       A      A      A      A      A      A      A      A      A      A
       A      A      A      A      A      A      A      A      A      A
       A      A      A      A      A      A      A      A      A      A
       A      A      A      A      A      A      A      A      A      A
       A      A      A      A
 atomic masses:
 15.9949 12.0000 12.0000 15.9949 12.0000 31.9721 12.0000 12.0000 12.0000 12.0000
 12.0000 12.0000 31.9721 12.0000  1.0078  1.0078  1.0078  1.0078
 looking for force constants in 
 ./conjugated_carbonyls_2_C0S0.fchk                                             
  
 Cartesian Force Constants                  R   N=        1485                  
  
 n3=          54        1485
 g94-fc frequencies=
    -6.8   -1.3    0.0    0.0    0.0    2.9   67.4   96.2  139.7  148.5
   201.9  265.4  297.1  327.0  361.2  386.7  417.0  468.7  489.9  539.7
   539.9  618.0  673.8  691.1  696.0  743.0  753.9  778.7  825.2  832.9
   855.7  877.0  891.4  891.8  895.3 1006.2 1104.7 1124.0 1197.3 1232.0
  1256.8 1301.2 1383.1 1434.1 1444.7 1454.6 1560.2 1562.2 1742.2 1765.4
  3207.8 3212.2 3240.3 3240.7
 at 99999: n3=          54
 symm operator            1 :  F  nop=           0
 symm operator            2 :  T  nop=           1
 symm operator            3 :  F  nop=           1
 symm operator            4 :  F  nop=           1
 symm operator            5 :  T  nop=           2
 symm operator            6 :  F  nop=           2
 symm operator            7 :  T  nop=           3
 swap           2           3
   1   1.38848   0.00000  -3.25294
   2   0.78760   0.00000  -2.20226
   3  -0.78760   0.00000  -2.20226
   4  -1.38848   0.00000  -3.25294
   5  -1.41669   0.00000  -0.88543
   6  -3.13761   0.00000  -0.65058
   7  -2.92676   0.00000   1.06035
   8  -1.60930   0.00000   1.43718
   9  -0.73053   0.00000   0.31986
  10   0.73053   0.00000   0.31986
  11   1.60930   0.00000   1.43718
  12   2.92676   0.00000   1.06035
  13   3.13761   0.00000  -0.65058
  14   1.41669   0.00000  -0.88543
  15  -3.79376   0.00000   1.70392
  16  -1.28879   0.00000   2.46990
  17   1.28879   0.00000   2.46990
  18   3.79376   0.00000   1.70392
 swap           1           2
   1   0.00000   1.38848  -3.25294
   2   0.00000   0.78760  -2.20226
   3   0.00000  -0.78760  -2.20226
   4   0.00000  -1.38848  -3.25294
   5   0.00000  -1.41669  -0.88543
   6   0.00000  -3.13761  -0.65058
   7   0.00000  -2.92676   1.06035
   8   0.00000  -1.60930   1.43718
   9   0.00000  -0.73053   0.31986
  10   0.00000   0.73053   0.31986
  11   0.00000   1.60930   1.43718
  12   0.00000   2.92676   1.06035
  13   0.00000   3.13761  -0.65058
  14   0.00000   1.41669  -0.88543
  15   0.00000  -3.79376   1.70392
  16   0.00000  -1.28879   2.46990
  17   0.00000   1.28879   2.46990
  18   0.00000   3.79376   1.70392
 The point group of the molecule is C2V
 enforcing symm op           1  jsymt=          -1          -1           1
 enforcing symm op           6  jsymt=           1          -1           1
 enforcing symm op           7  jsymt=          -1           1           1
 cartesian coord symmetries:
 A1 :   18 A2 :    9 B1 :    9 B2 :   18
 Symmetry rotation matrix:
   0.00000   0.00000   1.00000
  -1.00000   0.00000   0.00000
   0.00000  -1.00000   0.00000

 Projecting out zero-frequency components
 generating redundant internal coords
         300        3600          18
 search for int coords
   1 str   2   1   1.210
   2 str   3   2   1.575
   3 str   4   3   1.210
   4 str   5   3   1.459
   5 str   6   5   1.737
   6 str   7   6   1.724
   7 str   8   7   1.370
   8 str   9   5   1.387
   9 str   9   8   1.421
  10 str  10   9   1.461
  11 str  11  10   1.421
  12 str  12  11   1.370
  13 str  13  12   1.724
  14 str  14   2   1.459
  15 str  14  10   1.387
  16 str  14  13   1.737
  17 str  15   7   1.080
  18 str  16   8   1.081
  19 str  17  11   1.081
  20 str  18  12   1.080
 nber stretches=          20
  21 ben   1   2   3
  22 prop tor   1   2   3   4
  23 prop tor   1   2   3   5
  24 ben   1   2  14
  25 prop tor   1   2  14  10
  26 prop tor   1   2  14  13
  27 ben   2   3   4
  28 ben   2   3   5
  29 prop tor   2   3   5   6
  30 prop tor   2   3   5   9
  31 ben   2  14  10
  32 ben   2  14  13
  33 ben   3   2  14
  34 prop tor   3   2  14  10
  35 prop tor   3   2  14  13
  36 ben   3   5   6
  37 prop tor   3   5   6   7
  38 ben   3   5   9
  39 prop tor   3   5   9   8
  40 prop tor   3   5   9  10
  41 ben   4   3   5
  42 prop tor   4   3   5   6
  43 prop tor   4   3   5   9
  44 ben   5   6   7
  45 prop tor   5   6   7   8
  46 prop tor   5   6   7  15
  47 ben   5   9   8
  48 ben   5   9  10
  49 prop tor   5   9  10  11
  50 prop tor   5   9  10  14
  51 ben   6   5   9
  52 prop tor   6   5   9   8
  53 prop tor   6   5   9  10
  54 ben   6   7   8
  55 prop tor   6   7   8   9
  56 prop tor   6   7   8  16
  57 ben   6   7  15
  58 ben   7   8   9
  59 prop tor   7   8   9   5
  60 prop tor   7   8   9  10
  61 ben   7   8  16
  62 ben   8   7  15
  63 ben   8   9  10
  64 prop tor   8   9  10  11
  65 prop tor   8   9  10  14
  66 prop tor   9   5   6   7
  67 ben   9   8  16
  68 ben   9  10  11
  69 prop tor   9  10  11  12
  70 prop tor   9  10  11  17
  71 ben   9  10  14
  72 prop tor   9  10  14   2
  73 prop tor   9  10  14  13
  74 ben  10  11  12
  75 prop tor  10  11  12  13
  76 prop tor  10  11  12  18
  77 ben  10  11  17
  78 ben  10  14  13
  79 ben  11  10  14
  80 prop tor  11  10  14   2
  81 prop tor  11  10  14  13
  82 ben  11  12  13
  83 prop tor  11  12  13  14
  84 ben  11  12  18
  85 ben  12  11  17
  86 ben  12  13  14
  87 prop tor  12  13  14   2
  88 prop tor  12  13  14  10
  89 ben  13  12  18
  90 prop tor  14   2   3   4
  91 prop tor  14   2   3   5
  92 prop tor  14  10  11  12
  93 prop tor  14  10  11  17
  94 prop tor  15   7   8   9
  95 prop tor  15   7   8  16
  96 prop tor  16   8   9   5
  97 prop tor  16   8   9  10
  98 prop tor  17  11  12  13
  99 prop tor  17  11  12  18
 100 prop tor  18  12  13  14
 nber bend=              32
 nber lin bend=           0
 nber prop tor=          48
 nber impr tor=           0
 nber tot redund int=         100
 Eigenvalues of G in red int coords
    Gval -0.00000000 -0.00000000 -0.00000000 -0.00000000 -0.00000000 -0.00000000 -0.00000000 -0.00000000
    Gval -0.00000000 -0.00000000 -0.00000000 -0.00000000 -0.00000000 -0.00000000 -0.00000000 -0.00000000
    Gval -0.00000000 -0.00000000 -0.00000000 -0.00000000 -0.00000000 -0.00000000 -0.00000000  0.00000000
    Gval  0.00000000  0.00000000  0.00000000  0.00000000  0.00000000  0.00000000  0.00000000  0.00000000
    Gval  0.00000000  0.00000000  0.00000000  0.00000000  0.00000000  0.00000000  0.00000000  0.00000000
    Gval  0.00000000  0.00000000  0.00000000  0.00000000  0.00000000  0.00000000  0.00000000  0.00000000
    Gval  0.00000000  0.00000000  0.00000000  0.00000000  0.00000835  0.00000986  0.00001161  0.00002159
    Gval  0.00002160  0.00002499  0.00003240  0.00004469  0.00004833  0.00004893  0.00005456  0.00006103
    Gval  0.00007133  0.00009346  0.00010349  0.00010555  0.00010557  0.00010876  0.00011007  0.00013436
    Gval  0.00017065  0.00017826  0.00025596  0.00025895  0.00031466  0.00034586  0.00034722  0.00035256
    Gval  0.00040572  0.00044681  0.00045413  0.00052845  0.00059654  0.00059693  0.00062277  0.00062710
    Gval  0.00067771  0.00108058  0.00108202  0.00118357  0.00118379  0.00118431  0.00130368  0.00187314
    Gval  0.00200791  0.00242004  0.00387947  0.00398403
  8.347996235077829E-006  8.347996235077829E-006
  9.855769377312168E-006  8.347996235077829E-006
  1.161226025952726E-005  8.347996235077829E-006
  2.158607405055654E-005  8.347996235077829E-006
  2.160069753841590E-005  8.347996235077829E-006
  2.499172676621180E-005  8.347996235077829E-006
  3.240318830192805E-005  8.347996235077829E-006
  4.469064977461957E-005  8.347996235077829E-006
  4.832975962698517E-005  8.347996235077829E-006
  4.892984031412759E-005  8.347996235077829E-006
  5.455720939154425E-005  8.347996235077829E-006
  6.102901645193504E-005  8.347996235077829E-006
  7.132848522861675E-005  8.347996235077829E-006
  9.346265152047087E-005  8.347996235077829E-006
  1.034869863756765E-004  8.347996235077829E-006
  1.055541295191989E-004  8.347996235077829E-006
  1.055748175545196E-004  8.347996235077829E-006
  1.087608507859427E-004  8.347996235077829E-006
  1.100729038544622E-004  8.347996235077829E-006
  1.343627576073804E-004  8.347996235077829E-006
  1.706518679118471E-004  8.347996235077829E-006
  1.782618433422934E-004  8.347996235077829E-006
  2.559575624785269E-004  8.347996235077829E-006
  2.589484668864469E-004  8.347996235077829E-006
  3.146557836129314E-004  8.347996235077829E-006
  3.458627433878557E-004  8.347996235077829E-006
  3.472249424236937E-004  8.347996235077829E-006
  3.525599474121134E-004  8.347996235077829E-006
  4.057197689976250E-004  8.347996235077829E-006
  4.468088438019296E-004  8.347996235077829E-006
  4.541313064704944E-004  8.347996235077829E-006
  5.284459784464437E-004  8.347996235077829E-006
  5.965362213610420E-004  8.347996235077829E-006
  5.969276931474589E-004  8.347996235077829E-006
  6.227735132246877E-004  8.347996235077829E-006
  6.270991983256970E-004  8.347996235077829E-006
  6.777128472443475E-004  8.347996235077829E-006
  1.080578142466018E-003  8.347996235077829E-006
  1.082022443221575E-003  8.347996235077829E-006
  1.183570199188544E-003  8.347996235077829E-006
  1.183788636636377E-003  8.347996235077829E-006
  1.184311861157680E-003  8.347996235077829E-006
  1.303679530314870E-003  8.347996235077829E-006
  1.873139235889150E-003  8.347996235077829E-006
  2.007905423205384E-003  8.347996235077829E-006
  2.420035913285542E-003  8.347996235077829E-006
  3.879473670982911E-003  8.347996235077829E-006
  3.984028078138240E-003  8.347996235077829E-006
 cut=1d-8, nber non-redundant internal coords=          48
 Check on Eigenvals of non-red overlap matrix:
  0.00000835  0.00000986  0.00001161  0.00002159  0.00002160  0.00002499  0.00003240  0.00004469
  0.00004833  0.00004893  0.00005456  0.00006103  0.00007133  0.00009346  0.00010349  0.00010555
  0.00010557  0.00010876  0.00011007  0.00013436  0.00017065  0.00017826  0.00025596  0.00025895
  0.00031466  0.00034586  0.00034722  0.00035256  0.00040572  0.00044681  0.00045413  0.00052845
  0.00059654  0.00059693  0.00062277  0.00062710  0.00067771  0.00108058  0.00108202  0.00118357
  0.00118379  0.00118431  0.00130368  0.00187314  0.00200791  0.00242004  0.00387947  0.00398403
 Checking for correct frequencies
 recalc frequencies=
    -0.0   -0.0   -0.0    0.0    0.0    0.0   67.4   96.2  139.7  148.5
   201.9  265.4  297.1  327.0  361.2  386.7  417.0  468.7  489.9  539.7
   539.9  618.0  673.8  691.1  696.0  743.0  753.9  778.7  825.2  832.9
   855.7  877.0  891.4  891.8  895.3 1006.2 1104.7 1124.0 1197.3 1232.0
  1256.8 1301.2 1383.1 1434.1 1444.7 1454.6 1560.2 1562.2 1742.2 1765.4
  3207.8 3212.2 3240.3 3240.7
 recalc symmetries=
     B2     A2     B1     B1     A1     B2     A2     B1     A2     B1 
     A1     B2     A2     A1     A1     B2     B1     A2     A1     B2 
     B1     B1     A2     B2     A1     B1     A2     B2     A2     A1 
     B2     B2     A1     A2     B1     A1     B2     A1     B2     B2 
     A1     A1     B2     A1     A1     B2     A1     B2     A1     B2 
     B2     A1     B2     A1 
 recalc freqs check OK
 Zero-point lengths:
 10.0000 10.0000 10.0000 10.0000 10.0000 10.0000 30.1915 25.2801 20.9785 20.3451
 17.4458 15.2169 14.3821 13.7094 13.0446 12.6064 12.1410 11.4512 11.2004 10.6713
 10.6690  9.9724  9.5506  9.4303  9.3967  9.0950  9.0291  8.8842  8.6299  8.5901
  8.4751  8.3715  8.3034  8.3017  8.2853  7.8155  7.4589  7.3945  7.1648  7.0629
  6.9929  6.8727  6.6661  6.5464  6.5224  6.5002  6.2763  6.2724  5.9395  5.9003
  4.3771  4.3742  4.3551  4.3549
 highest evec of mol 1
  0.0000  0.0001  0.0000
  0.0000 -0.0000  0.0003
  0.0000  0.0000  0.0003
  0.0000 -0.0001  0.0000
  0.0000  0.0022 -0.0019
  0.0000 -0.0006 -0.0020
  0.0000 -0.1654  0.1114
  0.0000  0.0303  0.0644
  0.0000  0.0031 -0.0038
  0.0000 -0.0031 -0.0038
  0.0000 -0.0303  0.0644
  0.0000  0.1654  0.1114
  0.0000  0.0006 -0.0020
  0.0000 -0.0022 -0.0019
  0.0000  0.5173 -0.3811
  0.0000 -0.0632 -0.1957
  0.0000  0.0632 -0.1957
  0.0000 -0.5173 -0.3811
 generating redundant internal coords
         300        3600          18
 Adding extra bonds for z output only
           8           6           6           8           6          16
           6           6           6           6           6           6
          16           6           1           1           1           1
 search for int coords
   1 str   2   1   1.210
   2 str   3   2   1.575
   3 str   4   3   1.210
   4 str   5   3   1.459
   5 str   6   5   1.737
   6 str   7   6   1.724
   7 str   8   7   1.370
   8 str   9   5   1.387
   9 str   9   8   1.421
  10 str  10   9   1.461
  11 str  11  10   1.421
  12 str  12  11   1.370
  13 str  13  12   1.724
  14 str  14   2   1.459
  15 str  14  10   1.387
  16 str  14  13   1.737
  17 str  15   7   1.080
  18 str  16   8   1.081
  19 str  17  11   1.081
  20 str  18  12   1.080
 nber stretches=          20
  21 ben   1   2   3
  22 prop tor   1   2   3   4
  23 prop tor   1   2   3   5
  24 ben   1   2  14
  25 prop tor   1   2  14  10
  26 prop tor   1   2  14  13
  27 ben   2   3   4
  28 ben   2   3   5
  29 prop tor   2   3   5   6
  30 prop tor   2   3   5   9
  31 ben   2  14  10
  32 ben   2  14  13
  33 ben   3   2  14
  34 prop tor   3   2  14  10
  35 prop tor   3   2  14  13
  36 ben   3   5   6
  37 prop tor   3   5   6   7
  38 ben   3   5   9
  39 prop tor   3   5   9   8
  40 prop tor   3   5   9  10
  41 ben   4   3   5
  42 prop tor   4   3   5   6
  43 prop tor   4   3   5   9
  44 ben   5   6   7
  45 prop tor   5   6   7   8
  46 prop tor   5   6   7  15
  47 ben   5   9   8
  48 ben   5   9  10
  49 prop tor   5   9  10  11
  50 prop tor   5   9  10  14
  51 ben   6   5   9
  52 prop tor   6   5   9   8
  53 prop tor   6   5   9  10
  54 ben   6   7   8
  55 prop tor   6   7   8   9
  56 prop tor   6   7   8  16
  57 ben   6   7  15
  58 ben   7   8   9
  59 prop tor   7   8   9   5
  60 prop tor   7   8   9  10
  61 ben   7   8  16
  62 ben   8   7  15
  63 ben   8   9  10
  64 prop tor   8   9  10  11
  65 prop tor   8   9  10  14
  66 prop tor   9   5   6   7
  67 ben   9   8  16
  68 ben   9  10  11
  69 prop tor   9  10  11  12
  70 prop tor   9  10  11  17
  71 ben   9  10  14
  72 prop tor   9  10  14   2
  73 prop tor   9  10  14  13
  74 ben  10  11  12
  75 prop tor  10  11  12  13
  76 prop tor  10  11  12  18
  77 ben  10  11  17
  78 ben  10  14  13
  79 ben  11  10  14
  80 prop tor  11  10  14   2
  81 prop tor  11  10  14  13
  82 ben  11  12  13
  83 prop tor  11  12  13  14
  84 ben  11  12  18
  85 ben  12  11  17
  86 ben  12  13  14
  87 prop tor  12  13  14   2
  88 prop tor  12  13  14  10
  89 ben  13  12  18
  90 prop tor  14   2   3   4
  91 prop tor  14   2   3   5
  92 prop tor  14  10  11  12
  93 prop tor  14  10  11  17
  94 prop tor  15   7   8   9
  95 prop tor  15   7   8  16
  96 prop tor  16   8   9   5
  97 prop tor  16   8   9  10
  98 prop tor  17  11  12  13
  99 prop tor  17  11  12  18
 100 prop tor  18  12  13  14
 nber bend=              32
 nber lin bend=           0
 nber prop tor=          48
 nber impr tor=           0
 nber tot redund int=         100
 Reading file: 
 ./conjugated_carbonyls_2_C-2S0.log                                             
                                          
  Entering Gaussian System, Link 0=g16                                          
  
 Gaussian format, type: g94, g98, g03= F F F
  #P Geom=AllCheck Guess=TCheck SCRF=Check Test GenChk UB3LYP/6-311G(d,p    
 energy type= B3LYP   
 Original G94 input coords:
  8  1.416228 -3.271858  0.000000
  6  0.773632 -2.188999  0.000001
  6 -0.773632 -2.188999 -0.000001
  8 -1.416228 -3.271858  0.000000
  6 -1.383311 -0.905886 -0.000001
 16 -3.162489 -0.693988  0.000000
  6 -2.982540  1.074339  0.000000
  6 -1.630722  1.439146  0.000000
  6 -0.732751  0.358081  0.000000
  6  0.732751  0.358081  0.000000
  6  1.630722  1.439146  0.000000
  6  2.982540  1.074339  0.000000
 16  3.162489 -0.693988  0.000000
  6  1.383311 -0.905886  0.000001
  1 -3.855085  1.711467  0.000000
  1 -1.309192  2.477697  0.000000
  1  1.309192  2.477697  0.000000
  1  3.855085  1.711467 -0.000001
 nber atoms=          18
  SCF Done:  E(UB3LYP) =  -1330.37676651     A.U. after    1 cycles             
  
          23          40 "  -1330.37676651"
After scan for Atom:   Atom  AN      X      Y      Z        X      Y      Z        X      Y      Z   
After scan for Atom:   Atom  AN      X      Y      Z        X      Y      Z        X      Y      Z   
After scan for Atom:   Atom  AN      X      Y      Z        X      Y      Z        X      Y      Z   
After scan for Atom:   Atom  AN      X      Y      Z        X      Y      Z        X      Y      Z   
After scan for Atom:   Atom  AN      X      Y      Z        X      Y      Z        X      Y      Z   
After scan for Atom:   Atom  AN      X      Y      Z        X      Y      Z        X      Y      Z   
After scan for Atom:   Atom  AN      X      Y      Z        X      Y      Z        X      Y      Z   
After scan for Atom:   Atom  AN      X      Y      Z        X      Y      Z        X      Y      Z   
After scan for Atom:   Atom  AN      X      Y      Z        X      Y      Z        X      Y      Z   
After scan for Atom:   Atom  AN      X      Y      Z        X      Y      Z        X      Y      Z   
After scan for Atom:   Atom  AN      X      Y      Z        X      Y      Z        X      Y      Z   
After scan for Atom:   Atom  AN      X      Y      Z        X      Y      Z        X      Y      Z   
After scan for Atom:   Atom  AN      X      Y      Z        X      Y      Z        X      Y      Z   
After scan for Atom:   Atom  AN      X      Y      Z        X      Y      Z        X      Y      Z   
After scan for Atom:   Atom  AN      X      Y      Z        X      Y      Z        X      Y      Z   
After scan for Atom:   Atom  AN      X      Y      Z        X      Y      Z        X      Y      Z   
 g94    frequencies=
     0.0    0.0    0.0    0.0    0.0    0.0 -207.0 -205.9   74.2  105.6
   133.2  151.7  202.3  253.0  279.1  316.2  336.0  352.1  357.4  384.8
   490.5  501.6  510.2  591.4  629.7  644.5  658.5  715.2  717.0  727.4
   751.1  761.5  802.1  847.5  852.6  978.6 1019.7 1079.6 1151.2 1236.0
  1236.9 1277.9 1299.8 1343.9 1368.2 1406.1 1460.8 1521.6 1556.3 1585.4
  3120.7 3126.9 3199.2 3201.1
 g94    symmetries=
                                                 A      A      A      A
       A      A      A      A      A      A      A      A      A      A
       A      A      A      A      A      A      A      A      A      A
       A      A      A      A      A      A      A      A      A      A
       A      A      A      A      A      A      A      A      A      A
       A      A      A      A
 atomic masses:
 15.9949 12.0000 12.0000 15.9949 12.0000 31.9721 12.0000 12.0000 12.0000 12.0000
 12.0000 12.0000 31.9721 12.0000  1.0078  1.0078  1.0078  1.0078
 looking for force constants in 
 ./conjugated_carbonyls_2_C-2S0.fchk                                            
  
 Cartesian Force Constants                  R   N=        1485                  
  
 n3=          54        1485
 g94-fc frequencies=
  -207.0 -205.9   -1.8    0.0    0.0    0.0    1.9    2.4   74.3  105.6
   133.2  151.7  202.3  253.0  279.1  316.2  336.0  352.1  357.4  384.8
   490.5  501.6  510.3  591.4  629.7  644.5  658.5  715.2  717.0  727.4
   751.1  761.5  802.1  847.5  852.6  978.7 1019.7 1079.6 1151.3 1236.1
  1236.9 1277.9 1299.8 1343.9 1368.3 1406.2 1460.8 1521.6 1556.3 1585.4
  3120.7 3126.9 3199.2 3201.2
 at 99999: n3=          54
 symm operator            1 :  F  nop=           0
 symm operator            2 :  T  nop=           1
 symm operator            3 :  F  nop=           1
 symm operator            4 :  F  nop=           1
 symm operator            5 :  T  nop=           2
 symm operator            6 :  F  nop=           2
 symm operator            7 :  T  nop=           3
 swap           2           3
   1   1.41623   0.00000  -3.27186
   2   0.77363   0.00000  -2.18900
   3  -0.77363  -0.00000  -2.18900
   4  -1.41623   0.00000  -3.27186
   5  -1.38331  -0.00000  -0.90589
   6  -3.16249   0.00000  -0.69399
   7  -2.98254   0.00000   1.07434
   8  -1.63072   0.00000   1.43915
   9  -0.73275   0.00000   0.35808
  10   0.73275   0.00000   0.35808
  11   1.63072   0.00000   1.43915
  12   2.98254   0.00000   1.07434
  13   3.16249   0.00000  -0.69399
  14   1.38331   0.00000  -0.90589
  15  -3.85508   0.00000   1.71147
  16  -1.30919   0.00000   2.47770
  17   1.30919   0.00000   2.47770
  18   3.85508  -0.00000   1.71147
 swap           1           2
   1   0.00000   1.41623  -3.27186
   2   0.00000   0.77363  -2.18900
   3  -0.00000  -0.77363  -2.18900
   4   0.00000  -1.41623  -3.27186
   5  -0.00000  -1.38331  -0.90589
   6   0.00000  -3.16249  -0.69399
   7   0.00000  -2.98254   1.07434
   8   0.00000  -1.63072   1.43915
   9   0.00000  -0.73275   0.35808
  10   0.00000   0.73275   0.35808
  11   0.00000   1.63072   1.43915
  12   0.00000   2.98254   1.07434
  13   0.00000   3.16249  -0.69399
  14   0.00000   1.38331  -0.90589
  15   0.00000  -3.85508   1.71147
  16   0.00000  -1.30919   2.47770
  17   0.00000   1.30919   2.47770
  18  -0.00000   3.85508   1.71147
 The point group of the molecule is C2V
 enforcing symm op           1  jsymt=          -1          -1           1
 enforcing symm op           6  jsymt=           1          -1           1
 enforcing symm op           7  jsymt=          -1           1           1
 cartesian coord symmetries:
 A1 :   18 A2 :    9 B1 :    9 B2 :   18
 Symmetry rotation matrix:
   0.00000   0.00000   1.00000
  -1.00000   0.00000   0.00000
   0.00000  -1.00000   0.00000

 Projecting out zero-frequency components
 generating redundant internal coords
         300        3600          18
 search for int coords
   1 str   2   1   1.259
   2 str   3   2   1.547
   3 str   4   3   1.259
   4 str   5   3   1.421
   5 str   6   5   1.792
   6 str   7   6   1.777
   7 str   8   7   1.400
   8 str   9   5   1.422
   9 str   9   8   1.405
  10 str  10   9   1.466
  11 str  11  10   1.405
  12 str  12  11   1.400
  13 str  13  12   1.777
  14 str  14   2   1.421
  15 str  14  10   1.422
  16 str  14  13   1.792
  17 str  15   7   1.080
  18 str  16   8   1.087
  19 str  17  11   1.087
  20 str  18  12   1.080
 nber stretches=          20
  21 ben   1   2   3
  22 prop tor   1   2   3   4
  23 prop tor   1   2   3   5
  24 ben   1   2  14
  25 prop tor   1   2  14  10
  26 prop tor   1   2  14  13
  27 ben   2   3   4
  28 ben   2   3   5
  29 prop tor   2   3   5   6
  30 prop tor   2   3   5   9
  31 ben   2  14  10
  32 ben   2  14  13
  33 ben   3   2  14
  34 prop tor   3   2  14  10
  35 prop tor   3   2  14  13
  36 ben   3   5   6
  37 prop tor   3   5   6   7
  38 ben   3   5   9
  39 prop tor   3   5   9   8
  40 prop tor   3   5   9  10
  41 ben   4   3   5
  42 prop tor   4   3   5   6
  43 prop tor   4   3   5   9
  44 ben   5   6   7
  45 prop tor   5   6   7   8
  46 prop tor   5   6   7  15
  47 ben   5   9   8
  48 ben   5   9  10
  49 prop tor   5   9  10  11
  50 prop tor   5   9  10  14
  51 ben   6   5   9
  52 prop tor   6   5   9   8
  53 prop tor   6   5   9  10
  54 ben   6   7   8
  55 prop tor   6   7   8   9
  56 prop tor   6   7   8  16
  57 ben   6   7  15
  58 ben   7   8   9
  59 prop tor   7   8   9   5
  60 prop tor   7   8   9  10
  61 ben   7   8  16
  62 ben   8   7  15
  63 ben   8   9  10
  64 prop tor   8   9  10  11
  65 prop tor   8   9  10  14
  66 prop tor   9   5   6   7
  67 ben   9   8  16
  68 ben   9  10  11
  69 prop tor   9  10  11  12
  70 prop tor   9  10  11  17
  71 ben   9  10  14
  72 prop tor   9  10  14   2
  73 prop tor   9  10  14  13
  74 ben  10  11  12
  75 prop tor  10  11  12  13
  76 prop tor  10  11  12  18
  77 ben  10  11  17
  78 ben  10  14  13
  79 ben  11  10  14
  80 prop tor  11  10  14   2
  81 prop tor  11  10  14  13
  82 ben  11  12  13
  83 prop tor  11  12  13  14
  84 ben  11  12  18
  85 ben  12  11  17
  86 ben  12  13  14
  87 prop tor  12  13  14   2
  88 prop tor  12  13  14  10
  89 ben  13  12  18
  90 prop tor  14   2   3   4
  91 prop tor  14   2   3   5
  92 prop tor  14  10  11  12
  93 prop tor  14  10  11  17
  94 prop tor  15   7   8   9
  95 prop tor  15   7   8  16
  96 prop tor  16   8   9   5
  97 prop tor  16   8   9  10
  98 prop tor  17  11  12  13
  99 prop tor  17  11  12  18
 100 prop tor  18  12  13  14
 nber bend=              32
 nber lin bend=           0
 nber prop tor=          48
 nber impr tor=           0
 nber tot redund int=         100
 Eigenvalues of G in red int coords
    Gval -0.00000000 -0.00000000 -0.00000000 -0.00000000 -0.00000000 -0.00000000 -0.00000000 -0.00000000
    Gval -0.00000000 -0.00000000 -0.00000000 -0.00000000 -0.00000000 -0.00000000 -0.00000000 -0.00000000
    Gval -0.00000000 -0.00000000 -0.00000000 -0.00000000 -0.00000000 -0.00000000 -0.00000000 -0.00000000
    Gval -0.00000000  0.00000000  0.00000000  0.00000000  0.00000000  0.00000000  0.00000000  0.00000000
    Gval  0.00000000  0.00000000  0.00000000  0.00000000  0.00000000  0.00000000  0.00000000  0.00000000
    Gval  0.00000000  0.00000000  0.00000000  0.00000000  0.00000000  0.00000000  0.00000000  0.00000000
    Gval  0.00000000  0.00000000  0.00000000  0.00000000  0.00000831  0.00000975  0.00001130  0.00002112
    Gval  0.00002155  0.00002438  0.00003204  0.00004272  0.00004795  0.00004892  0.00005202  0.00006046
    Gval  0.00007060  0.00009247  0.00010249  0.00010363  0.00010375  0.00010381  0.00010888  0.00013188
    Gval  0.00016461  0.00017470  0.00024934  0.00025214  0.00031260  0.00032590  0.00034695  0.00034787
    Gval  0.00041505  0.00044760  0.00044850  0.00052027  0.00059645  0.00059681  0.00062212  0.00062685
    Gval  0.00067717  0.00107484  0.00107662  0.00117174  0.00117196  0.00119649  0.00131697  0.00187261
    Gval  0.00201917  0.00246262  0.00381721  0.00392284
  8.308361455666483E-006  8.308361455666483E-006
  9.748249595779790E-006  8.308361455666483E-006
  1.129866624239839E-005  8.308361455666483E-006
  2.112114138800437E-005  8.308361455666483E-006
  2.154582424971605E-005  8.308361455666483E-006
  2.438228560446592E-005  8.308361455666483E-006
  3.204161590251738E-005  8.308361455666483E-006
  4.271619827631987E-005  8.308361455666483E-006
  4.795340404956160E-005  8.308361455666483E-006
  4.892256084303798E-005  8.308361455666483E-006
  5.202212688083145E-005  8.308361455666483E-006
  6.046134737285559E-005  8.308361455666483E-006
  7.060333486151054E-005  8.308361455666483E-006
  9.246665625116133E-005  8.308361455666483E-006
  1.024874469777888E-004  8.308361455666483E-006
  1.036305588683579E-004  8.308361455666483E-006
  1.037523305607834E-004  8.308361455666483E-006
  1.038125504683671E-004  8.308361455666483E-006
  1.088826686234581E-004  8.308361455666483E-006
  1.318753667101681E-004  8.308361455666483E-006
  1.646149424949359E-004  8.308361455666483E-006
  1.747034691415630E-004  8.308361455666483E-006
  2.493381979575463E-004  8.308361455666483E-006
  2.521389604360127E-004  8.308361455666483E-006
  3.126007091954766E-004  8.308361455666483E-006
  3.258956759110467E-004  8.308361455666483E-006
  3.469450193023810E-004  8.308361455666483E-006
  3.478669518297259E-004  8.308361455666483E-006
  4.150450370409320E-004  8.308361455666483E-006
  4.475972597715036E-004  8.308361455666483E-006
  4.485021159751401E-004  8.308361455666483E-006
  5.202671099209389E-004  8.308361455666483E-006
  5.964484752201332E-004  8.308361455666483E-006
  5.968104606245720E-004  8.308361455666483E-006
  6.221211124867407E-004  8.308361455666483E-006
  6.268451550329639E-004  8.308361455666483E-006
  6.771670165213062E-004  8.308361455666483E-006
  1.074837110316532E-003  8.308361455666483E-006
  1.076622877824712E-003  8.308361455666483E-006
  1.171743502506989E-003  8.308361455666483E-006
  1.171955026806480E-003  8.308361455666483E-006
  1.196494403381607E-003  8.308361455666483E-006
  1.316971946873205E-003  8.308361455666483E-006
  1.872608386104474E-003  8.308361455666483E-006
  2.019174799341634E-003  8.308361455666483E-006
  2.462622443797410E-003  8.308361455666483E-006
  3.817210378070910E-003  8.308361455666483E-006
  3.922841505497333E-003  8.308361455666483E-006
 cut=1d-8, nber non-redundant internal coords=          48
 Check on Eigenvals of non-red overlap matrix:
  0.00000831  0.00000975  0.00001130  0.00002112  0.00002155  0.00002438  0.00003204  0.00004272
  0.00004795  0.00004892  0.00005202  0.00006046  0.00007060  0.00009247  0.00010249  0.00010363
  0.00010375  0.00010381  0.00010888  0.00013188  0.00016461  0.00017470  0.00024934  0.00025214
  0.00031260  0.00032590  0.00034695  0.00034787  0.00041505  0.00044760  0.00044850  0.00052027
  0.00059645  0.00059681  0.00062212  0.00062685  0.00067717  0.00107484  0.00107662  0.00117174
  0.00117196  0.00119649  0.00131697  0.00187261  0.00201917  0.00246262  0.00381721  0.00392284
 Checking for correct frequencies
 recalc frequencies=
  -207.0 -205.9   -0.0   -0.0    0.0    0.0    0.0    0.0   74.3  105.6
   133.2  151.7  202.3  253.0  279.1  316.2  336.0  352.1  357.4  384.8
   490.5  501.6  510.3  591.4  629.7  644.5  658.5  715.2  717.0  727.4
   751.1  761.5  802.1  847.5  852.6  978.7 1019.7 1079.6 1151.3 1236.1
  1236.9 1277.9 1299.8 1343.9 1368.3 1406.2 1460.8 1521.6 1556.3 1585.4
  3120.7 3126.9 3199.2 3201.2
 recalc symmetries=
     A2     B1     B2     B1     A1     B2     A2     B1     A2     B1 
     A2     B1     A1     B2     A2     A1     B1     A2     A1     B2 
     A1     B2     B1     B1     A2     B2     A1     A2     B1     B2 
     A2     A1     B2     B2     A1     A1     B2     A1     B2     A1 
     B2     A1     B2     A1     A1     B2     B2     A1     A1     B2 
     B2     A1     B2     A1 
 recalc freqs check OK
 Zero-point lengths:
 17.2317 17.2787 10.0000 10.0000 10.0000 10.0000 10.0000 10.0000 28.7704 24.1283
 21.4772 20.1278 17.4290 15.5871 14.8391 13.9420 13.5254 13.2118 13.1133 12.6378
 11.1939 11.0693 10.9749 10.1939  9.8795  9.7651  9.6608  9.2699  9.2585  9.1919
  9.0457  8.9836  8.7535  8.5159  8.4901  7.9247  7.7635  7.5451  7.3065  7.0514
  7.0490  6.9349  6.8763  6.7625  6.7021  6.6111  6.4863  6.3553  6.2841  6.2262
  4.4378  4.4334  4.3830  4.3817
 highest evec of mol 2
  0.0000  0.0002  0.0000
  0.0000  0.0002  0.0002
  0.0000 -0.0002  0.0002
  0.0000 -0.0002  0.0000
  0.0000  0.0015 -0.0011
  0.0000 -0.0008 -0.0016
  0.0000 -0.1679  0.1119
  0.0000  0.0188  0.0355
  0.0000  0.0022 -0.0020
  0.0000 -0.0022 -0.0020
  0.0000 -0.0188  0.0355
  0.0000  0.1679  0.1119
  0.0000  0.0008 -0.0016
  0.0000 -0.0015 -0.0011
  0.0000  0.5424 -0.3905
  0.0000 -0.0332 -0.0995
  0.0000  0.0332 -0.0995
  0.0000 -0.5424 -0.3905
 Enter nber and list of atoms to keep of mol #2
 keep list:          18           1           2           3           4
           5           6           7           8           9          10
          11          12          13          14          15          16
          17          18
 reordering atoms
           1  -1.41622800000000     
           2 -0.773632000000044     
           3  0.773632000000043     
           4   1.41622800000000     
           5   1.38331100000004     
           6   3.16248900000000     
           7   2.98254000000000     
           8   1.63072200000000     
           9  0.732751000000000     
          10 -0.732750999999999     
          11  -1.63072200000000     
          12  -2.98254000000000     
          13  -3.16248900000000     
          14  -1.38331100000004     
          15   3.85508500000000     
          16   1.30919200000000     
          17  -1.30919200000000     
          18  -3.85508499999995     
           1           1
           2           2
           3           3
           4           4
           5           5
           6           6
           7           7
           8           8
           9           9
          10          10
          11          11
          12          12
          13          13
          14          14
          15          15
          16          16
          17          17
          18          18
 initial cartes coords mol 1
   8   0.00000   2.54834   1.38848
   6   0.00000   1.49765   0.78760
   6   0.00000   1.49765  -0.78760
   8   0.00000   2.54834  -1.38848
   6   0.00000   0.18083  -1.41669
  16   0.00000  -0.05403  -3.13761
   6   0.00000  -1.76496  -2.92676
   6   0.00000  -2.14179  -1.60930
   6   0.00000  -1.02447  -0.73053
   6   0.00000  -1.02447   0.73053
   6   0.00000  -2.14179   1.60930
   6   0.00000  -1.76496   2.92676
  16   0.00000  -0.05403   3.13761
   6   0.00000   0.18083   1.41669
   1   0.00000  -2.40853  -3.79376
   1   0.00000  -3.17451  -1.28879
   1   0.00000  -3.17451   1.28879
   1   0.00000  -2.40853   3.79376
 initial cartes coords mol 2
   8  -0.00000   2.55681  -1.41623
   6   0.00000   1.47396  -0.77363
   6  -0.00000   1.47396   0.77363
   8   0.00000   2.55681   1.41623
   6  -0.00000   0.19084   1.38331
  16   0.00000  -0.02106   3.16249
   6   0.00000  -1.78938   2.98254
   6   0.00000  -2.15419   1.63072
   6   0.00000  -1.07312   0.73275
   6  -0.00000  -1.07312  -0.73275
   6  -0.00000  -2.15419  -1.63072
   6  -0.00000  -1.78938  -2.98254
  16  -0.00000  -0.02106  -3.16249
   6   0.00000   0.19084  -1.38331
   1   0.00000  -2.42651   3.85508
   1   0.00000  -3.19274   1.30919
   1  -0.00000  -3.19274  -1.30919
   1  -0.00000  -2.42651  -3.85508
 loop 1 0
 mod cartes coords mol 2
   8  -0.00000   2.55681  -1.41623
   6   0.00000   1.47396  -0.77363
   6  -0.00000   1.47396   0.77363
   8   0.00000   2.55681   1.41623
   6  -0.00000   0.19084   1.38331
  16   0.00000  -0.02106   3.16249
   6   0.00000  -1.78938   2.98254
   6   0.00000  -2.15419   1.63072
   6   0.00000  -1.07312   0.73275
   6  -0.00000  -1.07312  -0.73275
   6  -0.00000  -2.15419  -1.63072
   6  -0.00000  -1.78938  -2.98254
  16  -0.00000  -0.02106  -3.16249
   6   0.00000   0.19084  -1.38331
   1   0.00000  -2.42651   3.85508
   1   0.00000  -3.19274   1.30919
   1  -0.00000  -3.19274  -1.30919
   1  -0.00000  -2.42651  -3.85508
 read in order, maxerr=  7.65 for atom  18
 loop 1 1
 mod cartes coords mol 2
   8   0.00000   2.55681  -1.41623
   6  -0.00000   1.47396  -0.77363
   6   0.00000   1.47396   0.77363
   8  -0.00000   2.55681   1.41623
   6   0.00000   0.19084   1.38331
  16  -0.00000  -0.02106   3.16249
   6  -0.00000  -1.78938   2.98254
   6  -0.00000  -2.15419   1.63072
   6  -0.00000  -1.07312   0.73275
   6   0.00000  -1.07312  -0.73275
   6   0.00000  -2.15419  -1.63072
   6   0.00000  -1.78938  -2.98254
  16   0.00000  -0.02106  -3.16249
   6  -0.00000   0.19084  -1.38331
   1  -0.00000  -2.42651   3.85508
   1  -0.00000  -3.19274   1.30919
   1   0.00000  -3.19274  -1.30919
   1   0.00000  -2.42651  -3.85508
 read in order, maxerr=  7.65 for atom  18
 loop 1 2
 mod cartes coords mol 2
   8  -0.00000  -2.55681  -1.41623
   6   0.00000  -1.47396  -0.77363
   6  -0.00000  -1.47396   0.77363
   8   0.00000  -2.55681   1.41623
   6  -0.00000  -0.19084   1.38331
  16   0.00000   0.02106   3.16249
   6   0.00000   1.78938   2.98254
   6   0.00000   2.15419   1.63072
   6   0.00000   1.07312   0.73275
   6  -0.00000   1.07312  -0.73275
   6  -0.00000   2.15419  -1.63072
   6  -0.00000   1.78938  -2.98254
  16  -0.00000   0.02106  -3.16249
   6   0.00000  -0.19084  -1.38331
   1   0.00000   2.42651   3.85508
   1   0.00000   3.19274   1.30919
   1  -0.00000   3.19274  -1.30919
   1  -0.00000   2.42651  -3.85508
 read in order, maxerr=  9.05 for atom  18
 loop 1 3
 mod cartes coords mol 2
   8   0.00000  -2.55681  -1.41623
   6  -0.00000  -1.47396  -0.77363
   6   0.00000  -1.47396   0.77363
   8  -0.00000  -2.55681   1.41623
   6   0.00000  -0.19084   1.38331
  16  -0.00000   0.02106   3.16249
   6  -0.00000   1.78938   2.98254
   6  -0.00000   2.15419   1.63072
   6  -0.00000   1.07312   0.73275
   6   0.00000   1.07312  -0.73275
   6   0.00000   2.15419  -1.63072
   6   0.00000   1.78938  -2.98254
  16   0.00000   0.02106  -3.16249
   6  -0.00000  -0.19084  -1.38331
   1  -0.00000   2.42651   3.85508
   1  -0.00000   3.19274   1.30919
   1   0.00000   3.19274  -1.30919
   1   0.00000   2.42651  -3.85508
 read in order, maxerr=  9.05 for atom  18
 loop 1 4
 mod cartes coords mol 2
   8  -0.00000   2.55681   1.41623
   6   0.00000   1.47396   0.77363
   6  -0.00000   1.47396  -0.77363
   8   0.00000   2.55681  -1.41623
   6  -0.00000   0.19084  -1.38331
  16   0.00000  -0.02106  -3.16249
   6   0.00000  -1.78938  -2.98254
   6   0.00000  -2.15419  -1.63072
   6   0.00000  -1.07312  -0.73275
   6  -0.00000  -1.07312   0.73275
   6  -0.00000  -2.15419   1.63072
   6  -0.00000  -1.78938   2.98254
  16  -0.00000  -0.02106   3.16249
   6   0.00000   0.19084   1.38331
   1   0.00000  -2.42651  -3.85508
   1   0.00000  -3.19274  -1.30919
   1  -0.00000  -3.19274   1.30919
   1  -0.00000  -2.42651   3.85508
 read in order, maxerr=  0.06 for atom  18
 final axis swaps:           1           1          -1
 final xyz swap pattern=           1
 reorder list:
   1   2   3   4   5   6   7   8   9  10  11  12  13  14  15  16  17  18
 axis signs=           1           1          -1
  8    -0.000000  2.556814  1.416228     0.000000  2.548336  1.388478
  6     0.000001  1.473955  0.773632     0.000000  1.497647  0.787599
  6    -0.000001  1.473955 -0.773632     0.000000  1.497647 -0.787599
  8     0.000000  2.556814 -1.416228     0.000000  2.548336 -1.388478
  6    -0.000001  0.190842 -1.383311     0.000000  0.180826 -1.416693
 16     0.000000 -0.021056 -3.162489     0.000000 -0.054028 -3.137612
  6     0.000000 -1.789383 -2.982540     0.000000 -1.764961 -2.926761
  6     0.000000 -2.154190 -1.630722     0.000000 -2.141794 -1.609300
  6     0.000000 -1.073125 -0.732751     0.000000 -1.024468 -0.730531
  6    -0.000000 -1.073125  0.732751     0.000000 -1.024468  0.730531
  6    -0.000000 -2.154190  1.630722     0.000000 -2.141794  1.609300
  6    -0.000000 -1.789383  2.982540     0.000000 -1.764961  2.926761
 16    -0.000000 -0.021056  3.162489     0.000000 -0.054028  3.137612
  6     0.000001  0.190842  1.383311     0.000000  0.180826  1.416693
  1     0.000000 -2.426511 -3.855085     0.000000 -2.408528 -3.793756
  1     0.000000 -3.192741 -1.309192     0.000000 -3.174511 -1.288787
  1    -0.000000 -3.192741  1.309192     0.000000 -3.174511  1.288787
  1    -0.000001 -2.426511  3.855085     0.000000 -2.408528  3.793756
 generating redundant internal coords
         300        3600          18
 Adding extra bonds for z output only
           8           6           6           8           6          16
           6           6           6           6           6           6
          16           6           1           1           1           1
 search for int coords
   1 str   2   1   1.259
   2 str   3   2   1.547
   3 str   4   3   1.259
   4 str   5   3   1.421
   5 str   6   5   1.792
   6 str   7   6   1.777
   7 str   8   7   1.400
   8 str   9   5   1.422
   9 str   9   8   1.405
  10 str  10   9   1.466
  11 str  11  10   1.405
  12 str  12  11   1.400
  13 str  13  12   1.777
  14 str  14   2   1.421
  15 str  14  10   1.422
  16 str  14  13   1.792
  17 str  15   7   1.080
  18 str  16   8   1.087
  19 str  17  11   1.087
  20 str  18  12   1.080
 nber stretches=          20
  21 ben   1   2   3
  22 prop tor   1   2   3   4
  23 prop tor   1   2   3   5
  24 ben   1   2  14
  25 prop tor   1   2  14  10
  26 prop tor   1   2  14  13
  27 ben   2   3   4
  28 ben   2   3   5
  29 prop tor   2   3   5   6
  30 prop tor   2   3   5   9
  31 ben   2  14  10
  32 ben   2  14  13
  33 ben   3   2  14
  34 prop tor   3   2  14  10
  35 prop tor   3   2  14  13
  36 ben   3   5   6
  37 prop tor   3   5   6   7
  38 ben   3   5   9
  39 prop tor   3   5   9   8
  40 prop tor   3   5   9  10
  41 ben   4   3   5
  42 prop tor   4   3   5   6
  43 prop tor   4   3   5   9
  44 ben   5   6   7
  45 prop tor   5   6   7   8
  46 prop tor   5   6   7  15
  47 ben   5   9   8
  48 ben   5   9  10
  49 prop tor   5   9  10  11
  50 prop tor   5   9  10  14
  51 ben   6   5   9
  52 prop tor   6   5   9   8
  53 prop tor   6   5   9  10
  54 ben   6   7   8
  55 prop tor   6   7   8   9
  56 prop tor   6   7   8  16
  57 ben   6   7  15
  58 ben   7   8   9
  59 prop tor   7   8   9   5
  60 prop tor   7   8   9  10
  61 ben   7   8  16
  62 ben   8   7  15
  63 ben   8   9  10
  64 prop tor   8   9  10  11
  65 prop tor   8   9  10  14
  66 prop tor   9   5   6   7
  67 ben   9   8  16
  68 ben   9  10  11
  69 prop tor   9  10  11  12
  70 prop tor   9  10  11  17
  71 ben   9  10  14
  72 prop tor   9  10  14   2
  73 prop tor   9  10  14  13
  74 ben  10  11  12
  75 prop tor  10  11  12  13
  76 prop tor  10  11  12  18
  77 ben  10  11  17
  78 ben  10  14  13
  79 ben  11  10  14
  80 prop tor  11  10  14   2
  81 prop tor  11  10  14  13
  82 ben  11  12  13
  83 prop tor  11  12  13  14
  84 ben  11  12  18
  85 ben  12  11  17
  86 ben  12  13  14
  87 prop tor  12  13  14   2
  88 prop tor  12  13  14  10
  89 ben  13  12  18
  90 prop tor  14   2   3   4
  91 prop tor  14   2   3   5
  92 prop tor  14  10  11  12
  93 prop tor  14  10  11  17
  94 prop tor  15   7   8   9
  95 prop tor  15   7   8  16
  96 prop tor  16   8   9   5
  97 prop tor  16   8   9  10
  98 prop tor  17  11  12  13
  99 prop tor  17  11  12  18
 100 prop tor  18  12  13  14
 nber bend=              32
 nber lin bend=           0
 nber prop tor=          48
 nber impr tor=           0
 nber tot redund int=         100
 generating redundant internal coords
         300        3600          18
 search for int coords
   1 str   2   1   1.210
   2 str   3   2   1.575
   3 str   4   3   1.210
   4 str   5   3   1.459
   5 str   6   5   1.737
   6 str   7   6   1.724
   7 str   8   7   1.370
   8 str   9   5   1.387
   9 str   9   8   1.421
  10 str  10   9   1.461
  11 str  11  10   1.421
  12 str  12  11   1.370
  13 str  13  12   1.724
  14 str  14   2   1.459
  15 str  14  10   1.387
  16 str  14  13   1.737
  17 str  15   7   1.080
  18 str  16   8   1.081
  19 str  17  11   1.081
  20 str  18  12   1.080
 nber stretches=          20
  21 ben   1   2   3
  22 prop tor   1   2   3   4
  23 prop tor   1   2   3   5
  24 ben   1   2  14
  25 prop tor   1   2  14  10
  26 prop tor   1   2  14  13
  27 ben   2   3   4
  28 ben   2   3   5
  29 prop tor   2   3   5   6
  30 prop tor   2   3   5   9
  31 ben   2  14  10
  32 ben   2  14  13
  33 ben   3   2  14
  34 prop tor   3   2  14  10
  35 prop tor   3   2  14  13
  36 ben   3   5   6
  37 prop tor   3   5   6   7
  38 ben   3   5   9
  39 prop tor   3   5   9   8
  40 prop tor   3   5   9  10
  41 ben   4   3   5
  42 prop tor   4   3   5   6
  43 prop tor   4   3   5   9
  44 ben   5   6   7
  45 prop tor   5   6   7   8
  46 prop tor   5   6   7  15
  47 ben   5   9   8
  48 ben   5   9  10
  49 prop tor   5   9  10  11
  50 prop tor   5   9  10  14
  51 ben   6   5   9
  52 prop tor   6   5   9   8
  53 prop tor   6   5   9  10
  54 ben   6   7   8
  55 prop tor   6   7   8   9
  56 prop tor   6   7   8  16
  57 ben   6   7  15
  58 ben   7   8   9
  59 prop tor   7   8   9   5
  60 prop tor   7   8   9  10
  61 ben   7   8  16
  62 ben   8   7  15
  63 ben   8   9  10
  64 prop tor   8   9  10  11
  65 prop tor   8   9  10  14
  66 prop tor   9   5   6   7
  67 ben   9   8  16
  68 ben   9  10  11
  69 prop tor   9  10  11  12
  70 prop tor   9  10  11  17
  71 ben   9  10  14
  72 prop tor   9  10  14   2
  73 prop tor   9  10  14  13
  74 ben  10  11  12
  75 prop tor  10  11  12  13
  76 prop tor  10  11  12  18
  77 ben  10  11  17
  78 ben  10  14  13
  79 ben  11  10  14
  80 prop tor  11  10  14   2
  81 prop tor  11  10  14  13
  82 ben  11  12  13
  83 prop tor  11  12  13  14
  84 ben  11  12  18
  85 ben  12  11  17
  86 ben  12  13  14
  87 prop tor  12  13  14   2
  88 prop tor  12  13  14  10
  89 ben  13  12  18
  90 prop tor  14   2   3   4
  91 prop tor  14   2   3   5
  92 prop tor  14  10  11  12
  93 prop tor  14  10  11  17
  94 prop tor  15   7   8   9
  95 prop tor  15   7   8  16
  96 prop tor  16   8   9   5
  97 prop tor  16   8   9  10
  98 prop tor  17  11  12  13
  99 prop tor  17  11  12  18
 100 prop tor  18  12  13  14
 nber bend=              32
 nber lin bend=           0
 nber prop tor=          48
 nber impr tor=           0
 nber tot redund int=         100
 Eigenvalues of G in red int coords
    Gval -0.00000000 -0.00000000 -0.00000000 -0.00000000 -0.00000000 -0.00000000 -0.00000000 -0.00000000
    Gval -0.00000000 -0.00000000 -0.00000000 -0.00000000 -0.00000000 -0.00000000 -0.00000000 -0.00000000
    Gval -0.00000000 -0.00000000 -0.00000000 -0.00000000 -0.00000000 -0.00000000 -0.00000000 -0.00000000
    Gval -0.00000000 -0.00000000 -0.00000000  0.00000000  0.00000000  0.00000000  0.00000000  0.00000000
    Gval  0.00000000  0.00000000  0.00000000  0.00000000  0.00000000  0.00000000  0.00000000  0.00000000
    Gval  0.00000000  0.00000000  0.00000000  0.00000000  0.00000000  0.00000000  0.00000000  0.00000000
    Gval  0.00000000  0.00000000  0.00000000  0.00000000  0.00000835  0.00000986  0.00001161  0.00002159
    Gval  0.00002160  0.00002499  0.00003240  0.00004469  0.00004833  0.00004893  0.00005456  0.00006103
    Gval  0.00007133  0.00009346  0.00010349  0.00010555  0.00010557  0.00010876  0.00011007  0.00013436
    Gval  0.00017065  0.00017826  0.00025596  0.00025895  0.00031466  0.00034586  0.00034722  0.00035256
    Gval  0.00040572  0.00044681  0.00045413  0.00052845  0.00059654  0.00059693  0.00062277  0.00062710
    Gval  0.00067771  0.00108058  0.00108202  0.00118357  0.00118379  0.00118431  0.00130368  0.00187314
    Gval  0.00200791  0.00242004  0.00387947  0.00398403
  8.347996235077811E-006  8.347996235077811E-006
  9.855769377312088E-006  8.347996235077811E-006
  1.161226025952725E-005  8.347996235077811E-006
  2.158607405055645E-005  8.347996235077811E-006
  2.160069753841575E-005  8.347996235077811E-006
  2.499172676621176E-005  8.347996235077811E-006
  3.240318830192788E-005  8.347996235077811E-006
  4.469064977461968E-005  8.347996235077811E-006
  4.832975962698515E-005  8.347996235077811E-006
  4.892984031412755E-005  8.347996235077811E-006
  5.455720939154429E-005  8.347996235077811E-006
  6.102901645193501E-005  8.347996235077811E-006
  7.132848522861660E-005  8.347996235077811E-006
  9.346265152047088E-005  8.347996235077811E-006
  1.034869863756765E-004  8.347996235077811E-006
  1.055541295191988E-004  8.347996235077811E-006
  1.055748175545194E-004  8.347996235077811E-006
  1.087608507859428E-004  8.347996235077811E-006
  1.100729038544622E-004  8.347996235077811E-006
  1.343627576073804E-004  8.347996235077811E-006
  1.706518679118472E-004  8.347996235077811E-006
  1.782618433422931E-004  8.347996235077811E-006
  2.559575624785268E-004  8.347996235077811E-006
  2.589484668864466E-004  8.347996235077811E-006
  3.146557836129305E-004  8.347996235077811E-006
  3.458627433878555E-004  8.347996235077811E-006
  3.472249424236930E-004  8.347996235077811E-006
  3.525599474121132E-004  8.347996235077811E-006
  4.057197689976244E-004  8.347996235077811E-006
  4.468088438019289E-004  8.347996235077811E-006
  4.541313064704939E-004  8.347996235077811E-006
  5.284459784464433E-004  8.347996235077811E-006
  5.965362213610410E-004  8.347996235077811E-006
  5.969276931474584E-004  8.347996235077811E-006
  6.227735132246881E-004  8.347996235077811E-006
  6.270991983256972E-004  8.347996235077811E-006
  6.777128472443480E-004  8.347996235077811E-006
  1.080578142466017E-003  8.347996235077811E-006
  1.082022443221574E-003  8.347996235077811E-006
  1.183570199188542E-003  8.347996235077811E-006
  1.183788636636375E-003  8.347996235077811E-006
  1.184311861157680E-003  8.347996235077811E-006
  1.303679530314870E-003  8.347996235077811E-006
  1.873139235889156E-003  8.347996235077811E-006
  2.007905423205380E-003  8.347996235077811E-006
  2.420035913285542E-003  8.347996235077811E-006
  3.879473670982907E-003  8.347996235077811E-006
  3.984028078138238E-003  8.347996235077811E-006
 cut=1d-8, nber non-redundant internal coords=          48
 Check on Eigenvals of non-red overlap matrix:
  0.00000835  0.00000986  0.00001161  0.00002159  0.00002160  0.00002499  0.00003240  0.00004469
  0.00004833  0.00004893  0.00005456  0.00006103  0.00007133  0.00009346  0.00010349  0.00010555
  0.00010557  0.00010876  0.00011007  0.00013436  0.00017065  0.00017826  0.00025596  0.00025895
  0.00031466  0.00034586  0.00034722  0.00035256  0.00040572  0.00044681  0.00045413  0.00052845
  0.00059654  0.00059693  0.00062277  0.00062710  0.00067771  0.00108058  0.00108202  0.00118357
  0.00118379  0.00118431  0.00130368  0.00187314  0.00200791  0.00242004  0.00387947  0.00398403
 generating redundant internal coords
         300        3600          18
 search for int coords
   1 str   2   1   1.259
   2 str   3   2   1.547
   3 str   4   3   1.259
   4 str   5   3   1.421
   5 str   6   5   1.792
   6 str   7   6   1.777
   7 str   8   7   1.400
   8 str   9   5   1.422
   9 str   9   8   1.405
  10 str  10   9   1.466
  11 str  11  10   1.405
  12 str  12  11   1.400
  13 str  13  12   1.777
  14 str  14   2   1.421
  15 str  14  10   1.422
  16 str  14  13   1.792
  17 str  15   7   1.080
  18 str  16   8   1.087
  19 str  17  11   1.087
  20 str  18  12   1.080
 nber stretches=          20
  21 ben   1   2   3
  22 prop tor   1   2   3   4
  23 prop tor   1   2   3   5
  24 ben   1   2  14
  25 prop tor   1   2  14  10
  26 prop tor   1   2  14  13
  27 ben   2   3   4
  28 ben   2   3   5
  29 prop tor   2   3   5   6
  30 prop tor   2   3   5   9
  31 ben   2  14  10
  32 ben   2  14  13
  33 ben   3   2  14
  34 prop tor   3   2  14  10
  35 prop tor   3   2  14  13
  36 ben   3   5   6
  37 prop tor   3   5   6   7
  38 ben   3   5   9
  39 prop tor   3   5   9   8
  40 prop tor   3   5   9  10
  41 ben   4   3   5
  42 prop tor   4   3   5   6
  43 prop tor   4   3   5   9
  44 ben   5   6   7
  45 prop tor   5   6   7   8
  46 prop tor   5   6   7  15
  47 ben   5   9   8
  48 ben   5   9  10
  49 prop tor   5   9  10  11
  50 prop tor   5   9  10  14
  51 ben   6   5   9
  52 prop tor   6   5   9   8
  53 prop tor   6   5   9  10
  54 ben   6   7   8
  55 prop tor   6   7   8   9
  56 prop tor   6   7   8  16
  57 ben   6   7  15
  58 ben   7   8   9
  59 prop tor   7   8   9   5
  60 prop tor   7   8   9  10
  61 ben   7   8  16
  62 ben   8   7  15
  63 ben   8   9  10
  64 prop tor   8   9  10  11
  65 prop tor   8   9  10  14
  66 prop tor   9   5   6   7
  67 ben   9   8  16
  68 ben   9  10  11
  69 prop tor   9  10  11  12
  70 prop tor   9  10  11  17
  71 ben   9  10  14
  72 prop tor   9  10  14   2
  73 prop tor   9  10  14  13
  74 ben  10  11  12
  75 prop tor  10  11  12  13
  76 prop tor  10  11  12  18
  77 ben  10  11  17
  78 ben  10  14  13
  79 ben  11  10  14
  80 prop tor  11  10  14   2
  81 prop tor  11  10  14  13
  82 ben  11  12  13
  83 prop tor  11  12  13  14
  84 ben  11  12  18
  85 ben  12  11  17
  86 ben  12  13  14
  87 prop tor  12  13  14   2
  88 prop tor  12  13  14  10
  89 ben  13  12  18
  90 prop tor  14   2   3   4
  91 prop tor  14   2   3   5
  92 prop tor  14  10  11  12
  93 prop tor  14  10  11  17
  94 prop tor  15   7   8   9
  95 prop tor  15   7   8  16
  96 prop tor  16   8   9   5
  97 prop tor  16   8   9  10
  98 prop tor  17  11  12  13
  99 prop tor  17  11  12  18
 100 prop tor  18  12  13  14
 nber bend=              32
 nber lin bend=           0
 nber prop tor=          48
 nber impr tor=           0
 nber tot redund int=         100
 Eigenvalues of G in red int coords
    Gval -0.00000000 -0.00000000 -0.00000000 -0.00000000 -0.00000000 -0.00000000 -0.00000000 -0.00000000
    Gval -0.00000000 -0.00000000 -0.00000000 -0.00000000 -0.00000000 -0.00000000 -0.00000000 -0.00000000
    Gval -0.00000000 -0.00000000 -0.00000000 -0.00000000 -0.00000000 -0.00000000 -0.00000000 -0.00000000
    Gval -0.00000000 -0.00000000  0.00000000  0.00000000  0.00000000  0.00000000  0.00000000  0.00000000
    Gval  0.00000000  0.00000000  0.00000000  0.00000000  0.00000000  0.00000000  0.00000000  0.00000000
    Gval  0.00000000  0.00000000  0.00000000  0.00000000  0.00000000  0.00000000  0.00000000  0.00000000
    Gval  0.00000000  0.00000000  0.00000000  0.00000000  0.00000831  0.00000975  0.00001130  0.00002112
    Gval  0.00002155  0.00002438  0.00003204  0.00004272  0.00004795  0.00004892  0.00005202  0.00006046
    Gval  0.00007060  0.00009247  0.00010249  0.00010363  0.00010375  0.00010381  0.00010888  0.00013188
    Gval  0.00016461  0.00017470  0.00024934  0.00025214  0.00031260  0.00032590  0.00034695  0.00034787
    Gval  0.00041505  0.00044760  0.00044850  0.00052027  0.00059645  0.00059681  0.00062212  0.00062685
    Gval  0.00067717  0.00107484  0.00107662  0.00117174  0.00117196  0.00119649  0.00131697  0.00187261
    Gval  0.00201917  0.00246262  0.00381721  0.00392284
  8.308361455666493E-006  8.308361455666493E-006
  9.748249595779765E-006  8.308361455666493E-006
  1.129866624239834E-005  8.308361455666493E-006
  2.112114138800441E-005  8.308361455666493E-006
  2.154582424971608E-005  8.308361455666493E-006
  2.438228560446592E-005  8.308361455666493E-006
  3.204161590251735E-005  8.308361455666493E-006
  4.271619827632002E-005  8.308361455666493E-006
  4.795340404956164E-005  8.308361455666493E-006
  4.892256084303802E-005  8.308361455666493E-006
  5.202212688083163E-005  8.308361455666493E-006
  6.046134737285557E-005  8.308361455666493E-006
  7.060333486151048E-005  8.308361455666493E-006
  9.246665625116138E-005  8.308361455666493E-006
  1.024874469777887E-004  8.308361455666493E-006
  1.036305588683580E-004  8.308361455666493E-006
  1.037523305607832E-004  8.308361455666493E-006
  1.038125504683671E-004  8.308361455666493E-006
  1.088826686234581E-004  8.308361455666493E-006
  1.318753667101684E-004  8.308361455666493E-006
  1.646149424949358E-004  8.308361455666493E-006
  1.747034691415636E-004  8.308361455666493E-006
  2.493381979575466E-004  8.308361455666493E-006
  2.521389604360132E-004  8.308361455666493E-006
  3.126007091954768E-004  8.308361455666493E-006
  3.258956759110472E-004  8.308361455666493E-006
  3.469450193023801E-004  8.308361455666493E-006
  3.478669518297264E-004  8.308361455666493E-006
  4.150450370409321E-004  8.308361455666493E-006
  4.475972597715037E-004  8.308361455666493E-006
  4.485021159751402E-004  8.308361455666493E-006
  5.202671099209394E-004  8.308361455666493E-006
  5.964484752201327E-004  8.308361455666493E-006
  5.968104606245715E-004  8.308361455666493E-006
  6.221211124867393E-004  8.308361455666493E-006
  6.268451550329626E-004  8.308361455666493E-006
  6.771670165213040E-004  8.308361455666493E-006
  1.074837110316531E-003  8.308361455666493E-006
  1.076622877824711E-003  8.308361455666493E-006
  1.171743502506989E-003  8.308361455666493E-006
  1.171955026806481E-003  8.308361455666493E-006
  1.196494403381606E-003  8.308361455666493E-006
  1.316971946873205E-003  8.308361455666493E-006
  1.872608386104469E-003  8.308361455666493E-006
  2.019174799341622E-003  8.308361455666493E-006
  2.462622443797411E-003  8.308361455666493E-006
  3.817210378070909E-003  8.308361455666493E-006
  3.922841505497335E-003  8.308361455666493E-006
 cut=1d-8, nber non-redundant internal coords=          48
 Check on Eigenvals of non-red overlap matrix:
  0.00000831  0.00000975  0.00001130  0.00002112  0.00002155  0.00002438  0.00003204  0.00004272
  0.00004795  0.00004892  0.00005202  0.00006046  0.00007060  0.00009247  0.00010249  0.00010363
  0.00010375  0.00010381  0.00010888  0.00013188  0.00016461  0.00017470  0.00024934  0.00025214
  0.00031260  0.00032590  0.00034695  0.00034787  0.00041505  0.00044760  0.00044850  0.00052027
  0.00059645  0.00059681  0.00062212  0.00062685  0.00067717  0.00107484  0.00107662  0.00117174
  0.00117196  0.00119649  0.00131697  0.00187261  0.00201917  0.00246262  0.00381721  0.00392284
 d1=
 -15.2   7.6  -0.0   3.8   0.0  -6.1  -0.0  -0.0 -10.3   0.0   0.0   0.0  -1.7  -6.2  -7.5  -0.0   0.0  -0.0  -0.0   3.9
  -0.0  -2.6   0.0  -9.1   0.3  -0.0   0.0   0.0   0.0   2.1   0.0  -0.0  -0.1   0.0  -1.2  -0.0   0.0   0.5   0.0   0.5
   0.0   0.0   0.0   0.0  -0.0  -0.0  -0.0   0.0
 d2=
  13.8   8.5   0.0  -2.7   0.0  -6.8   0.0   0.0 -10.2  -0.0   0.0  -0.0  -1.2   5.9   7.8   0.0  -0.0  -0.0   0.0   3.9
  -0.0  -2.7   0.0   9.3  -0.2   0.0   0.0   0.0  -0.0   0.0   2.0   0.0   0.1  -0.0   1.2   0.0   0.0   0.5   0.0  -0.5
   0.0  -0.0  -0.0  -0.0   0.0   0.0   0.0  -0.0
 curvilinear- renormalizn of Dush matrix done
  mol 1 sym            1  -> mol 2 sym            1
  mol 1 sym            2  -> mol 2 sym            2
  mol 1 sym            3  -> mol 2 sym            3
  mol 1 sym            4  -> mol 2 sym            4

 Dushinsky matrix, ncs 2 in terms of ncs 1

   mode   freq    coeff     %      %tot     of    at

   1 A2   -207.  0.4450    19.8   100.8  23 A2    674.
                -0.6721    45.2          27 A2    754.
                -0.5096    26.0          34 A2    892.
   2 B1   -206.  0.7873    62.0   100.7  26 B1    743.
                -0.5173    26.8          35 B1    895.
   3 B2     -0. -0.0000     0.0     0.0  12 B2    265.
   4 B1     -0.  0.0000     0.0     0.0  50 B2   1765.
   5 A1      0.  0.0000     0.0     0.0  11 A1    202.
   6 B2      0.  0.0000     0.0     0.0  20 B2    540.
   7 A2      0. -0.0000     0.0     0.0  33 A1    891.
   8 B1      0.  0.0000     0.0     0.0  50 B2   1765.
   9 A2     74.  0.9066    82.2    95.7   7 A2     67.
                -0.4129    17.0           9 A2    140.
  10 B1    106. -0.9930    98.6    95.1   8 B1     96.
  11 A2    133.  0.4104    16.8    99.8   7 A2     67.
                 0.9066    82.2           9 A2    140.
  12 B1    152. -0.9872    97.4   102.2  10 B1    148.
  13 A1    202.  0.9992    99.8    96.9  11 A1    202.
  14 B2    253. -0.9991    99.8    94.4  12 B2    265.
  15 A2    279. -0.9594    92.0    97.2  13 A2    297.
  16 A1    316.  0.9911    98.2    99.3  14 A1    327.
  17 B1    336.  0.9126    83.3    95.7  17 B1    417.
  18 A2    352.  0.9279    86.1    98.1  18 A2    469.
  19 A1    357.  0.9946    98.9    95.4  15 A1    361.
  20 B2    385. -0.9975    99.5   100.2  16 B2    387.
  21 A1    490. -0.9924    98.5   100.4  19 A1    490.
  22 B2    502.  0.9851    97.0    97.3  20 B2    540.
  23 B1    510.  0.9180    84.3    99.8  21 B1    540.
  24 B1    591. -0.9348    87.4   100.7  22 B1    618.
  25 A2    630.  0.8660    75.0    99.9  23 A2    674.
                 0.3454    11.9          27 A2    754.
                 0.3230    10.4          34 A2    892.
  26 B2    645.  0.9556    91.3    97.8  24 B2    691.
  27 A1    658. -0.9864    97.3    99.0  25 A1    696.
  28 A2    715. -0.6158    37.9    99.7  27 A2    754.
                 0.7759    60.2          34 A2    892.
  29 B1    717.  0.5199    27.0    96.7  26 B1    743.
                 0.8505    72.3          35 B1    895.
  30 B2    727. -0.9379    88.0    99.3  28 B2    779.
  31 A2    751.  0.9793    95.9   103.0  29 A2    825.
  32 A1    762. -0.9927    98.5    98.1  30 A1    833.
  33 B2    802.  0.9692    93.9   101.5  31 B2    856.
  34 B2    847.  0.9494    90.1    97.8  32 B2    877.
  35 A1    853.  0.9802    96.1    98.2  33 A1    891.
  36 A1    979.  0.9688    93.9    99.0  36 A1   1006.
  37 B2   1020.  0.9666    93.4    99.6  37 B2   1105.
  38 A1   1080.  0.9721    94.5    99.5  38 A1   1124.
  39 B2   1151. -0.9513    90.5    99.0  39 B2   1197.
  40 A1   1236. -0.9083    82.5    99.9  41 A1   1257.
                -0.3592    12.9          42 A1   1301.
  41 B2   1237.  0.7513    56.4   100.2  40 B2   1232.
                -0.5389    29.0          43 B2   1383.
  42 A1   1278. -0.3400    11.6    99.0  41 A1   1257.
                 0.9163    84.0          42 A1   1301.
  43 B2   1300. -0.5604    31.4   100.1  40 B2   1232.
                -0.6405    41.0          43 B2   1383.
                -0.3737    14.0          46 B2   1455.
  44 A1   1344.  0.9558    91.4    98.9  45 A1   1445.
  45 A1   1368.  0.8327    69.3   100.2  44 A1   1434.
                 0.3919    15.4          47 A1   1560.
  46 B2   1406. -0.4962    24.6    99.3  43 B2   1383.
                 0.6609    43.7          46 B2   1455.
                 0.5299    28.1          48 B2   1562.
  47 B2   1461. -0.5238    27.4   100.0  46 B2   1455.
                 0.7553    57.1          48 B2   1562.
                -0.3422    11.7          50 B2   1765.
  48 A1   1522. -0.4182    17.5    99.8  44 A1   1434.
                 0.8878    78.8          47 A1   1560.
  49 A1   1556. -0.9368    87.8    99.9  49 A1   1742.
  50 B2   1585.  0.9022    81.4   100.3  50 B2   1765.
  51 B2   3121.  0.9918    98.4   100.0  51 B2   3208.
  52 A1   3127.  0.9881    97.6   100.0  52 A1   3212.
  53 B2   3199.  0.9917    98.4   100.0  53 B2   3240.
  54 A1   3201.  0.9881    97.6   100.0  54 A1   3241.
 nber times 1st assigned=           1           0
 nber times 1st assigned=           2           0
 nber times 1st assigned=           3           0
 nber times 1st assigned=           4           0
 nber times 1st assigned=           5           0
 nber times 1st assigned=           6           0
 nber times 1st assigned=           7           0
 nber times 1st assigned=           8           0
 nber times 1st assigned=           9           0
 nber times 1st assigned=          10           0
 nber times 1st assigned=          13           0
 nber times 1st assigned=          14           0
 nber times 1st assigned=          15           0
 nber times 1st assigned=          16           0
 nber times 1st assigned=          17           0
 nber times 1st assigned=          18           0
 nber times 1st assigned=          19           0
 nber times 1st assigned=          21           0
 nber times 1st assigned=          22           0
 nber times 1st assigned=          23           0
 nber times 1st assigned=          24           0
 nber times 1st assigned=          25           0
 nber times 1st assigned=          26           0
 nber times 1st assigned=          27           0
 nber times 1st assigned=          28           0
 nber times 1st assigned=          29           0
 nber times 1st assigned=          30           0
 nber times 1st assigned=          31           0
 nber times 1st assigned=          32           0
 nber times 1st assigned=          34           0
 nber times 1st assigned=          35           0
 nber times 1st assigned=          36           0
 nber times 1st assigned=          37           0
 nber times 1st assigned=          38           0
 nber times 1st assigned=          39           0
 nber times 1st assigned=          40           0
 nber times 1st assigned=          41           0
 nber times 1st assigned=          42           0
 nber times 1st assigned=          43           0
 nber times 1st assigned=          44           0
 nber times 1st assigned=          45           0
 nber times 1st assigned=          46           0
 nber times 1st assigned=          47           0
 nber times 1st assigned=          48           0
 nber times 1st assigned=          49           0
 nber times 1st assigned=          50           2
 nber times 1st assigned=          51           0
 nber times 1st assigned=          52           0
 nber times 1st assigned=          53           0
 nber times 1st assigned=          54           0
 Dushinsky matrix written to .out file
 modes represented=   47.5533891131210     

 Dushinsky matrix, ncs 1 in terms of ncs 2

   mode   freq    coeff     %      %tot     of    at

   7 A2     67.  0.9066    82.2    99.0   9 A2     74.
                 0.4104    16.8          11 A2    133.
   8 B1     96. -0.9930    98.6    97.4  10 B1    106.
   9 A2    140. -0.4129    17.0   102.3   9 A2     74.
                 0.9066    82.2          11 A2    133.
  10 B1    148. -0.9872    97.4   102.4  12 B1    152.
  11 A1    202.  0.9992    99.8    97.7  13 A1    202.
  12 B2    265. -0.9991    99.8    94.8  14 B2    253.
  13 A2    297. -0.9594    92.0    96.3  15 A2    279.
  14 A1    327.  0.9911    98.2    99.4  16 A1    316.
  15 A1    361.  0.9946    98.9    96.3  19 A1    357.
  16 B2    387. -0.9975    99.5   101.2  20 B2    385.
  17 B1    417.  0.9126    83.3    93.9  17 B1    336.
  18 A2    469.  0.9279    86.1    95.5  18 A2    352.
  19 A1    490. -0.9924    98.5   100.9  21 A1    490.
  20 B2    540.  0.9851    97.0    97.8  22 B2    502.
  21 B1    540.  0.9180    84.3    98.3  23 B1    510.
  22 B1    618. -0.9348    87.4    99.5  24 B1    591.
  23 A2    674.  0.4450    19.8    98.7   1 A2   -207.
                 0.8660    75.0          25 A2    630.
  24 B2    691.  0.9556    91.3    96.9  26 B2    645.
  25 A1    696. -0.9864    97.3    98.1  27 A1    658.
  26 B1    743.  0.7873    62.0   100.9   2 B1   -206.
                 0.5199    27.0          29 B1    717.
  27 A2    754. -0.6721    45.2   101.8   1 A2   -207.
                 0.3454    11.9          25 A2    630.
                -0.6158    37.9          28 A2    715.
  28 B2    779. -0.9379    88.0   100.4  30 B2    727.
  29 A2    825.  0.9793    95.9   101.7  31 A2    751.
  30 A1    833. -0.9927    98.5    98.3  32 A1    762.
  31 B2    856.  0.9692    93.9   100.7  33 B2    802.
  32 B2    877.  0.9494    90.1    97.8  34 B2    847.
  33 A1    891.  0.9802    96.1    97.9  35 A1    853.
  34 A2    892. -0.5096    26.0    98.9   1 A2   -207.
                 0.3230    10.4          25 A2    630.
                 0.7759    60.2          28 A2    715.
  35 B1    895. -0.5173    26.8    98.5   2 B1   -206.
                 0.8505    72.3          29 B1    717.
  36 A1   1006.  0.9688    93.9    98.9  36 A1    979.
  37 B2   1105.  0.9666    93.4    99.6  37 B2   1020.
  38 A1   1124.  0.9721    94.5    99.6  38 A1   1080.
  39 B2   1197. -0.9513    90.5    98.6  39 B2   1151.
  40 B2   1232.  0.7513    56.4    99.9  41 B2   1237.
                -0.5604    31.4          43 B2   1300.
  41 A1   1257. -0.9083    82.5   100.0  40 A1   1236.
                -0.3400    11.6          42 A1   1278.
  42 A1   1301. -0.3592    12.9    98.6  40 A1   1236.
                 0.9163    84.0          42 A1   1278.
  43 B2   1383. -0.5389    29.0    98.9  41 B2   1237.
                -0.6405    41.0          43 B2   1300.
                -0.4962    24.6          46 B2   1406.
  44 A1   1434.  0.8327    69.3    99.8  45 A1   1368.
                -0.4182    17.5          48 A1   1522.
  45 A1   1445.  0.9558    91.4    98.8  44 A1   1344.
  46 B2   1455. -0.3737    14.0    99.9  43 B2   1300.
                 0.6609    43.7          46 B2   1406.
                -0.5238    27.4          47 B2   1461.
  47 A1   1560.  0.3919    15.4    99.2  45 A1   1368.
                 0.8878    78.8          48 A1   1522.
  48 B2   1562.  0.5299    28.1   100.0  46 B2   1406.
                 0.7553    57.1          47 B2   1461.
  49 A1   1742. -0.9368    87.8   100.1  49 A1   1556.
  50 B2   1765. -0.3422    11.7   100.3  47 B2   1461.
                 0.9022    81.4          50 B2   1585.
  51 B2   3208.  0.9918    98.4   100.0  51 B2   3121.
  52 A1   3212.  0.9881    97.6   100.0  52 A1   3127.
  53 B2   3240.  0.9917    98.4   100.0  53 B2   3199.
  54 A1   3241.  0.9881    97.6   100.0  54 A1   3201.
 nber times 1st assigned=           1           0
 nber times 1st assigned=           2           0
 nber times 1st assigned=           3           0
 nber times 1st assigned=           4           0
 nber times 1st assigned=           5           0
 nber times 1st assigned=           6           0
 nber times 1st assigned=           7           0
 nber times 1st assigned=           8           0
 nber times 1st assigned=           9           0
 nber times 1st assigned=          10           0
 nber times 1st assigned=          11           0
 nber times 1st assigned=          12           0
 nber times 1st assigned=          13           0
 nber times 1st assigned=          14           0
 nber times 1st assigned=          15           0
 nber times 1st assigned=          16           0
 nber times 1st assigned=          17           0
 nber times 1st assigned=          18           0
 nber times 1st assigned=          19           0
 nber times 1st assigned=          20           0
 nber times 1st assigned=          21           0
 nber times 1st assigned=          22           0
 nber times 1st assigned=          23           0
 nber times 1st assigned=          24           0
 nber times 1st assigned=          25           0
 nber times 1st assigned=          26           0
 nber times 1st assigned=          27           0
 nber times 1st assigned=          28           0
 nber times 1st assigned=          29           0
 nber times 1st assigned=          30           0
 nber times 1st assigned=          31           0
 nber times 1st assigned=          32           0
 nber times 1st assigned=          33           0
 nber times 1st assigned=          34           0
 nber times 1st assigned=          35           0
 nber times 1st assigned=          36           0
 nber times 1st assigned=          37           0
 nber times 1st assigned=          38           0
 nber times 1st assigned=          39           0
 nber times 1st assigned=          40           0
 nber times 1st assigned=          41           0
 nber times 1st assigned=          42           0
 nber times 1st assigned=          43           0
 nber times 1st assigned=          44           0
 nber times 1st assigned=          45           0
 nber times 1st assigned=          46           0
 nber times 1st assigned=          47           0
 nber times 1st assigned=          48           0
 nber times 1st assigned=          49           0
 nber times 1st assigned=          50           0
 nber times 1st assigned=          51           0
 nber times 1st assigned=          52           0
 nber times 1st assigned=          53           0
 nber times 1st assigned=          54           0
 modes represented=   47.5533891131210     
 p1=
    0.   -0.   -0.    0.    0.   -0.    0.   -0.   -0.    0.   13.    0.    0.    7.    8.    0.   -0.   -0.   -7.   -0.
    0.    0.   -0.   -0.    8.   -0.   -0.    0.   -0.   -6.   -0.   -0.    9.   -0.    0.    3.    0.   -4.   -0.    0.
    3.   -1.    0.    7.   -2.   -0.   -0.   -0.    8.    0.   -0.   -0.   -0.   -0.
 p2=
   -0.    0.    0.   -0.   -0.   -0.    0.   -0.   -0.   -0.    0.    0.  -13.   -0.    0.   -7.    0.    0.   -7.   -0.
   -6.   -0.   -0.   -0.    0.   -0.   10.   -0.   -0.   -0.    0.   -7.    0.   -0.   -8.   -1.    0.    4.   -0.    1.
    0.   -0.    0.    1.   -4.   -0.   -0.    1.   10.   -0.   -0.    0.   -0.    0.

 Displacement: in terms of nc of 1 THEN of nc of 2

   1 B2  freq=    -0. Q=  0.000 lam=    -0.0 A2  freq=  -207. Q=  0.000 lam=    -0.0
   2 A2  freq=    -0. Q= -0.000 lam=    -0.0 B1  freq=  -206. Q= -0.000 lam=    -0.0
   3 B1  freq=    -0. Q= -0.000 lam=    -0.0 B2  freq=    -0. Q= -0.000 lam=    -0.0
   4 B1  freq=     0. Q=  0.000 lam=     0.0 B1  freq=    -0. Q=  0.000 lam=    -0.0
   5 A1  freq=     0. Q=  0.000 lam=     0.0 A1  freq=     0. Q=  0.000 lam=     0.0
   6 B2  freq=     0. Q= -0.000 lam=     0.0 B2  freq=     0. Q= -0.000 lam=     0.0
   7 A2  freq=    67. Q=  0.000 lam=     0.0 A2  freq=     0. Q=  0.000 lam=     0.0
   8 B1  freq=    96. Q= -0.000 lam=     0.0 B1  freq=     0. Q= -0.000 lam=     0.0
   9 A2  freq=   140. Q= -0.000 lam=     0.0 A2  freq=    74. Q= -0.000 lam=     0.0
  10 B1  freq=   148. Q=  0.000 lam=     0.0 B1  freq=   106. Q=  0.000 lam=     0.0
  11 A1  freq=   202. Q=  0.754 lam=    57.4 A2  freq=   133. Q=  0.000 lam=     0.0
  12 B2  freq=   265. Q=  0.000 lam=     0.0 B1  freq=   152. Q=  0.000 lam=     0.0
  13 A2  freq=   297. Q=  0.000 lam=     0.0 A1  freq=   202. Q=  0.719 lam=    52.2
  14 A1  freq=   327. Q=  0.481 lam=    37.8 B2  freq=   253. Q=  0.000 lam=     0.0
  15 A1  freq=   361. Q=  0.625 lam=    70.6 A2  freq=   279. Q=  0.000 lam=     0.0
  16 B2  freq=   387. Q=  0.000 lam=     0.0 A1  freq=   316. Q=  0.527 lam=    44.0
  17 B1  freq=   417. Q= -0.000 lam=     0.0 B1  freq=   336. Q= -0.000 lam=     0.0
  18 A2  freq=   469. Q= -0.000 lam=     0.0 A2  freq=   352. Q= -0.000 lam=     0.0
  19 A1  freq=   490. Q= -0.593 lam=    86.3 A1  freq=   357. Q= -0.564 lam=    56.9
  20 B2  freq=   540. Q= -0.000 lam=     0.0 B2  freq=   385. Q= -0.000 lam=     0.0
  21 B1  freq=   540. Q=  0.000 lam=     0.0 A1  freq=   490. Q=  0.570 lam=    79.6
  22 B1  freq=   618. Q=  0.000 lam=     0.0 B2  freq=   502. Q=  0.000 lam=     0.0
  23 A2  freq=   674. Q= -0.000 lam=     0.0 B1  freq=   510. Q= -0.000 lam=     0.0
  24 B2  freq=   691. Q= -0.000 lam=     0.0 B1  freq=   591. Q= -0.000 lam=     0.0
  25 A1  freq=   696. Q=  0.882 lam=   270.6 A2  freq=   630. Q=  0.000 lam=     0.0
  26 B1  freq=   743. Q= -0.000 lam=     0.0 B2  freq=   645. Q= -0.000 lam=     0.0
  27 A2  freq=   754. Q= -0.000 lam=     0.0 A1  freq=   658. Q= -0.989 lam=   322.2
  28 B2  freq=   779. Q=  0.000 lam=     0.0 A2  freq=   715. Q=  0.000 lam=     0.0
  29 A2  freq=   825. Q= -0.000 lam=     0.0 B1  freq=   717. Q= -0.000 lam=     0.0
  30 A1  freq=   833. Q= -0.704 lam=   206.6 B2  freq=   727. Q= -0.000 lam=     0.0
  31 B2  freq=   856. Q= -0.000 lam=     0.0 A2  freq=   751. Q= -0.000 lam=     0.0
  32 B2  freq=   877. Q= -0.000 lam=     0.0 A1  freq=   762. Q= -0.729 lam=   202.6
  33 A1  freq=   891. Q=  1.049 lam=   490.0 B2  freq=   802. Q=  0.000 lam=     0.0
  34 A2  freq=   892. Q= -0.000 lam=     0.0 B2  freq=   847. Q= -0.000 lam=     0.0
  35 B1  freq=   895. Q=  0.000 lam=     0.0 A1  freq=   853. Q=  0.963 lam=   395.5
  36 A1  freq=  1006. Q=  0.368 lam=    68.0 A1  freq=   979. Q=  0.162 lam=    12.9
  37 B2  freq=  1105. Q=  0.000 lam=     0.0 B2  freq=  1020. Q=  0.000 lam=     0.0
  38 A1  freq=  1124. Q= -0.565 lam=   179.2 A1  freq=  1080. Q= -0.519 lam=   145.5
  39 B2  freq=  1197. Q= -0.000 lam=     0.0 B2  freq=  1151. Q= -0.000 lam=     0.0
  40 B2  freq=  1232. Q=  0.000 lam=     0.0 A1  freq=  1236. Q=  0.093 lam=     5.4
  41 A1  freq=  1257. Q=  0.390 lam=    95.7 B2  freq=  1237. Q=  0.000 lam=     0.0
  42 A1  freq=  1301. Q= -0.184 lam=    22.0 A1  freq=  1278. Q= -0.036 lam=     0.8
  43 B2  freq=  1383. Q=  0.000 lam=     0.0 B2  freq=  1300. Q=  0.000 lam=     0.0
  44 A1  freq=  1434. Q=  1.086 lam=   846.4 A1  freq=  1344. Q=  0.110 lam=     8.2
  45 A1  freq=  1445. Q= -0.327 lam=    77.2 A1  freq=  1368. Q= -0.583 lam=   232.8
  46 B2  freq=  1455. Q= -0.000 lam=     0.0 B2  freq=  1406. Q= -0.000 lam=     0.0
  47 A1  freq=  1560. Q= -0.005 lam=     0.0 B2  freq=  1461. Q= -0.000 lam=     0.0
  48 B2  freq=  1562. Q= -0.000 lam=     0.0 A1  freq=  1522. Q= -0.233 lam=    41.4
  49 A1  freq=  1742. Q=  1.275 lam=  1416.9 A1  freq=  1556. Q=  1.518 lam=  1792.0
  50 B2  freq=  1765. Q=  0.000 lam=     0.0 B2  freq=  1585. Q=  0.000 lam=     0.0
  51 B2  freq=  3208. Q= -0.000 lam=     0.0 B2  freq=  3121. Q= -0.000 lam=     0.0
  52 A1  freq=  3212. Q= -0.066 lam=     7.0 A1  freq=  3127. Q= -0.057 lam=     5.1
  53 B2  freq=  3240. Q= -0.000 lam=     0.0 B2  freq=  3199. Q= -0.000 lam=     0.0
  54 A1  freq=  3241. Q= -0.021 lam=     0.7 A1  freq=  3201. Q= -0.015 lam=     0.4

 total reorg energy (cm**-1, kcal/mol)=     3932.     3397.     11.24      9.71
 Nber of molecules processed=           2
