 Enter ifcurve (0=recti, 1=orth curvi, 2=apprx curvi, -1 = skip
 And atom ordering flag, 0= never changes, 1= use the first order thenceforth,
  2= deduce it (does read on fail), 3= always read it
 Reading file: 
 ./benz-b-imbal_2_C0S0.log                                                      
                                          
  Entering Gaussian System, Link 0=g16                                          
  
 Gaussian format, type: g94, g98, g03= F F F
  #P Geom=AllCheck Guess=TCheck SCRF=Check GenChk RB3LYP/6-311G(d,p) Fre    
 energy type= B3LYP   
 Original G94 input coords:
  6  0.973124  0.026584  0.024747
  6 -0.239194  0.020851  0.045521
  6 -1.657578  0.013960  0.069803
  6 -2.359877 -1.221715  0.081013
  6 -1.691458 -2.480857  0.068869
  6 -2.393693 -3.655250  0.080126
  6 -3.815076 -3.650179  0.104352
  6 -4.494347 -2.465129  0.116698
  6 -3.799346 -1.216962  0.105636
  6 -4.484968  0.000216  0.118225
  6 -3.811174  1.224002  0.107456
  6 -4.518245  2.465352  0.120362
  6 -3.850500  3.656951  0.109541
  6 -2.429240  3.675840  0.085000
  6 -1.715649  2.508328  0.072044
  6 -2.371822  1.242753  0.082738
  6  2.395008  0.033511  0.000850
  6  3.107446  1.247573 -0.001565
  6  4.496379  1.249534 -0.025030
  6  5.202460  0.047246 -0.046500
  6  4.507847 -1.161890 -0.044362
  6  3.118957 -1.173522 -0.020986
  1 -0.609097 -2.490711  0.050528
  1 -1.864264 -4.601357  0.070570
  1 -4.354551 -4.590454  0.112964
  1 -5.578980 -2.450130  0.135232
  1 -5.570384 -0.005058  0.136825
  1 -5.602679  2.439809  0.139016
  1 -4.399065  4.591938  0.119530
  1 -1.909013  4.627049  0.076489
  1 -0.633442  2.528702  0.053252
  1  2.559412  2.181808  0.015233
  1  5.030705  2.192904 -0.026555
  1  6.286222  0.052543 -0.064778
  1  5.051120 -2.099990 -0.061019
  1  2.579838 -2.113079 -0.019471
 nber atoms=          36
  SCF Done:  E(RB3LYP) =  -846.939425086     A.U. after    1 cycles             
  
          23          40 "  -846.939425086"
After scan for Atom:   Atom  AN      X      Y      Z        X      Y      Z        X      Y      Z   
After scan for Atom:   Atom  AN      X      Y      Z        X      Y      Z        X      Y      Z   
After scan for Atom:   Atom  AN      X      Y      Z        X      Y      Z        X      Y      Z   
After scan for Atom:   Atom  AN      X      Y      Z        X      Y      Z        X      Y      Z   
After scan for Atom:   Atom  AN      X      Y      Z        X      Y      Z        X      Y      Z   
After scan for Atom:   Atom  AN      X      Y      Z        X      Y      Z        X      Y      Z   
After scan for Atom:   Atom  AN      X      Y      Z        X      Y      Z        X      Y      Z   
After scan for Atom:   Atom  AN      X      Y      Z        X      Y      Z        X      Y      Z   
After scan for Atom:   Atom  AN      X      Y      Z        X      Y      Z        X      Y      Z   
After scan for Atom:   Atom  AN      X      Y      Z        X      Y      Z        X      Y      Z   
After scan for Atom:   Atom  AN      X      Y      Z        X      Y      Z        X      Y      Z   
After scan for Atom:   Atom  AN      X      Y      Z        X      Y      Z        X      Y      Z   
After scan for Atom:   Atom  AN      X      Y      Z        X      Y      Z        X      Y      Z   
After scan for Atom:   Atom  AN      X      Y      Z        X      Y      Z        X      Y      Z   
After scan for Atom:   Atom  AN      X      Y      Z        X      Y      Z        X      Y      Z   
After scan for Atom:   Atom  AN      X      Y      Z        X      Y      Z        X      Y      Z   
After scan for Atom:   Atom  AN      X      Y      Z        X      Y      Z        X      Y      Z   
After scan for Atom:   Atom  AN      X      Y      Z        X      Y      Z        X      Y      Z   
After scan for Atom:   Atom  AN      X      Y      Z        X      Y      Z        X      Y      Z   
After scan for Atom:   Atom  AN      X      Y      Z        X      Y      Z        X      Y      Z   
After scan for Atom:   Atom  AN      X      Y      Z        X      Y      Z        X      Y      Z   
After scan for Atom:   Atom  AN      X      Y      Z        X      Y      Z        X      Y      Z   
After scan for Atom:   Atom  AN      X      Y      Z        X      Y      Z        X      Y      Z   
After scan for Atom:   Atom  AN      X      Y      Z        X      Y      Z        X      Y      Z   
After scan for Atom:   Atom  AN      X      Y      Z        X      Y      Z        X      Y      Z   
After scan for Atom:   Atom  AN      X      Y      Z        X      Y      Z        X      Y      Z   
After scan for Atom:   Atom  AN      X      Y      Z        X      Y      Z        X      Y      Z   
After scan for Atom:   Atom  AN      X      Y      Z        X      Y      Z        X      Y      Z   
After scan for Atom:   Atom  AN      X      Y      Z        X      Y      Z        X      Y      Z   
After scan for Atom:   Atom  AN      X      Y      Z        X      Y      Z        X      Y      Z   
After scan for Atom:   Atom  AN      X      Y      Z        X      Y      Z        X      Y      Z   
After scan for Atom:   Atom  AN      X      Y      Z        X      Y      Z        X      Y      Z   
After scan for Atom:   Atom  AN      X      Y      Z        X      Y      Z        X      Y      Z   
After scan for Atom:   Atom  AN      X      Y      Z        X      Y      Z        X      Y      Z   
 g94    frequencies=
     0.0    0.0    0.0    0.0    0.0    0.0    4.4   31.7   38.6   78.8
   113.7  118.1  129.1  181.3  236.3  239.4  294.4  314.0  386.4  389.9
   397.9  410.2  446.5  449.7  481.8  504.8  543.5  545.2  555.0  570.4
   602.3  633.1  637.5  643.0  655.3  691.3  703.5  748.9  755.2  770.0
   774.5  776.6  798.6  849.5  860.0  868.0  871.8  884.4  902.0  927.7
   942.7  969.5  971.9  978.2  997.1  997.5 1001.2 1012.7 1036.8 1038.4
  1042.7 1059.3 1101.7 1128.0 1168.4 1179.2 1182.8 1192.2 1201.1 1202.4
  1253.5 1254.6 1288.6 1309.9 1314.0 1338.4 1352.3 1388.4 1403.9 1414.3
  1442.0 1472.9 1475.4 1480.9 1515.0 1528.3 1555.9 1592.0 1606.9 1609.6
  1640.6 1657.5 1668.1 2280.3 3157.1 3160.0 3161.5 3163.6 3170.2 3170.5
  3171.8 3183.2 3184.6 3184.8 3190.4 3195.0 3198.1 3198.5
 g94    symmetries=
                                                 A      A      A      A
       A      A      A      A      A      A      A      A      A      A
       A      A      A      A      A      A      A      A      A      A
       A      A      A      A      A      A      A      A      A      A
       A      A      A      A      A      A      A      A      A      A
       A      A      A      A      A      A      A      A      A      A
       A      A      A      A      A      A      A      A      A      A
       A      A      A      A      A      A      A      A      A      A
       A      A      A      A      A      A      A      A      A      A
       A      A      A      A      A      A      A      A      A      A
       A      A      A      A      A      A      A      A
 atomic masses:
 12.0000 12.0000 12.0000 12.0000 12.0000 12.0000 12.0000 12.0000 12.0000 12.0000
 12.0000 12.0000 12.0000 12.0000 12.0000 12.0000 12.0000 12.0000 12.0000 12.0000
 12.0000 12.0000  1.0078  1.0078  1.0078  1.0078  1.0078  1.0078  1.0078  1.0078
  1.0078  1.0078  1.0078  1.0078  1.0078  1.0078
 looking for force constants in 
 ./benz-b-imbal_2_C0S0.fchk                                                     
  
 Cartesian Force Constants                  R   N=        5886                  
  
 n3=         108        5886
 g94-fc frequencies=
    -3.9   -2.5   -2.0   -0.0    0.0    0.0    4.4   31.7   38.6   78.8
   113.7  118.1  129.1  181.4  236.3  239.4  294.5  314.0  386.4  389.9
   397.9  410.2  446.5  449.8  481.9  504.9  543.5  545.2  555.0  570.4
   602.3  633.1  637.5  643.0  655.3  691.3  703.5  748.9  755.2  770.0
   774.5  776.6  798.6  849.5  860.1  868.0  871.8  884.4  902.0  927.7
   942.8  969.5  971.9  978.3  997.2  997.5 1001.3 1012.8 1036.8 1038.4
  1042.7 1059.3 1101.8 1128.0 1168.5 1179.3 1182.9 1192.3 1201.1 1202.4
  1253.5 1254.6 1288.7 1310.0 1314.0 1338.4 1352.3 1388.5 1403.9 1414.4
  1442.0 1472.9 1475.4 1480.9 1515.0 1528.3 1555.9 1592.0 1606.9 1609.7
  1640.6 1657.5 1668.2 2280.4 3157.1 3160.1 3161.6 3163.7 3170.2 3170.6
  3171.9 3183.3 3184.6 3184.9 3190.5 3195.1 3198.1 3198.6
 at 99999: n3=         108
 symm operator            1 :  F  nop=           0
 symm operator            2 :  F  nop=           0
 symm operator            3 :  F  nop=           0
 symm operator            4 :  F  nop=           0
 symm operator            5 :  F  nop=           0
 symm operator            6 :  F  nop=           0
 symm operator            7 :  F  nop=           0
 The point group of the molecule is  C1
 Symmetry rotation matrix:
   1.00000   0.00000   0.00000
   0.00000   1.00000   0.00000
   0.00000   0.00000   1.00000

 Projecting out zero-frequency components
 generating redundant internal coords
         300        3600          36
 search for int coords
   1 str   2   1   1.213
   2 str   3   2   1.419
   3 str   4   3   1.421
   4 str   5   4   1.426
   5 str   6   5   1.368
   6 str   7   6   1.422
   7 str   8   7   1.366
   8 str   9   4   1.440
   9 str   9   8   1.429
  10 str  10   9   1.397
  11 str  11  10   1.397
  12 str  12  11   1.429
  13 str  13  12   1.366
  14 str  14  13   1.422
  15 str  15  14   1.368
  16 str  16   3   1.421
  17 str  16  11   1.440
  18 str  16  15   1.426
  19 str  17   1   1.422
  20 str  18  17   1.408
  21 str  19  18   1.389
  22 str  20  19   1.394
  23 str  21  20   1.394
  24 str  22  17   1.408
  25 str  22  21   1.389
  26 str  23   5   1.083
  27 str  24   6   1.084
  28 str  25   7   1.084
  29 str  26   8   1.085
  30 str  27  10   1.086
  31 str  28  12   1.085
  32 str  29  13   1.084
  33 str  30  14   1.084
  34 str  31  15   1.083
  35 str  32  18   1.083
  36 str  33  19   1.084
  37 str  34  20   1.084
  38 str  35  21   1.084
  39 str  36  22   1.083
 nber stretches=          39
  40 lin ben   1   2   3
  42 ben   1  17  18
  43 prop tor   1  17  18  19
  44 prop tor   1  17  18  32
  45 ben   1  17  22
  46 prop tor   1  17  22  21
  47 prop tor   1  17  22  36
 Extend lin bond           1          17           2           3
  48 lin ben   2   1  17
  50 ben   2   3   4
  51 prop tor   2   3   4   5
  52 prop tor   2   3   4   9
  53 ben   2   3  16
  54 prop tor   2   3  16  11
  55 prop tor   2   3  16  15
  56 ben   3   4   5
  57 prop tor   3   4   5   6
  58 prop tor   3   4   5  23
  59 ben   3   4   9
  60 prop tor   3   4   9   8
  61 prop tor   3   4   9  10
  62 ben   3  16  11
  63 ben   3  16  15
  64 ben   4   3  16
  65 prop tor   4   3  16  11
  66 prop tor   4   3  16  15
  67 ben   4   5   6
  68 prop tor   4   5   6   7
  69 prop tor   4   5   6  24
  70 ben   4   5  23
  71 ben   4   9   8
  72 ben   4   9  10
  73 prop tor   4   9  10  11
  74 prop tor   4   9  10  27
  75 ben   5   4   9
  76 prop tor   5   4   9   8
  77 prop tor   5   4   9  10
  78 ben   5   6   7
  79 prop tor   5   6   7   8
  80 prop tor   5   6   7  25
  81 ben   5   6  24
  82 ben   6   5  23
  83 ben   6   7   8
  84 prop tor   6   7   8   9
  85 prop tor   6   7   8  26
  86 ben   6   7  25
  87 ben   7   6  24
  88 ben   7   8   9
  89 prop tor   7   8   9   4
  90 prop tor   7   8   9  10
  91 ben   7   8  26
  92 ben   8   7  25
  93 ben   8   9  10
  94 prop tor   8   9  10  11
  95 prop tor   8   9  10  27
  96 prop tor   9   4   5   6
  97 prop tor   9   4   5  23
  98 ben   9   8  26
  99 ben   9  10  11
 100 prop tor   9  10  11  12
 101 prop tor   9  10  11  16
 102 ben   9  10  27
 103 ben  10  11  12
 104 prop tor  10  11  12  13
 105 prop tor  10  11  12  28
 106 ben  10  11  16
 107 prop tor  10  11  16   3
 108 prop tor  10  11  16  15
 109 ben  11  10  27
 110 ben  11  12  13
 111 prop tor  11  12  13  14
 112 prop tor  11  12  13  29
 113 ben  11  12  28
 114 ben  11  16  15
 115 ben  12  11  16
 116 prop tor  12  11  16   3
 117 prop tor  12  11  16  15
 118 ben  12  13  14
 119 prop tor  12  13  14  15
 120 prop tor  12  13  14  30
 121 ben  12  13  29
 122 ben  13  12  28
 123 ben  13  14  15
 124 prop tor  13  14  15  16
 125 prop tor  13  14  15  31
 126 ben  13  14  30
 127 ben  14  13  29
 128 ben  14  15  16
 129 prop tor  14  15  16   3
 130 prop tor  14  15  16  11
 131 ben  14  15  31
 132 ben  15  14  30
 133 prop tor  16   3   4   5
 134 prop tor  16   3   4   9
 135 prop tor  16  11  12  13
 136 prop tor  16  11  12  28
 137 ben  16  15  31
 138 ben  17  18  19
 139 prop tor  17  18  19  20
 140 prop tor  17  18  19  33
 141 ben  17  18  32
 142 ben  17  22  21
 143 ben  17  22  36
 144 ben  18  17  22
 145 prop tor  18  17  22  21
 146 prop tor  18  17  22  36
 147 ben  18  19  20
 148 prop tor  18  19  20  21
 149 prop tor  18  19  20  34
 150 ben  18  19  33
 151 ben  19  18  32
 152 ben  19  20  21
 153 prop tor  19  20  21  22
 154 prop tor  19  20  21  35
 155 ben  19  20  34
 156 ben  20  19  33
 157 ben  20  21  22
 158 prop tor  20  21  22  17
 159 prop tor  20  21  22  36
 160 ben  20  21  35
 161 ben  21  20  34
 162 ben  21  22  36
 163 prop tor  22  17  18  19
 164 prop tor  22  17  18  32
 165 ben  22  21  35
 166 prop tor  23   5   6   7
 167 prop tor  23   5   6  24
 168 prop tor  24   6   7   8
 169 prop tor  24   6   7  25
 170 prop tor  25   7   8   9
 171 prop tor  25   7   8  26
 172 prop tor  26   8   9   4
 173 prop tor  26   8   9  10
 174 prop tor  27  10  11  12
 175 prop tor  27  10  11  16
 176 prop tor  28  12  13  14
 177 prop tor  28  12  13  29
 178 prop tor  29  13  14  15
 179 prop tor  29  13  14  30
 180 prop tor  30  14  15  16
 181 prop tor  30  14  15  31
 182 prop tor  31  15  16   3
 183 prop tor  31  15  16  11
 184 prop tor  32  18  19  20
 185 prop tor  32  18  19  33
 186 prop tor  33  19  20  21
 187 prop tor  33  19  20  34
 188 prop tor  34  20  21  22
 189 prop tor  34  20  21  35
 190 prop tor  35  21  22  17
 191 prop tor  35  21  22  36
 192 lin bend prop tor   1  17   3   2
 193 lin bend prop tor   1  17   3   4
 194 lin bend prop tor   1  17   3  16
 195 lin bend prop tor  18  17   3   2
 196 lin bend prop tor  18  17   3   4
 197 lin bend prop tor  18  17   3  16
 198 lin bend prop tor  22  17   3   2
 199 lin bend prop tor  22  17   3   4
 200 lin bend prop tor  22  17   3  16
 nber bend=              64
 nber lin bend=           1
 nber prop tor=          97
 nber impr tor=           0
 nber tot redund int=         200
 Eigenvalues of G in red int coords
    Gval -0.00000000 -0.00000000 -0.00000000 -0.00000000 -0.00000000 -0.00000000 -0.00000000 -0.00000000
    Gval -0.00000000 -0.00000000 -0.00000000 -0.00000000 -0.00000000 -0.00000000 -0.00000000 -0.00000000
    Gval -0.00000000 -0.00000000 -0.00000000 -0.00000000 -0.00000000 -0.00000000 -0.00000000 -0.00000000
    Gval -0.00000000 -0.00000000 -0.00000000 -0.00000000 -0.00000000 -0.00000000 -0.00000000 -0.00000000
    Gval -0.00000000 -0.00000000 -0.00000000 -0.00000000 -0.00000000 -0.00000000 -0.00000000 -0.00000000
    Gval -0.00000000 -0.00000000 -0.00000000 -0.00000000 -0.00000000  0.00000000  0.00000000  0.00000000
    Gval  0.00000000  0.00000000  0.00000000  0.00000000  0.00000000  0.00000000  0.00000000  0.00000000
    Gval  0.00000000  0.00000000  0.00000000  0.00000000  0.00000000  0.00000000  0.00000000  0.00000000
    Gval  0.00000000  0.00000000  0.00000000  0.00000000  0.00000000  0.00000000  0.00000000  0.00000000
    Gval  0.00000000  0.00000000  0.00000000  0.00000000  0.00000000  0.00000000  0.00000000  0.00000000
    Gval  0.00000000  0.00000000  0.00000000  0.00000000  0.00000000  0.00000000  0.00000000  0.00000000
    Gval  0.00000000  0.00000000  0.00000000  0.00000000  0.00000000  0.00000000  0.00000000  0.00000000
    Gval  0.00000000  0.00000000  0.00000117  0.00000228  0.00000681  0.00000900  0.00000927  0.00001004
    Gval  0.00002493  0.00002810  0.00002966  0.00003069  0.00003526  0.00004514  0.00004566  0.00004960
    Gval  0.00005207  0.00005494  0.00005613  0.00006026  0.00006264  0.00007374  0.00007533  0.00007562
    Gval  0.00009298  0.00009996  0.00010012  0.00011363  0.00011747  0.00012111  0.00012526  0.00013852
    Gval  0.00014828  0.00015954  0.00018242  0.00020541  0.00021775  0.00023563  0.00026255  0.00027076
    Gval  0.00027097  0.00031611  0.00032046  0.00033951  0.00036674  0.00038107  0.00038997  0.00040546
    Gval  0.00041797  0.00045500  0.00051971  0.00053160  0.00059305  0.00059315  0.00059315  0.00059327
    Gval  0.00059704  0.00059714  0.00060436  0.00061387  0.00061752  0.00061925  0.00063629  0.00065436
    Gval  0.00065792  0.00066050  0.00074773  0.00077701  0.00084140  0.00097738  0.00103799  0.00105142
    Gval  0.00105315  0.00110917  0.00111481  0.00111652  0.00112321  0.00113783  0.00116250  0.00116259
    Gval  0.00117123  0.00117124  0.00117154  0.00117237  0.00119170  0.00143381  0.00175791  0.00177849
    Gval  0.00179405  0.00179629  0.00220565  0.00234141  0.00265084  0.00267047  0.00310520  0.00311933
    Gval  0.00351118  0.00357095  0.00374933  0.00400677  0.00401377  0.00406885************************
  1.172760155172195E-006  1.172760155172195E-006
  2.277791915643586E-006  1.172760155172195E-006
  6.807556775283739E-006  1.172760155172195E-006
  9.002729019515922E-006  1.172760155172195E-006
  9.265614509309190E-006  1.172760155172195E-006
  1.004355686968765E-005  1.172760155172195E-006
  2.492558849706009E-005  1.172760155172195E-006
  2.809963054329795E-005  1.172760155172195E-006
  2.965575293355812E-005  1.172760155172195E-006
  3.068969942240168E-005  1.172760155172195E-006
  3.526175435715349E-005  1.172760155172195E-006
  4.514391569237700E-005  1.172760155172195E-006
  4.566352972838847E-005  1.172760155172195E-006
  4.959630680871133E-005  1.172760155172195E-006
  5.206594887597223E-005  1.172760155172195E-006
  5.493790667712255E-005  1.172760155172195E-006
  5.612991367488504E-005  1.172760155172195E-006
  6.026127111744788E-005  1.172760155172195E-006
  6.264431847347182E-005  1.172760155172195E-006
  7.374415390454627E-005  1.172760155172195E-006
  7.533163759098969E-005  1.172760155172195E-006
  7.562259572912094E-005  1.172760155172195E-006
  9.297751713849091E-005  1.172760155172195E-006
  9.996241691951305E-005  1.172760155172195E-006
  1.001237386805206E-004  1.172760155172195E-006
  1.136342583083512E-004  1.172760155172195E-006
  1.174701104135466E-004  1.172760155172195E-006
  1.211055929046004E-004  1.172760155172195E-006
  1.252560089587367E-004  1.172760155172195E-006
  1.385160478931573E-004  1.172760155172195E-006
  1.482810069934662E-004  1.172760155172195E-006
  1.595401693085465E-004  1.172760155172195E-006
  1.824227344867265E-004  1.172760155172195E-006
  2.054104978572126E-004  1.172760155172195E-006
  2.177503144198894E-004  1.172760155172195E-006
  2.356253075289858E-004  1.172760155172195E-006
  2.625453420883097E-004  1.172760155172195E-006
  2.707637546987602E-004  1.172760155172195E-006
  2.709653435537321E-004  1.172760155172195E-006
  3.161132620556692E-004  1.172760155172195E-006
  3.204558346588889E-004  1.172760155172195E-006
  3.395135867805172E-004  1.172760155172195E-006
  3.667432028908682E-004  1.172760155172195E-006
  3.810682972467456E-004  1.172760155172195E-006
  3.899740284226757E-004  1.172760155172195E-006
  4.054578417579935E-004  1.172760155172195E-006
  4.179730321831228E-004  1.172760155172195E-006
  4.549963103421422E-004  1.172760155172195E-006
  5.197089217470043E-004  1.172760155172195E-006
  5.316025445434476E-004  1.172760155172195E-006
  5.930540268864564E-004  1.172760155172195E-006
  5.931499314386488E-004  1.172760155172195E-006
  5.931529289500578E-004  1.172760155172195E-006
  5.932693342191792E-004  1.172760155172195E-006
  5.970352717812184E-004  1.172760155172195E-006
  5.971364976190680E-004  1.172760155172195E-006
  6.043637459836914E-004  1.172760155172195E-006
  6.138746240290511E-004  1.172760155172195E-006
  6.175223139649264E-004  1.172760155172195E-006
  6.192518785965797E-004  1.172760155172195E-006
  6.362872663351584E-004  1.172760155172195E-006
  6.543623203209568E-004  1.172760155172195E-006
  6.579188231455658E-004  1.172760155172195E-006
  6.604973678206737E-004  1.172760155172195E-006
  7.477332857848313E-004  1.172760155172195E-006
  7.770138768197372E-004  1.172760155172195E-006
  8.413986093612748E-004  1.172760155172195E-006
  9.773791007915823E-004  1.172760155172195E-006
  1.037990363493700E-003  1.172760155172195E-006
  1.051421105175121E-003  1.172760155172195E-006
  1.053150009408639E-003  1.172760155172195E-006
  1.109171646214229E-003  1.172760155172195E-006
  1.114805705619559E-003  1.172760155172195E-006
  1.116517890971797E-003  1.172760155172195E-006
  1.123213722535516E-003  1.172760155172195E-006
  1.137832012781214E-003  1.172760155172195E-006
  1.162499564582386E-003  1.172760155172195E-006
  1.162587334694579E-003  1.172760155172195E-006
  1.171234699839247E-003  1.172760155172195E-006
  1.171241983429318E-003  1.172760155172195E-006
  1.171542390212516E-003  1.172760155172195E-006
  1.172369352261626E-003  1.172760155172195E-006
  1.191703721562665E-003  1.172760155172195E-006
  1.433807036846963E-003  1.172760155172195E-006
  1.757909511225959E-003  1.172760155172195E-006
  1.778494687507368E-003  1.172760155172195E-006
  1.794054662271920E-003  1.172760155172195E-006
  1.796289637064126E-003  1.172760155172195E-006
  2.205646361034642E-003  1.172760155172195E-006
  2.341411438626478E-003  1.172760155172195E-006
  2.650842030681342E-003  1.172760155172195E-006
  2.670468431803952E-003  1.172760155172195E-006
  3.105197479817757E-003  1.172760155172195E-006
  3.119329033561876E-003  1.172760155172195E-006
  3.511182560962689E-003  1.172760155172195E-006
  3.570945577061311E-003  1.172760155172195E-006
  3.749333760892741E-003  1.172760155172195E-006
  4.006765535130608E-003  1.172760155172195E-006
  4.013769818159010E-003  1.172760155172195E-006
  4.068849367088479E-003  1.172760155172195E-006
   2027.98237204113       1.172760155172195E-006
   8182.48239675052       1.172760155172195E-006
 cut=1d-8, nber non-redundant internal coords=         102
 Check on Eigenvals of non-red overlap matrix:
  0.00000117  0.00000228  0.00000681  0.00000900  0.00000927  0.00001004  0.00002493  0.00002810
  0.00002966  0.00003069  0.00003526  0.00004514  0.00004566  0.00004960  0.00005207  0.00005494
  0.00005613  0.00006026  0.00006264  0.00007374  0.00007533  0.00007562  0.00009298  0.00009996
  0.00010012  0.00011363  0.00011747  0.00012111  0.00012526  0.00013852  0.00014828  0.00015954
  0.00018242  0.00020541  0.00021775  0.00023563  0.00026255  0.00027076  0.00027097  0.00031611
  0.00032046  0.00033951  0.00036674  0.00038107  0.00038997  0.00040546  0.00041797  0.00045500
  0.00051971  0.00053160  0.00059305  0.00059315  0.00059315  0.00059327  0.00059704  0.00059714
  0.00060436  0.00061387  0.00061752  0.00061925  0.00063629  0.00065436  0.00065792  0.00066050
  0.00074773  0.00077701  0.00084140  0.00097738  0.00103799  0.00105142  0.00105315  0.00110917
  0.00111481  0.00111652  0.00112321  0.00113783  0.00116250  0.00116259  0.00117123  0.00117124
  0.00117154  0.00117237  0.00119170  0.00143381  0.00175791  0.00177849  0.00179405  0.00179629
  0.00220565  0.00234141  0.00265084  0.00267047  0.00310520  0.00311933  0.00351118  0.00357095
  0.00374933  0.00400677  0.00401377  0.00406885************************
 Checking for correct frequencies
 recalc frequencies=
    -0.0   -0.0   -0.0   -0.0    0.0    0.0    4.4   31.7   38.6   78.8
   113.7  118.1  129.1  181.4  236.3  239.4  294.5  314.0  386.4  389.9
   397.9  410.2  446.5  449.8  481.9  504.9  543.5  545.2  555.0  570.4
   602.3  633.1  637.5  643.0  655.3  691.3  703.5  748.9  755.2  770.0
   774.5  776.6  798.6  849.5  860.1  868.0  871.8  884.4  902.0  927.7
   942.8  969.5  971.9  978.3  997.2  997.5 1001.3 1012.8 1036.8 1038.4
  1042.7 1059.3 1101.8 1128.0 1168.5 1179.3 1182.9 1192.3 1201.1 1202.4
  1253.5 1254.6 1288.7 1310.0 1314.0 1338.4 1352.3 1388.5 1403.9 1414.4
  1442.0 1472.9 1475.4 1480.9 1515.0 1528.3 1555.9 1592.0 1606.9 1609.7
  1640.6 1657.5 1668.2 2280.4 3157.1 3160.1 3161.6 3163.7 3170.2 3170.6
  3171.9 3183.3 3184.6 3184.9 3190.5 3195.1 3198.1 3198.6
 recalc symmetries=
                                                                       
                                                                       
                                                                       
                                                                       
                                                                       
                                                                       
                                                                       
                                                                       
                                                                       
                                                                       
                                                         
 recalc freqs check OK
 Zero-point lengths:
 10.0000 10.0000 10.0000 10.0000 10.0000 10.0000118.7716 44.0343 39.9025 27.9294
 23.2498 22.8146 21.8190 18.4092 16.1268 16.0213 14.4472 13.9900 12.6112 12.5553
 12.4283 12.2398 11.7327 11.6899 11.2937 11.0335 10.6336 10.6170 10.5235 10.3798
 10.1018  9.8528  9.8186  9.7767  9.6842  9.4287  9.3469  9.0592  9.0211  8.9339
  8.9080  8.8961  8.7728  8.5057  8.4534  8.4147  8.3962  8.3363  8.2544  8.1394
  8.0742  7.9618  7.9520  7.9263  7.8508  7.8494  7.8347  7.7901  7.6993  7.6932
  7.6775  7.6170  7.4688  7.3814  7.2525  7.2192  7.2082  7.1798  7.1532  7.1494
  7.0021  6.9990  6.9060  6.8496  6.8391  6.7764  6.7415  6.6532  6.6165  6.5919
  6.5285  6.4596  6.4541  6.4421  6.3692  6.3415  6.2849  6.2133  6.1844  6.1791
  6.1205  6.0893  6.0698  5.1915  4.4121  4.4101  4.4090  4.4076  4.4030  4.4028
  4.4019  4.3940  4.3930  4.3929  4.3890  4.3858  4.3838  4.3834
 highest evec of mol 1
 -0.0002 -0.0000  0.0000
  0.0003 -0.0000 -0.0000
 -0.0022 -0.0000  0.0000
  0.0014 -0.0054 -0.0000
 -0.1864 -0.0029  0.0032
 -0.0349  0.0764  0.0006
  0.0212  0.0315 -0.0003
  0.0173 -0.0019 -0.0003
  0.0011 -0.0008 -0.0000
  0.0025  0.0000 -0.0000
  0.0011  0.0008 -0.0000
  0.0171  0.0021 -0.0003
  0.0213 -0.0310 -0.0004
 -0.0338 -0.0760  0.0005
 -0.1846  0.0011  0.0032
  0.0013  0.0053 -0.0000
  0.0002 -0.0000 -0.0000
  0.0012 -0.0018 -0.0000
 -0.0012 -0.0021  0.0000
 -0.0022 -0.0000  0.0000
 -0.0012  0.0021  0.0000
  0.0012  0.0019 -0.0000
  0.6134 -0.0065 -0.0104
  0.1260 -0.2282 -0.0023
 -0.0599 -0.1019  0.0010
 -0.0531  0.0013  0.0009
 -0.0099 -0.0000  0.0002
 -0.0527 -0.0018  0.0009
 -0.0604  0.1004  0.0011
  0.1225  0.2271 -0.0020
  0.6073  0.0124 -0.0105
 -0.0039  0.0061  0.0001
  0.0037  0.0066 -0.0000
  0.0070  0.0000 -0.0001
  0.0038 -0.0066 -0.0001
 -0.0039 -0.0063  0.0000
 generating redundant internal coords
         300        3600          36
 Adding extra bonds for z output only
           6           6           6           6           6           6
           6           6           6           6           6           6
           6           6           6           6           6           6
           6           6           6           6           1           1
           1           1           1           1           1           1
           1           1           1           1           1           1
 search for int coords
   1 str   2   1   1.213
   2 str   3   2   1.419
   3 str   4   3   1.421
   4 str   5   4   1.426
   5 str   6   5   1.368
   6 str   7   6   1.422
   7 str   8   7   1.366
   8 str   9   4   1.440
   9 str   9   8   1.429
  10 str  10   9   1.397
  11 str  11  10   1.397
  12 str  12  11   1.429
  13 str  13  12   1.366
  14 str  14  13   1.422
  15 str  15  14   1.368
  16 str  16   3   1.421
  17 str  16  11   1.440
  18 str  16  15   1.426
  19 str  17   1   1.422
  20 str  18  17   1.408
  21 str  19  18   1.389
  22 str  20  19   1.394
  23 str  21  20   1.394
  24 str  22  17   1.408
  25 str  22  21   1.389
  26 str  23   5   1.083
  27 str  24   6   1.084
  28 str  25   7   1.084
  29 str  26   8   1.085
  30 str  27  10   1.086
  31 str  28  12   1.085
  32 str  29  13   1.084
  33 str  30  14   1.084
  34 str  31  15   1.083
  35 str  32  18   1.083
  36 str  33  19   1.084
  37 str  34  20   1.084
  38 str  35  21   1.084
  39 str  36  22   1.083
 nber stretches=          39
  40 lin ben   1   2   3
  42 ben   1  17  18
  43 prop tor   1  17  18  19
  44 prop tor   1  17  18  32
  45 ben   1  17  22
  46 prop tor   1  17  22  21
  47 prop tor   1  17  22  36
 Extend lin bond           1          17           2           3
  48 lin ben   2   1  17
  50 ben   2   3   4
  51 prop tor   2   3   4   5
  52 prop tor   2   3   4   9
  53 ben   2   3  16
  54 prop tor   2   3  16  11
  55 prop tor   2   3  16  15
  56 ben   3   4   5
  57 prop tor   3   4   5   6
  58 prop tor   3   4   5  23
  59 ben   3   4   9
  60 prop tor   3   4   9   8
  61 prop tor   3   4   9  10
  62 ben   3  16  11
  63 ben   3  16  15
  64 ben   4   3  16
  65 prop tor   4   3  16  11
  66 prop tor   4   3  16  15
  67 ben   4   5   6
  68 prop tor   4   5   6   7
  69 prop tor   4   5   6  24
  70 ben   4   5  23
  71 ben   4   9   8
  72 ben   4   9  10
  73 prop tor   4   9  10  11
  74 prop tor   4   9  10  27
  75 ben   5   4   9
  76 prop tor   5   4   9   8
  77 prop tor   5   4   9  10
  78 ben   5   6   7
  79 prop tor   5   6   7   8
  80 prop tor   5   6   7  25
  81 ben   5   6  24
  82 ben   6   5  23
  83 ben   6   7   8
  84 prop tor   6   7   8   9
  85 prop tor   6   7   8  26
  86 ben   6   7  25
  87 ben   7   6  24
  88 ben   7   8   9
  89 prop tor   7   8   9   4
  90 prop tor   7   8   9  10
  91 ben   7   8  26
  92 ben   8   7  25
  93 ben   8   9  10
  94 prop tor   8   9  10  11
  95 prop tor   8   9  10  27
  96 prop tor   9   4   5   6
  97 prop tor   9   4   5  23
  98 ben   9   8  26
  99 ben   9  10  11
 100 prop tor   9  10  11  12
 101 prop tor   9  10  11  16
 102 ben   9  10  27
 103 ben  10  11  12
 104 prop tor  10  11  12  13
 105 prop tor  10  11  12  28
 106 ben  10  11  16
 107 prop tor  10  11  16   3
 108 prop tor  10  11  16  15
 109 ben  11  10  27
 110 ben  11  12  13
 111 prop tor  11  12  13  14
 112 prop tor  11  12  13  29
 113 ben  11  12  28
 114 ben  11  16  15
 115 ben  12  11  16
 116 prop tor  12  11  16   3
 117 prop tor  12  11  16  15
 118 ben  12  13  14
 119 prop tor  12  13  14  15
 120 prop tor  12  13  14  30
 121 ben  12  13  29
 122 ben  13  12  28
 123 ben  13  14  15
 124 prop tor  13  14  15  16
 125 prop tor  13  14  15  31
 126 ben  13  14  30
 127 ben  14  13  29
 128 ben  14  15  16
 129 prop tor  14  15  16   3
 130 prop tor  14  15  16  11
 131 ben  14  15  31
 132 ben  15  14  30
 133 prop tor  16   3   4   5
 134 prop tor  16   3   4   9
 135 prop tor  16  11  12  13
 136 prop tor  16  11  12  28
 137 ben  16  15  31
 138 ben  17  18  19
 139 prop tor  17  18  19  20
 140 prop tor  17  18  19  33
 141 ben  17  18  32
 142 ben  17  22  21
 143 ben  17  22  36
 144 ben  18  17  22
 145 prop tor  18  17  22  21
 146 prop tor  18  17  22  36
 147 ben  18  19  20
 148 prop tor  18  19  20  21
 149 prop tor  18  19  20  34
 150 ben  18  19  33
 151 ben  19  18  32
 152 ben  19  20  21
 153 prop tor  19  20  21  22
 154 prop tor  19  20  21  35
 155 ben  19  20  34
 156 ben  20  19  33
 157 ben  20  21  22
 158 prop tor  20  21  22  17
 159 prop tor  20  21  22  36
 160 ben  20  21  35
 161 ben  21  20  34
 162 ben  21  22  36
 163 prop tor  22  17  18  19
 164 prop tor  22  17  18  32
 165 ben  22  21  35
 166 prop tor  23   5   6   7
 167 prop tor  23   5   6  24
 168 prop tor  24   6   7   8
 169 prop tor  24   6   7  25
 170 prop tor  25   7   8   9
 171 prop tor  25   7   8  26
 172 prop tor  26   8   9   4
 173 prop tor  26   8   9  10
 174 prop tor  27  10  11  12
 175 prop tor  27  10  11  16
 176 prop tor  28  12  13  14
 177 prop tor  28  12  13  29
 178 prop tor  29  13  14  15
 179 prop tor  29  13  14  30
 180 prop tor  30  14  15  16
 181 prop tor  30  14  15  31
 182 prop tor  31  15  16   3
 183 prop tor  31  15  16  11
 184 prop tor  32  18  19  20
 185 prop tor  32  18  19  33
 186 prop tor  33  19  20  21
 187 prop tor  33  19  20  34
 188 prop tor  34  20  21  22
 189 prop tor  34  20  21  35
 190 prop tor  35  21  22  17
 191 prop tor  35  21  22  36
 192 lin bend prop tor   1  17   3   2
 193 lin bend prop tor   1  17   3   4
 194 lin bend prop tor   1  17   3  16
 195 lin bend prop tor  18  17   3   2
 196 lin bend prop tor  18  17   3   4
 197 lin bend prop tor  18  17   3  16
 198 lin bend prop tor  22  17   3   2
 199 lin bend prop tor  22  17   3   4
 200 lin bend prop tor  22  17   3  16
 nber bend=              64
 nber lin bend=           1
 nber prop tor=          97
 nber impr tor=           0
 nber tot redund int=         200
 Reading file: 
 ./benz-b-imbal_2_C0S1.log                                                      
                                          
  Entering Gaussian System, Link 0=g16                                          
  
 Gaussian format, type: g94, g98, g03= F F F
  #P Geom=AllCheck Guess=TCheck SCRF=Check GenChk RB3LYP TD(FC,Read)/6-3    
 energy type= TD      
 Original G94 input coords:
  6  0.975037  0.026732  0.025042
  6 -0.248660  0.020807  0.045797
  6 -1.639982  0.014029  0.069516
  6 -2.350629 -1.248917  0.079386
  6 -1.695369 -2.487641  0.066076
  6 -2.410186 -3.694327  0.076115
  6 -3.802371 -3.682542  0.099795
  6 -4.482822 -2.465145  0.113491
  6 -3.787550 -1.234332  0.103836
  6 -4.465950  0.000233  0.117560
  6 -3.799555  1.241361  0.108483
  6 -4.506729  2.465331  0.122746
  6 -3.838115  3.689311  0.113643
  6 -2.446111  3.714690  0.090047
  6 -1.719624  2.515038  0.075495
  6 -2.362842  1.269978  0.084123
  6  2.381707  0.033573  0.001161
  6  3.101021  1.252798 -0.008778
  6  4.486736  1.251998 -0.032310
  6  5.194180  0.047270 -0.046563
  6  4.498425 -1.164291 -0.036983
  6  3.112782 -1.178590 -0.013476
  1 -0.612721 -2.507206  0.047639
  1 -1.871528 -4.634697  0.065320
  1 -4.357950 -4.613069  0.107608
  1 -5.567331 -2.449037  0.131939
  1 -5.551770 -0.005065  0.135996
  1 -5.591030  2.438639  0.141106
  1 -4.402693  4.614371  0.124930
  1 -1.916599  4.660275  0.082794
  1 -0.637216  2.545167  0.057173
  1  2.552818  2.187006  0.002266
  1  5.022624  2.194533 -0.039660
  1  6.277834  0.052547 -0.064955
  1  5.043406 -2.101562 -0.047965
  1  2.573645 -2.118096 -0.006043
 nber atoms=          36
  Total Energy, E(TD-HF/TD-DFT) =  -846.842631332                               
  
          32          49 "  -846.842631332"
After scan for Atom:   Atom  AN      X      Y      Z        X      Y      Z        X      Y      Z   
After scan for Atom:   Atom  AN      X      Y      Z        X      Y      Z        X      Y      Z   
After scan for Atom:   Atom  AN      X      Y      Z        X      Y      Z        X      Y      Z   
After scan for Atom:   Atom  AN      X      Y      Z        X      Y      Z        X      Y      Z   
After scan for Atom:   Atom  AN      X      Y      Z        X      Y      Z        X      Y      Z   
After scan for Atom:   Atom  AN      X      Y      Z        X      Y      Z        X      Y      Z   
After scan for Atom:   Atom  AN      X      Y      Z        X      Y      Z        X      Y      Z   
After scan for Atom:   Atom  AN      X      Y      Z        X      Y      Z        X      Y      Z   
After scan for Atom:   Atom  AN      X      Y      Z        X      Y      Z        X      Y      Z   
After scan for Atom:   Atom  AN      X      Y      Z        X      Y      Z        X      Y      Z   
After scan for Atom:   Atom  AN      X      Y      Z        X      Y      Z        X      Y      Z   
After scan for Atom:   Atom  AN      X      Y      Z        X      Y      Z        X      Y      Z   
After scan for Atom:   Atom  AN      X      Y      Z        X      Y      Z        X      Y      Z   
After scan for Atom:   Atom  AN      X      Y      Z        X      Y      Z        X      Y      Z   
After scan for Atom:   Atom  AN      X      Y      Z        X      Y      Z        X      Y      Z   
After scan for Atom:   Atom  AN      X      Y      Z        X      Y      Z        X      Y      Z   
After scan for Atom:   Atom  AN      X      Y      Z        X      Y      Z        X      Y      Z   
After scan for Atom:   Atom  AN      X      Y      Z        X      Y      Z        X      Y      Z   
After scan for Atom:   Atom  AN      X      Y      Z        X      Y      Z        X      Y      Z   
After scan for Atom:   Atom  AN      X      Y      Z        X      Y      Z        X      Y      Z   
After scan for Atom:   Atom  AN      X      Y      Z        X      Y      Z        X      Y      Z   
After scan for Atom:   Atom  AN      X      Y      Z        X      Y      Z        X      Y      Z   
After scan for Atom:   Atom  AN      X      Y      Z        X      Y      Z        X      Y      Z   
After scan for Atom:   Atom  AN      X      Y      Z        X      Y      Z        X      Y      Z   
After scan for Atom:   Atom  AN      X      Y      Z        X      Y      Z        X      Y      Z   
After scan for Atom:   Atom  AN      X      Y      Z        X      Y      Z        X      Y      Z   
After scan for Atom:   Atom  AN      X      Y      Z        X      Y      Z        X      Y      Z   
After scan for Atom:   Atom  AN      X      Y      Z        X      Y      Z        X      Y      Z   
After scan for Atom:   Atom  AN      X      Y      Z        X      Y      Z        X      Y      Z   
After scan for Atom:   Atom  AN      X      Y      Z        X      Y      Z        X      Y      Z   
After scan for Atom:   Atom  AN      X      Y      Z        X      Y      Z        X      Y      Z   
After scan for Atom:   Atom  AN      X      Y      Z        X      Y      Z        X      Y      Z   
After scan for Atom:   Atom  AN      X      Y      Z        X      Y      Z        X      Y      Z   
After scan for Atom:   Atom  AN      X      Y      Z        X      Y      Z        X      Y      Z   
 g94    frequencies=
     0.0    0.0    0.0    0.0    0.0    0.0   27.6   31.1   31.8   67.3
   104.4  112.6  126.3  180.3  226.3  239.2  288.7  297.7  359.5  383.4
   390.4  407.9  425.4  444.9  447.2  510.2  515.7  538.7  539.8  544.8
   597.1  599.7  627.4  637.7  642.0  689.3  692.9  715.3  725.9  734.8
   737.6  769.7  771.5  819.6  839.2  849.6  875.9  876.7  878.3  914.2
   915.5  918.7  935.7  956.5  957.2  976.7  996.2 1004.1 1040.0 1053.7
  1060.7 1061.2 1102.0 1103.3 1146.4 1176.2 1181.7 1182.1 1196.4 1210.0
  1231.3 1273.5 1292.0 1301.7 1309.2 1316.5 1354.4 1375.0 1381.6 1410.3
  1428.6 1457.6 1469.9 1471.1 1518.4 1529.0 1530.8 1564.5 1573.1 1584.3
  1586.2 1609.5 1630.0 2194.7 3153.8 3162.1 3163.1 3164.0 3171.3 3172.3
  3172.7 3184.0 3185.3 3185.7 3190.6 3194.8 3195.1 3195.4
 g94    symmetries=
                                                 A      A      A      A
       A      A      A      A      A      A      A      A      A      A
       A      A      A      A      A      A      A      A      A      A
       A      A      A      A      A      A      A      A      A      A
       A      A      A      A      A      A      A      A      A      A
       A      A      A      A      A      A      A      A      A      A
       A      A      A      A      A      A      A      A      A      A
       A      A      A      A      A      A      A      A      A      A
       A      A      A      A      A      A      A      A      A      A
       A      A      A      A      A      A      A      A      A      A
       A      A      A      A      A      A      A      A
 atomic masses:
 12.0000 12.0000 12.0000 12.0000 12.0000 12.0000 12.0000 12.0000 12.0000 12.0000
 12.0000 12.0000 12.0000 12.0000 12.0000 12.0000 12.0000 12.0000 12.0000 12.0000
 12.0000 12.0000  1.0078  1.0078  1.0078  1.0078  1.0078  1.0078  1.0078  1.0078
  1.0078  1.0078  1.0078  1.0078  1.0078  1.0078
 looking for force constants in 
 ./benz-b-imbal_2_C0S1.fchk                                                     
  
 Cartesian Force Constants                  R   N=        5886                  
  
 n3=         108        5886
 g94-fc frequencies=
    -3.5   -2.1   -1.9   -0.0   -0.0    0.0   27.6   31.1   31.8   67.3
   104.4  112.6  126.3  180.3  226.4  239.2  288.7  297.7  359.5  383.4
   390.4  408.0  425.4  444.9  447.2  510.3  515.8  538.7  539.8  544.8
   597.1  599.7  627.4  637.8  642.0  689.3  692.9  715.3  725.9  734.8
   737.6  769.7  771.5  819.6  839.3  849.6  875.9  876.7  878.3  914.2
   915.5  918.7  935.7  956.5  957.3  976.7  996.2 1004.2 1040.0 1053.8
  1060.7 1061.2 1102.0 1103.4 1146.4 1176.2 1181.7 1182.1 1196.4 1210.0
  1231.3 1273.6 1292.0 1301.7 1309.2 1316.5 1354.4 1375.1 1381.6 1410.4
  1428.6 1457.6 1470.0 1471.1 1518.4 1529.1 1530.8 1564.5 1573.1 1584.4
  1586.3 1609.5 1630.0 2194.7 3153.9 3162.2 3163.1 3164.0 3171.4 3172.4
  3172.8 3184.0 3185.4 3185.8 3190.6 3194.8 3195.2 3195.5
 at 99999: n3=         108
 symm operator            1 :  F  nop=           0
 symm operator            2 :  F  nop=           0
 symm operator            3 :  F  nop=           0
 symm operator            4 :  F  nop=           0
 symm operator            5 :  F  nop=           0
 symm operator            6 :  F  nop=           0
 symm operator            7 :  F  nop=           0
 The point group of the molecule is  C1
 Symmetry rotation matrix:
   1.00000   0.00000   0.00000
   0.00000   1.00000   0.00000
   0.00000   0.00000   1.00000

 Projecting out zero-frequency components
 generating redundant internal coords
         300        3600          36
 search for int coords
   1 str   2   1   1.224
   2 str   3   2   1.392
   3 str   4   3   1.449
   4 str   5   4   1.401
   5 str   6   5   1.403
   6 str   7   6   1.392
   7 str   8   7   1.395
   8 str   9   4   1.437
   9 str   9   8   1.414
  10 str  10   9   1.409
  11 str  11  10   1.409
  12 str  12  11   1.414
  13 str  13  12   1.395
  14 str  14  13   1.392
  15 str  15  14   1.403
  16 str  16   3   1.449
  17 str  16  11   1.437
  18 str  16  15   1.401
  19 str  17   1   1.407
  20 str  18  17   1.416
  21 str  19  18   1.386
  22 str  20  19   1.397
  23 str  21  20   1.397
  24 str  22  17   1.416
  25 str  22  21   1.386
  26 str  23   5   1.083
  27 str  24   6   1.084
  28 str  25   7   1.084
  29 str  26   8   1.085
  30 str  27  10   1.086
  31 str  28  12   1.085
  32 str  29  13   1.084
  33 str  30  14   1.084
  34 str  31  15   1.083
  35 str  32  18   1.083
  36 str  33  19   1.084
  37 str  34  20   1.084
  38 str  35  21   1.084
  39 str  36  22   1.083
 nber stretches=          39
  40 lin ben   1   2   3
  42 ben   1  17  18
  43 prop tor   1  17  18  19
  44 prop tor   1  17  18  32
  45 ben   1  17  22
  46 prop tor   1  17  22  21
  47 prop tor   1  17  22  36
 Extend lin bond           1          17           2           3
  48 lin ben   2   1  17
  50 ben   2   3   4
  51 prop tor   2   3   4   5
  52 prop tor   2   3   4   9
  53 ben   2   3  16
  54 prop tor   2   3  16  11
  55 prop tor   2   3  16  15
  56 ben   3   4   5
  57 prop tor   3   4   5   6
  58 prop tor   3   4   5  23
  59 ben   3   4   9
  60 prop tor   3   4   9   8
  61 prop tor   3   4   9  10
  62 ben   3  16  11
  63 ben   3  16  15
  64 ben   4   3  16
  65 prop tor   4   3  16  11
  66 prop tor   4   3  16  15
  67 ben   4   5   6
  68 prop tor   4   5   6   7
  69 prop tor   4   5   6  24
  70 ben   4   5  23
  71 ben   4   9   8
  72 ben   4   9  10
  73 prop tor   4   9  10  11
  74 prop tor   4   9  10  27
  75 ben   5   4   9
  76 prop tor   5   4   9   8
  77 prop tor   5   4   9  10
  78 ben   5   6   7
  79 prop tor   5   6   7   8
  80 prop tor   5   6   7  25
  81 ben   5   6  24
  82 ben   6   5  23
  83 ben   6   7   8
  84 prop tor   6   7   8   9
  85 prop tor   6   7   8  26
  86 ben   6   7  25
  87 ben   7   6  24
  88 ben   7   8   9
  89 prop tor   7   8   9   4
  90 prop tor   7   8   9  10
  91 ben   7   8  26
  92 ben   8   7  25
  93 ben   8   9  10
  94 prop tor   8   9  10  11
  95 prop tor   8   9  10  27
  96 prop tor   9   4   5   6
  97 prop tor   9   4   5  23
  98 ben   9   8  26
  99 ben   9  10  11
 100 prop tor   9  10  11  12
 101 prop tor   9  10  11  16
 102 ben   9  10  27
 103 ben  10  11  12
 104 prop tor  10  11  12  13
 105 prop tor  10  11  12  28
 106 ben  10  11  16
 107 prop tor  10  11  16   3
 108 prop tor  10  11  16  15
 109 ben  11  10  27
 110 ben  11  12  13
 111 prop tor  11  12  13  14
 112 prop tor  11  12  13  29
 113 ben  11  12  28
 114 ben  11  16  15
 115 ben  12  11  16
 116 prop tor  12  11  16   3
 117 prop tor  12  11  16  15
 118 ben  12  13  14
 119 prop tor  12  13  14  15
 120 prop tor  12  13  14  30
 121 ben  12  13  29
 122 ben  13  12  28
 123 ben  13  14  15
 124 prop tor  13  14  15  16
 125 prop tor  13  14  15  31
 126 ben  13  14  30
 127 ben  14  13  29
 128 ben  14  15  16
 129 prop tor  14  15  16   3
 130 prop tor  14  15  16  11
 131 ben  14  15  31
 132 ben  15  14  30
 133 prop tor  16   3   4   5
 134 prop tor  16   3   4   9
 135 prop tor  16  11  12  13
 136 prop tor  16  11  12  28
 137 ben  16  15  31
 138 ben  17  18  19
 139 prop tor  17  18  19  20
 140 prop tor  17  18  19  33
 141 ben  17  18  32
 142 ben  17  22  21
 143 ben  17  22  36
 144 ben  18  17  22
 145 prop tor  18  17  22  21
 146 prop tor  18  17  22  36
 147 ben  18  19  20
 148 prop tor  18  19  20  21
 149 prop tor  18  19  20  34
 150 ben  18  19  33
 151 ben  19  18  32
 152 ben  19  20  21
 153 prop tor  19  20  21  22
 154 prop tor  19  20  21  35
 155 ben  19  20  34
 156 ben  20  19  33
 157 ben  20  21  22
 158 prop tor  20  21  22  17
 159 prop tor  20  21  22  36
 160 ben  20  21  35
 161 ben  21  20  34
 162 ben  21  22  36
 163 prop tor  22  17  18  19
 164 prop tor  22  17  18  32
 165 ben  22  21  35
 166 prop tor  23   5   6   7
 167 prop tor  23   5   6  24
 168 prop tor  24   6   7   8
 169 prop tor  24   6   7  25
 170 prop tor  25   7   8   9
 171 prop tor  25   7   8  26
 172 prop tor  26   8   9   4
 173 prop tor  26   8   9  10
 174 prop tor  27  10  11  12
 175 prop tor  27  10  11  16
 176 prop tor  28  12  13  14
 177 prop tor  28  12  13  29
 178 prop tor  29  13  14  15
 179 prop tor  29  13  14  30
 180 prop tor  30  14  15  16
 181 prop tor  30  14  15  31
 182 prop tor  31  15  16   3
 183 prop tor  31  15  16  11
 184 prop tor  32  18  19  20
 185 prop tor  32  18  19  33
 186 prop tor  33  19  20  21
 187 prop tor  33  19  20  34
 188 prop tor  34  20  21  22
 189 prop tor  34  20  21  35
 190 prop tor  35  21  22  17
 191 prop tor  35  21  22  36
 192 lin bend prop tor  18  17   3   4
 193 lin bend prop tor  18  17   3  16
 194 lin bend prop tor  22  17   3   4
 195 lin bend prop tor  22  17   3  16
 nber bend=              64
 nber lin bend=           1
 nber prop tor=          92
 nber impr tor=           0
 nber tot redund int=         195
 Eigenvalues of G in red int coords
    Gval -0.00000000 -0.00000000 -0.00000000 -0.00000000 -0.00000000 -0.00000000 -0.00000000 -0.00000000
    Gval -0.00000000 -0.00000000 -0.00000000 -0.00000000 -0.00000000 -0.00000000 -0.00000000 -0.00000000
    Gval -0.00000000 -0.00000000 -0.00000000 -0.00000000 -0.00000000 -0.00000000 -0.00000000 -0.00000000
    Gval -0.00000000 -0.00000000 -0.00000000 -0.00000000 -0.00000000 -0.00000000 -0.00000000 -0.00000000
    Gval -0.00000000 -0.00000000 -0.00000000 -0.00000000 -0.00000000 -0.00000000 -0.00000000 -0.00000000
    Gval -0.00000000 -0.00000000 -0.00000000 -0.00000000 -0.00000000  0.00000000  0.00000000  0.00000000
    Gval  0.00000000  0.00000000  0.00000000  0.00000000  0.00000000  0.00000000  0.00000000  0.00000000
    Gval  0.00000000  0.00000000  0.00000000  0.00000000  0.00000000  0.00000000  0.00000000  0.00000000
    Gval  0.00000000  0.00000000  0.00000000  0.00000000  0.00000000  0.00000000  0.00000000  0.00000000
    Gval  0.00000000  0.00000000  0.00000000  0.00000000  0.00000000  0.00000000  0.00000000  0.00000000
    Gval  0.00000000  0.00000000  0.00000000  0.00000000  0.00000000  0.00000000  0.00000000  0.00000000
    Gval  0.00000000  0.00000000  0.00000000  0.00000000  0.00000000  0.00000050  0.00000227  0.00000470
    Gval  0.00000623  0.00000919  0.00001005  0.00002253  0.00002796  0.00002956  0.00003029  0.00003179
    Gval  0.00003971  0.00004510  0.00004877  0.00004971  0.00005516  0.00005602  0.00005778  0.00006264
    Gval  0.00007054  0.00007336  0.00007568  0.00008417  0.00009288  0.00010005  0.00010645  0.00011378
    Gval  0.00011880  0.00012498  0.00013256  0.00014813  0.00014836  0.00017685  0.00018027  0.00021521
    Gval  0.00021670  0.00022669  0.00026259  0.00026993  0.00028464  0.00031005  0.00032322  0.00035343
    Gval  0.00036527  0.00038253  0.00039361  0.00039885  0.00041678  0.00044654  0.00045308  0.00052070
    Gval  0.00052994  0.00059305  0.00059318  0.00059319  0.00059368  0.00059711  0.00059723  0.00060423
    Gval  0.00061353  0.00061773  0.00062406  0.00063582  0.00065408  0.00065749  0.00066011  0.00072816
    Gval  0.00077883  0.00082246  0.00096851  0.00103950  0.00105246  0.00105422  0.00110819  0.00111497
    Gval  0.00111881  0.00112135  0.00113906  0.00115730  0.00115743  0.00116462  0.00117151  0.00117201
    Gval  0.00117206  0.00117206  0.00140015  0.00173228  0.00178444  0.00179780  0.00180432  0.00216034
    Gval  0.00233593  0.00266232  0.00266992  0.00308885  0.00309931  0.00348503  0.00354484  0.00374772
    Gval  0.00401782  0.00402391  0.00406486
  4.982978349895271E-007  4.982978349895271E-007
  2.274749530302599E-006  4.982978349895271E-007
  4.697911722867649E-006  4.982978349895271E-007
  6.230204456011698E-006  4.982978349895271E-007
  9.193013245734350E-006  4.982978349895271E-007
  1.005009522743402E-005  4.982978349895271E-007
  2.253385623440080E-005  4.982978349895271E-007
  2.796491717034003E-005  4.982978349895271E-007
  2.955593476158749E-005  4.982978349895271E-007
  3.028511367652194E-005  4.982978349895271E-007
  3.179270083129406E-005  4.982978349895271E-007
  3.970671028948039E-005  4.982978349895271E-007
  4.510202570701820E-005  4.982978349895271E-007
  4.876920460536639E-005  4.982978349895271E-007
  4.971073218128464E-005  4.982978349895271E-007
  5.515923904638960E-005  4.982978349895271E-007
  5.602044900772087E-005  4.982978349895271E-007
  5.777540408099711E-005  4.982978349895271E-007
  6.264323693542717E-005  4.982978349895271E-007
  7.054412315501221E-005  4.982978349895271E-007
  7.336449462494902E-005  4.982978349895271E-007
  7.567676087412161E-005  4.982978349895271E-007
  8.416626796323731E-005  4.982978349895271E-007
  9.288106408168325E-005  4.982978349895271E-007
  1.000452310909194E-004  4.982978349895271E-007
  1.064540462867202E-004  4.982978349895271E-007
  1.137813433232957E-004  4.982978349895271E-007
  1.187959260824543E-004  4.982978349895271E-007
  1.249843176777614E-004  4.982978349895271E-007
  1.325598707664389E-004  4.982978349895271E-007
  1.481314193046575E-004  4.982978349895271E-007
  1.483627318808966E-004  4.982978349895271E-007
  1.768523468234598E-004  4.982978349895271E-007
  1.802690161779351E-004  4.982978349895271E-007
  2.152120611962844E-004  4.982978349895271E-007
  2.167032906836897E-004  4.982978349895271E-007
  2.266923789019236E-004  4.982978349895271E-007
  2.625897494774221E-004  4.982978349895271E-007
  2.699264928759700E-004  4.982978349895271E-007
  2.846363025011039E-004  4.982978349895271E-007
  3.100542650728606E-004  4.982978349895271E-007
  3.232215843048263E-004  4.982978349895271E-007
  3.534280446633144E-004  4.982978349895271E-007
  3.652651981432229E-004  4.982978349895271E-007
  3.825306701126071E-004  4.982978349895271E-007
  3.936084920913383E-004  4.982978349895271E-007
  3.988506437915495E-004  4.982978349895271E-007
  4.167806601483886E-004  4.982978349895271E-007
  4.465366035486991E-004  4.982978349895271E-007
  4.530758079295139E-004  4.982978349895271E-007
  5.206996933126948E-004  4.982978349895271E-007
  5.299392202429104E-004  4.982978349895271E-007
  5.930471232885956E-004  4.982978349895271E-007
  5.931824191913062E-004  4.982978349895271E-007
  5.931946321664056E-004  4.982978349895271E-007
  5.936837607362871E-004  4.982978349895271E-007
  5.971090076629697E-004  4.982978349895271E-007
  5.972292885174789E-004  4.982978349895271E-007
  6.042334580294109E-004  4.982978349895271E-007
  6.135287674704040E-004  4.982978349895271E-007
  6.177308724842792E-004  4.982978349895271E-007
  6.240586700870911E-004  4.982978349895271E-007
  6.358160249593073E-004  4.982978349895271E-007
  6.540828389105966E-004  4.982978349895271E-007
  6.574851469445871E-004  4.982978349895271E-007
  6.601065806010250E-004  4.982978349895271E-007
  7.281570494946365E-004  4.982978349895271E-007
  7.788342079035889E-004  4.982978349895271E-007
  8.224550574587882E-004  4.982978349895271E-007
  9.685077187271537E-004  4.982978349895271E-007
  1.039504133483336E-003  4.982978349895271E-007
  1.052456681515559E-003  4.982978349895271E-007
  1.054224967262886E-003  4.982978349895271E-007
  1.108187262787161E-003  4.982978349895271E-007
  1.114967406455110E-003  4.982978349895271E-007
  1.118808969723320E-003  4.982978349895271E-007
  1.121349523164545E-003  4.982978349895271E-007
  1.139063835602850E-003  4.982978349895271E-007
  1.157302829200038E-003  4.982978349895271E-007
  1.157431095197957E-003  4.982978349895271E-007
  1.164621954123120E-003  4.982978349895271E-007
  1.171512122570933E-003  4.982978349895271E-007
  1.172011687180903E-003  4.982978349895271E-007
  1.172056895150649E-003  4.982978349895271E-007
  1.172059114842107E-003  4.982978349895271E-007
  1.400148337636193E-003  4.982978349895271E-007
  1.732275462421313E-003  4.982978349895271E-007
  1.784437654221559E-003  4.982978349895271E-007
  1.797798704653816E-003  4.982978349895271E-007
  1.804324490655158E-003  4.982978349895271E-007
  2.160339723353951E-003  4.982978349895271E-007
  2.335932016431723E-003  4.982978349895271E-007
  2.662323897202294E-003  4.982978349895271E-007
  2.669915022861465E-003  4.982978349895271E-007
  3.088845039187258E-003  4.982978349895271E-007
  3.099305824573294E-003  4.982978349895271E-007
  3.485025353136174E-003  4.982978349895271E-007
  3.544841460029822E-003  4.982978349895271E-007
  3.747720560878036E-003  4.982978349895271E-007
  4.017819495837423E-003  4.982978349895271E-007
  4.023913484077683E-003  4.982978349895271E-007
  4.064859160258335E-003  4.982978349895271E-007
 cut=1d-8, nber non-redundant internal coords=         102
 Check on Eigenvals of non-red overlap matrix:
  0.00000050  0.00000227  0.00000470  0.00000623  0.00000919  0.00001005  0.00002253  0.00002796
  0.00002956  0.00003029  0.00003179  0.00003971  0.00004510  0.00004877  0.00004971  0.00005516
  0.00005602  0.00005778  0.00006264  0.00007054  0.00007336  0.00007568  0.00008417  0.00009288
  0.00010005  0.00010645  0.00011378  0.00011880  0.00012498  0.00013256  0.00014813  0.00014836
  0.00017685  0.00018027  0.00021521  0.00021670  0.00022669  0.00026259  0.00026993  0.00028464
  0.00031005  0.00032322  0.00035343  0.00036527  0.00038253  0.00039361  0.00039885  0.00041678
  0.00044654  0.00045308  0.00052070  0.00052994  0.00059305  0.00059318  0.00059319  0.00059368
  0.00059711  0.00059723  0.00060423  0.00061353  0.00061773  0.00062406  0.00063582  0.00065408
  0.00065749  0.00066011  0.00072816  0.00077883  0.00082246  0.00096851  0.00103950  0.00105246
  0.00105422  0.00110819  0.00111497  0.00111881  0.00112135  0.00113906  0.00115730  0.00115743
  0.00116462  0.00117151  0.00117201  0.00117206  0.00117206  0.00140015  0.00173228  0.00178444
  0.00179780  0.00180432  0.00216034  0.00233593  0.00266232  0.00266992  0.00308885  0.00309931
  0.00348503  0.00354484  0.00374772  0.00401782  0.00402391  0.00406486
 Checking for correct frequencies
 recalc frequencies=
    -0.0   -0.0   -0.0   -0.0    0.0    0.0   27.6   31.1   31.8   67.3
   104.4  112.6  126.3  180.3  226.4  239.2  288.7  297.7  359.5  383.4
   390.4  408.0  425.4  444.9  447.2  510.3  515.8  538.7  539.8  544.8
   597.1  599.7  627.4  637.8  642.0  689.3  692.9  715.3  725.9  734.8
   737.6  769.7  771.5  819.6  839.3  849.6  875.9  876.7  878.3  914.2
   915.5  918.7  935.7  956.5  957.3  976.7  996.2 1004.2 1040.0 1053.8
  1060.7 1061.2 1102.0 1103.4 1146.4 1176.2 1181.7 1182.1 1196.4 1210.0
  1231.3 1273.6 1292.0 1301.7 1309.2 1316.5 1354.4 1375.1 1381.6 1410.4
  1428.6 1457.6 1470.0 1471.1 1518.4 1529.1 1530.8 1564.5 1573.1 1584.4
  1586.3 1609.5 1630.0 2194.7 3153.9 3162.2 3163.1 3164.0 3171.4 3172.4
  3172.8 3184.0 3185.4 3185.8 3190.6 3194.8 3195.2 3195.5
 recalc symmetries=
                                                                       
                                                                       
                                                                       
                                                                       
                                                                       
                                                                       
                                                                       
                                                                       
                                                                       
                                                                       
                                                         
 recalc freqs check OK
 Zero-point lengths:
 10.0000 10.0000 10.0000 10.0000 10.0000 10.0000 47.2203 44.4813 43.9655 30.2129
 24.2580 23.3581 22.0599 18.4639 16.4778 16.0285 14.5913 14.3685 13.0754 12.6613
 12.5466 12.2740 12.0201 11.7531 11.7237 10.9750 10.9162 10.6815 10.6703 10.6212
 10.1452 10.1233  9.8974  9.8167  9.7842  9.4428  9.4183  9.2696  9.2015  9.1456
  9.1284  8.9357  8.9254  8.6593  8.5576  8.5054  8.3767  8.3728  8.3652  8.1991
  8.1935  8.1792  8.1045  8.0157  8.0127  7.9324  7.8546  7.8233  7.6874  7.6370
  7.6119  7.6102  7.4681  7.4634  7.3220  7.2287  7.2116  7.2104  7.1674  7.1269
  7.0650  6.9468  6.8970  6.8713  6.8516  6.8325  6.7364  6.6855  6.6697  6.6013
  6.5590  6.4934  6.4661  6.4635  6.3621  6.3399  6.3363  6.2676  6.2504  6.2283
  6.2246  6.1794  6.1404  5.2918  4.4144  4.4086  4.4080  4.4073  4.4022  4.4015
  4.4012  4.3935  4.3925  4.3923  4.3889  4.3860  4.3858  4.3856
 highest evec of mol 2
  0.0017  0.0000 -0.0000
 -0.0013 -0.0000  0.0000
  0.0024  0.0000 -0.0000
 -0.0012  0.0036  0.0000
  0.1123  0.0005 -0.0019
  0.0475 -0.0838 -0.0010
 -0.0377 -0.0567  0.0005
 -0.0257  0.0031  0.0004
 -0.0003  0.0011  0.0000
 -0.0045 -0.0000  0.0001
 -0.0003 -0.0011  0.0000
 -0.0256 -0.0033  0.0004
 -0.0381  0.0562  0.0008
  0.0466  0.0840 -0.0006
  0.1120  0.0006 -0.0019
 -0.0012 -0.0036  0.0000
 -0.0053 -0.0000  0.0001
 -0.0462  0.0736  0.0009
  0.0377  0.0662 -0.0005
  0.0846  0.0004 -0.0014
  0.0383 -0.0659 -0.0008
 -0.0455 -0.0741  0.0006
 -0.3694  0.0067  0.0063
 -0.1527  0.2673  0.0031
  0.1113  0.1843 -0.0016
  0.0806 -0.0023 -0.0014
  0.0147  0.0001 -0.0002
  0.0804  0.0030 -0.0014
  0.1128 -0.1827 -0.0023
 -0.1497 -0.2681  0.0021
 -0.3684 -0.0102  0.0062
  0.1430 -0.2417 -0.0029
 -0.1181 -0.2082  0.0016
 -0.2686 -0.0013  0.0046
 -0.1202  0.2071  0.0024
  0.1407  0.2433 -0.0019
 Enter nber and list of atoms to keep of mol #2
 keep list:          36           1           2           3           4
           5           6           7           8           9          10
          11          12          13          14          15          16
          17          18          19          20          21          22
          23          24          25          26          27          28
          29          30          31          32          33          34
          35          36
 reordering atoms
           1   1.87563194892580     
           2  0.651744609111732     
           3 -0.739796060597829     
           4  -1.45663578461025     
           5 -0.807270277464568     
           6  -1.52800888363824     
           7  -2.92032156729189     
           8  -3.59498431587296     
           9  -2.89367696157374     
          10  -3.56620609604750     
          11  -2.89373093836864     
          12  -3.59509021372353     
          13  -2.92047927434875     
          14  -1.52816842922163     
          15 -0.807376110861475     
          16  -1.45668936211650     
          17   3.28252127973129     
          18   4.00781540384514     
          19   5.39370995346218     
          20   6.09543250377480     
          21   5.39373703559590     
          22   4.00784154129066     
          23  0.275426861262366     
          24 -0.993820353040443     
          25  -3.48046750520362     
          26  -4.67955914653925     
          27  -4.65219551875482     
          28  -4.67966352456123     
          29  -3.48066650074760     
          30 -0.994021777298225     
          31  0.275320548531779     
          32   3.46404919434332     
          33   5.93421843933086     
          34   7.17925541504072     
          35   5.93426581318562     
          36   3.46409786870324     
           1           1
           2           2
           3           3
           4           4
           5           5
           6           6
           7           7
           8           8
           9           9
          10          10
          11          11
          12          12
          13          13
          14          14
          15          15
          16          16
          17          17
          18          18
          19          19
          20          20
          21          21
          22          22
          23          23
          24          24
          25          25
          26          26
          27          27
          28          28
          29          29
          30          30
          31          31
          32          32
          33          33
          34          34
          35          35
          36          36
 initial cartes coords mol 1
   6  -0.00039  -0.00009   1.87483
   6  -0.00024   0.00005   0.66232
   6  -0.00008   0.00002  -0.75629
   6   0.00059  -1.23224  -1.46465
   6   0.00126  -2.49461  -0.80222
   6   0.00191  -3.66559  -1.51021
   6   0.00195  -3.65364  -2.93176
   6   0.00138  -2.46532  -3.60540
   6   0.00072  -1.22053  -2.90429
   6   0.00025  -0.00005  -3.58413
   6  -0.00046   1.22047  -2.90433
   6  -0.00100   2.46522  -3.60551
   6  -0.00182   3.65358  -2.93192
   6  -0.00220   3.66559  -1.51037
   6  -0.00168   2.49464  -0.80232
   6  -0.00071   1.23225  -1.46470
   6  -0.00011  -0.00004   3.29693
   6   0.00821   1.21057   4.01517
   6   0.00837   1.20582   5.40430
   6   0.00029   0.00011   6.10482
   6  -0.00800  -1.20566   5.40443
   6  -0.00824  -1.21057   4.01530
   1   0.00135  -2.50970   0.28024
   1   0.00245  -4.61424  -0.98528
   1   0.00246  -4.59129  -3.47585
   1   0.00145  -2.44507  -4.69011
   1   0.00039  -0.00007  -4.66971
   1  -0.00077   2.44493  -4.69021
   1  -0.00224   4.59121  -3.47605
   1  -0.00295   4.61427  -0.98548
   1  -0.00209   2.50978   0.28013
   1   0.01461   2.14746   3.47146
   1   0.01486   2.14660   5.94313
   1   0.00045   0.00017   7.18875
   1  -0.01434  -2.14638   5.94336
   1  -0.01483  -2.14752   3.47169
 initial cartes coords mol 2
   6  -0.00008   0.00001   1.87563
   6  -0.00013   0.00003   0.65174
   6  -0.00007   0.00002  -0.73980
   6  -0.00001  -1.25946  -1.45664
   6   0.00005  -2.50136  -0.80727
   6   0.00011  -3.70456  -1.52801
   6   0.00009  -3.68601  -2.92032
   6   0.00001  -2.46532  -3.59498
   6  -0.00003  -1.23790  -2.89368
   6  -0.00007  -0.00005  -3.56621
   6  -0.00005   1.23783  -2.89373
   6  -0.00002   2.46522  -3.59509
   6   0.00005   3.68594  -2.92048
   6   0.00009   3.70456  -1.52817
   6   0.00005   2.50139  -0.80738
   6  -0.00002   1.25946  -1.45669
   6  -0.00005   0.00002   3.28252
   6   0.00005   1.21574   4.00782
   6   0.00009   1.20820   5.39371
   6   0.00004   0.00005   6.09543
   6  -0.00003  -1.20812   5.39374
   6  -0.00007  -1.21569   4.00784
   1   0.00007  -2.52619   0.27543
   1   0.00017  -4.64754  -0.99382
   1   0.00012  -4.61383  -3.48047
   1  -0.00001  -2.44394  -4.67956
   1  -0.00009  -0.00007  -4.65220
   1  -0.00005   2.44380  -4.67966
   1   0.00007   4.61374  -3.48067
   1   0.00014   4.64756  -0.99402
   1   0.00009   2.52626   0.27532
   1   0.00009   2.15260   3.46405
   1   0.00016   2.14812   5.93422
   1   0.00007   0.00006   7.17926
   1  -0.00005  -2.14803   5.93427
   1  -0.00011  -2.15256   3.46410
 loop 1 0
 mod cartes coords mol 2
   6  -0.00008   0.00001   1.87563
   6  -0.00013   0.00003   0.65174
   6  -0.00007   0.00002  -0.73980
   6  -0.00001  -1.25946  -1.45664
   6   0.00005  -2.50136  -0.80727
   6   0.00011  -3.70456  -1.52801
   6   0.00009  -3.68601  -2.92032
   6   0.00001  -2.46532  -3.59498
   6  -0.00003  -1.23790  -2.89368
   6  -0.00007  -0.00005  -3.56621
   6  -0.00005   1.23783  -2.89373
   6  -0.00002   2.46522  -3.59509
   6   0.00005   3.68594  -2.92048
   6   0.00009   3.70456  -1.52817
   6   0.00005   2.50139  -0.80738
   6  -0.00002   1.25946  -1.45669
   6  -0.00005   0.00002   3.28252
   6   0.00005   1.21574   4.00782
   6   0.00009   1.20820   5.39371
   6   0.00004   0.00005   6.09543
   6  -0.00003  -1.20812   5.39374
   6  -0.00007  -1.21569   4.00784
   1   0.00007  -2.52619   0.27543
   1   0.00017  -4.64754  -0.99382
   1   0.00012  -4.61383  -3.48047
   1  -0.00001  -2.44394  -4.67956
   1  -0.00009  -0.00007  -4.65220
   1  -0.00005   2.44380  -4.67966
   1   0.00007   4.61374  -3.48067
   1   0.00014   4.64756  -0.99402
   1   0.00009   2.52626   0.27532
   1   0.00009   2.15260   3.46405
   1   0.00016   2.14812   5.93422
   1   0.00007   0.00006   7.17926
   1  -0.00005  -2.14803   5.93427
   1  -0.00011  -2.15256   3.46410
 read in order, maxerr=  0.04 for atom  14
 final axis swaps:           1           1           1
 final xyz swap pattern=           1
 reorder list:
   1   2   3   4   5   6   7   8   9  10  11  12  13  14  15  16  17  18  19  20
  21  22  23  24  25  26  27  28  29  30  31  32  33  34  35  36
 axis signs=           1           1           1
  6    -0.000084  0.000012  1.875632    -0.000394 -0.000086  1.874830
  6    -0.000133  0.000033  0.651745    -0.000240  0.000047  0.662320
  6    -0.000069  0.000016 -0.739796    -0.000083  0.000019 -0.756288
  6    -0.000012 -1.259464 -1.456636     0.000592 -1.232244 -1.464646
  6     0.000054 -2.501360 -0.807270     0.001261 -2.494606 -0.802216
  6     0.000107 -3.704560 -1.528009     0.001914 -3.665587 -1.510213
  6     0.000085 -3.686010 -2.920322     0.001951 -3.653639 -2.931762
  6     0.000014 -2.465319 -3.594984     0.001384 -2.465317 -3.605404
  6    -0.000031 -1.237897 -2.893677     0.000718 -1.220527 -2.904285
  6    -0.000070 -0.000048 -3.566206     0.000249 -0.000045 -3.584126
  6    -0.000047  1.237829 -2.893731    -0.000456  1.220466 -2.904334
  6    -0.000017  2.465223 -3.595090    -0.001000  2.465223 -3.605509
  6     0.000049  3.685942 -2.920479    -0.001824  3.653577 -2.931920
  6     0.000085  3.704557 -1.528168    -0.002205  3.665589 -1.510373
  6     0.000051  2.501387 -0.807376    -0.001684  2.494638 -0.802322
  6    -0.000020  1.259465 -1.456689    -0.000706  1.232253 -1.464696
  6    -0.000050  0.000017  3.282521    -0.000107 -0.000038  3.296932
  6     0.000051  1.215735  4.007815     0.008209  1.210574  4.015172
  6     0.000092  1.208202  5.393710     0.008373  1.205815  5.404297
  6     0.000042  0.000048  6.095433     0.000293  0.000114  6.104816
  6    -0.000031 -1.208120  5.393737    -0.008002 -1.205658  5.404426
  6    -0.000068 -1.215686  4.007842    -0.008244 -1.210570  4.015300
  1     0.000069 -2.526185  0.275427     0.001347 -2.509696  0.280240
  1     0.000169 -4.647538 -0.993820     0.002449 -4.614245 -0.985282
  1     0.000123 -4.613828 -3.480468     0.002460 -4.591293 -3.475847
  1    -0.000015 -2.443942 -4.679559     0.001447 -2.445070 -4.690110
  1    -0.000094 -0.000070 -4.652196     0.000388 -0.000068 -4.669714
  1    -0.000053  2.443800 -4.679664    -0.000768  2.444927 -4.690214
  1     0.000066  4.613736 -3.480667    -0.002238  4.591208 -3.476046
  1     0.000136  4.647560 -0.994022    -0.002953  4.614270 -0.985482
  1     0.000087  2.526256  0.275321    -0.002087  2.509776  0.280134
  1     0.000088  2.152598  3.464049     0.014612  2.147458  3.471458
  1     0.000160  2.148123  5.934218     0.014858  2.146598  5.943129
  1     0.000074  0.000059  7.179255     0.000448  0.000168  7.188746
  1    -0.000055 -2.148030  5.934266    -0.014342 -2.146384  5.943360
  1    -0.000114 -2.152563  3.464098    -0.014825 -2.147517  3.471694
 generating redundant internal coords
         300        3600          36
 Adding extra bonds for z output only
           6           6           6           6           6           6
           6           6           6           6           6           6
           6           6           6           6           6           6
           6           6           6           6           1           1
           1           1           1           1           1           1
           1           1           1           1           1           1
 search for int coords
   1 str   2   1   1.224
   2 str   3   2   1.392
   3 str   4   3   1.449
   4 str   5   4   1.401
   5 str   6   5   1.403
   6 str   7   6   1.392
   7 str   8   7   1.395
   8 str   9   4   1.437
   9 str   9   8   1.414
  10 str  10   9   1.409
  11 str  11  10   1.409
  12 str  12  11   1.414
  13 str  13  12   1.395
  14 str  14  13   1.392
  15 str  15  14   1.403
  16 str  16   3   1.449
  17 str  16  11   1.437
  18 str  16  15   1.401
  19 str  17   1   1.407
  20 str  18  17   1.416
  21 str  19  18   1.386
  22 str  20  19   1.397
  23 str  21  20   1.397
  24 str  22  17   1.416
  25 str  22  21   1.386
  26 str  23   5   1.083
  27 str  24   6   1.084
  28 str  25   7   1.084
  29 str  26   8   1.085
  30 str  27  10   1.086
  31 str  28  12   1.085
  32 str  29  13   1.084
  33 str  30  14   1.084
  34 str  31  15   1.083
  35 str  32  18   1.083
  36 str  33  19   1.084
  37 str  34  20   1.084
  38 str  35  21   1.084
  39 str  36  22   1.083
 nber stretches=          39
  40 lin ben   1   2   3
  42 ben   1  17  18
  43 prop tor   1  17  18  19
  44 prop tor   1  17  18  32
  45 ben   1  17  22
  46 prop tor   1  17  22  21
  47 prop tor   1  17  22  36
 Extend lin bond           1          17           2           3
  48 lin ben   2   1  17
  50 ben   2   3   4
  51 prop tor   2   3   4   5
  52 prop tor   2   3   4   9
  53 ben   2   3  16
  54 prop tor   2   3  16  11
  55 prop tor   2   3  16  15
  56 ben   3   4   5
  57 prop tor   3   4   5   6
  58 prop tor   3   4   5  23
  59 ben   3   4   9
  60 prop tor   3   4   9   8
  61 prop tor   3   4   9  10
  62 ben   3  16  11
  63 ben   3  16  15
  64 ben   4   3  16
  65 prop tor   4   3  16  11
  66 prop tor   4   3  16  15
  67 ben   4   5   6
  68 prop tor   4   5   6   7
  69 prop tor   4   5   6  24
  70 ben   4   5  23
  71 ben   4   9   8
  72 ben   4   9  10
  73 prop tor   4   9  10  11
  74 prop tor   4   9  10  27
  75 ben   5   4   9
  76 prop tor   5   4   9   8
  77 prop tor   5   4   9  10
  78 ben   5   6   7
  79 prop tor   5   6   7   8
  80 prop tor   5   6   7  25
  81 ben   5   6  24
  82 ben   6   5  23
  83 ben   6   7   8
  84 prop tor   6   7   8   9
  85 prop tor   6   7   8  26
  86 ben   6   7  25
  87 ben   7   6  24
  88 ben   7   8   9
  89 prop tor   7   8   9   4
  90 prop tor   7   8   9  10
  91 ben   7   8  26
  92 ben   8   7  25
  93 ben   8   9  10
  94 prop tor   8   9  10  11
  95 prop tor   8   9  10  27
  96 prop tor   9   4   5   6
  97 prop tor   9   4   5  23
  98 ben   9   8  26
  99 ben   9  10  11
 100 prop tor   9  10  11  12
 101 prop tor   9  10  11  16
 102 ben   9  10  27
 103 ben  10  11  12
 104 prop tor  10  11  12  13
 105 prop tor  10  11  12  28
 106 ben  10  11  16
 107 prop tor  10  11  16   3
 108 prop tor  10  11  16  15
 109 ben  11  10  27
 110 ben  11  12  13
 111 prop tor  11  12  13  14
 112 prop tor  11  12  13  29
 113 ben  11  12  28
 114 ben  11  16  15
 115 ben  12  11  16
 116 prop tor  12  11  16   3
 117 prop tor  12  11  16  15
 118 ben  12  13  14
 119 prop tor  12  13  14  15
 120 prop tor  12  13  14  30
 121 ben  12  13  29
 122 ben  13  12  28
 123 ben  13  14  15
 124 prop tor  13  14  15  16
 125 prop tor  13  14  15  31
 126 ben  13  14  30
 127 ben  14  13  29
 128 ben  14  15  16
 129 prop tor  14  15  16   3
 130 prop tor  14  15  16  11
 131 ben  14  15  31
 132 ben  15  14  30
 133 prop tor  16   3   4   5
 134 prop tor  16   3   4   9
 135 prop tor  16  11  12  13
 136 prop tor  16  11  12  28
 137 ben  16  15  31
 138 ben  17  18  19
 139 prop tor  17  18  19  20
 140 prop tor  17  18  19  33
 141 ben  17  18  32
 142 ben  17  22  21
 143 ben  17  22  36
 144 ben  18  17  22
 145 prop tor  18  17  22  21
 146 prop tor  18  17  22  36
 147 ben  18  19  20
 148 prop tor  18  19  20  21
 149 prop tor  18  19  20  34
 150 ben  18  19  33
 151 ben  19  18  32
 152 ben  19  20  21
 153 prop tor  19  20  21  22
 154 prop tor  19  20  21  35
 155 ben  19  20  34
 156 ben  20  19  33
 157 ben  20  21  22
 158 prop tor  20  21  22  17
 159 prop tor  20  21  22  36
 160 ben  20  21  35
 161 ben  21  20  34
 162 ben  21  22  36
 163 prop tor  22  17  18  19
 164 prop tor  22  17  18  32
 165 ben  22  21  35
 166 prop tor  23   5   6   7
 167 prop tor  23   5   6  24
 168 prop tor  24   6   7   8
 169 prop tor  24   6   7  25
 170 prop tor  25   7   8   9
 171 prop tor  25   7   8  26
 172 prop tor  26   8   9   4
 173 prop tor  26   8   9  10
 174 prop tor  27  10  11  12
 175 prop tor  27  10  11  16
 176 prop tor  28  12  13  14
 177 prop tor  28  12  13  29
 178 prop tor  29  13  14  15
 179 prop tor  29  13  14  30
 180 prop tor  30  14  15  16
 181 prop tor  30  14  15  31
 182 prop tor  31  15  16   3
 183 prop tor  31  15  16  11
 184 prop tor  32  18  19  20
 185 prop tor  32  18  19  33
 186 prop tor  33  19  20  21
 187 prop tor  33  19  20  34
 188 prop tor  34  20  21  22
 189 prop tor  34  20  21  35
 190 prop tor  35  21  22  17
 191 prop tor  35  21  22  36
 192 lin bend prop tor  18  17   3   4
 193 lin bend prop tor  18  17   3  16
 194 lin bend prop tor  22  17   3   4
 195 lin bend prop tor  22  17   3  16
 nber bend=              64
 nber lin bend=           1
 nber prop tor=          92
 nber impr tor=           0
 nber tot redund int=         195
 generating redundant internal coords
         300        3600          36
 search for int coords
   1 str   2   1   1.213
   2 str   3   2   1.419
   3 str   4   3   1.421
   4 str   5   4   1.426
   5 str   6   5   1.368
   6 str   7   6   1.422
   7 str   8   7   1.366
   8 str   9   4   1.440
   9 str   9   8   1.429
  10 str  10   9   1.397
  11 str  11  10   1.397
  12 str  12  11   1.429
  13 str  13  12   1.366
  14 str  14  13   1.422
  15 str  15  14   1.368
  16 str  16   3   1.421
  17 str  16  11   1.440
  18 str  16  15   1.426
  19 str  17   1   1.422
  20 str  18  17   1.408
  21 str  19  18   1.389
  22 str  20  19   1.394
  23 str  21  20   1.394
  24 str  22  17   1.408
  25 str  22  21   1.389
  26 str  23   5   1.083
  27 str  24   6   1.084
  28 str  25   7   1.084
  29 str  26   8   1.085
  30 str  27  10   1.086
  31 str  28  12   1.085
  32 str  29  13   1.084
  33 str  30  14   1.084
  34 str  31  15   1.083
  35 str  32  18   1.083
  36 str  33  19   1.084
  37 str  34  20   1.084
  38 str  35  21   1.084
  39 str  36  22   1.083
 nber stretches=          39
  40 lin ben   1   2   3
  42 ben   1  17  18
  43 prop tor   1  17  18  19
  44 prop tor   1  17  18  32
  45 ben   1  17  22
  46 prop tor   1  17  22  21
  47 prop tor   1  17  22  36
 Extend lin bond           1          17           2           3
  48 lin ben   2   1  17
  50 ben   2   3   4
  51 prop tor   2   3   4   5
  52 prop tor   2   3   4   9
  53 ben   2   3  16
  54 prop tor   2   3  16  11
  55 prop tor   2   3  16  15
  56 ben   3   4   5
  57 prop tor   3   4   5   6
  58 prop tor   3   4   5  23
  59 ben   3   4   9
  60 prop tor   3   4   9   8
  61 prop tor   3   4   9  10
  62 ben   3  16  11
  63 ben   3  16  15
  64 ben   4   3  16
  65 prop tor   4   3  16  11
  66 prop tor   4   3  16  15
  67 ben   4   5   6
  68 prop tor   4   5   6   7
  69 prop tor   4   5   6  24
  70 ben   4   5  23
  71 ben   4   9   8
  72 ben   4   9  10
  73 prop tor   4   9  10  11
  74 prop tor   4   9  10  27
  75 ben   5   4   9
  76 prop tor   5   4   9   8
  77 prop tor   5   4   9  10
  78 ben   5   6   7
  79 prop tor   5   6   7   8
  80 prop tor   5   6   7  25
  81 ben   5   6  24
  82 ben   6   5  23
  83 ben   6   7   8
  84 prop tor   6   7   8   9
  85 prop tor   6   7   8  26
  86 ben   6   7  25
  87 ben   7   6  24
  88 ben   7   8   9
  89 prop tor   7   8   9   4
  90 prop tor   7   8   9  10
  91 ben   7   8  26
  92 ben   8   7  25
  93 ben   8   9  10
  94 prop tor   8   9  10  11
  95 prop tor   8   9  10  27
  96 prop tor   9   4   5   6
  97 prop tor   9   4   5  23
  98 ben   9   8  26
  99 ben   9  10  11
 100 prop tor   9  10  11  12
 101 prop tor   9  10  11  16
 102 ben   9  10  27
 103 ben  10  11  12
 104 prop tor  10  11  12  13
 105 prop tor  10  11  12  28
 106 ben  10  11  16
 107 prop tor  10  11  16   3
 108 prop tor  10  11  16  15
 109 ben  11  10  27
 110 ben  11  12  13
 111 prop tor  11  12  13  14
 112 prop tor  11  12  13  29
 113 ben  11  12  28
 114 ben  11  16  15
 115 ben  12  11  16
 116 prop tor  12  11  16   3
 117 prop tor  12  11  16  15
 118 ben  12  13  14
 119 prop tor  12  13  14  15
 120 prop tor  12  13  14  30
 121 ben  12  13  29
 122 ben  13  12  28
 123 ben  13  14  15
 124 prop tor  13  14  15  16
 125 prop tor  13  14  15  31
 126 ben  13  14  30
 127 ben  14  13  29
 128 ben  14  15  16
 129 prop tor  14  15  16   3
 130 prop tor  14  15  16  11
 131 ben  14  15  31
 132 ben  15  14  30
 133 prop tor  16   3   4   5
 134 prop tor  16   3   4   9
 135 prop tor  16  11  12  13
 136 prop tor  16  11  12  28
 137 ben  16  15  31
 138 ben  17  18  19
 139 prop tor  17  18  19  20
 140 prop tor  17  18  19  33
 141 ben  17  18  32
 142 ben  17  22  21
 143 ben  17  22  36
 144 ben  18  17  22
 145 prop tor  18  17  22  21
 146 prop tor  18  17  22  36
 147 ben  18  19  20
 148 prop tor  18  19  20  21
 149 prop tor  18  19  20  34
 150 ben  18  19  33
 151 ben  19  18  32
 152 ben  19  20  21
 153 prop tor  19  20  21  22
 154 prop tor  19  20  21  35
 155 ben  19  20  34
 156 ben  20  19  33
 157 ben  20  21  22
 158 prop tor  20  21  22  17
 159 prop tor  20  21  22  36
 160 ben  20  21  35
 161 ben  21  20  34
 162 ben  21  22  36
 163 prop tor  22  17  18  19
 164 prop tor  22  17  18  32
 165 ben  22  21  35
 166 prop tor  23   5   6   7
 167 prop tor  23   5   6  24
 168 prop tor  24   6   7   8
 169 prop tor  24   6   7  25
 170 prop tor  25   7   8   9
 171 prop tor  25   7   8  26
 172 prop tor  26   8   9   4
 173 prop tor  26   8   9  10
 174 prop tor  27  10  11  12
 175 prop tor  27  10  11  16
 176 prop tor  28  12  13  14
 177 prop tor  28  12  13  29
 178 prop tor  29  13  14  15
 179 prop tor  29  13  14  30
 180 prop tor  30  14  15  16
 181 prop tor  30  14  15  31
 182 prop tor  31  15  16   3
[...]
  6.264431847347169E-005  1.172760155071702E-006
  7.374415390454627E-005  1.172760155071702E-006
  7.533163759009777E-005  1.172760155071702E-006
  7.562259572911963E-005  1.172760155071702E-006
  9.297751713849086E-005  1.172760155071702E-006
  9.996241691951149E-005  1.172760155071702E-006
  1.001237386805205E-004  1.172760155071702E-006
  1.136342583083512E-004  1.172760155071702E-006
  1.174701104134446E-004  1.172760155071702E-006
  1.211055929045413E-004  1.172760155071702E-006
  1.252560089587365E-004  1.172760155071702E-006
  1.385160478929915E-004  1.172760155071702E-006
  1.482810069934663E-004  1.172760155071702E-006
  1.595401693082839E-004  1.172760155071702E-006
  1.824227344866935E-004  1.172760155071702E-006
  2.054104978574017E-004  1.172760155071702E-006
  2.177503144198892E-004  1.172760155071702E-006
  2.356253075276098E-004  1.172760155071702E-006
  2.625453420883095E-004  1.172760155071702E-006
  2.707637546973361E-004  1.172760155071702E-006
  2.709653435537317E-004  1.172760155071702E-006
  3.161132620217130E-004  1.172760155071702E-006
  3.204558346573649E-004  1.172760155071702E-006
  3.395135867799919E-004  1.172760155071702E-006
  3.667432028908674E-004  1.172760155071702E-006
  3.810682972467457E-004  1.172760155071702E-006
  3.899740284181073E-004  1.172760155071702E-006
  4.054578417543702E-004  1.172760155071702E-006
  4.179730321831221E-004  1.172760155071702E-006
  4.549963103421421E-004  1.172760155071702E-006
  5.197089217472450E-004  1.172760155071702E-006
  5.316025445421779E-004  1.172760155071702E-006
  5.930540268864547E-004  1.172760155071702E-006
  5.931499314386489E-004  1.172760155071702E-006
  5.931529289500572E-004  1.172760155071702E-006
  5.932693342191567E-004  1.172760155071702E-006
  5.970352717812160E-004  1.172760155071702E-006
  5.971364976190660E-004  1.172760155071702E-006
  6.043637459836895E-004  1.172760155071702E-006
  6.138746240290513E-004  1.172760155071702E-006
  6.175223139649217E-004  1.172760155071702E-006
  6.192518785962882E-004  1.172760155071702E-006
  6.362872663351559E-004  1.172760155071702E-006
  6.543623203209567E-004  1.172760155071702E-006
  6.579188231455654E-004  1.172760155071702E-006
  6.604973678206733E-004  1.172760155071702E-006
  7.477332856684071E-004  1.172760155071702E-006
  7.770138768191824E-004  1.172760155071702E-006
  8.413986093608624E-004  1.172760155071702E-006
  9.773791007893975E-004  1.172760155071702E-006
  1.037990363493697E-003  1.172760155071702E-006
  1.051421105175118E-003  1.172760155071702E-006
  1.053150009408635E-003  1.172760155071702E-006
  1.109171646214227E-003  1.172760155071702E-006
  1.114805705619553E-003  1.172760155071702E-006
  1.116517890971796E-003  1.172760155071702E-006
  1.123213722535515E-003  1.172760155071702E-006
  1.137832012781213E-003  1.172760155071702E-006
  1.162499564582384E-003  1.172760155071702E-006
  1.162587334694577E-003  1.172760155071702E-006
  1.171234699839246E-003  1.172760155071702E-006
  1.171241983429318E-003  1.172760155071702E-006
  1.171542390212514E-003  1.172760155071702E-006
  1.172369352261625E-003  1.172760155071702E-006
  1.191703721557684E-003  1.172760155071702E-006
  1.433807036768705E-003  1.172760155071702E-006
  1.757909511153885E-003  1.172760155071702E-006
  1.778494687507259E-003  1.172760155071702E-006
  1.794054662264321E-003  1.172760155071702E-006
  1.796289637063890E-003  1.172760155071702E-006
  2.205646361022744E-003  1.172760155071702E-006
  2.341411438626400E-003  1.172760155071702E-006
  2.650842030681309E-003  1.172760155071702E-006
  2.670468431801513E-003  1.172760155071702E-006
  3.105197479807381E-003  1.172760155071702E-006
  3.119329033552056E-003  1.172760155071702E-006
  3.511182560962678E-003  1.172760155071702E-006
  3.570945577061128E-003  1.172760155071702E-006
  3.749333760892717E-003  1.172760155071702E-006
  4.006765535130609E-003  1.172760155071702E-006
  4.013769818158993E-003  1.172760155071702E-006
  4.068849367087345E-003  1.172760155071702E-006
   2027.98233423483       1.172760155071702E-006
   8182.48179167878       1.172760155071702E-006
 cut=1d-8, nber non-redundant internal coords=         102
 Check on Eigenvals of non-red overlap matrix:
  0.00000117  0.00000228  0.00000681  0.00000900  0.00000927  0.00001004  0.00002493  0.00002810
  0.00002966  0.00003069  0.00003526  0.00004514  0.00004566  0.00004960  0.00005207  0.00005494
  0.00005613  0.00006026  0.00006264  0.00007374  0.00007533  0.00007562  0.00009298  0.00009996
  0.00010012  0.00011363  0.00011747  0.00012111  0.00012526  0.00013852  0.00014828  0.00015954
  0.00018242  0.00020541  0.00021775  0.00023563  0.00026255  0.00027076  0.00027097  0.00031611
  0.00032046  0.00033951  0.00036674  0.00038107  0.00038997  0.00040546  0.00041797  0.00045500
  0.00051971  0.00053160  0.00059305  0.00059315  0.00059315  0.00059327  0.00059704  0.00059714
  0.00060436  0.00061387  0.00061752  0.00061925  0.00063629  0.00065436  0.00065792  0.00066050
  0.00074773  0.00077701  0.00084140  0.00097738  0.00103799  0.00105142  0.00105315  0.00110917
  0.00111481  0.00111652  0.00112321  0.00113783  0.00116250  0.00116259  0.00117123  0.00117124
  0.00117154  0.00117237  0.00119170  0.00143381  0.00175791  0.00177849  0.00179405  0.00179629
  0.00220565  0.00234141  0.00265084  0.00267047  0.00310520  0.00311933  0.00351118  0.00357095
  0.00374933  0.00400677  0.00401377  0.00406885************************
 generating redundant internal coords
         300        3600          36
 search for int coords
   1 str   2   1   1.224
   2 str   3   2   1.392
   3 str   4   3   1.449
   4 str   5   4   1.401
   5 str   6   5   1.403
   6 str   7   6   1.392
   7 str   8   7   1.395
   8 str   9   4   1.437
   9 str   9   8   1.414
  10 str  10   9   1.409
  11 str  11  10   1.409
  12 str  12  11   1.414
  13 str  13  12   1.395
  14 str  14  13   1.392
  15 str  15  14   1.403
  16 str  16   3   1.449
  17 str  16  11   1.437
  18 str  16  15   1.401
  19 str  17   1   1.407
  20 str  18  17   1.416
  21 str  19  18   1.386
  22 str  20  19   1.397
  23 str  21  20   1.397
  24 str  22  17   1.416
  25 str  22  21   1.386
  26 str  23   5   1.083
  27 str  24   6   1.084
  28 str  25   7   1.084
  29 str  26   8   1.085
  30 str  27  10   1.086
  31 str  28  12   1.085
  32 str  29  13   1.084
  33 str  30  14   1.084
  34 str  31  15   1.083
  35 str  32  18   1.083
  36 str  33  19   1.084
  37 str  34  20   1.084
  38 str  35  21   1.084
  39 str  36  22   1.083
 nber stretches=          39
  40 lin ben   1   2   3
  42 ben   1  17  18
  43 prop tor   1  17  18  19
  44 prop tor   1  17  18  32
  45 ben   1  17  22
  46 prop tor   1  17  22  21
  47 prop tor   1  17  22  36
 Extend lin bond           1          17           2           3
  48 lin ben   2   1  17
  50 ben   2   3   4
  51 prop tor   2   3   4   5
  52 prop tor   2   3   4   9
  53 ben   2   3  16
  54 prop tor   2   3  16  11
  55 prop tor   2   3  16  15
  56 ben   3   4   5
  57 prop tor   3   4   5   6
  58 prop tor   3   4   5  23
  59 ben   3   4   9
  60 prop tor   3   4   9   8
  61 prop tor   3   4   9  10
  62 ben   3  16  11
  63 ben   3  16  15
  64 ben   4   3  16
  65 prop tor   4   3  16  11
  66 prop tor   4   3  16  15
  67 ben   4   5   6
  68 prop tor   4   5   6   7
  69 prop tor   4   5   6  24
  70 ben   4   5  23
  71 ben   4   9   8
  72 ben   4   9  10
  73 prop tor   4   9  10  11
  74 prop tor   4   9  10  27
  75 ben   5   4   9
  76 prop tor   5   4   9   8
  77 prop tor   5   4   9  10
  78 ben   5   6   7
  79 prop tor   5   6   7   8
  80 prop tor   5   6   7  25
  81 ben   5   6  24
  82 ben   6   5  23
  83 ben   6   7   8
  84 prop tor   6   7   8   9
  85 prop tor   6   7   8  26
  86 ben   6   7  25
  87 ben   7   6  24
  88 ben   7   8   9
  89 prop tor   7   8   9   4
  90 prop tor   7   8   9  10
  91 ben   7   8  26
  92 ben   8   7  25
  93 ben   8   9  10
  94 prop tor   8   9  10  11
  95 prop tor   8   9  10  27
  96 prop tor   9   4   5   6
  97 prop tor   9   4   5  23
  98 ben   9   8  26
  99 ben   9  10  11
 100 prop tor   9  10  11  12
 101 prop tor   9  10  11  16
 102 ben   9  10  27
 103 ben  10  11  12
 104 prop tor  10  11  12  13
 105 prop tor  10  11  12  28
 106 ben  10  11  16
 107 prop tor  10  11  16   3
 108 prop tor  10  11  16  15
 109 ben  11  10  27
 110 ben  11  12  13
 111 prop tor  11  12  13  14
 112 prop tor  11  12  13  29
 113 ben  11  12  28
 114 ben  11  16  15
 115 ben  12  11  16
 116 prop tor  12  11  16   3
 117 prop tor  12  11  16  15
 118 ben  12  13  14
 119 prop tor  12  13  14  15
 120 prop tor  12  13  14  30
 121 ben  12  13  29
 122 ben  13  12  28
 123 ben  13  14  15
 124 prop tor  13  14  15  16
 125 prop tor  13  14  15  31
 126 ben  13  14  30
 127 ben  14  13  29
 128 ben  14  15  16
 129 prop tor  14  15  16   3
 130 prop tor  14  15  16  11
 131 ben  14  15  31
 132 ben  15  14  30
 133 prop tor  16   3   4   5
 134 prop tor  16   3   4   9
 135 prop tor  16  11  12  13
 136 prop tor  16  11  12  28
 137 ben  16  15  31
 138 ben  17  18  19
 139 prop tor  17  18  19  20
 140 prop tor  17  18  19  33
 141 ben  17  18  32
 142 ben  17  22  21
 143 ben  17  22  36
 144 ben  18  17  22
 145 prop tor  18  17  22  21
 146 prop tor  18  17  22  36
 147 ben  18  19  20
 148 prop tor  18  19  20  21
 149 prop tor  18  19  20  34
 150 ben  18  19  33
 151 ben  19  18  32
 152 ben  19  20  21
 153 prop tor  19  20  21  22
 154 prop tor  19  20  21  35
 155 ben  19  20  34
 156 ben  20  19  33
 157 ben  20  21  22
 158 prop tor  20  21  22  17
 159 prop tor  20  21  22  36
 160 ben  20  21  35
 161 ben  21  20  34
 162 ben  21  22  36
 163 prop tor  22  17  18  19
 164 prop tor  22  17  18  32
 165 ben  22  21  35
 166 prop tor  23   5   6   7
 167 prop tor  23   5   6  24
 168 prop tor  24   6   7   8
 169 prop tor  24   6   7  25
 170 prop tor  25   7   8   9
 171 prop tor  25   7   8  26
 172 prop tor  26   8   9   4
 173 prop tor  26   8   9  10
 174 prop tor  27  10  11  12
 175 prop tor  27  10  11  16
 176 prop tor  28  12  13  14
 177 prop tor  28  12  13  29
 178 prop tor  29  13  14  15
 179 prop tor  29  13  14  30
 180 prop tor  30  14  15  16
 181 prop tor  30  14  15  31
 182 prop tor  31  15  16   3
 183 prop tor  31  15  16  11
 184 prop tor  32  18  19  20
 185 prop tor  32  18  19  33
 186 prop tor  33  19  20  21
 187 prop tor  33  19  20  34
 188 prop tor  34  20  21  22
 189 prop tor  34  20  21  35
 190 prop tor  35  21  22  17
 191 prop tor  35  21  22  36
 192 lin bend prop tor  18  17   3   4
 193 lin bend prop tor  18  17   3  16
 194 lin bend prop tor  22  17   3   4
 195 lin bend prop tor  22  17   3  16
 nber bend=              64
 nber lin bend=           1
 nber prop tor=          92
 nber impr tor=           0
 nber tot redund int=         195
 Eigenvalues of G in red int coords
    Gval -0.00000000 -0.00000000 -0.00000000 -0.00000000 -0.00000000 -0.00000000 -0.00000000 -0.00000000
    Gval -0.00000000 -0.00000000 -0.00000000 -0.00000000 -0.00000000 -0.00000000 -0.00000000 -0.00000000
    Gval -0.00000000 -0.00000000 -0.00000000 -0.00000000 -0.00000000 -0.00000000 -0.00000000 -0.00000000
    Gval -0.00000000 -0.00000000 -0.00000000 -0.00000000 -0.00000000 -0.00000000 -0.00000000 -0.00000000
    Gval -0.00000000 -0.00000000 -0.00000000 -0.00000000 -0.00000000 -0.00000000 -0.00000000 -0.00000000
    Gval -0.00000000 -0.00000000 -0.00000000 -0.00000000 -0.00000000 -0.00000000 -0.00000000  0.00000000
    Gval  0.00000000  0.00000000  0.00000000  0.00000000  0.00000000  0.00000000  0.00000000  0.00000000
    Gval  0.00000000  0.00000000  0.00000000  0.00000000  0.00000000  0.00000000  0.00000000  0.00000000
    Gval  0.00000000  0.00000000  0.00000000  0.00000000  0.00000000  0.00000000  0.00000000  0.00000000
    Gval  0.00000000  0.00000000  0.00000000  0.00000000  0.00000000  0.00000000  0.00000000  0.00000000
    Gval  0.00000000  0.00000000  0.00000000  0.00000000  0.00000000  0.00000000  0.00000000  0.00000000
    Gval  0.00000000  0.00000000  0.00000000  0.00000000  0.00000000  0.00000050  0.00000227  0.00000470
    Gval  0.00000623  0.00000919  0.00001005  0.00002253  0.00002796  0.00002956  0.00003029  0.00003179
    Gval  0.00003971  0.00004510  0.00004877  0.00004971  0.00005516  0.00005602  0.00005778  0.00006264
    Gval  0.00007054  0.00007336  0.00007568  0.00008417  0.00009288  0.00010005  0.00010645  0.00011378
    Gval  0.00011880  0.00012498  0.00013256  0.00014813  0.00014836  0.00017685  0.00018027  0.00021521
    Gval  0.00021670  0.00022669  0.00026259  0.00026993  0.00028464  0.00031005  0.00032322  0.00035343
    Gval  0.00036527  0.00038253  0.00039361  0.00039885  0.00041678  0.00044654  0.00045308  0.00052070
    Gval  0.00052994  0.00059305  0.00059318  0.00059319  0.00059368  0.00059711  0.00059723  0.00060423
    Gval  0.00061353  0.00061773  0.00062406  0.00063582  0.00065408  0.00065749  0.00066011  0.00072816
    Gval  0.00077883  0.00082246  0.00096851  0.00103950  0.00105246  0.00105422  0.00110819  0.00111497
    Gval  0.00111881  0.00112135  0.00113906  0.00115730  0.00115743  0.00116462  0.00117151  0.00117201
    Gval  0.00117206  0.00117206  0.00140015  0.00173228  0.00178444  0.00179780  0.00180432  0.00216034
    Gval  0.00233593  0.00266232  0.00266992  0.00308885  0.00309931  0.00348503  0.00354484  0.00374772
    Gval  0.00401782  0.00402391  0.00406486
  4.982978349896912E-007  4.982978349896912E-007
  2.274749530302366E-006  4.982978349896912E-007
  4.697911722867116E-006  4.982978349896912E-007
  6.230204456011529E-006  4.982978349896912E-007
  9.193013245734109E-006  4.982978349896912E-007
  1.005009522743399E-005  4.982978349896912E-007
  2.253385623440070E-005  4.982978349896912E-007
  2.796491717034001E-005  4.982978349896912E-007
  2.955593476158744E-005  4.982978349896912E-007
  3.028511367652200E-005  4.982978349896912E-007
  3.179270083129406E-005  4.982978349896912E-007
  3.970671028948035E-005  4.982978349896912E-007
  4.510202570701824E-005  4.982978349896912E-007
  4.876920460536654E-005  4.982978349896912E-007
  4.971073218128467E-005  4.982978349896912E-007
  5.515923904638962E-005  4.982978349896912E-007
  5.602044900772093E-005  4.982978349896912E-007
  5.777540408099712E-005  4.982978349896912E-007
  6.264323693542716E-005  4.982978349896912E-007
  7.054412315501218E-005  4.982978349896912E-007
  7.336449462494912E-005  4.982978349896912E-007
  7.567676087412217E-005  4.982978349896912E-007
  8.416626796323742E-005  4.982978349896912E-007
  9.288106408168310E-005  4.982978349896912E-007
  1.000452310909194E-004  4.982978349896912E-007
  1.064540462867202E-004  4.982978349896912E-007
  1.137813433232958E-004  4.982978349896912E-007
  1.187959260824545E-004  4.982978349896912E-007
  1.249843176777614E-004  4.982978349896912E-007
  1.325598707664391E-004  4.982978349896912E-007
  1.481314193046575E-004  4.982978349896912E-007
  1.483627318808966E-004  4.982978349896912E-007
  1.768523468234602E-004  4.982978349896912E-007
  1.802690161779353E-004  4.982978349896912E-007
  2.152120611962846E-004  4.982978349896912E-007
  2.167032906836893E-004  4.982978349896912E-007
  2.266923789019233E-004  4.982978349896912E-007
  2.625897494774216E-004  4.982978349896912E-007
  2.699264928759696E-004  4.982978349896912E-007
  2.846363025011039E-004  4.982978349896912E-007
  3.100542650728606E-004  4.982978349896912E-007
  3.232215843048263E-004  4.982978349896912E-007
  3.534280446633145E-004  4.982978349896912E-007
  3.652651981432229E-004  4.982978349896912E-007
  3.825306701126073E-004  4.982978349896912E-007
  3.936084920913385E-004  4.982978349896912E-007
  3.988506437915497E-004  4.982978349896912E-007
  4.167806601483891E-004  4.982978349896912E-007
  4.465366035486993E-004  4.982978349896912E-007
  4.530758079295137E-004  4.982978349896912E-007
  5.206996933126940E-004  4.982978349896912E-007
  5.299392202429097E-004  4.982978349896912E-007
  5.930471232885959E-004  4.982978349896912E-007
  5.931824191913078E-004  4.982978349896912E-007
  5.931946321664056E-004  4.982978349896912E-007
  5.936837607362865E-004  4.982978349896912E-007
  5.971090076629702E-004  4.982978349896912E-007
  5.972292885174796E-004  4.982978349896912E-007
  6.042334580294101E-004  4.982978349896912E-007
  6.135287674704038E-004  4.982978349896912E-007
  6.177308724842790E-004  4.982978349896912E-007
  6.240586700870913E-004  4.982978349896912E-007
  6.358160249593071E-004  4.982978349896912E-007
  6.540828389105961E-004  4.982978349896912E-007
  6.574851469445867E-004  4.982978349896912E-007
  6.601065806010240E-004  4.982978349896912E-007
  7.281570494946339E-004  4.982978349896912E-007
  7.788342079035874E-004  4.982978349896912E-007
  8.224550574587877E-004  4.982978349896912E-007
  9.685077187271531E-004  4.982978349896912E-007
  1.039504133483334E-003  4.982978349896912E-007
  1.052456681515559E-003  4.982978349896912E-007
  1.054224967262884E-003  4.982978349896912E-007
  1.108187262787162E-003  4.982978349896912E-007
  1.114967406455112E-003  4.982978349896912E-007
  1.118808969723321E-003  4.982978349896912E-007
  1.121349523164546E-003  4.982978349896912E-007
  1.139063835602851E-003  4.982978349896912E-007
  1.157302829200038E-003  4.982978349896912E-007
  1.157431095197961E-003  4.982978349896912E-007
  1.164621954123119E-003  4.982978349896912E-007
  1.171512122570933E-003  4.982978349896912E-007
  1.172011687180905E-003  4.982978349896912E-007
  1.172056895150650E-003  4.982978349896912E-007
  1.172059114842108E-003  4.982978349896912E-007
  1.400148337636195E-003  4.982978349896912E-007
  1.732275462421309E-003  4.982978349896912E-007
  1.784437654221559E-003  4.982978349896912E-007
  1.797798704653814E-003  4.982978349896912E-007
  1.804324490655157E-003  4.982978349896912E-007
  2.160339723353954E-003  4.982978349896912E-007
  2.335932016431723E-003  4.982978349896912E-007
  2.662323897202294E-003  4.982978349896912E-007
  2.669915022861468E-003  4.982978349896912E-007
  3.088845039187258E-003  4.982978349896912E-007
  3.099305824573294E-003  4.982978349896912E-007
  3.485025353136174E-003  4.982978349896912E-007
  3.544841460029822E-003  4.982978349896912E-007
  3.747720560878031E-003  4.982978349896912E-007
  4.017819495837426E-003  4.982978349896912E-007
  4.023913484077686E-003  4.982978349896912E-007
  4.064859160258330E-003  4.982978349896912E-007
 cut=1d-8, nber non-redundant internal coords=         102
 Check on Eigenvals of non-red overlap matrix:
  0.00000050  0.00000227  0.00000470  0.00000623  0.00000919  0.00001005  0.00002253  0.00002796
  0.00002956  0.00003029  0.00003179  0.00003971  0.00004510  0.00004877  0.00004971  0.00005516
  0.00005602  0.00005778  0.00006264  0.00007054  0.00007336  0.00007568  0.00008417  0.00009288
  0.00010005  0.00010645  0.00011378  0.00011880  0.00012498  0.00013256  0.00014813  0.00014836
  0.00017685  0.00018027  0.00021521  0.00021670  0.00022669  0.00026259  0.00026993  0.00028464
  0.00031005  0.00032322  0.00035343  0.00036527  0.00038253  0.00039361  0.00039885  0.00041678
  0.00044654  0.00045308  0.00052070  0.00052994  0.00059305  0.00059318  0.00059319  0.00059368
  0.00059711  0.00059723  0.00060423  0.00061353  0.00061773  0.00062406  0.00063582  0.00065408
  0.00065749  0.00066011  0.00072816  0.00077883  0.00082246  0.00096851  0.00103950  0.00105246
  0.00105422  0.00110819  0.00111497  0.00111881  0.00112135  0.00113906  0.00115730  0.00115743
  0.00116462  0.00117151  0.00117201  0.00117206  0.00117206  0.00140015  0.00173228  0.00178444
  0.00179780  0.00180432  0.00216034  0.00233593  0.00266232  0.00266992  0.00308885  0.00309931
  0.00348503  0.00354484  0.00374772  0.00401782  0.00402391  0.00406486
 int defn changed for coord         192
           1          17           3           2
          18          17           3           4
