 Enter ifcurve (0=recti, 1=orth curvi, 2=apprx curvi, -1 = skip
 And atom ordering flag, 0= never changes, 1= use the first order thenceforth,
  2= deduce it (does read on fail), 3= always read it
 Reading file: 
 ./CDT-A_2_C0S1.log                                                             
                                          
  Entering Gaussian System, Link 0=g16                                          
  
 Gaussian format, type: g94, g98, g03= F F F
  #P Geom=AllCheck Guess=TCheck SCRF=Check GenChk RCAM-B3LYP TD(FC,Read)    
 energy type= TD      
 Original G94 input coords:
  6-19.110316-15.030368 -3.211892
  6-19.607467-13.868232 -3.781027
  6-18.832122-12.705303 -3.830039
  6-19.326383-11.487769 -4.392727
  6-18.562545-10.367789 -4.410896
  6-17.237553-10.365321 -3.890630
  6-16.441197 -9.206251 -3.887963
  6-15.154620 -9.235637 -3.421843
  6-14.552769-10.420084 -2.941270
  6-13.141035-10.393580 -2.615803
  6-12.265073-11.468798 -2.916993
  6-10.926983-11.409715 -2.649419
  6-10.339204-10.268092 -2.031314
  6 -8.963461-10.219131 -1.732756
  6 -7.977757-11.213765 -1.939222
  6 -6.725910-10.822836 -1.525463
  6 -5.338660-11.424258 -1.487354
  6 -4.541410-10.302404 -0.865916
  6 -3.208163-10.066181 -0.496411
  6 -3.037699 -8.820044  0.047898
 16 -4.512190 -7.904558  0.120302
  6 -5.375928 -9.217844 -0.593330
  6 -6.693835 -9.519284 -0.985703
 16 -8.241608 -8.764412 -0.992377
  6-11.216262 -9.183445 -1.743527
  6-12.549284 -9.243329 -2.037391
  6-15.367849-11.590810 -2.847512
  6-14.937168-12.785899 -2.193804
  6-15.717092-13.894865 -2.133574
  6-17.022375-13.918768 -2.707375
  6-17.835343-15.058849 -2.675290
  6-17.515192-12.728552 -3.298111
  6-16.698421-11.560136 -3.348785
  1-19.727405-15.920575 -3.181858
  1-20.610302-13.849365 -4.192465
  1-20.331979-11.475525 -4.797468
  1-18.952161 -9.445674 -4.827795
  1-16.849879 -8.286613 -4.291252
  1-14.550828 -8.340069 -3.493637
  1-12.657862-12.338629 -3.426341
  1-10.299575-12.243289 -2.937066
  1 -8.210508-12.174685 -2.373758
  1 -5.306253-12.338058 -0.886049
  1 -4.978654-11.683609 -2.487745
  1 -2.394441-10.768388 -0.616801
  1 -2.125429 -8.377252  0.415671
  1-10.824507 -8.292992 -1.266283
  1-13.180341 -8.404149 -1.772978
  1-13.973514-12.795301 -1.705313
  1-15.359778-14.782126 -1.622965
  1-17.453501-15.965643 -2.220136
 nber atoms=          51
  Total Energy, E(TD-HF/TD-DFT) =  -1988.04583754                               
  
          32          49 "  -1988.04583754"
After scan for Atom:   Atom  AN      X      Y      Z        X      Y      Z        X      Y      Z   
After scan for Atom:   Atom  AN      X      Y      Z        X      Y      Z        X      Y      Z   
After scan for Atom:   Atom  AN      X      Y      Z        X      Y      Z        X      Y      Z   
After scan for Atom:   Atom  AN      X      Y      Z        X      Y      Z        X      Y      Z   
After scan for Atom:   Atom  AN      X      Y      Z        X      Y      Z        X      Y      Z   
After scan for Atom:   Atom  AN      X      Y      Z        X      Y      Z        X      Y      Z   
After scan for Atom:   Atom  AN      X      Y      Z        X      Y      Z        X      Y      Z   
After scan for Atom:   Atom  AN      X      Y      Z        X      Y      Z        X      Y      Z   
After scan for Atom:   Atom  AN      X      Y      Z        X      Y      Z        X      Y      Z   
After scan for Atom:   Atom  AN      X      Y      Z        X      Y      Z        X      Y      Z   
After scan for Atom:   Atom  AN      X      Y      Z        X      Y      Z        X      Y      Z   
After scan for Atom:   Atom  AN      X      Y      Z        X      Y      Z        X      Y      Z   
After scan for Atom:   Atom  AN      X      Y      Z        X      Y      Z        X      Y      Z   
After scan for Atom:   Atom  AN      X      Y      Z        X      Y      Z        X      Y      Z   
After scan for Atom:   Atom  AN      X      Y      Z        X      Y      Z        X      Y      Z   
After scan for Atom:   Atom  AN      X      Y      Z        X      Y      Z        X      Y      Z   
After scan for Atom:   Atom  AN      X      Y      Z        X      Y      Z        X      Y      Z   
After scan for Atom:   Atom  AN      X      Y      Z        X      Y      Z        X      Y      Z   
After scan for Atom:   Atom  AN      X      Y      Z        X      Y      Z        X      Y      Z   
After scan for Atom:   Atom  AN      X      Y      Z        X      Y      Z        X      Y      Z   
After scan for Atom:   Atom  AN      X      Y      Z        X      Y      Z        X      Y      Z   
After scan for Atom:   Atom  AN      X      Y      Z        X      Y      Z        X      Y      Z   
After scan for Atom:   Atom  AN      X      Y      Z        X      Y      Z        X      Y      Z   
After scan for Atom:   Atom  AN      X      Y      Z        X      Y      Z        X      Y      Z   
After scan for Atom:   Atom  AN      X      Y      Z        X      Y      Z        X      Y      Z   
After scan for Atom:   Atom  AN      X      Y      Z        X      Y      Z        X      Y      Z   
After scan for Atom:   Atom  AN      X      Y      Z        X      Y      Z        X      Y      Z   
After scan for Atom:   Atom  AN      X      Y      Z        X      Y      Z        X      Y      Z   
After scan for Atom:   Atom  AN      X      Y      Z        X      Y      Z        X      Y      Z   
After scan for Atom:   Atom  AN      X      Y      Z        X      Y      Z        X      Y      Z   
After scan for Atom:   Atom  AN      X      Y      Z        X      Y      Z        X      Y      Z   
After scan for Atom:   Atom  AN      X      Y      Z        X      Y      Z        X      Y      Z   
After scan for Atom:   Atom  AN      X      Y      Z        X      Y      Z        X      Y      Z   
After scan for Atom:   Atom  AN      X      Y      Z        X      Y      Z        X      Y      Z   
After scan for Atom:   Atom  AN      X      Y      Z        X      Y      Z        X      Y      Z   
After scan for Atom:   Atom  AN      X      Y      Z        X      Y      Z        X      Y      Z   
After scan for Atom:   Atom  AN      X      Y      Z        X      Y      Z        X      Y      Z   
After scan for Atom:   Atom  AN      X      Y      Z        X      Y      Z        X      Y      Z   
After scan for Atom:   Atom  AN      X      Y      Z        X      Y      Z        X      Y      Z   
After scan for Atom:   Atom  AN      X      Y      Z        X      Y      Z        X      Y      Z   
After scan for Atom:   Atom  AN      X      Y      Z        X      Y      Z        X      Y      Z   
After scan for Atom:   Atom  AN      X      Y      Z        X      Y      Z        X      Y      Z   
After scan for Atom:   Atom  AN      X      Y      Z        X      Y      Z        X      Y      Z   
After scan for Atom:   Atom  AN      X      Y      Z        X      Y      Z        X      Y      Z   
After scan for Atom:   Atom  AN      X      Y      Z        X      Y      Z        X      Y      Z   
After scan for Atom:   Atom  AN      X      Y      Z        X      Y      Z        X      Y      Z   
After scan for Atom:   Atom  AN      X      Y      Z        X      Y      Z        X      Y      Z   
After scan for Atom:   Atom  AN      X      Y      Z        X      Y      Z        X      Y      Z   
After scan for Atom:   Atom  AN      X      Y      Z        X      Y      Z        X      Y      Z   
 g94    frequencies=
     0.0    0.0    0.0    0.0    0.0    0.0   14.3   24.2   28.7   44.8
    67.2   80.3  101.3  119.4  136.4  144.0  158.7  182.9  195.8  223.5
   241.6  244.8  266.3  278.8  303.9  337.2  338.5  382.4  410.4  413.9
   429.0  446.1  452.3  457.3  474.6  487.7  514.9  522.5  525.0  531.7
   541.0  558.0  564.4  567.6  580.7  582.6  596.2  632.1  634.6  642.9
   647.0  673.3  700.7  704.5  708.5  710.3  726.6  741.8  755.9  777.8
   781.9  805.5  812.4  814.8  831.8  839.1  842.6  853.1  862.7  867.5
   875.5  902.2  917.5  925.3  958.2  967.0  983.9  991.2  993.1  999.3
  1000.8 1003.4 1007.6 1011.6 1020.7 1030.0 1038.3 1108.4 1113.9 1130.8
  1143.2 1151.9 1162.6 1166.3 1178.2 1190.5 1198.4 1212.2 1216.9 1225.4
  1244.2 1248.7 1258.3 1281.2 1290.7 1303.5 1313.6 1338.2 1344.3 1361.3
  1384.1 1394.0 1410.3 1419.5 1439.8 1447.0 1455.0 1462.3 1472.7 1485.2
  1488.5 1510.5 1518.0 1525.3 1527.1 1532.1 1536.4 1558.7 1574.9 1589.3
  1644.8 1655.0 1664.4 1673.4 1684.3 3050.2 3079.1 3180.3 3182.1 3186.3
  3187.2 3189.8 3191.3 3199.8 3202.4 3206.9 3207.2 3214.4 3219.6 3223.6
  3231.9 3241.0 3264.2
 g94    symmetries=
                                                 A      A      A      A
       A      A      A      A      A      A      A      A      A      A
       A      A      A      A      A      A      A      A      A      A
       A      A      A      A      A      A      A      A      A      A
       A      A      A      A      A      A      A      A      A      A
       A      A      A      A      A      A      A      A      A      A
       A      A      A      A      A      A      A      A      A      A
       A      A      A      A      A      A      A      A      A      A
       A      A      A      A      A      A      A      A      A      A
       A      A      A      A      A      A      A      A      A      A
       A      A      A      A      A      A      A      A      A      A
       A      A      A      A      A      A      A      A      A      A
       A      A      A      A      A      A      A      A      A      A
       A      A      A      A      A      A      A      A      A      A
       A      A      A      A      A      A      A      A      A      A
       A      A      A
 atomic masses:
 12.0000 12.0000 12.0000 12.0000 12.0000 12.0000 12.0000 12.0000 12.0000 12.0000
 12.0000 12.0000 12.0000 12.0000 12.0000 12.0000 12.0000 12.0000 12.0000 12.0000
 31.9721 12.0000 12.0000 31.9721 12.0000 12.0000 12.0000 12.0000 12.0000 12.0000
 12.0000 12.0000 12.0000  1.0078  1.0078  1.0078  1.0078  1.0078  1.0078  1.0078
  1.0078  1.0078  1.0078  1.0078  1.0078  1.0078  1.0078  1.0078  1.0078  1.0078
  1.0078
 looking for force constants in 
 ./CDT-A_2_C0S1.fchk                                                            
  
 Cartesian Force Constants                  R   N=       11781                  
  
 n3=         153       11781
 g94-fc frequencies=
    -0.7   -0.0   -0.0    0.0    0.8    2.4   14.3   24.2   28.7   44.8
    67.2   80.3  101.3  119.4  136.4  144.1  158.7  182.9  195.8  223.5
   241.6  244.8  266.3  278.9  303.9  337.3  338.5  382.4  410.4  413.9
   429.0  446.1  452.3  457.3  474.6  487.7  514.9  522.6  525.0  531.8
   541.0  558.0  564.4  567.6  580.7  582.6  596.2  632.1  634.6  643.0
   647.0  673.3  700.7  704.5  708.5  710.3  726.6  741.8  755.9  777.8
   781.9  805.5  812.4  814.8  831.9  839.2  842.6  853.1  862.7  867.5
   875.5  902.2  917.5  925.3  958.2  967.0  983.9  991.2  993.1  999.3
  1000.8 1003.4 1007.6 1011.6 1020.7 1030.1 1038.3 1108.4 1113.9 1130.8
  1143.2 1152.0 1162.7 1166.3 1178.2 1190.5 1198.4 1212.2 1217.0 1225.4
  1244.2 1248.8 1258.3 1281.2 1290.8 1303.6 1313.6 1338.2 1344.4 1361.3
  1384.2 1394.1 1410.3 1419.6 1439.8 1447.0 1455.1 1462.3 1472.7 1485.2
  1488.5 1510.6 1518.0 1525.4 1527.1 1532.2 1536.5 1558.7 1575.0 1589.3
  1644.8 1655.1 1664.5 1673.4 1684.4 3050.3 3079.1 3180.3 3182.2 3186.3
  3187.2 3189.8 3191.4 3199.9 3202.5 3207.0 3207.2 3214.5 3219.6 3223.7
  3231.9 3241.1 3264.3
 at 99999: n3=         153
 symm operator            1 :  F  nop=           0
 symm operator            2 :  F  nop=           0
 symm operator            3 :  F  nop=           0
 symm operator            4 :  F  nop=           0
 symm operator            5 :  F  nop=           0
 symm operator            6 :  F  nop=           0
 symm operator            7 :  F  nop=           0
 The point group of the molecule is  C1
 Symmetry rotation matrix:
   1.00000   0.00000   0.00000
   0.00000   1.00000   0.00000
   0.00000   0.00000   1.00000

 Projecting out zero-frequency components
 generating redundant internal coords
         300        3600          51
 search for int coords
   1 str   2   1   1.386
   2 str   3   2   1.399
   3 str   4   3   1.429
   4 str   5   4   1.356
   5 str   6   5   1.423
   6 str   7   6   1.406
   7 str   8   7   1.369
   8 str   9   8   1.413
   9 str  10   9   1.449
  10 str  11  10   1.419
  11 str  12  11   1.366
  12 str  13  12   1.425
  13 str  14  13   1.409
  14 str  15  14   1.415
  15 str  16  15   1.375
  16 str  17  16   1.512
  17 str  18  17   1.510
  18 str  19  18   1.404
  19 str  20  19   1.370
  20 str  21  20   1.737
  21 str  22  18   1.395
  22 str  22  21   1.726
  23 str  23  16   1.411
  24 str  23  22   1.408
  25 str  24  14   1.785
  26 str  24  23   1.722
  27 str  25  13   1.424
  28 str  26  10   1.417
  29 str  26  25   1.366
  30 str  27   9   1.430
  31 str  28  27   1.429
  32 str  29  28   1.357
  33 str  30  29   1.426
  34 str  31   1   1.384
  35 str  31  30   1.401
  36 str  32   3   1.420
  37 str  32  30   1.417
  38 str  33   6   1.418
  39 str  33  27   1.422
  40 str  33  32   1.426
  41 str  34   1   1.084
  42 str  35   2   1.084
  43 str  36   4   1.084
  44 str  37   5   1.084
  45 str  38   7   1.084
  46 str  39   8   1.082
  47 str  40  11   1.082
  48 str  41  12   1.082
  49 str  42  15   1.080
  50 str  43  17   1.094
  51 str  44  17   1.094
  52 str  45  19   1.082
  53 str  46  20   1.079
  54 str  47  25   1.084
  55 str  48  26   1.083
  56 str  49  28   1.080
  57 str  50  29   1.084
  58 str  51  31   1.084
 nber stretches=          58
  59 ben   1   2   3
  60 prop tor   1   2   3   4
  61 prop tor   1   2   3  32
  62 ben   1   2  35
  63 ben   1  31  30
  64 ben   1  31  51
  65 ben   2   1  31
  66 prop tor   2   1  31  30
  67 prop tor   2   1  31  51
  68 ben   2   1  34
  69 ben   2   3   4
  70 prop tor   2   3   4   5
  71 prop tor   2   3   4  36
  72 ben   2   3  32
  73 prop tor   2   3  32  30
  74 prop tor   2   3  32  33
  75 ben   3   2  35
  76 ben   3   4   5
  77 prop tor   3   4   5   6
  78 prop tor   3   4   5  37
  79 ben   3   4  36
  80 ben   3  32  30
  81 ben   3  32  33
  82 prop tor   3  32  33   6
  83 prop tor   3  32  33  27
  84 ben   4   3  32
  85 prop tor   4   3  32  30
  86 prop tor   4   3  32  33
  87 ben   4   5   6
  88 prop tor   4   5   6   7
  89 prop tor   4   5   6  33
  90 ben   4   5  37
  91 ben   5   4  36
  92 ben   5   6   7
  93 prop tor   5   6   7   8
  94 prop tor   5   6   7  38
  95 ben   5   6  33
  96 prop tor   5   6  33  27
  97 prop tor   5   6  33  32
  98 ben   6   5  37
  99 ben   6   7   8
 100 prop tor   6   7   8   9
 101 prop tor   6   7   8  39
 102 ben   6   7  38
 103 ben   6  33  27
 104 ben   6  33  32
 105 ben   7   6  33
 106 prop tor   7   6  33  27
 107 prop tor   7   6  33  32
 108 ben   7   8   9
 109 prop tor   7   8   9  10
 110 prop tor   7   8   9  27
 111 ben   7   8  39
 112 ben   8   7  38
 113 ben   8   9  10
 114 prop tor   8   9  10  11
 115 prop tor   8   9  10  26
 116 ben   8   9  27
 117 prop tor   8   9  27  28
 118 prop tor   8   9  27  33
 119 ben   9   8  39
 120 ben   9  10  11
 121 prop tor   9  10  11  12
 122 prop tor   9  10  11  40
 123 ben   9  10  26
 124 prop tor   9  10  26  25
 125 prop tor   9  10  26  48
 126 ben   9  27  28
 127 prop tor   9  27  28  29
 128 prop tor   9  27  28  49
 129 ben   9  27  33
 130 prop tor   9  27  33   6
 131 prop tor   9  27  33  32
 132 ben  10   9  27
 133 prop tor  10   9  27  28
 134 prop tor  10   9  27  33
 135 ben  10  11  12
 136 prop tor  10  11  12  13
 137 prop tor  10  11  12  41
 138 ben  10  11  40
 139 ben  10  26  25
 140 ben  10  26  48
 141 ben  11  10  26
 142 prop tor  11  10  26  25
 143 prop tor  11  10  26  48
 144 ben  11  12  13
 145 prop tor  11  12  13  14
 146 prop tor  11  12  13  25
 147 ben  11  12  41
 148 ben  12  11  40
 149 ben  12  13  14
 150 prop tor  12  13  14  15
 151 prop tor  12  13  14  24
 152 ben  12  13  25
 153 prop tor  12  13  25  26
 154 prop tor  12  13  25  47
 155 ben  13  12  41
 156 ben  13  14  15
 157 prop tor  13  14  15  16
 158 prop tor  13  14  15  42
 159 ben  13  14  24
 160 prop tor  13  14  24  23
 161 ben  13  25  26
 162 prop tor  13  25  26  10
 163 prop tor  13  25  26  48
 164 ben  13  25  47
 165 ben  14  13  25
 166 prop tor  14  13  25  26
 167 prop tor  14  13  25  47
 168 ben  14  15  16
 169 prop tor  14  15  16  17
 170 prop tor  14  15  16  23
 171 ben  14  15  42
 172 ben  14  24  23
 173 ben  15  14  24
 174 prop tor  15  14  24  23
 175 ben  15  16  17
 176 prop tor  15  16  17  18
 177 prop tor  15  16  17  43
 178 prop tor  15  16  17  44
 179 ben  15  16  23
 180 prop tor  15  16  23  22
 181 prop tor  15  16  23  24
 182 ben  16  15  42
 183 ben  16  17  18
 184 prop tor  16  17  18  19
 185 prop tor  16  17  18  22
 186 ben  16  17  43
 187 ben  16  17  44
 188 ben  16  23  22
 189 ben  16  23  24
 190 prop tor  16  23  24  14
 191 ben  17  16  23
 192 prop tor  17  16  23  22
 193 prop tor  17  16  23  24
 194 ben  17  18  19
 195 prop tor  17  18  19  20
 196 prop tor  17  18  19  45
 197 ben  17  18  22
 198 prop tor  17  18  22  21
 199 prop tor  17  18  22  23
 200 ben  18  17  43
 201 ben  18  17  44
 202 ben  18  19  20
 203 prop tor  18  19  20  21
 204 prop tor  18  19  20  46
 205 ben  18  19  45
 206 ben  18  22  21
 207 ben  18  22  23
 208 prop tor  18  22  23  16
 209 prop tor  18  22  23  24
 210 ben  19  18  22
 211 prop tor  19  18  22  21
 212 prop tor  19  18  22  23
 213 ben  19  20  21
 214 prop tor  19  20  21  22
 215 ben  19  20  46
 216 ben  20  19  45
 217 ben  20  21  22
 218 prop tor  20  21  22  18
 219 prop tor  20  21  22  23
 220 ben  21  20  46
 221 ben  21  22  23
 222 prop tor  21  22  23  16
 223 prop tor  21  22  23  24
 224 prop tor  22  18  19  20
 225 prop tor  22  18  19  45
 226 ben  22  23  24
 227 prop tor  22  23  24  14
 228 prop tor  23  16  17  18
 229 prop tor  23  16  17  43
 230 prop tor  23  16  17  44
 231 prop tor  24  14  15  16
 232 prop tor  24  14  15  42
 233 prop tor  25  13  14  15
 234 prop tor  25  13  14  24
 235 ben  25  26  48
 236 prop tor  26  10  11  12
 237 prop tor  26  10  11  40
 238 ben  26  25  47
 239 prop tor  27   9  10  11
 240 prop tor  27   9  10  26
 241 ben  27  28  29
 242 prop tor  27  28  29  30
 243 prop tor  27  28  29  50
 244 ben  27  28  49
 245 ben  27  33  32
 246 ben  28  27  33
 247 prop tor  28  27  33   6
 248 prop tor  28  27  33  32
 249 ben  28  29  30
 250 prop tor  28  29  30  31
 251 prop tor  28  29  30  32
 252 ben  28  29  50
 253 ben  29  28  49
 254 ben  29  30  31
 255 prop tor  29  30  31   1
 256 prop tor  29  30  31  51
 257 ben  29  30  32
 258 prop tor  29  30  32   3
 259 prop tor  29  30  32  33
 260 ben  30  29  50
 261 ben  30  31  51
 262 ben  30  32  33
 263 prop tor  30  32  33   6
 264 prop tor  30  32  33  27
 265 prop tor  31   1   2   3
 266 prop tor  31   1   2  35
 267 ben  31   1  34
 268 ben  31  30  32
 269 prop tor  31  30  32   3
 270 prop tor  31  30  32  33
 271 prop tor  32   3   4   5
 272 prop tor  32   3   4  36
 273 prop tor  32  30  31   1
 274 prop tor  32  30  31  51
 275 prop tor  33   6   7   8
 276 prop tor  33   6   7  38
 277 prop tor  33  27  28  29
 278 prop tor  33  27  28  49
 279 prop tor  34   1   2   3
 280 prop tor  34   1   2  35
 281 prop tor  34   1  31  30
 282 prop tor  34   1  31  51
 283 prop tor  35   2   3   4
 284 prop tor  35   2   3  32
 285 prop tor  36   4   5   6
 286 prop tor  36   4   5  37
 287 prop tor  37   5   6   7
 288 prop tor  37   5   6  33
 289 prop tor  38   7   8   9
 290 prop tor  38   7   8  39
 291 prop tor  39   8   9  10
 292 prop tor  39   8   9  27
 293 prop tor  40  11  12  13
 294 prop tor  40  11  12  41
 295 prop tor  41  12  13  14
 296 prop tor  41  12  13  25
 297 prop tor  42  15  16  17
 298 prop tor  42  15  16  23
 299 prop tor  43  17  18  19
 300 prop tor  43  17  18  22
 301 ben  43  17  44
 302 prop tor  44  17  18  19
 303 prop tor  44  17  18  22
 304 prop tor  45  19  20  21
 305 prop tor  45  19  20  46
 306 prop tor  46  20  21  22
 307 prop tor  47  25  26  10
 308 prop tor  47  25  26  48
 309 prop tor  49  28  29  30
 310 prop tor  49  28  29  50
 311 prop tor  50  29  30  31
 312 prop tor  50  29  30  32
 nber bend=              98
 nber lin bend=           0
 nber prop tor=         156
 nber impr tor=           0
 nber tot redund int=         312
 Eigenvalues of G in red int coords
    Gval -0.00000000 -0.00000000 -0.00000000 -0.00000000 -0.00000000 -0.00000000 -0.00000000 -0.00000000
    Gval -0.00000000 -0.00000000 -0.00000000 -0.00000000 -0.00000000 -0.00000000 -0.00000000 -0.00000000
    Gval -0.00000000 -0.00000000 -0.00000000 -0.00000000 -0.00000000 -0.00000000 -0.00000000 -0.00000000
    Gval -0.00000000 -0.00000000 -0.00000000 -0.00000000 -0.00000000 -0.00000000 -0.00000000 -0.00000000
    Gval -0.00000000 -0.00000000 -0.00000000 -0.00000000 -0.00000000 -0.00000000 -0.00000000 -0.00000000
    Gval -0.00000000 -0.00000000 -0.00000000 -0.00000000 -0.00000000 -0.00000000 -0.00000000 -0.00000000
    Gval -0.00000000 -0.00000000 -0.00000000 -0.00000000 -0.00000000 -0.00000000 -0.00000000 -0.00000000
    Gval -0.00000000 -0.00000000 -0.00000000 -0.00000000 -0.00000000 -0.00000000 -0.00000000 -0.00000000
    Gval -0.00000000 -0.00000000 -0.00000000 -0.00000000 -0.00000000 -0.00000000 -0.00000000 -0.00000000
    Gval -0.00000000 -0.00000000 -0.00000000 -0.00000000 -0.00000000 -0.00000000 -0.00000000 -0.00000000
    Gval -0.00000000 -0.00000000 -0.00000000 -0.00000000 -0.00000000 -0.00000000 -0.00000000  0.00000000
    Gval  0.00000000  0.00000000  0.00000000  0.00000000  0.00000000  0.00000000  0.00000000  0.00000000
    Gval  0.00000000  0.00000000  0.00000000  0.00000000  0.00000000  0.00000000  0.00000000  0.00000000
    Gval  0.00000000  0.00000000  0.00000000  0.00000000  0.00000000  0.00000000  0.00000000  0.00000000
    Gval  0.00000000  0.00000000  0.00000000  0.00000000  0.00000000  0.00000000  0.00000000  0.00000000
    Gval  0.00000000  0.00000000  0.00000000  0.00000000  0.00000000  0.00000000  0.00000000  0.00000000
    Gval  0.00000000  0.00000000  0.00000000  0.00000000  0.00000000  0.00000000  0.00000000  0.00000000
    Gval  0.00000000  0.00000000  0.00000000  0.00000000  0.00000000  0.00000000  0.00000000  0.00000000
    Gval  0.00000000  0.00000000  0.00000000  0.00000000  0.00000000  0.00000000  0.00000000  0.00000000
    Gval  0.00000000  0.00000000  0.00000000  0.00000000  0.00000000  0.00000000  0.00000000  0.00000000
    Gval  0.00000000  0.00000000  0.00000000  0.00000000  0.00000000  0.00000026  0.00000076  0.00000128
    Gval  0.00000244  0.00000430  0.00000531  0.00000741  0.00001066  0.00001280  0.00001655  0.00001865
    Gval  0.00002313  0.00002395  0.00002423  0.00002705  0.00002859  0.00003057  0.00003301  0.00003705
    Gval  0.00003891  0.00004659  0.00004924  0.00005030  0.00005415  0.00005788  0.00005910  0.00006459
    Gval  0.00006697  0.00006880  0.00006992  0.00007327  0.00007770  0.00008022  0.00008232  0.00008796
    Gval  0.00009211  0.00009376  0.00009680  0.00010506  0.00010915  0.00011594  0.00011997  0.00012041
    Gval  0.00013075  0.00013402  0.00013538  0.00014026  0.00014360  0.00016156  0.00016398  0.00017723
    Gval  0.00019259  0.00020383  0.00021093  0.00022039  0.00025222  0.00025922  0.00026293  0.00028511
    Gval  0.00028577  0.00030155  0.00030205  0.00030631  0.00033444  0.00036319  0.00036885  0.00037020
    Gval  0.00037340  0.00037924  0.00038293  0.00040613  0.00041590  0.00042168  0.00042793  0.00043493
    Gval  0.00044564  0.00045190  0.00047763  0.00058325  0.00059029  0.00059391  0.00059649  0.00059676
    Gval  0.00059724  0.00059867  0.00059950  0.00060035  0.00060773  0.00060854  0.00062429  0.00062651
    Gval  0.00062969  0.00063567  0.00064190  0.00064356  0.00065071  0.00065717  0.00066277  0.00074750
    Gval  0.00080250  0.00085105  0.00100496  0.00106659  0.00107530  0.00108310  0.00108474  0.00108880
    Gval  0.00109251  0.00109604  0.00110657  0.00114125  0.00114481  0.00114612  0.00115500  0.00116388
    Gval  0.00116529  0.00116615  0.00117050  0.00117219  0.00118478  0.00128357  0.00133440  0.00139093
    Gval  0.00151293  0.00166975  0.00173920  0.00187198  0.00193155  0.00197073  0.00208736  0.00222163
    Gval  0.00232819  0.00240527  0.00251241  0.00257259  0.00264334  0.00269227  0.00303157  0.00311571
    Gval  0.00358433  0.00361186  0.00368308  0.00369663  0.00375480  0.00376319  0.00393633  0.00407499
  2.563064273902737E-007  2.563064273902737E-007
  7.627235761826433E-007  2.563064273902737E-007
  1.281083962560318E-006  2.563064273902737E-007
  2.438293306088317E-006  2.563064273902737E-007
  4.302578363267719E-006  2.563064273902737E-007
  5.306668069938732E-006  2.563064273902737E-007
  7.410368846867842E-006  2.563064273902737E-007
  1.065808659257836E-005  2.563064273902737E-007
  1.279856244389984E-005  2.563064273902737E-007
  1.655472498444724E-005  2.563064273902737E-007
  1.864792193335968E-005  2.563064273902737E-007
  2.312790274836295E-005  2.563064273902737E-007
  2.394948172535890E-005  2.563064273902737E-007
  2.422552335059934E-005  2.563064273902737E-007
  2.704888208530493E-005  2.563064273902737E-007
  2.859332823726939E-005  2.563064273902737E-007
  3.056917808696194E-005  2.563064273902737E-007
  3.300510404184973E-005  2.563064273902737E-007
  3.705013131085983E-005  2.563064273902737E-007
  3.890719253959750E-005  2.563064273902737E-007
  4.658747432747569E-005  2.563064273902737E-007
  4.924126028862089E-005  2.563064273902737E-007
  5.029937777727302E-005  2.563064273902737E-007
  5.414984174418911E-005  2.563064273902737E-007
  5.787826857901283E-005  2.563064273902737E-007
  5.909878925145668E-005  2.563064273902737E-007
  6.458919266206829E-005  2.563064273902737E-007
  6.697085275326423E-005  2.563064273902737E-007
  6.879970630587250E-005  2.563064273902737E-007
  6.992038102147142E-005  2.563064273902737E-007
  7.327079662639646E-005  2.563064273902737E-007
  7.770287156462942E-005  2.563064273902737E-007
  8.022318602714640E-005  2.563064273902737E-007
  8.231573379463371E-005  2.563064273902737E-007
  8.795692991307417E-005  2.563064273902737E-007
  9.211091085868092E-005  2.563064273902737E-007
  9.375975892021182E-005  2.563064273902737E-007
  9.679759697839791E-005  2.563064273902737E-007
  1.050598172622310E-004  2.563064273902737E-007
  1.091532795266496E-004  2.563064273902737E-007
  1.159392370258234E-004  2.563064273902737E-007
  1.199726343854174E-004  2.563064273902737E-007
  1.204143299911034E-004  2.563064273902737E-007
  1.307485653839318E-004  2.563064273902737E-007
  1.340201688618581E-004  2.563064273902737E-007
  1.353801102862552E-004  2.563064273902737E-007
  1.402602030230172E-004  2.563064273902737E-007
  1.435987942783491E-004  2.563064273902737E-007
  1.615585717328425E-004  2.563064273902737E-007
  1.639787875243182E-004  2.563064273902737E-007
  1.772305215509677E-004  2.563064273902737E-007
  1.925908132693365E-004  2.563064273902737E-007
  2.038319547503237E-004  2.563064273902737E-007
  2.109309007109881E-004  2.563064273902737E-007
  2.203877540896275E-004  2.563064273902737E-007
  2.522223568590479E-004  2.563064273902737E-007
  2.592241772283446E-004  2.563064273902737E-007
  2.629343038034086E-004  2.563064273902737E-007
  2.851142021375730E-004  2.563064273902737E-007
  2.857705692416109E-004  2.563064273902737E-007
  3.015523772068560E-004  2.563064273902737E-007
  3.020470487650435E-004  2.563064273902737E-007
  3.063134684239830E-004  2.563064273902737E-007
  3.344440187234824E-004  2.563064273902737E-007
  3.631924597561326E-004  2.563064273902737E-007
  3.688460402075745E-004  2.563064273902737E-007
  3.701985804501468E-004  2.563064273902737E-007
  3.733998879350199E-004  2.563064273902737E-007
  3.792422094162962E-004  2.563064273902737E-007
  3.829281009325161E-004  2.563064273902737E-007
  4.061292873398758E-004  2.563064273902737E-007
  4.159043666243036E-004  2.563064273902737E-007
  4.216755893283142E-004  2.563064273902737E-007
  4.279333486791668E-004  2.563064273902737E-007
  4.349263600527453E-004  2.563064273902737E-007
  4.456421194986834E-004  2.563064273902737E-007
  4.518979992174130E-004  2.563064273902737E-007
  4.776323233198776E-004  2.563064273902737E-007
  5.832536664186010E-004  2.563064273902737E-007
  5.902907343138734E-004  2.563064273902737E-007
  5.939069969871798E-004  2.563064273902737E-007
  5.964889377227054E-004  2.563064273902737E-007
  5.967643206210021E-004  2.563064273902737E-007
  5.972400559413606E-004  2.563064273902737E-007
  5.986689606295954E-004  2.563064273902737E-007
  5.995007529095279E-004  2.563064273902737E-007
  6.003484425916808E-004  2.563064273902737E-007
  6.077277909224881E-004  2.563064273902737E-007
  6.085369756404274E-004  2.563064273902737E-007
  6.242914200913185E-004  2.563064273902737E-007
  6.265139672154296E-004  2.563064273902737E-007
  6.296913699707318E-004  2.563064273902737E-007
  6.356732788117712E-004  2.563064273902737E-007
  6.418969611629780E-004  2.563064273902737E-007
  6.435561860861077E-004  2.563064273902737E-007
  6.507068864868357E-004  2.563064273902737E-007
  6.571694737997681E-004  2.563064273902737E-007
  6.627668061226133E-004  2.563064273902737E-007
  7.474996970149279E-004  2.563064273902737E-007
  8.024969291719171E-004  2.563064273902737E-007
  8.510538433720569E-004  2.563064273902737E-007
  1.004957957755485E-003  2.563064273902737E-007
  1.066594408083621E-003  2.563064273902737E-007
  1.075296794736190E-003  2.563064273902737E-007
  1.083095190536996E-003  2.563064273902737E-007
  1.084736139444673E-003  2.563064273902737E-007
  1.088804293433483E-003  2.563064273902737E-007
  1.092513854518937E-003  2.563064273902737E-007
  1.096036479471087E-003  2.563064273902737E-007
  1.106565967216716E-003  2.563064273902737E-007
  1.141254625683480E-003  2.563064273902737E-007
  1.144806542326238E-003  2.563064273902737E-007
  1.146121401009679E-003  2.563064273902737E-007
  1.155001445235928E-003  2.563064273902737E-007
  1.163878865390940E-003  2.563064273902737E-007
  1.165288945617636E-003  2.563064273902737E-007
  1.166152345907160E-003  2.563064273902737E-007
  1.170503465588308E-003  2.563064273902737E-007
  1.172189836538586E-003  2.563064273902737E-007
  1.184780571083358E-003  2.563064273902737E-007
  1.283572572306873E-003  2.563064273902737E-007
  1.334398608272099E-003  2.563064273902737E-007
  1.390933758124331E-003  2.563064273902737E-007
  1.512925426712488E-003  2.563064273902737E-007
  1.669754229626015E-003  2.563064273902737E-007
  1.739197076504782E-003  2.563064273902737E-007
  1.871975008150489E-003  2.563064273902737E-007
  1.931546052903841E-003  2.563064273902737E-007
  1.970727521042006E-003  2.563064273902737E-007
  2.087356635692334E-003  2.563064273902737E-007
  2.221628742370271E-003  2.563064273902737E-007
  2.328190482725367E-003  2.563064273902737E-007
  2.405272377805433E-003  2.563064273902737E-007
  2.512407151655446E-003  2.563064273902737E-007
  2.572586857718905E-003  2.563064273902737E-007
  2.643340532438843E-003  2.563064273902737E-007
  2.692269907895429E-003  2.563064273902737E-007
  3.031565054945699E-003  2.563064273902737E-007
  3.115711834616710E-003  2.563064273902737E-007
  3.584331949402249E-003  2.563064273902737E-007
  3.611861727597536E-003  2.563064273902737E-007
  3.683079569627430E-003  2.563064273902737E-007
  3.696631304390124E-003  2.563064273902737E-007
  3.754804874046401E-003  2.563064273902737E-007
  3.763193068155595E-003  2.563064273902737E-007
  3.936329647436887E-003  2.563064273902737E-007
  4.074992216068582E-003  2.563064273902737E-007
 cut=1d-8, nber non-redundant internal coords=         147
 Check on Eigenvals of non-red overlap matrix:
  0.00000026  0.00000076  0.00000128  0.00000244  0.00000430  0.00000531  0.00000741  0.00001066
  0.00001280  0.00001655  0.00001865  0.00002313  0.00002395  0.00002423  0.00002705  0.00002859
  0.00003057  0.00003301  0.00003705  0.00003891  0.00004659  0.00004924  0.00005030  0.00005415
  0.00005788  0.00005910  0.00006459  0.00006697  0.00006880  0.00006992  0.00007327  0.00007770
  0.00008022  0.00008232  0.00008796  0.00009211  0.00009376  0.00009680  0.00010506  0.00010915
  0.00011594  0.00011997  0.00012041  0.00013075  0.00013402  0.00013538  0.00014026  0.00014360
  0.00016156  0.00016398  0.00017723  0.00019259  0.00020383  0.00021093  0.00022039  0.00025222
  0.00025922  0.00026293  0.00028511  0.00028577  0.00030155  0.00030205  0.00030631  0.00033444
  0.00036319  0.00036885  0.00037020  0.00037340  0.00037924  0.00038293  0.00040613  0.00041590
  0.00042168  0.00042793  0.00043493  0.00044564  0.00045190  0.00047763  0.00058325  0.00059029
  0.00059391  0.00059649  0.00059676  0.00059724  0.00059867  0.00059950  0.00060035  0.00060773
  0.00060854  0.00062429  0.00062651  0.00062969  0.00063567  0.00064190  0.00064356  0.00065071
  0.00065717  0.00066277  0.00074750  0.00080250  0.00085105  0.00100496  0.00106659  0.00107530
  0.00108310  0.00108474  0.00108880  0.00109251  0.00109604  0.00110657  0.00114125  0.00114481
  0.00114612  0.00115500  0.00116388  0.00116529  0.00116615  0.00117050  0.00117219  0.00118478
  0.00128357  0.00133440  0.00139093  0.00151293  0.00166975  0.00173920  0.00187198  0.00193155
  0.00197073  0.00208736  0.00222163  0.00232819  0.00240527  0.00251241  0.00257259  0.00264334
  0.00269227  0.00303157  0.00311571  0.00358433  0.00361186  0.00368308  0.00369663  0.00375480
  0.00376319  0.00393633  0.00407499
 Checking for correct frequencies
 recalc frequencies=
    -0.0   -0.0   -0.0   -0.0    0.0    0.0   14.3   24.2   28.7   44.8
    67.2   80.3  101.3  119.4  136.4  144.1  158.7  182.9  195.8  223.5
   241.6  244.8  266.3  278.9  303.9  337.3  338.5  382.4  410.4  413.9
   429.0  446.1  452.3  457.3  474.6  487.7  514.9  522.6  525.0  531.8
   541.0  558.0  564.4  567.6  580.7  582.6  596.2  632.1  634.6  643.0
   647.0  673.3  700.7  704.5  708.5  710.3  726.6  741.8  755.9  777.8
   781.9  805.5  812.4  814.8  831.9  839.2  842.6  853.1  862.7  867.5
   875.5  902.2  917.5  925.3  958.2  967.0  983.9  991.2  993.1  999.3
  1000.8 1003.4 1007.6 1011.6 1020.7 1030.1 1038.3 1108.4 1113.9 1130.8
  1143.2 1152.0 1162.7 1166.3 1178.2 1190.5 1198.4 1212.2 1217.0 1225.4
  1244.2 1248.8 1258.3 1281.2 1290.8 1303.6 1313.6 1338.2 1344.4 1361.3
  1384.2 1394.1 1410.3 1419.6 1439.8 1447.0 1455.1 1462.3 1472.7 1485.2
  1488.5 1510.6 1518.0 1525.4 1527.1 1532.2 1536.5 1558.7 1575.0 1589.3
  1644.8 1655.1 1664.5 1673.4 1684.4 3050.3 3079.1 3180.3 3182.2 3186.3
  3187.2 3189.8 3191.4 3199.9 3202.5 3207.0 3207.2 3214.5 3219.6 3223.7
  3231.9 3241.1 3264.3
 recalc symmetries=
                                                                       
                                                                       
                                                                       
                                                                       
                                                                       
                                                                       
                                                                       
                                                                       
                                                                       
                                                                       
                                                                       
                                                                       
                                                                       
                                                                       
                                                                       
                      
 recalc freqs check OK
 Zero-point lengths:
 10.0000 10.0000 10.0000 10.0000 10.0000 10.0000 65.5803 50.4382 46.2637 37.0412
 30.2318 27.6726 24.6337 22.6907 21.2301 20.6556 19.6809 18.3304 17.7177 16.5822
 15.9498 15.8448 15.1916 14.8459 14.2205 13.4994 13.4747 12.6775 12.2371 12.1862
 11.9692 11.7372 11.6563 11.5934 11.3792 11.2257 10.9251 10.8449 10.8195 10.7507
 10.6589 10.4950 10.4352 10.4058 10.2874 10.2707 10.1529  9.8607  9.8409  9.7769
  9.7466  9.5538  9.3656  9.3400  9.3139  9.3017  9.1970  9.1023  9.0172  8.8891
  8.8656  8.7352  8.6977  8.6851  8.5955  8.5581  8.5404  8.4877  8.4402  8.4171
  8.3785  8.2537  8.1845  8.1499  8.0088  7.9723  7.9036  7.8744  7.8668  7.8423
  7.8366  7.8261  7.8099  7.7945  7.7596  7.7244  7.6936  7.4463  7.4280  7.3723
  7.3323  7.3042  7.2706  7.2591  7.2223  7.1850  7.1614  7.1205  7.1065  7.0819
  7.0282  7.0155  6.9888  6.9260  6.9003  6.8664  6.8402  6.7769  6.7614  6.7192
  6.6635  6.6398  6.6014  6.5799  6.5335  6.5172  6.4991  6.4829  6.4600  6.4328
  6.4257  6.3786  6.3629  6.3476  6.3439  6.3335  6.3246  6.2793  6.2468  6.2185
  6.1127  6.0938  6.0766  6.0603  6.0406  4.4888  4.4677  4.3960  4.3948  4.3919
  4.3913  4.3895  4.3884  4.3826  4.3808  4.3777  4.3775  4.3726  4.3691  4.3664
  4.3608  4.3546  4.3391
 highest evec of mol 1
 -0.0001 -0.0002  0.0000
 -0.0000  0.0000 -0.0000
  0.0000 -0.0000  0.0000
 -0.0000  0.0000 -0.0000
 -0.0001  0.0001 -0.0001
  0.0001  0.0000  0.0000
 -0.0001  0.0000 -0.0001
  0.0002  0.0001  0.0000
 -0.0001 -0.0000 -0.0000
  0.0002  0.0000  0.0000
 -0.0001 -0.0000 -0.0001
  0.0001 -0.0000  0.0000
 -0.0001 -0.0000 -0.0000
  0.0002  0.0001  0.0001
  0.0002  0.0007  0.0003
 -0.0002 -0.0003 -0.0002
 -0.0003 -0.0002 -0.0001
  0.0071  0.0004  0.0016
 -0.0472  0.0569  0.0136
 -0.2373 -0.1287 -0.1012
  0.0018 -0.0015 -0.0003
  0.0028  0.0016  0.0012
  0.0000  0.0003  0.0001
 -0.0000 -0.0000 -0.0000
  0.0001  0.0001  0.0001
 -0.0001  0.0000 -0.0000
  0.0000  0.0001 -0.0000
  0.0002 -0.0001  0.0001
  0.0001 -0.0000  0.0000
 -0.0000  0.0000 -0.0000
  0.0000 -0.0000  0.0000
 -0.0000 -0.0000  0.0000
 -0.0000 -0.0000 -0.0000
  0.0003  0.0005 -0.0000
  0.0001 -0.0000  0.0001
  0.0002  0.0000  0.0001
  0.0002 -0.0004  0.0002
  0.0001 -0.0003  0.0001
 -0.0003 -0.0004  0.0000
  0.0001  0.0002  0.0001
 -0.0002  0.0003  0.0001
 -0.0004 -0.0020 -0.0009
 -0.0003  0.0003 -0.0003
 -0.0004  0.0000  0.0003
  0.1521 -0.1347 -0.0239
  0.7872  0.3849  0.3185
 -0.0002 -0.0005 -0.0003
  0.0002 -0.0002 -0.0001
 -0.0007 -0.0000 -0.0003
 -0.0001  0.0002 -0.0001
 -0.0001  0.0001 -0.0001
 generating redundant internal coords
         300        3600          51
 Adding extra bonds for z output only
           6           6           6           6           6           6
           6           6           6           6           6           6
           6           6           6           6           6           6
           6           6          16           6           6          16
           6           6           6           6           6           6
           6           6           6           1           1           1
           1           1           1           1           1           1
           1           1           1           1           1           1
           1           1           1
 search for int coords
   1 str   2   1   1.386
   2 str   3   2   1.399
   3 str   4   3   1.429
   4 str   5   4   1.356
   5 str   6   5   1.423
   6 str   7   6   1.406
   7 str   8   7   1.369
   8 str   9   8   1.413
   9 str  10   9   1.449
  10 str  11  10   1.419
  11 str  12  11   1.366
  12 str  13  12   1.425
  13 str  14  13   1.409
  14 str  15  14   1.415
  15 str  16  15   1.375
  16 str  17  16   1.512
  17 str  18  17   1.510
  18 str  19  18   1.404
  19 str  20  19   1.370
  20 str  21  20   1.737
  21 str  22  18   1.395
  22 str  22  21   1.726
  23 str  23  16   1.411
  24 str  23  22   1.408
  25 str  24  14   1.785
  26 str  24  23   1.722
  27 str  25  13   1.424
  28 str  26  10   1.417
  29 str  26  25   1.366
  30 str  27   9   1.430
  31 str  28  27   1.429
  32 str  29  28   1.357
  33 str  30  29   1.426
  34 str  31   1   1.384
  35 str  31  30   1.401
  36 str  32   3   1.420
  37 str  32  30   1.417
  38 str  33   6   1.418
  39 str  33  27   1.422
  40 str  33  32   1.426
  41 str  34   1   1.084
  42 str  35   2   1.084
  43 str  36   4   1.084
  44 str  37   5   1.084
  45 str  38   7   1.084
  46 str  39   8   1.082
  47 str  40  11   1.082
  48 str  41  12   1.082
  49 str  42  15   1.080
  50 str  43  17   1.094
  51 str  44  17   1.094
  52 str  45  19   1.082
  53 str  46  20   1.079
  54 str  47  25   1.084
  55 str  48  26   1.083
  56 str  49  28   1.080
  57 str  50  29   1.084
  58 str  51  31   1.084
 nber stretches=          58
  59 ben   1   2   3
  60 prop tor   1   2   3   4
  61 prop tor   1   2   3  32
  62 ben   1   2  35
  63 ben   1  31  30
  64 ben   1  31  51
  65 ben   2   1  31
  66 prop tor   2   1  31  30
  67 prop tor   2   1  31  51
  68 ben   2   1  34
  69 ben   2   3   4
  70 prop tor   2   3   4   5
  71 prop tor   2   3   4  36
  72 ben   2   3  32
  73 prop tor   2   3  32  30
  74 prop tor   2   3  32  33
  75 ben   3   2  35
  76 ben   3   4   5
  77 prop tor   3   4   5   6
  78 prop tor   3   4   5  37
  79 ben   3   4  36
  80 ben   3  32  30
  81 ben   3  32  33
  82 prop tor   3  32  33   6
  83 prop tor   3  32  33  27
  84 ben   4   3  32
  85 prop tor   4   3  32  30
  86 prop tor   4   3  32  33
  87 ben   4   5   6
  88 prop tor   4   5   6   7
  89 prop tor   4   5   6  33
  90 ben   4   5  37
  91 ben   5   4  36
  92 ben   5   6   7
  93 prop tor   5   6   7   8
  94 prop tor   5   6   7  38
  95 ben   5   6  33
  96 prop tor   5   6  33  27
  97 prop tor   5   6  33  32
  98 ben   6   5  37
  99 ben   6   7   8
 100 prop tor   6   7   8   9
 101 prop tor   6   7   8  39
 102 ben   6   7  38
 103 ben   6  33  27
 104 ben   6  33  32
 105 ben   7   6  33
 106 prop tor   7   6  33  27
 107 prop tor   7   6  33  32
 108 ben   7   8   9
 109 prop tor   7   8   9  10
 110 prop tor   7   8   9  27
 111 ben   7   8  39
 112 ben   8   7  38
 113 ben   8   9  10
 114 prop tor   8   9  10  11
 115 prop tor   8   9  10  26
 116 ben   8   9  27
 117 prop tor   8   9  27  28
 118 prop tor   8   9  27  33
 119 ben   9   8  39
 120 ben   9  10  11
 121 prop tor   9  10  11  12
 122 prop tor   9  10  11  40
 123 ben   9  10  26
 124 prop tor   9  10  26  25
 125 prop tor   9  10  26  48
 126 ben   9  27  28
 127 prop tor   9  27  28  29
 128 prop tor   9  27  28  49
 129 ben   9  27  33
 130 prop tor   9  27  33   6
 131 prop tor   9  27  33  32
 132 ben  10   9  27
 133 prop tor  10   9  27  28
 134 prop tor  10   9  27  33
 135 ben  10  11  12
 136 prop tor  10  11  12  13
 137 prop tor  10  11  12  41
 138 ben  10  11  40
 139 ben  10  26  25
 140 ben  10  26  48
 141 ben  11  10  26
 142 prop tor  11  10  26  25
 143 prop tor  11  10  26  48
 144 ben  11  12  13
 145 prop tor  11  12  13  14
 146 prop tor  11  12  13  25
 147 ben  11  12  41
 148 ben  12  11  40
 149 ben  12  13  14
 150 prop tor  12  13  14  15
 151 prop tor  12  13  14  24
 152 ben  12  13  25
 153 prop tor  12  13  25  26
 154 prop tor  12  13  25  47
 155 ben  13  12  41
 156 ben  13  14  15
 157 prop tor  13  14  15  16
 158 prop tor  13  14  15  42
 159 ben  13  14  24
 160 prop tor  13  14  24  23
 161 ben  13  25  26
 162 prop tor  13  25  26  10
 163 prop tor  13  25  26  48
 164 ben  13  25  47
 165 ben  14  13  25
 166 prop tor  14  13  25  26
 167 prop tor  14  13  25  47
 168 ben  14  15  16
 169 prop tor  14  15  16  17
 170 prop tor  14  15  16  23
 171 ben  14  15  42
 172 ben  14  24  23
 173 ben  15  14  24
 174 prop tor  15  14  24  23
 175 ben  15  16  17
 176 prop tor  15  16  17  18
 177 prop tor  15  16  17  43
 178 prop tor  15  16  17  44
 179 ben  15  16  23
 180 prop tor  15  16  23  22
 181 prop tor  15  16  23  24
 182 ben  16  15  42
 183 ben  16  17  18
 184 prop tor  16  17  18  19
 185 prop tor  16  17  18  22
 186 ben  16  17  43
 187 ben  16  17  44
 188 ben  16  23  22
 189 ben  16  23  24
 190 prop tor  16  23  24  14
 191 ben  17  16  23
 192 prop tor  17  16  23  22
 193 prop tor  17  16  23  24
 194 ben  17  18  19
 195 prop tor  17  18  19  20
 196 prop tor  17  18  19  45
 197 ben  17  18  22
 198 prop tor  17  18  22  21
 199 prop tor  17  18  22  23
 200 ben  18  17  43
 201 ben  18  17  44
 202 ben  18  19  20
 203 prop tor  18  19  20  21
 204 prop tor  18  19  20  46
 205 ben  18  19  45
 206 ben  18  22  21
 207 ben  18  22  23
 208 prop tor  18  22  23  16
 209 prop tor  18  22  23  24
 210 ben  19  18  22
 211 prop tor  19  18  22  21
 212 prop tor  19  18  22  23
 213 ben  19  20  21
 214 prop tor  19  20  21  22
 215 ben  19  20  46
 216 ben  20  19  45
 217 ben  20  21  22
 218 prop tor  20  21  22  18
 219 prop tor  20  21  22  23
 220 ben  21  20  46
 221 ben  21  22  23
 222 prop tor  21  22  23  16
 223 prop tor  21  22  23  24
 224 prop tor  22  18  19  20
 225 prop tor  22  18  19  45
 226 ben  22  23  24
 227 prop tor  22  23  24  14
 228 prop tor  23  16  17  18
 229 prop tor  23  16  17  43
 230 prop tor  23  16  17  44
 231 prop tor  24  14  15  16
 232 prop tor  24  14  15  42
 233 prop tor  25  13  14  15
 234 prop tor  25  13  14  24
 235 ben  25  26  48
 236 prop tor  26  10  11  12
 237 prop tor  26  10  11  40
 238 ben  26  25  47
 239 prop tor  27   9  10  11
 240 prop tor  27   9  10  26
 241 ben  27  28  29
 242 prop tor  27  28  29  30
 243 prop tor  27  28  29  50
 244 ben  27  28  49
 245 ben  27  33  32
 246 ben  28  27  33
 247 prop tor  28  27  33   6
 248 prop tor  28  27  33  32
 249 ben  28  29  30
 250 prop tor  28  29  30  31
 251 prop tor  28  29  30  32
 252 ben  28  29  50
 253 ben  29  28  49
 254 ben  29  30  31
 255 prop tor  29  30  31   1
 256 prop tor  29  30  31  51
 257 ben  29  30  32
 258 prop tor  29  30  32   3
 259 prop tor  29  30  32  33
 260 ben  30  29  50
 261 ben  30  31  51
 262 ben  30  32  33
 263 prop tor  30  32  33   6
 264 prop tor  30  32  33  27
 265 prop tor  31   1   2   3
 266 prop tor  31   1   2  35
 267 ben  31   1  34
 268 ben  31  30  32
 269 prop tor  31  30  32   3
 270 prop tor  31  30  32  33
 271 prop tor  32   3   4   5
 272 prop tor  32   3   4  36
 273 prop tor  32  30  31   1
 274 prop tor  32  30  31  51
 275 prop tor  33   6   7   8
 276 prop tor  33   6   7  38
 277 prop tor  33  27  28  29
 278 prop tor  33  27  28  49
 279 prop tor  34   1   2   3
 280 prop tor  34   1   2  35
 281 prop tor  34   1  31  30
 282 prop tor  34   1  31  51
 283 prop tor  35   2   3   4
 284 prop tor  35   2   3  32
 285 prop tor  36   4   5   6
 286 prop tor  36   4   5  37
 287 prop tor  37   5   6   7
 288 prop tor  37   5   6  33
 289 prop tor  38   7   8   9
 290 prop tor  38   7   8  39
 291 prop tor  39   8   9  10
 292 prop tor  39   8   9  27
 293 prop tor  40  11  12  13
 294 prop tor  40  11  12  41
 295 prop tor  41  12  13  14
 296 prop tor  41  12  13  25
 297 prop tor  42  15  16  17
 298 prop tor  42  15  16  23
 299 prop tor  43  17  18  19
 300 prop tor  43  17  18  22
 301 ben  43  17  44
 302 prop tor  44  17  18  19
 303 prop tor  44  17  18  22
 304 prop tor  45  19  20  21
 305 prop tor  45  19  20  46
 306 prop tor  46  20  21  22
 307 prop tor  47  25  26  10
 308 prop tor  47  25  26  48
 309 prop tor  49  28  29  30
 310 prop tor  49  28  29  50
 311 prop tor  50  29  30  31
 312 prop tor  50  29  30  32
 nber bend=              98
 nber lin bend=           0
 nber prop tor=         156
 nber impr tor=           0
 nber tot redund int=         312
 Reading file: 
 ./CDT-A_2_C0S2.log                                                             
                                          
  Entering Gaussian System, Link 0=g16                                          
  
 Gaussian format, type: g94, g98, g03= F F F
  #P Geom=AllCheck Guess=TCheck SCRF=Check GenChk RCAM-B3LYP TD(FC,Read)    
 energy type= TD      
 Original G94 input coords:
  6-19.220634-14.936457 -2.861047
  6-19.697294-13.824056 -3.534063
  6-18.881064-12.687017 -3.723069
  6-19.344117-11.531821 -4.395932
  6-18.536241-10.435438 -4.556380
  6-17.209422-10.423878 -4.067890
  6-16.365530 -9.299979 -4.213664
  6-15.067124 -9.327867 -3.749661
  6-14.526110-10.454003 -3.126153
  6-13.104182-10.431674 -2.733929
  6-12.217674-11.449929 -3.110024
  6-10.878278-11.393019 -2.785156
  6-10.348096-10.310401 -2.064717
  6 -8.936918-10.257110 -1.730320
  6 -7.901154-11.020973 -2.243063
  6 -6.659961-10.700481 -1.690748
  6 -5.227467-11.154548 -1.849237
  6 -4.518811-10.250722 -0.868016
  6 -3.199505-10.038845 -0.425613
  6 -3.126945 -9.048680  0.515454
 16 -4.675822 -8.349870  0.883492
  6 -5.432926 -9.407478 -0.247508
  6 -6.735358 -9.677323 -0.745718
 16 -8.344935 -9.110166 -0.524237
  6-11.236045 -9.292203 -1.689194
  6-12.577126 -9.353303 -2.016952
  6-15.364746-11.594439 -2.908951
  6-14.941363-12.732245 -2.179828
  6-15.761437-13.818616 -1.998679
  6-17.075337-13.845405 -2.518535
  6-17.931805-14.956182 -2.354242
  6-17.549231-12.698877 -3.216759
  6-16.705357-11.576185 -3.400830
  1-19.863751-15.797938 -2.726308
  1-20.708876-13.812145 -3.923151
  1-20.357323-11.523160 -4.781119
  1-18.909650 -9.554117 -5.065246
  1-16.745320 -8.418579 -4.717176
  1-14.427222 -8.468508 -3.910247
  1-12.587661-12.289617 -3.685722
  1-10.230987-12.206814 -3.087020
  1 -8.055291-11.767315 -3.009544
  1 -5.100670-12.213917 -1.601712
  1 -4.863096-11.019609 -2.873173
  1 -2.330960-10.581236 -0.773479
  1 -2.250168 -8.679680  1.023725
  1-10.869386 -8.432665 -1.140345
  1-13.237773 -8.555082 -1.699930
  1-13.953622-12.737659 -1.740696
  1-15.404576-14.674973 -1.437893
  1-17.565441-15.826047 -1.821552
 nber atoms=          51
  Total Energy, E(TD-HF/TD-DFT) =  -1988.02302288                               
  
          32          49 "  -1988.02302288"
After scan for Atom:   Atom  AN      X      Y      Z        X      Y      Z        X      Y      Z   
After scan for Atom:   Atom  AN      X      Y      Z        X      Y      Z        X      Y      Z   
After scan for Atom:   Atom  AN      X      Y      Z        X      Y      Z        X      Y      Z   
After scan for Atom:   Atom  AN      X      Y      Z        X      Y      Z        X      Y      Z   
After scan for Atom:   Atom  AN      X      Y      Z        X      Y      Z        X      Y      Z   
After scan for Atom:   Atom  AN      X      Y      Z        X      Y      Z        X      Y      Z   
After scan for Atom:   Atom  AN      X      Y      Z        X      Y      Z        X      Y      Z   
After scan for Atom:   Atom  AN      X      Y      Z        X      Y      Z        X      Y      Z   
After scan for Atom:   Atom  AN      X      Y      Z        X      Y      Z        X      Y      Z   
After scan for Atom:   Atom  AN      X      Y      Z        X      Y      Z        X      Y      Z   
After scan for Atom:   Atom  AN      X      Y      Z        X      Y      Z        X      Y      Z   
After scan for Atom:   Atom  AN      X      Y      Z        X      Y      Z        X      Y      Z   
After scan for Atom:   Atom  AN      X      Y      Z        X      Y      Z        X      Y      Z   
After scan for Atom:   Atom  AN      X      Y      Z        X      Y      Z        X      Y      Z   
After scan for Atom:   Atom  AN      X      Y      Z        X      Y      Z        X      Y      Z   
After scan for Atom:   Atom  AN      X      Y      Z        X      Y      Z        X      Y      Z   
After scan for Atom:   Atom  AN      X      Y      Z        X      Y      Z        X      Y      Z   
After scan for Atom:   Atom  AN      X      Y      Z        X      Y      Z        X      Y      Z   
After scan for Atom:   Atom  AN      X      Y      Z        X      Y      Z        X      Y      Z   
After scan for Atom:   Atom  AN      X      Y      Z        X      Y      Z        X      Y      Z   
After scan for Atom:   Atom  AN      X      Y      Z        X      Y      Z        X      Y      Z   
After scan for Atom:   Atom  AN      X      Y      Z        X      Y      Z        X      Y      Z   
After scan for Atom:   Atom  AN      X      Y      Z        X      Y      Z        X      Y      Z   
After scan for Atom:   Atom  AN      X      Y      Z        X      Y      Z        X      Y      Z   
After scan for Atom:   Atom  AN      X      Y      Z        X      Y      Z        X      Y      Z   
After scan for Atom:   Atom  AN      X      Y      Z        X      Y      Z        X      Y      Z   
After scan for Atom:   Atom  AN      X      Y      Z        X      Y      Z        X      Y      Z   
After scan for Atom:   Atom  AN      X      Y      Z        X      Y      Z        X      Y      Z   
After scan for Atom:   Atom  AN      X      Y      Z        X      Y      Z        X      Y      Z   
After scan for Atom:   Atom  AN      X      Y      Z        X      Y      Z        X      Y      Z   
After scan for Atom:   Atom  AN      X      Y      Z        X      Y      Z        X      Y      Z   
After scan for Atom:   Atom  AN      X      Y      Z        X      Y      Z        X      Y      Z   
After scan for Atom:   Atom  AN      X      Y      Z        X      Y      Z        X      Y      Z   
After scan for Atom:   Atom  AN      X      Y      Z        X      Y      Z        X      Y      Z   
After scan for Atom:   Atom  AN      X      Y      Z        X      Y      Z        X      Y      Z   
After scan for Atom:   Atom  AN      X      Y      Z        X      Y      Z        X      Y      Z   
After scan for Atom:   Atom  AN      X      Y      Z        X      Y      Z        X      Y      Z   
After scan for Atom:   Atom  AN      X      Y      Z        X      Y      Z        X      Y      Z   
After scan for Atom:   Atom  AN      X      Y      Z        X      Y      Z        X      Y      Z   
After scan for Atom:   Atom  AN      X      Y      Z        X      Y      Z        X      Y      Z   
After scan for Atom:   Atom  AN      X      Y      Z        X      Y      Z        X      Y      Z   
After scan for Atom:   Atom  AN      X      Y      Z        X      Y      Z        X      Y      Z   
After scan for Atom:   Atom  AN      X      Y      Z        X      Y      Z        X      Y      Z   
After scan for Atom:   Atom  AN      X      Y      Z        X      Y      Z        X      Y      Z   
After scan for Atom:   Atom  AN      X      Y      Z        X      Y      Z        X      Y      Z   
After scan for Atom:   Atom  AN      X      Y      Z        X      Y      Z        X      Y      Z   
After scan for Atom:   Atom  AN      X      Y      Z        X      Y      Z        X      Y      Z   
After scan for Atom:   Atom  AN      X      Y      Z        X      Y      Z        X      Y      Z   
After scan for Atom:   Atom  AN      X      Y      Z        X      Y      Z        X      Y      Z   
 g94    frequencies=
     0.0    0.0    0.0    0.0    0.0    0.0   12.8   18.3   25.6   48.7
    60.4   67.8  105.5  112.8  134.3  142.6  152.5  186.0  196.9  216.4
   226.5  245.2  265.2  270.1  315.1  333.1  339.1  382.3  411.3  420.2
   423.7  440.4  447.4  460.6  476.5  493.1  495.4  512.4  519.8  528.4
   541.3  547.2  570.4  572.1  579.9  588.7  617.8  624.5  633.3  646.4
   654.2  680.9  689.0  702.2  704.9  716.0  729.9  736.9  755.0  761.1
   777.1  796.1  822.7  831.2  833.6  838.4  847.6  853.9  858.7  863.3
   870.5  895.8  901.6  931.6  956.0  966.6  970.4  977.0  977.6  988.9
   995.1  999.8 1002.8 1013.4 1021.2 1039.2 1049.9 1107.1 1114.7 1124.6
  1145.2 1152.4 1159.4 1166.9 1182.2 1191.8 1197.8 1219.8 1223.8 1227.1
  1233.3 1250.9 1255.7 1279.0 1287.8 1288.3 1307.3 1315.6 1334.2 1346.6
  1377.0 1387.7 1391.7 1412.6 1440.1 1445.2 1450.7 1458.2 1463.1 1468.7
  1484.2 1487.6 1507.5 1526.7 1537.6 1545.1 1553.3 1564.3 1583.6 1603.0
  1606.1 1617.8 1628.0 1674.4 1987.6 3037.5 3063.2 3183.4 3185.2 3186.8
  3188.7 3189.7 3194.0 3194.3 3201.4 3203.9 3206.5 3209.3 3211.1 3224.1
  3227.0 3231.3 3265.4
 g94    symmetries=
                                                 A      A      A      A
       A      A      A      A      A      A      A      A      A      A
       A      A      A      A      A      A      A      A      A      A
       A      A      A      A      A      A      A      A      A      A
       A      A      A      A      A      A      A      A      A      A
       A      A      A      A      A      A      A      A      A      A
       A      A      A      A      A      A      A      A      A      A
       A      A      A      A      A      A      A      A      A      A
       A      A      A      A      A      A      A      A      A      A
       A      A      A      A      A      A      A      A      A      A
       A      A      A      A      A      A      A      A      A      A
       A      A      A      A      A      A      A      A      A      A
       A      A      A      A      A      A      A      A      A      A
       A      A      A      A      A      A      A      A      A      A
       A      A      A      A      A      A      A      A      A      A
       A      A      A
 atomic masses:
 12.0000 12.0000 12.0000 12.0000 12.0000 12.0000 12.0000 12.0000 12.0000 12.0000
 12.0000 12.0000 12.0000 12.0000 12.0000 12.0000 12.0000 12.0000 12.0000 12.0000
 31.9721 12.0000 12.0000 31.9721 12.0000 12.0000 12.0000 12.0000 12.0000 12.0000
 12.0000 12.0000 12.0000  1.0078  1.0078  1.0078  1.0078  1.0078  1.0078  1.0078
  1.0078  1.0078  1.0078  1.0078  1.0078  1.0078  1.0078  1.0078  1.0078  1.0078
  1.0078
 looking for force constants in 
 ./CDT-A_2_C0S2.fchk                                                            
  
 Cartesian Force Constants                  R   N=       11781                  
  
 n3=         153       11781
 g94-fc frequencies=
    -1.7   -0.0    0.0    0.0    0.2    0.5   12.8   18.3   25.6   48.7
    60.4   67.8  105.5  112.8  134.3  142.6  152.5  186.0  196.9  216.4
   226.5  245.2  265.2  270.1  315.1  333.1  339.1  382.3  411.3  420.2
   423.7  440.4  447.4  460.6  476.5  493.1  495.4  512.4  519.9  528.5
   541.3  547.2  570.5  572.1  579.9  588.8  617.8  624.5  633.3  646.5
   654.3  681.0  689.0  702.2  704.9  716.0  729.9  736.9  755.0  761.2
   777.1  796.1  822.7  831.2  833.6  838.4  847.6  853.9  858.7  863.3
   870.5  895.8  901.6  931.6  956.0  966.6  970.5  977.0  977.6  989.0
   995.1  999.8 1002.8 1013.5 1021.2 1039.3 1049.9 1107.1 1114.7 1124.6
  1145.2 1152.5 1159.4 1167.0 1182.2 1191.8 1197.8 1219.8 1223.8 1227.2
  1233.3 1250.9 1255.7 1279.1 1287.8 1288.3 1307.3 1315.7 1334.2 1346.6
  1377.0 1387.7 1391.8 1412.6 1440.1 1445.2 1450.7 1458.2 1463.1 1468.7
  1484.2 1487.6 1507.5 1526.7 1537.6 1545.1 1553.3 1564.3 1583.6 1603.1
  1606.2 1617.8 1628.0 1674.4 1987.6 3037.5 3063.3 3183.4 3185.3 3186.9
  3188.7 3189.8 3194.1 3194.4 3201.4 3204.0 3206.6 3209.4 3211.2 3224.1
  3227.1 3231.4 3265.4
 at 99999: n3=         153
 symm operator            1 :  F  nop=           0
 symm operator            2 :  F  nop=           0
 symm operator            3 :  F  nop=           0
 symm operator            4 :  F  nop=           0
 symm operator            5 :  F  nop=           0
 symm operator            6 :  F  nop=           0
 symm operator            7 :  F  nop=           0
 The point group of the molecule is  C1
 Symmetry rotation matrix:
   1.00000   0.00000   0.00000
   0.00000   1.00000   0.00000
   0.00000   0.00000   1.00000

 Projecting out zero-frequency components
 generating redundant internal coords
         300        3600          51
 search for int coords
   1 str   2   1   1.385
   2 str   3   2   1.412
   3 str   4   3   1.415
   4 str   5   4   1.371
   5 str   6   5   1.414
   6 str   7   6   1.413
   7 str   8   7   1.379
   8 str   9   8   1.396
   9 str  10   9   1.475
  10 str  11  10   1.401
  11 str  12  11   1.379
  12 str  13  12   1.404
  13 str  14  13   1.451
  14 str  15  14   1.385
  15 str  16  15   1.396
  16 str  17  16   1.511
  17 str  18  17   1.511
  18 str  19  18   1.408
  19 str  20  19   1.368
  20 str  21  20   1.739
  21 str  22  18   1.390
  22 str  22  21   1.724
  23 str  23  16   1.395
  24 str  23  22   1.420
  25 str  24  14   1.767
  26 str  24  23   1.721
  27 str  25  13   1.402
  28 str  26  10   1.398
  29 str  26  25   1.382
  30 str  27   9   1.432
  31 str  28  27   1.416
  32 str  29  28   1.373
  33 str  30  29   1.413
  34 str  31   1   1.385
  35 str  31  30   1.412
  36 str  32   3   1.425
  37 str  32  30   1.424
  38 str  33   6   1.424
  39 str  33  27   1.428
  40 str  33  32   1.416
  41 str  34   1   1.083
  42 str  35   2   1.084
  43 str  36   4   1.084
  44 str  37   5   1.084
  45 str  38   7   1.084
  46 str  39   8   1.083
  47 str  40  11   1.083
  48 str  41  12   1.083
  49 str  42  15   1.081
  50 str  43  17   1.095
  51 str  44  17   1.095
  52 str  45  19   1.081
  53 str  46  20   1.079
  54 str  47  25   1.084
  55 str  48  26   1.084
  56 str  49  28   1.081
  57 str  50  29   1.084
  58 str  51  31   1.084
 nber stretches=          58
  59 ben   1   2   3
  60 prop tor   1   2   3   4
  61 prop tor   1   2   3  32
  62 ben   1   2  35
  63 ben   1  31  30
  64 ben   1  31  51
  65 ben   2   1  31
  66 prop tor   2   1  31  30
  67 prop tor   2   1  31  51
  68 ben   2   1  34
  69 ben   2   3   4
  70 prop tor   2   3   4   5
  71 prop tor   2   3   4  36
  72 ben   2   3  32
  73 prop tor   2   3  32  30
  74 prop tor   2   3  32  33
  75 ben   3   2  35
  76 ben   3   4   5
  77 prop tor   3   4   5   6
  78 prop tor   3   4   5  37
  79 ben   3   4  36
  80 ben   3  32  30
  81 ben   3  32  33
  82 prop tor   3  32  33   6
  83 prop tor   3  32  33  27
  84 ben   4   3  32
  85 prop tor   4   3  32  30
  86 prop tor   4   3  32  33
  87 ben   4   5   6
  88 prop tor   4   5   6   7
  89 prop tor   4   5   6  33
  90 ben   4   5  37
  91 ben   5   4  36
  92 ben   5   6   7
  93 prop tor   5   6   7   8
  94 prop tor   5   6   7  38
  95 ben   5   6  33
  96 prop tor   5   6  33  27
  97 prop tor   5   6  33  32
  98 ben   6   5  37
  99 ben   6   7   8
 100 prop tor   6   7   8   9
 101 prop tor   6   7   8  39
 102 ben   6   7  38
 103 ben   6  33  27
 104 ben   6  33  32
 105 ben   7   6  33
 106 prop tor   7   6  33  27
 107 prop tor   7   6  33  32
 108 ben   7   8   9
 109 prop tor   7   8   9  10
 110 prop tor   7   8   9  27
 111 ben   7   8  39
 112 ben   8   7  38
 113 ben   8   9  10
 114 prop tor   8   9  10  11
 115 prop tor   8   9  10  26
 116 ben   8   9  27
 117 prop tor   8   9  27  28
 118 prop tor   8   9  27  33
 119 ben   9   8  39
 120 ben   9  10  11
 121 prop tor   9  10  11  12
 122 prop tor   9  10  11  40
 123 ben   9  10  26
 124 prop tor   9  10  26  25
 125 prop tor   9  10  26  48
 126 ben   9  27  28
 127 prop tor   9  27  28  29
 128 prop tor   9  27  28  49
 129 ben   9  27  33
 130 prop tor   9  27  33   6
 131 prop tor   9  27  33  32
 132 ben  10   9  27
 133 prop tor  10   9  27  28
 134 prop tor  10   9  27  33
 135 ben  10  11  12
 136 prop tor  10  11  12  13
 137 prop tor  10  11  12  41
 138 ben  10  11  40
 139 ben  10  26  25
 140 ben  10  26  48
 141 ben  11  10  26
 142 prop tor  11  10  26  25
 143 prop tor  11  10  26  48
 144 ben  11  12  13
 145 prop tor  11  12  13  14
 146 prop tor  11  12  13  25
 147 ben  11  12  41
 148 ben  12  11  40
 149 ben  12  13  14
 150 prop tor  12  13  14  15
 151 prop tor  12  13  14  24
 152 ben  12  13  25
 153 prop tor  12  13  25  26
 154 prop tor  12  13  25  47
 155 ben  13  12  41
 156 ben  13  14  15
 157 prop tor  13  14  15  16
 158 prop tor  13  14  15  42
 159 ben  13  14  24
 160 prop tor  13  14  24  23
 161 ben  13  25  26
 162 prop tor  13  25  26  10
 163 prop tor  13  25  26  48
 164 ben  13  25  47
 165 ben  14  13  25
 166 prop tor  14  13  25  26
 167 prop tor  14  13  25  47
 168 ben  14  15  16
 169 prop tor  14  15  16  17
 170 prop tor  14  15  16  23
 171 ben  14  15  42
 172 ben  14  24  23
 173 ben  15  14  24
 174 prop tor  15  14  24  23
 175 ben  15  16  17
 176 prop tor  15  16  17  18
 177 prop tor  15  16  17  43
 178 prop tor  15  16  17  44
 179 ben  15  16  23
 180 prop tor  15  16  23  22
 181 prop tor  15  16  23  24
 182 ben  16  15  42
 183 ben  16  17  18
 184 prop tor  16  17  18  19
 185 prop tor  16  17  18  22
 186 ben  16  17  43
 187 ben  16  17  44
 188 ben  16  23  22
 189 ben  16  23  24
 190 prop tor  16  23  24  14
 191 ben  17  16  23
 192 prop tor  17  16  23  22
 193 prop tor  17  16  23  24
 194 ben  17  18  19
 195 prop tor  17  18  19  20
 196 prop tor  17  18  19  45
 197 ben  17  18  22
 198 prop tor  17  18  22  21
 199 prop tor  17  18  22  23
 200 ben  18  17  43
 201 ben  18  17  44
 202 ben  18  19  20
 203 prop tor  18  19  20  21
 204 prop tor  18  19  20  46
 205 ben  18  19  45
 206 ben  18  22  21
 207 ben  18  22  23
 208 prop tor  18  22  23  16
 209 prop tor  18  22  23  24
 210 ben  19  18  22
 211 prop tor  19  18  22  21
 212 prop tor  19  18  22  23
 213 ben  19  20  21
 214 prop tor  19  20  21  22
 215 ben  19  20  46
 216 ben  20  19  45
 217 ben  20  21  22
 218 prop tor  20  21  22  18
 219 prop tor  20  21  22  23
 220 ben  21  20  46
 221 ben  21  22  23
 222 prop tor  21  22  23  16
 223 prop tor  21  22  23  24
 224 prop tor  22  18  19  20
 225 prop tor  22  18  19  45
 226 ben  22  23  24
 227 prop tor  22  23  24  14
 228 prop tor  23  16  17  18
 229 prop tor  23  16  17  43
 230 prop tor  23  16  17  44
 231 prop tor  24  14  15  16
 232 prop tor  24  14  15  42
 233 prop tor  25  13  14  15
 234 prop tor  25  13  14  24
 235 ben  25  26  48
 236 prop tor  26  10  11  12
 237 prop tor  26  10  11  40
 238 ben  26  25  47
 239 prop tor  27   9  10  11
 240 prop tor  27   9  10  26
 241 ben  27  28  29
 242 prop tor  27  28  29  30
 243 prop tor  27  28  29  50
 244 ben  27  28  49
 245 ben  27  33  32
 246 ben  28  27  33
 247 prop tor  28  27  33   6
 248 prop tor  28  27  33  32
 249 ben  28  29  30
 250 prop tor  28  29  30  31
 251 prop tor  28  29  30  32
 252 ben  28  29  50
 253 ben  29  28  49
 254 ben  29  30  31
 255 prop tor  29  30  31   1
 256 prop tor  29  30  31  51
 257 ben  29  30  32
 258 prop tor  29  30  32   3
 259 prop tor  29  30  32  33
 260 ben  30  29  50
 261 ben  30  31  51
 262 ben  30  32  33
 263 prop tor  30  32  33   6
 264 prop tor  30  32  33  27
 265 prop tor  31   1   2   3
 266 prop tor  31   1   2  35
 267 ben  31   1  34
 268 ben  31  30  32
 269 prop tor  31  30  32   3
 270 prop tor  31  30  32  33
 271 prop tor  32   3   4   5
 272 prop tor  32   3   4  36
 273 prop tor  32  30  31   1
 274 prop tor  32  30  31  51
 275 prop tor  33   6   7   8
 276 prop tor  33   6   7  38
 277 prop tor  33  27  28  29
 278 prop tor  33  27  28  49
 279 prop tor  34   1   2   3
 280 prop tor  34   1   2  35
 281 prop tor  34   1  31  30
 282 prop tor  34   1  31  51
 283 prop tor  35   2   3   4
 284 prop tor  35   2   3  32
 285 prop tor  36   4   5   6
 286 prop tor  36   4   5  37
 287 prop tor  37   5   6   7
 288 prop tor  37   5   6  33
 289 prop tor  38   7   8   9
 290 prop tor  38   7   8  39
 291 prop tor  39   8   9  10
 292 prop tor  39   8   9  27
 293 prop tor  40  11  12  13
 294 prop tor  40  11  12  41
 295 prop tor  41  12  13  14
 296 prop tor  41  12  13  25
 297 prop tor  42  15  16  17
 298 prop tor  42  15  16  23
 299 prop tor  43  17  18  19
 300 prop tor  43  17  18  22
 301 ben  43  17  44
 302 prop tor  44  17  18  19
 303 prop tor  44  17  18  22
 304 prop tor  45  19  20  21
 305 prop tor  45  19  20  46
 306 prop tor  46  20  21  22
 307 prop tor  47  25  26  10
 308 prop tor  47  25  26  48
 309 prop tor  49  28  29  30
 310 prop tor  49  28  29  50
 311 prop tor  50  29  30  31
 312 prop tor  50  29  30  32
 nber bend=              98
 nber lin bend=           0
 nber prop tor=         156
 nber impr tor=           0
 nber tot redund int=         312
 Eigenvalues of G in red int coords
    Gval -0.00000000 -0.00000000 -0.00000000 -0.00000000 -0.00000000 -0.00000000 -0.00000000 -0.00000000
    Gval -0.00000000 -0.00000000 -0.00000000 -0.00000000 -0.00000000 -0.00000000 -0.00000000 -0.00000000
    Gval -0.00000000 -0.00000000 -0.00000000 -0.00000000 -0.00000000 -0.00000000 -0.00000000 -0.00000000
    Gval -0.00000000 -0.00000000 -0.00000000 -0.00000000 -0.00000000 -0.00000000 -0.00000000 -0.00000000
    Gval -0.00000000 -0.00000000 -0.00000000 -0.00000000 -0.00000000 -0.00000000 -0.00000000 -0.00000000
    Gval -0.00000000 -0.00000000 -0.00000000 -0.00000000 -0.00000000 -0.00000000 -0.00000000 -0.00000000
    Gval -0.00000000 -0.00000000 -0.00000000 -0.00000000 -0.00000000 -0.00000000 -0.00000000 -0.00000000
    Gval -0.00000000 -0.00000000 -0.00000000 -0.00000000 -0.00000000 -0.00000000 -0.00000000 -0.00000000
    Gval -0.00000000 -0.00000000 -0.00000000 -0.00000000 -0.00000000 -0.00000000 -0.00000000 -0.00000000
    Gval -0.00000000 -0.00000000 -0.00000000 -0.00000000 -0.00000000 -0.00000000 -0.00000000 -0.00000000
    Gval -0.00000000 -0.00000000  0.00000000  0.00000000  0.00000000  0.00000000  0.00000000  0.00000000
    Gval  0.00000000  0.00000000  0.00000000  0.00000000  0.00000000  0.00000000  0.00000000  0.00000000
    Gval  0.00000000  0.00000000  0.00000000  0.00000000  0.00000000  0.00000000  0.00000000  0.00000000
    Gval  0.00000000  0.00000000  0.00000000  0.00000000  0.00000000  0.00000000  0.00000000  0.00000000
    Gval  0.00000000  0.00000000  0.00000000  0.00000000  0.00000000  0.00000000  0.00000000  0.00000000
    Gval  0.00000000  0.00000000  0.00000000  0.00000000  0.00000000  0.00000000  0.00000000  0.00000000
    Gval  0.00000000  0.00000000  0.00000000  0.00000000  0.00000000  0.00000000  0.00000000  0.00000000
    Gval  0.00000000  0.00000000  0.00000000  0.00000000  0.00000000  0.00000000  0.00000000  0.00000000
    Gval  0.00000000  0.00000000  0.00000000  0.00000000  0.00000000  0.00000000  0.00000000  0.00000000
    Gval  0.00000000  0.00000000  0.00000000  0.00000000  0.00000000  0.00000000  0.00000000  0.00000000
    Gval  0.00000000  0.00000000  0.00000000  0.00000000  0.00000000  0.00000029  0.00000058  0.00000139
    Gval  0.00000285  0.00000410  0.00000446  0.00000738  0.00001100  0.00001362  0.00001665  0.00001809
    Gval  0.00002317  0.00002391  0.00002422  0.00002703  0.00002876  0.00003061  0.00003220  0.00003737
    Gval  0.00003899  0.00004662  0.00004921  0.00005055  0.00005437  0.00005785  0.00005904  0.00006388
    Gval  0.00006654  0.00006886  0.00007030  0.00007332  0.00007762  0.00007961  0.00008376  0.00008727
    Gval  0.00009101  0.00009343  0.00009674  0.00010442  0.00011016  0.00011467  0.00011973  0.00012129
    Gval  0.00013024  0.00013372  0.00013506  0.00014025  0.00014303  0.00016226  0.00016361  0.00017778
    Gval  0.00019353  0.00020625  0.00021098  0.00022092  0.00024753  0.00025977  0.00026374  0.00028578
    Gval  0.00028991  0.00030072  0.00030300  0.00030791  0.00033432  0.00035916  0.00037026  0.00037101
    Gval  0.00037618  0.00038021  0.00038369  0.00040579  0.00041330  0.00041925  0.00042732  0.00043495
    Gval  0.00044763  0.00045166  0.00047647  0.00057953  0.00058342  0.00059389  0.00059658  0.00059677
    Gval  0.00059730  0.00059878  0.00059969  0.00060045  0.00060816  0.00060826  0.00062408  0.00062560
    Gval  0.00062971  0.00063411  0.00064201  0.00064525  0.00065090  0.00065672  0.00066162  0.00076721
    Gval  0.00080214  0.00084650  0.00100206  0.00106598  0.00107496  0.00108307  0.00108476  0.00108707
    Gval  0.00109266  0.00109641  0.00110830  0.00114103  0.00114363  0.00114755  0.00115254  0.00116186
    Gval  0.00116310  0.00116404  0.00117006  0.00117050  0.00118542  0.00126952  0.00133837  0.00138770
    Gval  0.00151322  0.00166990  0.00174525  0.00185162  0.00192711  0.00197110  0.00208713  0.00222850
    Gval  0.00234095  0.00241933  0.00251864  0.00255347  0.00263094  0.00268202  0.00302755  0.00311376
    Gval  0.00359234  0.00361209  0.00368292  0.00371108  0.00374799  0.00375509  0.00393388  0.00407684
  2.923191204349906E-007  2.923191204349906E-007
  5.840850281434360E-007  2.923191204349906E-007
  1.393400948586458E-006  2.923191204349906E-007
  2.847676720599933E-006  2.923191204349906E-007
  4.099656756031556E-006  2.923191204349906E-007
  4.463699689900622E-006  2.923191204349906E-007
  7.381408575960310E-006  2.923191204349906E-007
  1.099935793916441E-005  2.923191204349906E-007
  1.361711798007425E-005  2.923191204349906E-007
  1.664681016571182E-005  2.923191204349906E-007
  1.809385411654894E-005  2.923191204349906E-007
  2.316644732642814E-005  2.923191204349906E-007
  2.391081088033381E-005  2.923191204349906E-007
  2.422459863646445E-005  2.923191204349906E-007
  2.702756313787367E-005  2.923191204349906E-007
  2.875790709571647E-005  2.923191204349906E-007
  3.061094514642553E-005  2.923191204349906E-007
  3.219560623706519E-005  2.923191204349906E-007
  3.737359620315108E-005  2.923191204349906E-007
  3.898891735792754E-005  2.923191204349906E-007
  4.661901819967341E-005  2.923191204349906E-007
  4.921173858240270E-005  2.923191204349906E-007
  5.055351915212710E-005  2.923191204349906E-007
  5.436532383662785E-005  2.923191204349906E-007
  5.785306777591553E-005  2.923191204349906E-007
  5.904245758751046E-005  2.923191204349906E-007
  6.387994097215314E-005  2.923191204349906E-007
  6.653750438776280E-005  2.923191204349906E-007
  6.885879363356935E-005  2.923191204349906E-007
  7.030137159144298E-005  2.923191204349906E-007
  7.332192610611596E-005  2.923191204349906E-007
  7.762343616446628E-005  2.923191204349906E-007
  7.961287528090691E-005  2.923191204349906E-007
  8.375598418251801E-005  2.923191204349906E-007
  8.727307227982776E-005  2.923191204349906E-007
  9.101308956741688E-005  2.923191204349906E-007
  9.343050364239133E-005  2.923191204349906E-007
  9.674236448218418E-005  2.923191204349906E-007
  1.044210186265479E-004  2.923191204349906E-007
  1.101620948827508E-004  2.923191204349906E-007
  1.146665406508570E-004  2.923191204349906E-007
  1.197332323231015E-004  2.923191204349906E-007
  1.212916955156235E-004  2.923191204349906E-007
  1.302422321403436E-004  2.923191204349906E-007
  1.337217483502636E-004  2.923191204349906E-007
  1.350632429490222E-004  2.923191204349906E-007
  1.402503351959867E-004  2.923191204349906E-007
  1.430290154812386E-004  2.923191204349906E-007
  1.622569354653450E-004  2.923191204349906E-007
  1.636085355206836E-004  2.923191204349906E-007
  1.777847800022011E-004  2.923191204349906E-007
  1.935267307272557E-004  2.923191204349906E-007
  2.062519503669161E-004  2.923191204349906E-007
  2.109792931336692E-004  2.923191204349906E-007
  2.209233981824984E-004  2.923191204349906E-007
  2.475336764274105E-004  2.923191204349906E-007
  2.597697220776310E-004  2.923191204349906E-007
  2.637447938658654E-004  2.923191204349906E-007
  2.857791407886121E-004  2.923191204349906E-007
  2.899117065508073E-004  2.923191204349906E-007
  3.007161016346426E-004  2.923191204349906E-007
  3.029985487020287E-004  2.923191204349906E-007
  3.079132446029242E-004  2.923191204349906E-007
  3.343238501833884E-004  2.923191204349906E-007
  3.591610675256638E-004  2.923191204349906E-007
  3.702579557110528E-004  2.923191204349906E-007
  3.710067536407334E-004  2.923191204349906E-007
  3.761794520014312E-004  2.923191204349906E-007
  3.802059810915682E-004  2.923191204349906E-007
  3.836903574057359E-004  2.923191204349906E-007
  4.057859353881203E-004  2.923191204349906E-007
  4.132973394129347E-004  2.923191204349906E-007
  4.192526341240734E-004  2.923191204349906E-007
  4.273159114476546E-004  2.923191204349906E-007
  4.349522197822224E-004  2.923191204349906E-007
  4.476308676059309E-004  2.923191204349906E-007
  4.516584270633384E-004  2.923191204349906E-007
  4.764663790962839E-004  2.923191204349906E-007
  5.795287305122640E-004  2.923191204349906E-007
  5.834188980756187E-004  2.923191204349906E-007
  5.938930986576001E-004  2.923191204349906E-007
  5.965764670182146E-004  2.923191204349906E-007
  5.967650150398376E-004  2.923191204349906E-007
  5.973022582381096E-004  2.923191204349906E-007
  5.987784495602550E-004  2.923191204349906E-007
  5.996890146930167E-004  2.923191204349906E-007
  6.004512217282384E-004  2.923191204349906E-007
  6.081620862637366E-004  2.923191204349906E-007
  6.082634349055528E-004  2.923191204349906E-007
  6.240758370219461E-004  2.923191204349906E-007
  6.255992774073769E-004  2.923191204349906E-007
  6.297108260156116E-004  2.923191204349906E-007
  6.341060658231516E-004  2.923191204349906E-007
  6.420100854111401E-004  2.923191204349906E-007
  6.452450752449928E-004  2.923191204349906E-007
  6.509028673330287E-004  2.923191204349906E-007
  6.567244758368516E-004  2.923191204349906E-007
  6.616238083934230E-004  2.923191204349906E-007
  7.672103456031960E-004  2.923191204349906E-007
  8.021423218774964E-004  2.923191204349906E-007
  8.465031414493330E-004  2.923191204349906E-007
  1.002064911202388E-003  2.923191204349906E-007
  1.065979806134642E-003  2.923191204349906E-007
  1.074959776774134E-003  2.923191204349906E-007
  1.083072969746984E-003  2.923191204349906E-007
  1.084764407101707E-003  2.923191204349906E-007
  1.087068977581560E-003  2.923191204349906E-007
  1.092664049291682E-003  2.923191204349906E-007
  1.096406977492981E-003  2.923191204349906E-007
  1.108299050208503E-003  2.923191204349906E-007
  1.141034679478183E-003  2.923191204349906E-007
  1.143625321910173E-003  2.923191204349906E-007
  1.147545980191682E-003  2.923191204349906E-007
  1.152542825373070E-003  2.923191204349906E-007
  1.161864118022336E-003  2.923191204349906E-007
  1.163102936766563E-003  2.923191204349906E-007
  1.164043776057759E-003  2.923191204349906E-007
  1.170056889318889E-003  2.923191204349906E-007
  1.170502769062679E-003  2.923191204349906E-007
  1.185423479002482E-003  2.923191204349906E-007
  1.269517082163541E-003  2.923191204349906E-007
  1.338366902310055E-003  2.923191204349906E-007
  1.387696802964396E-003  2.923191204349906E-007
  1.513216173377215E-003  2.923191204349906E-007
  1.669895010259703E-003  2.923191204349906E-007
  1.745245505814273E-003  2.923191204349906E-007
  1.851617947880153E-003  2.923191204349906E-007
  1.927107422406209E-003  2.923191204349906E-007
  1.971101392476045E-003  2.923191204349906E-007
  2.087130681425001E-003  2.923191204349906E-007
  2.228500830973941E-003  2.923191204349906E-007
  2.340953666996972E-003  2.923191204349906E-007
  2.419334900952309E-003  2.923191204349906E-007
  2.518644569924424E-003  2.923191204349906E-007
  2.553469776365861E-003  2.923191204349906E-007
  2.630936629767782E-003  2.923191204349906E-007
  2.682021700628045E-003  2.923191204349906E-007
  3.027551801104764E-003  2.923191204349906E-007
  3.113759701036852E-003  2.923191204349906E-007
  3.592336254826827E-003  2.923191204349906E-007
  3.612088747668447E-003  2.923191204349906E-007
  3.682915949912813E-003  2.923191204349906E-007
  3.711081864587085E-003  2.923191204349906E-007
  3.747991602649996E-003  2.923191204349906E-007
  3.755093007202918E-003  2.923191204349906E-007
  3.933881188616651E-003  2.923191204349906E-007
  4.076838058122261E-003  2.923191204349906E-007
 cut=1d-8, nber non-redundant internal coords=         147
 Check on Eigenvals of non-red overlap matrix:
  0.00000029  0.00000058  0.00000139  0.00000285  0.00000410  0.00000446  0.00000738  0.00001100
  0.00001362  0.00001665  0.00001809  0.00002317  0.00002391  0.00002422  0.00002703  0.00002876
  0.00003061  0.00003220  0.00003737  0.00003899  0.00004662  0.00004921  0.00005055  0.00005437
  0.00005785  0.00005904  0.00006388  0.00006654  0.00006886  0.00007030  0.00007332  0.00007762
[...]
 nber times 1st assigned=          56           0
 nber times 1st assigned=          57           0
 nber times 1st assigned=          58           0
 nber times 1st assigned=          59           0
 nber times 1st assigned=          60           0
 nber times 1st assigned=          61           0
 nber times 1st assigned=          62           0
 nber times 1st assigned=          63           0
 nber times 1st assigned=          64           0
 nber times 1st assigned=          65           0
 nber times 1st assigned=          66           0
 nber times 1st assigned=          67           0
 nber times 1st assigned=          68           0
 nber times 1st assigned=          69           0
 nber times 1st assigned=          70           0
 nber times 1st assigned=          71           0
 nber times 1st assigned=          72           0
 nber times 1st assigned=          73           0
 nber times 1st assigned=          74           0
 nber times 1st assigned=          75           0
 nber times 1st assigned=          76           0
 nber times 1st assigned=          77           0
 nber times 1st assigned=          78           0
 nber times 1st assigned=          79           0
 nber times 1st assigned=          80           0
 nber times 1st assigned=          81           0
 nber times 1st assigned=          82           0
 nber times 1st assigned=          83           0
 nber times 1st assigned=          84           0
 nber times 1st assigned=          85           0
 nber times 1st assigned=          86           0
 nber times 1st assigned=          87           0
 nber times 1st assigned=          88           0
 nber times 1st assigned=          89           0
 nber times 1st assigned=          90           0
 nber times 1st assigned=          91           0
 nber times 1st assigned=          92           0
 nber times 1st assigned=          93           0
 nber times 1st assigned=          94           0
 nber times 1st assigned=          95           0
 nber times 1st assigned=          96           0
 nber times 1st assigned=          97           0
 nber times 1st assigned=          98           0
 nber times 1st assigned=          99           0
 nber times 1st assigned=         100           0
 nber times 1st assigned=         101           0
 nber times 1st assigned=         102           0
 nber times 1st assigned=         103           0
 nber times 1st assigned=         104           0
 nber times 1st assigned=         105           0
 nber times 1st assigned=         106           0
 nber times 1st assigned=         107           0
 nber times 1st assigned=         108           0
 nber times 1st assigned=         109           0
 nber times 1st assigned=         110           0
 nber times 1st assigned=         111           0
 nber times 1st assigned=         112           0
 nber times 1st assigned=         113           0
 nber times 1st assigned=         114           0
 nber times 1st assigned=         115           0
 nber times 1st assigned=         116           0
 nber times 1st assigned=         117           0
 nber times 1st assigned=         118           0
 nber times 1st assigned=         119           0
 nber times 1st assigned=         120           0
 nber times 1st assigned=         121           0
 nber times 1st assigned=         122           0
 nber times 1st assigned=         123           0
 nber times 1st assigned=         124           0
 nber times 1st assigned=         125           0
 nber times 1st assigned=         126           0
 nber times 1st assigned=         127           0
 nber times 1st assigned=         128           0
 nber times 1st assigned=         129           0
 nber times 1st assigned=         130           0
 nber times 1st assigned=         131           0
 nber times 1st assigned=         132           0
 nber times 1st assigned=         133           0
 nber times 1st assigned=         134           0
 nber times 1st assigned=         135           0
 nber times 1st assigned=         136           0
 nber times 1st assigned=         137           0
 nber times 1st assigned=         138           0
 nber times 1st assigned=         139           0
 nber times 1st assigned=         140           0
 nber times 1st assigned=         141           0
 nber times 1st assigned=         142           0
 nber times 1st assigned=         143           0
 nber times 1st assigned=         144           0
 nber times 1st assigned=         145           0
 nber times 1st assigned=         146           0
 nber times 1st assigned=         147           0
 nber times 1st assigned=         148           0
 nber times 1st assigned=         149           0
 nber times 1st assigned=         150           0
 nber times 1st assigned=         151           0
 nber times 1st assigned=         152           0
 nber times 1st assigned=         153           0
 modes represented=   162.971434488044     
 p1=
    0.   -0.   -0.    0.    0.    0. -172. -234.   94.  -17.   10.    6.    6.  -20.    9.   -3.  -17.   -0.    1.   -2.
    2.   -2.   -2.    3.   -2.    2.    1.    1.    0.    2.    7.   -1.    1.   -1.    1.   -1.   -0.   -1.   -1.    0.
    1.   -1.    3.    2.    0.    1.   -2.    1.   -0.    2.   -0.    3.    1.    0.   -1.   -1.   -2.   -1.   -0.    0.
   -0.    0.   -1.   -0.    0.    0.   -0.    0.   -1.   -1.    0.    0.   -1.   -0.    0.   -0.    0.    0.   -0.   -0.
   -1.    1.    0.   -1.   -0.    0.    1.    1.   -0.   -2.   -0.   -0.   -2.    0.   -0.   -0.    1.    0.    0.    2.
   -2.    1.    1.    1.   -0.   -1.   -1.    0.    1.   -1.   -1.    1.   -2.   -0.   -1.   -2.    0.   -0.   -1.   -1.
    1.   -1.    0.    0.   -0.   -1.   -2.   -1.   -1.    1.   -0.   -2.   -1.    2.    0.    0.    0.    0.    0.    0.
   -0.    0.   -0.   -0.   -0.   -0.   -0.    0.    0.    0.    0.   -0.   -0.
 p2=
   -0.   -0.   -0.   -0.   -0.   -0. -271. -126.  -38.  -14.   34.  -21.   -9.   18.    4.   -1.   13.   -4.    1.    3.
   -3.    0.   -3.    1.   -2.    2.    1.   -0.    0.   -3.    3.    1.    1.    0.    0.    0.   -0.   -1.   -0.   -1.
   -0.    1.    1.    1.   -0.    1.    1.    0.   -0.   -0.    1.   -0.   -2.    1.    0.   -2.   -1.   -2.    0.    0.
   -0.    0.   -0.   -0.    0.   -0.    1.    1.   -0.    0.   -1.   -0.   -0.   -1.   -0.    0.   -0.   -0.   -0.    0.
   -0.   -0.   -0.   -0.    1.   -0.    0.    1.    0.    0.   -1.    0.   -0.   -1.   -0.   -0.   -0.   -1.   -0.   -2.
    0.    0.   -0.   -1.    1.   -1.    0.    0.    1.   -0.    1.    0.    0.    2.    2.    0.    0.    0.   -0.    1.
   -0.   -0.   -1.    0.   -0.   -1.    1.   -0.   -1.    0.   -1.   -1.    0.    2.   -4.   -0.   -0.    0.   -0.    0.
   -0.    0.    0.    0.    0.   -0.    0.    0.   -0.    0.   -0.   -0.   -0.

 Displacement: in terms of nc of 1 THEN of nc of 2

   1     freq=    -0. Q=  0.000 lam=    -0.0     freq=    -0. Q=  0.000 lam=    -0.0
   2     freq=    -0. Q= -0.000 lam=    -0.0     freq=    -0. Q= -0.000 lam=    -0.0
   3     freq=    -0. Q= -0.000 lam=    -0.0     freq=    -0. Q= -0.000 lam=    -0.0
   4     freq=    -0. Q=  0.000 lam=    -0.0     freq=     0. Q=  0.000 lam=     0.0
   5     freq=     0. Q=  0.000 lam=     0.0     freq=     0. Q=  0.000 lam=     0.0
   6     freq=     0. Q=  0.000 lam=     0.0     freq=     0. Q=  0.000 lam=     0.0
   7     freq=    14. Q= -2.626 lam=    49.3     freq=    13. Q= -3.906 lam=    97.6
   8     freq=    24. Q= -4.640 lam=   260.0     freq=    18. Q= -2.180 lam=    43.4
   9     freq=    29. Q=  2.024 lam=    58.8     freq=    26. Q=  0.776 lam=     7.7
  10     freq=    45. Q= -0.466 lam=     4.9     freq=    49. Q= -0.394 lam=     3.8
  11     freq=    67. Q=  0.345 lam=     4.0     freq=    60. Q=  1.053 lam=    33.4
  12     freq=    80. Q=  0.204 lam=     1.7     freq=    68. Q=  0.685 lam=    15.9
  13     freq=   101. Q=  0.224 lam=     2.6     freq=   105. Q=  0.386 lam=     7.9
  14     freq=   119. Q= -0.878 lam=    46.0     freq=   113. Q= -0.783 lam=    34.6
  15     freq=   136. Q=  0.443 lam=    13.4     freq=   134. Q=  0.181 lam=     2.2
  16     freq=   144. Q= -0.163 lam=     1.9     freq=   143. Q= -0.029 lam=     0.1
  17     freq=   159. Q= -0.840 lam=    56.0     freq=   152. Q= -0.646 lam=    31.8
  18     freq=   183. Q= -0.010 lam=     0.0     freq=   186. Q= -0.198 lam=     3.7
  19     freq=   196. Q=  0.061 lam=     0.4     freq=   197. Q=  0.051 lam=     0.3
  20     freq=   224. Q= -0.091 lam=     0.9     freq=   216. Q= -0.159 lam=     2.7
  21     freq=   242. Q=  0.126 lam=     1.9     freq=   226. Q=  0.156 lam=     2.7
  22     freq=   245. Q= -0.117 lam=     1.7     freq=   245. Q= -0.029 lam=     0.1
  23     freq=   266. Q= -0.154 lam=     3.2     freq=   265. Q= -0.221 lam=     6.5
  24     freq=   279. Q=  0.186 lam=     4.8     freq=   270. Q=  0.071 lam=     0.7
  25     freq=   304. Q= -0.146 lam=     3.2     freq=   315. Q= -0.158 lam=     3.9
  26     freq=   337. Q=  0.163 lam=     4.5     freq=   333. Q=  0.144 lam=     3.5
  27     freq=   338. Q=  0.061 lam=     0.6     freq=   339. Q=  0.065 lam=     0.7
  28     freq=   382. Q=  0.079 lam=     1.2     freq=   382. Q=  0.031 lam=     0.2
  29     freq=   410. Q=  0.032 lam=     0.2     freq=   411. Q=  0.014 lam=     0.0
  30     freq=   414. Q=  0.163 lam=     5.5     freq=   420. Q=  0.264 lam=    14.7
  31     freq=   429. Q=  0.564 lam=    68.2     freq=   424. Q=  0.279 lam=    16.4
  32     freq=   446. Q= -0.087 lam=     1.7     freq=   440. Q= -0.045 lam=     0.4
  33     freq=   452. Q=  0.101 lam=     2.3     freq=   447. Q=  0.069 lam=     1.1
  34     freq=   457. Q= -0.087 lam=     1.7     freq=   461. Q= -0.010 lam=     0.0
  35     freq=   475. Q=  0.056 lam=     0.8     freq=   476. Q=  0.018 lam=     0.1
  36     freq=   488. Q= -0.047 lam=     0.5     freq=   493. Q= -0.012 lam=     0.0
  37     freq=   515. Q= -0.004 lam=     0.0     freq=   495. Q= -0.026 lam=     0.2
  38     freq=   523. Q= -0.070 lam=     1.3     freq=   512. Q= -0.091 lam=     2.1
  39     freq=   525. Q= -0.111 lam=     3.2     freq=   520. Q= -0.036 lam=     0.3
  40     freq=   532. Q=  0.045 lam=     0.5     freq=   528. Q=  0.066 lam=     1.1
  41     freq=   541. Q=  0.056 lam=     0.8     freq=   541. Q=  0.036 lam=     0.4
  42     freq=   558. Q= -0.076 lam=     1.6     freq=   547. Q= -0.106 lam=     3.1
  43     freq=   564. Q=  0.272 lam=    20.9     freq=   570. Q=  0.050 lam=     0.7
  44     freq=   568. Q=  0.179 lam=     9.1     freq=   572. Q=  0.108 lam=     3.3
  45     freq=   581. Q=  0.034 lam=     0.3     freq=   580. Q=  0.044 lam=     0.6
  46     freq=   583. Q=  0.110 lam=     3.5     freq=   589. Q=  0.065 lam=     1.2
  47     freq=   596. Q= -0.232 lam=    16.1     freq=   618. Q= -0.059 lam=     1.1
  48     freq=   632. Q=  0.083 lam=     2.2     freq=   625. Q=  0.017 lam=     0.1
  49     freq=   635. Q= -0.019 lam=     0.1     freq=   633. Q= -0.006 lam=     0.0
  50     freq=   643. Q=  0.160 lam=     8.2     freq=   646. Q=  0.018 lam=     0.1
  51     freq=   647. Q= -0.004 lam=     0.0     freq=   654. Q= -0.105 lam=     3.6
  52     freq=   673. Q=  0.302 lam=    30.8     freq=   681. Q=  0.011 lam=     0.0
  53     freq=   701. Q=  0.087 lam=     2.6     freq=   689. Q=  0.160 lam=     8.8
  54     freq=   705. Q=  0.001 lam=     0.0     freq=   702. Q=  0.063 lam=     1.4
  55     freq=   708. Q= -0.095 lam=     3.2     freq=   705. Q= -0.004 lam=     0.0
  56     freq=   710. Q= -0.158 lam=     8.9     freq=   716. Q= -0.175 lam=    10.9
  57     freq=   727. Q= -0.194 lam=    13.7     freq=   730. Q= -0.069 lam=     1.7
  58     freq=   742. Q= -0.079 lam=     2.3     freq=   737. Q= -0.207 lam=    15.8
  59     freq=   756. Q= -0.019 lam=     0.1     freq=   755. Q= -0.045 lam=     0.8
  60     freq=   778. Q=  0.016 lam=     0.1     freq=   761. Q=  0.039 lam=     0.6
  61     freq=   782. Q= -0.017 lam=     0.1     freq=   777. Q= -0.038 lam=     0.5
  62     freq=   805. Q=  0.045 lam=     0.8     freq=   796. Q=  0.020 lam=     0.2
  63     freq=   812. Q= -0.070 lam=     2.0     freq=   823. Q= -0.008 lam=     0.0
  64     freq=   815. Q= -0.016 lam=     0.1     freq=   831. Q= -0.015 lam=     0.1
  65     freq=   832. Q=  0.042 lam=     0.7     freq=   834. Q=  0.018 lam=     0.1
  66     freq=   839. Q=  0.004 lam=     0.0     freq=   838. Q=  0.043 lam=     0.8
  67     freq=   843. Q= -0.027 lam=     0.3     freq=   848. Q= -0.138 lam=     8.1
  68     freq=   853. Q=  0.042 lam=     0.8     freq=   854. Q=  0.069 lam=     2.0
  69     freq=   863. Q= -0.074 lam=     2.3     freq=   859. Q= -0.045 lam=     0.9
  70     freq=   867. Q= -0.070 lam=     2.1     freq=   863. Q= -0.034 lam=     0.5
  71     freq=   875. Q=  0.017 lam=     0.1     freq=   870. Q=  0.082 lam=     2.9
  72     freq=   902. Q=  0.003 lam=     0.0     freq=   896. Q=  0.011 lam=     0.1
  73     freq=   917. Q= -0.102 lam=     4.8     freq=   902. Q= -0.003 lam=     0.0
  74     freq=   925. Q= -0.001 lam=     0.0     freq=   932. Q= -0.081 lam=     3.0
  75     freq=   958. Q=  0.004 lam=     0.0     freq=   956. Q=  0.001 lam=     0.0
  76     freq=   967. Q= -0.050 lam=     1.2     freq=   967. Q= -0.015 lam=     0.1
  77     freq=   984. Q=  0.022 lam=     0.2     freq=   970. Q=  0.009 lam=     0.0
  78     freq=   991. Q=  0.018 lam=     0.2     freq=   977. Q=  0.011 lam=     0.1
  79     freq=   993. Q= -0.047 lam=     1.1     freq=   978. Q= -0.003 lam=     0.0
  80     freq=   999. Q= -0.056 lam=     1.6     freq=   989. Q= -0.022 lam=     0.2
  81     freq=  1001. Q= -0.145 lam=    10.6     freq=   995. Q= -0.004 lam=     0.0
  82     freq=  1003. Q=  0.184 lam=    17.0     freq=  1000. Q=  0.022 lam=     0.2
  83     freq=  1008. Q=  0.011 lam=     0.1     freq=  1003. Q=  0.018 lam=     0.2
  84     freq=  1012. Q= -0.068 lam=     2.4     freq=  1013. Q= -0.027 lam=     0.4
  85     freq=  1021. Q= -0.025 lam=     0.3     freq=  1021. Q= -0.091 lam=     4.3
  86     freq=  1030. Q=  0.032 lam=     0.5     freq=  1039. Q=  0.056 lam=     1.6
  87     freq=  1038. Q=  0.081 lam=     3.4     freq=  1050. Q=  0.060 lam=     1.9
  88     freq=  1108. Q=  0.176 lam=    17.2     freq=  1107. Q=  0.120 lam=     8.0
  89     freq=  1114. Q= -0.029 lam=     0.5     freq=  1115. Q= -0.014 lam=     0.1
  90     freq=  1131. Q= -0.259 lam=    37.9     freq=  1125. Q= -0.059 lam=     2.0
  91     freq=  1143. Q= -0.027 lam=     0.4     freq=  1145. Q= -0.122 lam=     8.6
  92     freq=  1152. Q= -0.020 lam=     0.2     freq=  1152. Q= -0.064 lam=     2.4
  93     freq=  1163. Q= -0.207 lam=    24.9     freq=  1159. Q= -0.001 lam=     0.0
  94     freq=  1166. Q=  0.002 lam=     0.0     freq=  1167. Q=  0.078 lam=     3.5
  95     freq=  1178. Q= -0.043 lam=     1.1     freq=  1182. Q= -0.020 lam=     0.2
  96     freq=  1191. Q= -0.056 lam=     1.9     freq=  1192. Q= -0.060 lam=     2.2
  97     freq=  1198. Q=  0.106 lam=     6.7     freq=  1198. Q=  0.066 lam=     2.6
  98     freq=  1212. Q=  0.029 lam=     0.5     freq=  1220. Q=  0.201 lam=    24.7
  99     freq=  1217. Q=  0.038 lam=     0.9     freq=  1224. Q=  0.006 lam=     0.0
 100     freq=  1225. Q=  0.281 lam=    48.3     freq=  1227. Q=  0.244 lam=    36.5
 101     freq=  1244. Q= -0.238 lam=    35.2     freq=  1233. Q= -0.055 lam=     1.9
 102     freq=  1249. Q=  0.192 lam=    23.1     freq=  1251. Q=  0.036 lam=     0.8
 103     freq=  1258. Q=  0.167 lam=    17.5     freq=  1256. Q=  0.041 lam=     1.1
 104     freq=  1281. Q=  0.152 lam=    14.8     freq=  1279. Q=  0.119 lam=     9.1
 105     freq=  1291. Q= -0.012 lam=     0.1     freq=  1288. Q= -0.147 lam=    13.9
 106     freq=  1304. Q= -0.141 lam=    13.0     freq=  1288. Q= -0.085 lam=     4.6
 107     freq=  1314. Q= -0.152 lam=    15.1     freq=  1307. Q= -0.050 lam=     1.7
 108     freq=  1338. Q=  0.023 lam=     0.4     freq=  1316. Q=  0.002 lam=     0.0
 109     freq=  1344. Q=  0.120 lam=     9.6     freq=  1334. Q=  0.138 lam=    12.7
 110     freq=  1361. Q= -0.132 lam=    11.8     freq=  1347. Q= -0.027 lam=     0.5
 111     freq=  1384. Q= -0.183 lam=    23.2     freq=  1377. Q= -0.125 lam=    10.8
 112     freq=  1394. Q=  0.216 lam=    32.4     freq=  1388. Q=  0.025 lam=     0.4
 113     freq=  1410. Q= -0.236 lam=    39.2     freq=  1392. Q= -0.041 lam=     1.2
 114     freq=  1420. Q= -0.028 lam=     0.6     freq=  1413. Q= -0.230 lam=    37.4
 115     freq=  1440. Q= -0.121 lam=    10.6     freq=  1440. Q= -0.250 lam=    45.1
 116     freq=  1447. Q= -0.266 lam=    51.2     freq=  1445. Q= -0.011 lam=     0.1
 117     freq=  1455. Q=  0.055 lam=     2.2     freq=  1451. Q=  0.051 lam=     1.9
 118     freq=  1462. Q= -0.004 lam=     0.0     freq=  1458. Q= -0.022 lam=     0.3
 119     freq=  1473. Q= -0.118 lam=    10.3     freq=  1463. Q= -0.073 lam=     3.9
 120     freq=  1485. Q= -0.097 lam=     7.0     freq=  1469. Q= -0.100 lam=     7.4
 121     freq=  1488. Q=  0.222 lam=    36.5     freq=  1484. Q=  0.077 lam=     4.4
 122     freq=  1511. Q= -0.116 lam=    10.1     freq=  1488. Q= -0.056 lam=     2.4
 123     freq=  1518. Q=  0.035 lam=     0.9     freq=  1507. Q=  0.118 lam=    10.5
 124     freq=  1525. Q=  0.001 lam=     0.0     freq=  1527. Q=  0.028 lam=     0.6
 125     freq=  1527. Q= -0.050 lam=     1.9     freq=  1538. Q= -0.015 lam=     0.2
 126     freq=  1532. Q= -0.130 lam=    13.0     freq=  1545. Q= -0.151 lam=    17.5
 127     freq=  1536. Q= -0.272 lam=    57.0     freq=  1553. Q= -0.201 lam=    31.5
 128     freq=  1559. Q= -0.177 lam=    24.4     freq=  1564. Q= -0.054 lam=     2.3
 129     freq=  1575. Q= -0.202 lam=    32.3     freq=  1584. Q= -0.111 lam=     9.8
 130     freq=  1589. Q=  0.113 lam=    10.1     freq=  1603. Q=  0.079 lam=     5.0
 131     freq=  1645. Q= -0.072 lam=     4.2     freq=  1606. Q= -0.164 lam=    21.6
 132     freq=  1655. Q= -0.345 lam=    98.7     freq=  1618. Q= -0.137 lam=    15.1
 133     freq=  1664. Q= -0.165 lam=    22.8     freq=  1628. Q= -0.059 lam=     2.8
 134     freq=  1673. Q=  0.349 lam=   102.1     freq=  1674. Q=  0.412 lam=   142.2
 135     freq=  1684. Q=  0.047 lam=     1.9     freq=  1988. Q=  0.762 lam=   576.4
 136     freq=  3050. Q=  0.009 lam=     0.1     freq=  3037. Q=  0.005 lam=     0.0
 137     freq=  3079. Q=  0.000 lam=     0.0     freq=  3063. Q=  0.001 lam=     0.0
 138     freq=  3180. Q=  0.003 lam=     0.0     freq=  3183. Q=  0.002 lam=     0.0
 139     freq=  3182. Q=  0.003 lam=     0.0     freq=  3185. Q=  0.007 lam=     0.1
 140     freq=  3186. Q=  0.005 lam=     0.0     freq=  3187. Q=  0.009 lam=     0.1
 141     freq=  3187. Q= -0.002 lam=     0.0     freq=  3189. Q= -0.009 lam=     0.1
 142     freq=  3190. Q=  0.004 lam=     0.0     freq=  3190. Q=  0.004 lam=     0.0
 143     freq=  3191. Q= -0.002 lam=     0.0     freq=  3194. Q= -0.001 lam=     0.0
 144     freq=  3200. Q= -0.005 lam=     0.0     freq=  3194. Q= -0.005 lam=     0.0
 145     freq=  3202. Q= -0.005 lam=     0.0     freq=  3201. Q= -0.006 lam=     0.1
 146     freq=  3207. Q= -0.007 lam=     0.1     freq=  3204. Q= -0.011 lam=     0.2
 147     freq=  3207. Q= -0.007 lam=     0.1     freq=  3206. Q= -0.002 lam=     0.0
 148     freq=  3214. Q=  0.009 lam=     0.1     freq=  3209. Q=  0.012 lam=     0.2
 149     freq=  3220. Q=  0.006 lam=     0.1     freq=  3211. Q=  0.007 lam=     0.1
 150     freq=  3224. Q=  0.000 lam=     0.0     freq=  3224. Q=  0.001 lam=     0.0
 151     freq=  3232. Q=  0.008 lam=     0.1     freq=  3227. Q=  0.003 lam=     0.0
 152     freq=  3241. Q= -0.014 lam=     0.3     freq=  3231. Q= -0.015 lam=     0.3
 153     freq=  3264. Q= -0.000 lam=     0.0     freq=  3265. Q= -0.001 lam=     0.0

 total reorg energy (cm**-1, kcal/mol)=     1659.     1511.      4.74      4.32
 Nber of molecules processed=           2
