 Enter ifcurve (0=recti, 1=orth curvi, 2=apprx curvi, -1 = skip
 And atom ordering flag, 0= never changes, 1= use the first order thenceforth,
  2= deduce it (does read on fail), 3= always read it
 Reading file: 
 ./Benzene_Conj_1_C0S0.log                                                      
                                          
  Entering Gaussian System, Link 0=g16                                          
  
 Gaussian format, type: g94, g98, g03= F F F
  #P Geom=AllCheck Guess=TCheck SCRF=Check GenChk RB3LYP/6-311G(d,p) Fre    
 energy type= B3LYP   
 Original G94 input coords:
  6  1.243597 -1.400320  0.000000
  6  0.000000 -0.715707  0.000000
  6 -1.243597 -1.400320  0.000000
  6 -2.429721 -0.707429  0.000000
  6 -2.429721  0.707429  0.000000
  6 -1.243597  1.400320  0.000000
  6  0.000000  0.715707  0.000000
  6  1.243597  1.400320  0.000000
  6  2.429721  0.707429  0.000000
  6  2.429721 -0.707429  0.000000
  1  1.242140 -2.485561  0.000000
  1 -1.242140 -2.485561  0.000000
  1 -3.372589 -1.243049  0.000000
  1 -3.372589  1.243049  0.000000
  1 -1.242140  2.485561  0.000000
  1  1.242140  2.485561  0.000000
  1  3.372589  1.243049  0.000000
  1  3.372589 -1.243049  0.000000
 nber atoms=          18
 Original standard coords:
  6  0.000000  1.243597  1.400320
  6  0.000000  0.000000  0.715707
  6  0.000000 -1.243597  1.400320
  6  0.000000 -2.429721  0.707429
  6  0.000000 -2.429721 -0.707429
  6  0.000000 -1.243597 -1.400320
  6  0.000000  0.000000 -0.715707
  6  0.000000  1.243597 -1.400320
  6  0.000000  2.429721 -0.707429
  6  0.000000  2.429721  0.707429
  1  0.000000  1.242140  2.485561
  1  0.000000 -1.242140  2.485561
  1  0.000000 -3.372589  1.243049
  1  0.000000 -3.372589 -1.243049
  1  0.000000 -1.242140 -2.485561
  1  0.000000  1.242140 -2.485561
  1  0.000000  3.372589 -1.243049
  1  0.000000  3.372589  1.243049
  SCF Done:  E(RB3LYP) =  -385.984908995     A.U. after    1 cycles             
  
          23          40 "  -385.984908995"
After scan for Atom:   Atom  AN      X      Y      Z        X      Y      Z        X      Y      Z   
After scan for Atom:   Atom  AN      X      Y      Z        X      Y      Z        X      Y      Z   
After scan for Atom:   Atom  AN      X      Y      Z        X      Y      Z        X      Y      Z   
After scan for Atom:   Atom  AN      X      Y      Z        X      Y      Z        X      Y      Z   
After scan for Atom:   Atom  AN      X      Y      Z        X      Y      Z        X      Y      Z   
After scan for Atom:   Atom  AN      X      Y      Z        X      Y      Z        X      Y      Z   
After scan for Atom:   Atom  AN      X      Y      Z        X      Y      Z        X      Y      Z   
After scan for Atom:   Atom  AN      X      Y      Z        X      Y      Z        X      Y      Z   
After scan for Atom:   Atom  AN      X      Y      Z        X      Y      Z        X      Y      Z   
After scan for Atom:   Atom  AN      X      Y      Z        X      Y      Z        X      Y      Z   
After scan for Atom:   Atom  AN      X      Y      Z        X      Y      Z        X      Y      Z   
After scan for Atom:   Atom  AN      X      Y      Z        X      Y      Z        X      Y      Z   
After scan for Atom:   Atom  AN      X      Y      Z        X      Y      Z        X      Y      Z   
After scan for Atom:   Atom  AN      X      Y      Z        X      Y      Z        X      Y      Z   
After scan for Atom:   Atom  AN      X      Y      Z        X      Y      Z        X      Y      Z   
After scan for Atom:   Atom  AN      X      Y      Z        X      Y      Z        X      Y      Z   
 g94    frequencies=
     0.0    0.0    0.0    0.0    0.0    0.0  173.3  186.5  365.9  395.3
   480.4  487.1  518.5  519.8  635.2  636.1  729.1  773.1  786.5  799.1
   808.6  848.1  896.3  950.9  956.4  973.5  992.7  999.9 1035.4 1046.1
  1150.7 1169.0 1171.5 1185.0 1232.1 1269.8 1287.0 1390.7 1397.8 1417.8
  1490.5 1491.0 1548.4 1613.3 1640.6 1670.4 3154.0 3155.7 3158.2 3161.6
  3171.9 3173.3 3184.6 3185.8
 g94    symmetries=
                                                B3     AU     B1     B1
      B2     B3     B3     AG     AU     B2     B1     AG     B2     B3
      B1     AU     B2     B3     B1     B3     AU     B2     B2     AG
      B1     B2     B3     AG     B2     B3     B1     B2     AG     B1
      AG     B3     B2     AG     B1     B3     B3     B1     B2     AG
      B3     B1     B2     AG
 atomic masses:
 12.0000 12.0000 12.0000 12.0000 12.0000 12.0000 12.0000 12.0000 12.0000 12.0000
  1.0078  1.0078  1.0078  1.0078  1.0078  1.0078  1.0078  1.0078
 looking for force constants in 
 ./Benzene_Conj_1_C0S0.fchk                                                     
  
 Cartesian Force Constants                  R   N=        1485                  
  
 n3=          54        1485
 g94-fc frequencies=
    -0.0   -0.0    0.0    5.7    6.2    7.7  173.3  186.5  365.9  395.3
   480.4  487.1  518.6  519.8  635.2  636.1  729.1  773.1  786.5  799.1
   808.6  848.1  896.3  951.0  956.5  973.5  992.7  999.9 1035.4 1046.1
  1150.7 1169.0 1171.6 1185.1 1232.1 1269.9 1287.0 1390.8 1397.9 1417.8
  1490.5 1491.1 1548.4 1613.4 1640.6 1670.5 3154.0 3155.7 3158.3 3161.7
  3171.9 3173.3 3184.7 3185.9
 at 99999: n3=          54
 symm operator            1 :  T  nop=           1
 symm operator            2 :  T  nop=           2
 symm operator            3 :  T  nop=           3
 symm operator            4 :  T  nop=           4
 symm operator            5 :  T  nop=           5
 symm operator            6 :  T  nop=           6
 symm operator            7 :  T  nop=           7
 The point group of the molecule is D2H
 enforcing symm op           1  jsymt=          -1          -1           1
 enforcing symm op           2  jsymt=          -1           1          -1
 enforcing symm op           3  jsymt=           1          -1          -1
 enforcing symm op           4  jsymt=          -1          -1          -1
 enforcing symm op           5  jsymt=           1           1          -1
 enforcing symm op           6  jsymt=           1          -1           1
 enforcing symm op           7  jsymt=          -1           1           1
 cartesian coord symmetries:
 Ag :    9 Au :    4 B1g:    4 B1u:    9 B2g:    5 B2u:    9 B3g:    9 B3u:    5
 Symmetry rotation matrix:
   1.00000   0.00000   0.00000
   0.00000   1.00000   0.00000
   0.00000   0.00000   1.00000

 Projecting out zero-frequency components
 generating redundant internal coords
         300        3600          18
 search for int coords
   1 str   2   1   1.420
   2 str   3   2   1.420
   3 str   4   3   1.374
   4 str   5   4   1.415
   5 str   6   5   1.374
   6 str   7   2   1.431
   7 str   7   6   1.420
   8 str   8   7   1.420
   9 str   9   8   1.374
  10 str  10   1   1.374
  11 str  10   9   1.415
  12 str  11   1   1.085
  13 str  12   3   1.085
  14 str  13   4   1.084
  15 str  14   5   1.084
  16 str  15   6   1.085
  17 str  16   8   1.085
  18 str  17   9   1.084
  19 str  18  10   1.084
 nber stretches=          19
  20 ben   1   2   3
  21 prop tor   1   2   3   4
  22 prop tor   1   2   3  12
  23 ben   1   2   7
  24 prop tor   1   2   7   6
  25 prop tor   1   2   7   8
  26 ben   1  10   9
  27 ben   1  10  18
  28 ben   2   1  10
  29 prop tor   2   1  10   9
  30 prop tor   2   1  10  18
  31 ben   2   1  11
  32 ben   2   3   4
  33 prop tor   2   3   4   5
  34 prop tor   2   3   4  13
  35 ben   2   3  12
  36 ben   2   7   6
  37 ben   2   7   8
  38 prop tor   2   7   8   9
  39 prop tor   2   7   8  16
  40 ben   3   2   7
  41 prop tor   3   2   7   6
  42 prop tor   3   2   7   8
  43 ben   3   4   5
  44 prop tor   3   4   5   6
  45 prop tor   3   4   5  14
  46 ben   3   4  13
  47 ben   4   3  12
  48 ben   4   5   6
  49 prop tor   4   5   6   7
  50 prop tor   4   5   6  15
  51 ben   4   5  14
  52 ben   5   4  13
  53 ben   5   6   7
  54 prop tor   5   6   7   2
  55 prop tor   5   6   7   8
  56 ben   5   6  15
  57 ben   6   5  14
  58 ben   6   7   8
  59 prop tor   6   7   8   9
  60 prop tor   6   7   8  16
  61 prop tor   7   2   3   4
  62 prop tor   7   2   3  12
  63 ben   7   6  15
  64 ben   7   8   9
  65 prop tor   7   8   9  10
  66 prop tor   7   8   9  17
  67 ben   7   8  16
  68 ben   8   9  10
  69 prop tor   8   9  10   1
  70 prop tor   8   9  10  18
  71 ben   8   9  17
  72 ben   9   8  16
  73 ben   9  10  18
  74 prop tor  10   1   2   3
  75 prop tor  10   1   2   7
  76 ben  10   1  11
  77 ben  10   9  17
  78 prop tor  11   1   2   3
  79 prop tor  11   1   2   7
  80 prop tor  11   1  10   9
  81 prop tor  11   1  10  18
  82 prop tor  12   3   4   5
  83 prop tor  12   3   4  13
  84 prop tor  13   4   5   6
  85 prop tor  13   4   5  14
  86 prop tor  14   5   6   7
  87 prop tor  14   5   6  15
  88 prop tor  15   6   7   2
  89 prop tor  15   6   7   8
  90 prop tor  16   8   9  10
  91 prop tor  16   8   9  17
  92 prop tor  17   9  10   1
  93 prop tor  17   9  10  18
 nber bend=              30
 nber lin bend=           0
 nber prop tor=          44
 nber impr tor=           0
 nber tot redund int=          93
 Eigenvalues of G in red int coords
    Gval -0.00000000 -0.00000000 -0.00000000 -0.00000000 -0.00000000 -0.00000000 -0.00000000 -0.00000000
    Gval -0.00000000 -0.00000000 -0.00000000 -0.00000000 -0.00000000 -0.00000000 -0.00000000 -0.00000000
    Gval -0.00000000 -0.00000000 -0.00000000 -0.00000000 -0.00000000 -0.00000000 -0.00000000 -0.00000000
    Gval -0.00000000  0.00000000  0.00000000  0.00000000  0.00000000  0.00000000  0.00000000  0.00000000
    Gval  0.00000000  0.00000000  0.00000000  0.00000000  0.00000000  0.00000000  0.00000000  0.00000000
    Gval  0.00000000  0.00000000  0.00000000  0.00000000  0.00000000  0.00001847  0.00002367  0.00003746
    Gval  0.00004521  0.00005531  0.00007222  0.00007782  0.00010236  0.00010312  0.00012748  0.00013128
    Gval  0.00013414  0.00014903  0.00021066  0.00022371  0.00028992  0.00037328  0.00037993  0.00039920
    Gval  0.00049097  0.00059298  0.00059327  0.00059579  0.00059847  0.00060931  0.00062769  0.00064837
    Gval  0.00066173  0.00072154  0.00072433  0.00104422  0.00105901  0.00111173  0.00111660  0.00111866
    Gval  0.00115772  0.00116186  0.00117016  0.00117040  0.00166078  0.00189900  0.00190223  0.00248570
    Gval  0.00283428  0.00339129  0.00363498  0.00398142  0.00403599
  1.847055247904104E-005  1.847055247904104E-005
  2.367128731539249E-005  1.847055247904104E-005
  3.746228758553109E-005  1.847055247904104E-005
  4.520540210127695E-005  1.847055247904104E-005
  5.530870340831339E-005  1.847055247904104E-005
  7.222080013474406E-005  1.847055247904104E-005
  7.781886335509222E-005  1.847055247904104E-005
  1.023591627643543E-004  1.847055247904104E-005
  1.031183254448261E-004  1.847055247904104E-005
  1.274842283876596E-004  1.847055247904104E-005
  1.312841412458949E-004  1.847055247904104E-005
  1.341410875899076E-004  1.847055247904104E-005
  1.490312071895207E-004  1.847055247904104E-005
  2.106613923810087E-004  1.847055247904104E-005
  2.237122815536818E-004  1.847055247904104E-005
  2.899196843429508E-004  1.847055247904104E-005
  3.732830857438017E-004  1.847055247904104E-005
  3.799290027072721E-004  1.847055247904104E-005
  3.992026814420195E-004  1.847055247904104E-005
  4.909695417957580E-004  1.847055247904104E-005
  5.929759350378915E-004  1.847055247904104E-005
  5.932668051525441E-004  1.847055247904104E-005
  5.957926563088725E-004  1.847055247904104E-005
  5.984695069258424E-004  1.847055247904104E-005
  6.093140603300513E-004  1.847055247904104E-005
  6.276887898105678E-004  1.847055247904104E-005
  6.483737743557967E-004  1.847055247904104E-005
  6.617283415797722E-004  1.847055247904104E-005
  7.215394164990661E-004  1.847055247904104E-005
  7.243313564671127E-004  1.847055247904104E-005
  1.044216673026875E-003  1.847055247904104E-005
  1.059007381150029E-003  1.847055247904104E-005
  1.111730745057021E-003  1.847055247904104E-005
  1.116604588592494E-003  1.847055247904104E-005
  1.118655445544897E-003  1.847055247904104E-005
  1.157715988692479E-003  1.847055247904104E-005
  1.161855835152580E-003  1.847055247904104E-005
  1.170156761657870E-003  1.847055247904104E-005
  1.170396233363654E-003  1.847055247904104E-005
  1.660784663314054E-003  1.847055247904104E-005
  1.898997904782266E-003  1.847055247904104E-005
  1.902225932689062E-003  1.847055247904104E-005
  2.485703675079937E-003  1.847055247904104E-005
  2.834277496238637E-003  1.847055247904104E-005
  3.391287180290528E-003  1.847055247904104E-005
  3.634983845505131E-003  1.847055247904104E-005
  3.981420056080045E-003  1.847055247904104E-005
  4.035987883272600E-003  1.847055247904104E-005
 cut=1d-8, nber non-redundant internal coords=          48
 Check on Eigenvals of non-red overlap matrix:
  0.00001847  0.00002367  0.00003746  0.00004521  0.00005531  0.00007222  0.00007782  0.00010236
  0.00010312  0.00012748  0.00013128  0.00013414  0.00014903  0.00021066  0.00022371  0.00028992
  0.00037328  0.00037993  0.00039920  0.00049097  0.00059298  0.00059327  0.00059579  0.00059847
  0.00060931  0.00062769  0.00064837  0.00066173  0.00072154  0.00072433  0.00104422  0.00105901
  0.00111173  0.00111660  0.00111866  0.00115772  0.00116186  0.00117016  0.00117040  0.00166078
  0.00189900  0.00190223  0.00248570  0.00283428  0.00339129  0.00363498  0.00398142  0.00403599
 Checking for correct frequencies
 recalc frequencies=
    -0.0    0.0    0.0    0.0    0.0    0.0  173.3  186.5  365.9  395.3
   480.4  487.1  518.6  519.8  635.2  636.1  729.1  773.1  786.5  799.1
   808.6  848.1  896.3  951.0  956.5  973.5  992.7  999.9 1035.4 1046.1
  1150.7 1169.0 1171.6 1185.1 1232.1 1269.9 1287.0 1390.8 1397.9 1417.8
  1490.5 1491.1 1548.4 1613.4 1640.6 1670.5 3154.0 3155.7 3158.3 3161.7
  3171.9 3173.3 3184.7 3185.9
 recalc symmetries=
     B1u    B3u    B1g    B2g    B2u    B3g    B3u    Au     B1u    B1g
     B2g    B3u    B3g    Ag     Au     B2u    B1g    Ag     B2g    B3u
     B1u    Au     B2g    B3g    B1g    B3u    Au     B2g    B2u    Ag 
     B1u    B2u    B3g    Ag     B2u    B3g    B1u    B2u    Ag     B1u
     Ag     B3g    B2u    Ag     B1u    B3g    B3g    B1u    B2u    Ag 
     B3g    B1u    B2u    Ag 
 recalc freqs check OK
 Zero-point lengths:
 10.0000 10.0000 10.0000 10.0000 10.0000 10.0000 18.8300 18.1549 12.9595 12.4686
 11.3108 11.2327 10.8867 10.8739  9.8366  9.8295  9.1814  8.9160  8.8399  8.7699
  8.7181  8.5128  8.2807  8.0392  8.0161  7.9457  7.8685  7.8400  7.7044  7.6648
  7.3083  7.2507  7.2429  7.2015  7.0627  6.9569  6.9104  6.6476  6.6308  6.5839
  6.4214  6.4202  6.3001  6.1721  6.1206  6.0656  4.4143  4.4131  4.4114  4.4090
  4.4018  4.4009  4.3930  4.3922
 highest evec of mol 1
  0.0000  0.0061 -0.0656
  0.0000  0.0000  0.0009
  0.0000 -0.0061 -0.0656
  0.0000  0.1160 -0.0666
  0.0000  0.1160  0.0666
  0.0000 -0.0061  0.0656
  0.0000  0.0000 -0.0009
  0.0000  0.0061  0.0656
  0.0000 -0.1160  0.0666
  0.0000 -0.1160 -0.0666
  0.0000 -0.0014  0.2061
  0.0000  0.0014  0.2061
  0.0000 -0.3739  0.2134
  0.0000 -0.3739 -0.2134
  0.0000  0.0014 -0.2061
  0.0000 -0.0014 -0.2061
  0.0000  0.3739 -0.2134
  0.0000  0.3739  0.2134
 generating redundant internal coords
         300        3600          18
 Adding extra bonds for z output only
           6           6           6           6           6           6
           6           6           6           6           1           1
           1           1           1           1           1           1
 search for int coords
   1 str   2   1   1.420
   2 str   3   2   1.420
   3 str   4   3   1.374
   4 str   5   4   1.415
   5 str   6   5   1.374
   6 str   7   2   1.431
   7 str   7   6   1.420
   8 str   8   7   1.420
   9 str   9   8   1.374
  10 str  10   1   1.374
  11 str  10   9   1.415
  12 str  11   1   1.085
  13 str  12   3   1.085
  14 str  13   4   1.084
  15 str  14   5   1.084
  16 str  15   6   1.085
  17 str  16   8   1.085
  18 str  17   9   1.084
  19 str  18  10   1.084
 nber stretches=          19
  20 ben   1   2   3
  21 prop tor   1   2   3   4
  22 prop tor   1   2   3  12
  23 ben   1   2   7
  24 prop tor   1   2   7   6
  25 prop tor   1   2   7   8
  26 ben   1  10   9
  27 ben   1  10  18
  28 ben   2   1  10
  29 prop tor   2   1  10   9
  30 prop tor   2   1  10  18
  31 ben   2   1  11
  32 ben   2   3   4
  33 prop tor   2   3   4   5
  34 prop tor   2   3   4  13
  35 ben   2   3  12
  36 ben   2   7   6
  37 ben   2   7   8
  38 prop tor   2   7   8   9
  39 prop tor   2   7   8  16
  40 ben   3   2   7
  41 prop tor   3   2   7   6
  42 prop tor   3   2   7   8
  43 ben   3   4   5
  44 prop tor   3   4   5   6
  45 prop tor   3   4   5  14
  46 ben   3   4  13
  47 ben   4   3  12
  48 ben   4   5   6
  49 prop tor   4   5   6   7
  50 prop tor   4   5   6  15
  51 ben   4   5  14
  52 ben   5   4  13
  53 ben   5   6   7
  54 prop tor   5   6   7   2
  55 prop tor   5   6   7   8
  56 ben   5   6  15
  57 ben   6   5  14
  58 ben   6   7   8
  59 prop tor   6   7   8   9
  60 prop tor   6   7   8  16
  61 prop tor   7   2   3   4
  62 prop tor   7   2   3  12
  63 ben   7   6  15
  64 ben   7   8   9
  65 prop tor   7   8   9  10
  66 prop tor   7   8   9  17
  67 ben   7   8  16
  68 ben   8   9  10
  69 prop tor   8   9  10   1
  70 prop tor   8   9  10  18
  71 ben   8   9  17
  72 ben   9   8  16
  73 ben   9  10  18
  74 prop tor  10   1   2   3
  75 prop tor  10   1   2   7
  76 ben  10   1  11
  77 ben  10   9  17
  78 prop tor  11   1   2   3
  79 prop tor  11   1   2   7
  80 prop tor  11   1  10   9
  81 prop tor  11   1  10  18
  82 prop tor  12   3   4   5
  83 prop tor  12   3   4  13
  84 prop tor  13   4   5   6
  85 prop tor  13   4   5  14
  86 prop tor  14   5   6   7
  87 prop tor  14   5   6  15
  88 prop tor  15   6   7   2
  89 prop tor  15   6   7   8
  90 prop tor  16   8   9  10
  91 prop tor  16   8   9  17
  92 prop tor  17   9  10   1
  93 prop tor  17   9  10  18
 nber bend=              30
 nber lin bend=           0
 nber prop tor=          44
 nber impr tor=           0
 nber tot redund int=          93
 Reading file: 
 ./Benzene_Conj_1_C1S0.log                                                      
                                          
  Entering Gaussian System, Link 0=g16                                          
  
 Gaussian format, type: g94, g98, g03= F F F
  #P Geom=AllCheck Guess=TCheck SCRF=Check GenChk UB3LYP/6-311G(d,p) Fre    
 energy type= B3LYP   
 Original G94 input coords:
  6  1.234308 -1.399822  0.000000
  6  0.000000 -0.715145  0.000000
  6 -1.234308 -1.399822  0.000000
  6 -2.447835 -0.694629  0.000000
  6 -2.447835  0.694629  0.000000
  6 -1.234308  1.399822  0.000000
  6  0.000000  0.715145  0.000000
  6  1.234308  1.399822  0.000000
  6  2.447835  0.694629  0.000000
  6  2.447835 -0.694629  0.000000
  1  1.242007 -2.484233  0.000000
  1 -1.242007 -2.484233  0.000000
  1 -3.383806 -1.239444  0.000000
  1 -3.383806  1.239444  0.000000
  1 -1.242007  2.484233  0.000000
  1  1.242007  2.484233  0.000000
  1  3.383806  1.239444  0.000000
  1  3.383806 -1.239444  0.000000
 nber atoms=          18
 Original standard coords:
  6  0.000000  1.234308  1.399822
  6  0.000000  0.000000  0.715145
  6  0.000000 -1.234308  1.399822
  6  0.000000 -2.447835  0.694629
  6  0.000000 -2.447835 -0.694629
  6  0.000000 -1.234308 -1.399822
  6  0.000000  0.000000 -0.715145
  6  0.000000  1.234308 -1.399822
  6  0.000000  2.447835 -0.694629
  6  0.000000  2.447835  0.694629
  1  0.000000  1.242007  2.484233
  1  0.000000 -1.242007  2.484233
  1  0.000000 -3.383806  1.239444
  1  0.000000 -3.383806 -1.239444
  1  0.000000 -1.242007 -2.484233
  1  0.000000  1.242007 -2.484233
  1  0.000000  3.383806 -1.239444
  1  0.000000  3.383806  1.239444
  SCF Done:  E(UB3LYP) =  -385.697414240     A.U. after    1 cycles             
  
          23          40 "  -385.697414240"
After scan for Atom:   Atom  AN      X      Y      Z        X      Y      Z        X      Y      Z   
After scan for Atom:   Atom  AN      X      Y      Z        X      Y      Z        X      Y      Z   
After scan for Atom:   Atom  AN      X      Y      Z        X      Y      Z        X      Y      Z   
After scan for Atom:   Atom  AN      X      Y      Z        X      Y      Z        X      Y      Z   
After scan for Atom:   Atom  AN      X      Y      Z        X      Y      Z        X      Y      Z   
After scan for Atom:   Atom  AN      X      Y      Z        X      Y      Z        X      Y      Z   
After scan for Atom:   Atom  AN      X      Y      Z        X      Y      Z        X      Y      Z   
After scan for Atom:   Atom  AN      X      Y      Z        X      Y      Z        X      Y      Z   
After scan for Atom:   Atom  AN      X      Y      Z        X      Y      Z        X      Y      Z   
After scan for Atom:   Atom  AN      X      Y      Z        X      Y      Z        X      Y      Z   
After scan for Atom:   Atom  AN      X      Y      Z        X      Y      Z        X      Y      Z   
After scan for Atom:   Atom  AN      X      Y      Z        X      Y      Z        X      Y      Z   
After scan for Atom:   Atom  AN      X      Y      Z        X      Y      Z        X      Y      Z   
After scan for Atom:   Atom  AN      X      Y      Z        X      Y      Z        X      Y      Z   
After scan for Atom:   Atom  AN      X      Y      Z        X      Y      Z        X      Y      Z   
After scan for Atom:   Atom  AN      X      Y      Z        X      Y      Z        X      Y      Z   
 g94    frequencies=
     0.0    0.0    0.0    0.0    0.0    0.0  155.9  181.5  359.4  374.6
   424.9  438.6  472.8  514.8  561.1  610.0  738.5  755.4  774.6  779.3
   809.6  875.4  935.8  942.4  983.4 1004.0 1028.6 1029.9 1037.8 1066.0
  1118.5 1124.2 1192.4 1205.0 1235.4 1260.4 1304.6 1405.2 1414.7 1433.0
  1468.5 1500.0 1507.6 1550.0 1568.2 1623.0 3185.3 3187.4 3188.0 3190.1
  3201.2 3201.4 3211.6 3211.7
 g94    symmetries=
                                                B3     AU     B1     B1
      B3     B2     B3     AG     AU     B2     B2     B1     AG     B3
      B1     AU     B2     B3     B1     B3     AU     B2     B2     AG
      B3     B1     B2     AG     B2     B3     B1     AG     B2     B1
      B3     AG     B3     B1     B2     AG     B3     B1     B2     AG
      B3     B1     B2     AG
 atomic masses:
 12.0000 12.0000 12.0000 12.0000 12.0000 12.0000 12.0000 12.0000 12.0000 12.0000
  1.0078  1.0078  1.0078  1.0078  1.0078  1.0078  1.0078  1.0078
 looking for force constants in 
 ./Benzene_Conj_1_C1S0.fchk                                                     
  
 Cartesian Force Constants                  R   N=        1485                  
  
 n3=          54        1485
 g94-fc frequencies=
    -5.6   -5.4   -3.8   -0.0    0.0    0.0  155.9  181.5  359.4  374.7
   424.9  438.6  472.8  514.8  561.1  610.0  738.5  755.4  774.7  779.3
   809.6  875.4  935.9  942.5  983.4 1004.0 1028.6 1029.9 1037.8 1066.0
  1118.6 1124.2 1192.5 1205.0 1235.4 1260.4 1304.6 1405.3 1414.7 1433.1
  1468.6 1500.1 1507.6 1550.0 1568.2 1623.0 3185.4 3187.4 3188.1 3190.2
  3201.3 3201.5 3211.7 3211.8
 at 99999: n3=          54
 symm operator            1 :  T  nop=           1
 symm operator            2 :  T  nop=           2
 symm operator            3 :  T  nop=           3
 symm operator            4 :  T  nop=           4
 symm operator            5 :  T  nop=           5
 symm operator            6 :  T  nop=           6
 symm operator            7 :  T  nop=           7
 The point group of the molecule is D2H
 enforcing symm op           1  jsymt=          -1          -1           1
 enforcing symm op           2  jsymt=          -1           1          -1
 enforcing symm op           3  jsymt=           1          -1          -1
 enforcing symm op           4  jsymt=          -1          -1          -1
 enforcing symm op           5  jsymt=           1           1          -1
 enforcing symm op           6  jsymt=           1          -1           1
 enforcing symm op           7  jsymt=          -1           1           1
 cartesian coord symmetries:
 Ag :    9 Au :    4 B1g:    4 B1u:    9 B2g:    5 B2u:    9 B3g:    9 B3u:    5
 Symmetry rotation matrix:
   1.00000   0.00000   0.00000
   0.00000   1.00000   0.00000
   0.00000   0.00000   1.00000

 Projecting out zero-frequency components
 generating redundant internal coords
         300        3600          18
 search for int coords
   1 str   2   1   1.411
   2 str   3   2   1.411
   3 str   4   3   1.404
   4 str   5   4   1.389
   5 str   6   5   1.404
   6 str   7   2   1.430
   7 str   7   6   1.411
   8 str   8   7   1.411
   9 str   9   8   1.404
  10 str  10   1   1.404
  11 str  10   9   1.389
  12 str  11   1   1.084
  13 str  12   3   1.084
  14 str  13   4   1.083
  15 str  14   5   1.083
  16 str  15   6   1.084
  17 str  16   8   1.084
  18 str  17   9   1.083
  19 str  18  10   1.083
 nber stretches=          19
  20 ben   1   2   3
  21 prop tor   1   2   3   4
  22 prop tor   1   2   3  12
  23 ben   1   2   7
  24 prop tor   1   2   7   6
  25 prop tor   1   2   7   8
  26 ben   1  10   9
  27 ben   1  10  18
  28 ben   2   1  10
  29 prop tor   2   1  10   9
  30 prop tor   2   1  10  18
  31 ben   2   1  11
  32 ben   2   3   4
  33 prop tor   2   3   4   5
  34 prop tor   2   3   4  13
  35 ben   2   3  12
  36 ben   2   7   6
  37 ben   2   7   8
  38 prop tor   2   7   8   9
  39 prop tor   2   7   8  16
  40 ben   3   2   7
  41 prop tor   3   2   7   6
  42 prop tor   3   2   7   8
  43 ben   3   4   5
  44 prop tor   3   4   5   6
  45 prop tor   3   4   5  14
  46 ben   3   4  13
  47 ben   4   3  12
  48 ben   4   5   6
  49 prop tor   4   5   6   7
  50 prop tor   4   5   6  15
  51 ben   4   5  14
  52 ben   5   4  13
  53 ben   5   6   7
  54 prop tor   5   6   7   2
  55 prop tor   5   6   7   8
  56 ben   5   6  15
  57 ben   6   5  14
  58 ben   6   7   8
  59 prop tor   6   7   8   9
  60 prop tor   6   7   8  16
  61 prop tor   7   2   3   4
  62 prop tor   7   2   3  12
  63 ben   7   6  15
  64 ben   7   8   9
  65 prop tor   7   8   9  10
  66 prop tor   7   8   9  17
  67 ben   7   8  16
  68 ben   8   9  10
  69 prop tor   8   9  10   1
  70 prop tor   8   9  10  18
  71 ben   8   9  17
  72 ben   9   8  16
  73 ben   9  10  18
  74 prop tor  10   1   2   3
  75 prop tor  10   1   2   7
  76 ben  10   1  11
  77 ben  10   9  17
  78 prop tor  11   1   2   3
  79 prop tor  11   1   2   7
  80 prop tor  11   1  10   9
  81 prop tor  11   1  10  18
  82 prop tor  12   3   4   5
  83 prop tor  12   3   4  13
  84 prop tor  13   4   5   6
  85 prop tor  13   4   5  14
  86 prop tor  14   5   6   7
  87 prop tor  14   5   6  15
  88 prop tor  15   6   7   2
  89 prop tor  15   6   7   8
  90 prop tor  16   8   9  10
  91 prop tor  16   8   9  17
  92 prop tor  17   9  10   1
  93 prop tor  17   9  10  18
 nber bend=              30
 nber lin bend=           0
 nber prop tor=          44
 nber impr tor=           0
 nber tot redund int=          93
 Eigenvalues of G in red int coords
    Gval -0.00000000 -0.00000000 -0.00000000 -0.00000000 -0.00000000 -0.00000000 -0.00000000 -0.00000000
    Gval -0.00000000 -0.00000000 -0.00000000 -0.00000000 -0.00000000 -0.00000000 -0.00000000 -0.00000000
    Gval -0.00000000 -0.00000000 -0.00000000 -0.00000000 -0.00000000 -0.00000000  0.00000000  0.00000000
    Gval  0.00000000  0.00000000  0.00000000  0.00000000  0.00000000  0.00000000  0.00000000  0.00000000
    Gval  0.00000000  0.00000000  0.00000000  0.00000000  0.00000000  0.00000000  0.00000000  0.00000000
    Gval  0.00000000  0.00000000  0.00000000  0.00000000  0.00000000  0.00001849  0.00002353  0.00003773
    Gval  0.00004504  0.00005537  0.00007221  0.00007785  0.00010220  0.00010238  0.00012271  0.00013063
    Gval  0.00013328  0.00015176  0.00021308  0.00022069  0.00028907  0.00037173  0.00037949  0.00040024
    Gval  0.00048224  0.00059300  0.00059329  0.00059579  0.00059851  0.00060900  0.00062725  0.00064765
    Gval  0.00066075  0.00071787  0.00072149  0.00104676  0.00106142  0.00110305  0.00111500  0.00112222
    Gval  0.00115438  0.00115920  0.00117253  0.00117278  0.00166742  0.00191128  0.00191175  0.00250468
    Gval  0.00285804  0.00337120  0.00362104  0.00399191  0.00404336
  1.849450882309353E-005  1.849450882309353E-005
  2.352827172034272E-005  1.849450882309353E-005
  3.773061157596177E-005  1.849450882309353E-005
  4.504234256584257E-005  1.849450882309353E-005
  5.536563133531955E-005  1.849450882309353E-005
  7.220882373413179E-005  1.849450882309353E-005
  7.784990026955397E-005  1.849450882309353E-005
  1.022020425485534E-004  1.849450882309353E-005
  1.023811490738122E-004  1.849450882309353E-005
  1.227120711756123E-004  1.849450882309353E-005
  1.306266026462878E-004  1.849450882309353E-005
  1.332811854600899E-004  1.849450882309353E-005
  1.517617353208960E-004  1.849450882309353E-005
  2.130773204674516E-004  1.849450882309353E-005
  2.206887990743983E-004  1.849450882309353E-005
  2.890715982539910E-004  1.849450882309353E-005
  3.717332177207037E-004  1.849450882309353E-005
  3.794850350546629E-004  1.849450882309353E-005
  4.002393784901506E-004  1.849450882309353E-005
  4.822403694535566E-004  1.849450882309353E-005
  5.929991694036118E-004  1.849450882309353E-005
  5.932890178198713E-004  1.849450882309353E-005
  5.957910770586955E-004  1.849450882309353E-005
  5.985058508413522E-004  1.849450882309353E-005
  6.089998662395222E-004  1.849450882309353E-005
  6.272528105284232E-004  1.849450882309353E-005
  6.476466334992854E-004  1.849450882309353E-005
  6.607457072225530E-004  1.849450882309353E-005
  7.178716987024052E-004  1.849450882309353E-005
  7.214873672056460E-004  1.849450882309353E-005
  1.046755979454983E-003  1.849450882309353E-005
  1.061420584242527E-003  1.849450882309353E-005
  1.103049884970041E-003  1.849450882309353E-005
  1.115000250573630E-003  1.849450882309353E-005
  1.122222898796310E-003  1.849450882309353E-005
  1.154383265681535E-003  1.849450882309353E-005
  1.159198339354155E-003  1.849450882309353E-005
  1.172534927412606E-003  1.849450882309353E-005
  1.172783651179813E-003  1.849450882309353E-005
  1.667419032695092E-003  1.849450882309353E-005
  1.911275307763367E-003  1.849450882309353E-005
  1.911747486872327E-003  1.849450882309353E-005
  2.504679171768156E-003  1.849450882309353E-005
  2.858044780661859E-003  1.849450882309353E-005
  3.371199238332471E-003  1.849450882309353E-005
  3.621039457447670E-003  1.849450882309353E-005
  3.991909111211108E-003  1.849450882309353E-005
  4.043363491652742E-003  1.849450882309353E-005
 cut=1d-8, nber non-redundant internal coords=          48
 Check on Eigenvals of non-red overlap matrix:
  0.00001849  0.00002353  0.00003773  0.00004504  0.00005537  0.00007221  0.00007785  0.00010220
  0.00010238  0.00012271  0.00013063  0.00013328  0.00015176  0.00021308  0.00022069  0.00028907
  0.00037173  0.00037949  0.00040024  0.00048224  0.00059300  0.00059329  0.00059579  0.00059851
  0.00060900  0.00062725  0.00064765  0.00066075  0.00071787  0.00072149  0.00104676  0.00106142
  0.00110305  0.00111500  0.00112222  0.00115438  0.00115920  0.00117253  0.00117278  0.00166742
  0.00191128  0.00191175  0.00250468  0.00285804  0.00337120  0.00362104  0.00399191  0.00404336
 Checking for correct frequencies
 recalc frequencies=
    -0.0   -0.0   -0.0   -0.0    0.0    0.0  155.9  181.5  359.4  374.7
   424.9  438.6  472.8  514.8  561.1  610.0  738.5  755.4  774.7  779.3
   809.6  875.4  935.9  942.5  983.4 1004.0 1028.6 1029.9 1037.8 1066.0
  1118.6 1124.2 1192.5 1205.0 1235.4 1260.4 1304.6 1405.3 1414.7 1433.1
  1468.6 1500.1 1507.6 1550.0 1568.2 1623.0 3185.4 3187.4 3188.1 3190.2
  3201.3 3201.5 3211.7 3211.8
 recalc symmetries=
     B2g    B1u    B1g    B3u    B3g    B2u    B3u    Au     B1u    B1g
     B3u    B2g    B3g    Ag     Au     B2u    B2g    B1g    Ag     B3u
     B1u    Au     B2g    B3g    B1g    B3u    Au     B2g    B2u    Ag 
     B3g    B1u    B2u    Ag     B2u    B3g    B1u    Ag     B2u    B1u
     B3g    Ag     B3g    B1u    B2u    Ag     B3g    B1u    B2u    Ag 
     B3g    B1u    B2u    Ag 
 recalc freqs check OK
 Zero-point lengths:
 10.0000 10.0000 10.0000 10.0000 10.0000 10.0000 19.8540 18.4029 13.0768 12.8080
 12.0262 11.8372 11.4012 10.9260 10.4661 10.0374  9.1225  9.0201  8.9071  8.8807
  8.7130  8.3789  8.1038  8.0754  7.9056  7.8241  7.7298  7.7249  7.6955  7.5929
  7.4125  7.3940  7.1791  7.1417  7.0532  6.9830  6.8636  6.6133  6.5911  6.5488
  6.4692  6.4009  6.3849  6.2969  6.2603  6.1537  4.3925  4.3911  4.3907  4.3892
  4.3816  4.3815  4.3745  4.3745
 highest evec of mol 2
  0.0000  0.0052 -0.0406
  0.0000  0.0000  0.0010
  0.0000 -0.0052 -0.0406
  0.0000  0.1220 -0.0762
  0.0000  0.1220  0.0762
  0.0000 -0.0052  0.0406
  0.0000  0.0000 -0.0010
  0.0000  0.0052  0.0406
  0.0000 -0.1220  0.0762
  0.0000 -0.1220 -0.0762
  0.0000 -0.0007  0.1249
  0.0000  0.0007  0.1249
  0.0000 -0.3974  0.2327
  0.0000 -0.3974 -0.2327
  0.0000  0.0007 -0.1249
  0.0000 -0.0007 -0.1249
  0.0000  0.3974 -0.2327
  0.0000  0.3974  0.2327
 Enter nber and list of atoms to keep of mol #2
 keep list:          18           1           2           3           4
           5           6           7           8           9          10
          11          12          13          14          15          16
          17          18
 reordering atoms
           1   1.23430800000000     
           2  0.000000000000000E+000
           3  -1.23430800000000     
           4  -2.44783500000000     
           5  -2.44783500000000     
           6  -1.23430800000000     
           7  0.000000000000000E+000
           8   1.23430800000000     
           9   2.44783500000000     
          10   2.44783500000000     
          11   1.24200700000000     
          12  -1.24200700000000     
          13  -3.38380600000000     
          14  -3.38380600000000     
          15  -1.24200700000000     
          16   1.24200700000000     
          17   3.38380600000000     
          18   3.38380600000000     
           1           1
           2           2
           3           3
           4           4
           5           5
           6           6
           7           7
           8           8
           9           9
          10          10
          11          11
          12          12
          13          13
          14          14
          15          15
          16          16
          17          17
          18          18
 initial cartes coords mol 1
   6   0.00000   1.40032   1.24360
   6   0.00000   0.71571   0.00000
   6   0.00000   1.40032  -1.24360
   6   0.00000   0.70743  -2.42972
   6   0.00000  -0.70743  -2.42972
   6   0.00000  -1.40032  -1.24360
   6   0.00000  -0.71571   0.00000
   6   0.00000  -1.40032   1.24360
   6   0.00000  -0.70743   2.42972
   6   0.00000   0.70743   2.42972
   1   0.00000   2.48556   1.24214
   1   0.00000   2.48556  -1.24214
   1   0.00000   1.24305  -3.37259
   1   0.00000  -1.24305  -3.37259
   1   0.00000  -2.48556  -1.24214
   1   0.00000  -2.48556   1.24214
   1   0.00000  -1.24305   3.37259
   1   0.00000   1.24305   3.37259
 initial cartes coords mol 2
   6   0.00000   1.39982   1.23431
   6   0.00000   0.71515   0.00000
   6   0.00000   1.39982  -1.23431
   6   0.00000   0.69463  -2.44783
   6   0.00000  -0.69463  -2.44783
   6   0.00000  -1.39982  -1.23431
   6   0.00000  -0.71515   0.00000
   6   0.00000  -1.39982   1.23431
   6   0.00000  -0.69463   2.44783
   6   0.00000   0.69463   2.44783
   1   0.00000   2.48423   1.24201
   1   0.00000   2.48423  -1.24201
   1   0.00000   1.23944  -3.38381
   1   0.00000  -1.23944  -3.38381
   1   0.00000  -2.48423  -1.24201
   1   0.00000  -2.48423   1.24201
   1   0.00000  -1.23944   3.38381
   1   0.00000   1.23944   3.38381
 loop 1 0
 mod cartes coords mol 2
   6   0.00000   1.39982   1.23431
   6   0.00000   0.71515   0.00000
   6   0.00000   1.39982  -1.23431
   6   0.00000   0.69463  -2.44783
   6   0.00000  -0.69463  -2.44783
   6   0.00000  -1.39982  -1.23431
   6   0.00000  -0.71515   0.00000
   6   0.00000  -1.39982   1.23431
   6   0.00000  -0.69463   2.44783
   6   0.00000   0.69463   2.44783
   1   0.00000   2.48423   1.24201
   1   0.00000   2.48423  -1.24201
   1   0.00000   1.23944  -3.38381
   1   0.00000  -1.23944  -3.38381
   1   0.00000  -2.48423  -1.24201
   1   0.00000  -2.48423   1.24201
   1   0.00000  -1.23944   3.38381
   1   0.00000   1.23944   3.38381
 read in order, maxerr=  0.02 for atom   4
 final axis swaps:           1           1           1
 final xyz swap pattern=           1
 reorder list:
   1   2   3   4   5   6   7   8   9  10  11  12  13  14  15  16  17  18
 axis signs=           1           1           1
  6     0.000000  1.399822  1.234308     0.000000  1.400320  1.243597
  6     0.000000  0.715145  0.000000     0.000000  0.715707  0.000000
  6     0.000000  1.399822 -1.234308     0.000000  1.400320 -1.243597
  6     0.000000  0.694629 -2.447835     0.000000  0.707429 -2.429721
  6     0.000000 -0.694629 -2.447835     0.000000 -0.707429 -2.429721
  6     0.000000 -1.399822 -1.234308     0.000000 -1.400320 -1.243597
  6     0.000000 -0.715145  0.000000     0.000000 -0.715707  0.000000
  6     0.000000 -1.399822  1.234308     0.000000 -1.400320  1.243597
  6     0.000000 -0.694629  2.447835     0.000000 -0.707429  2.429721
  6     0.000000  0.694629  2.447835     0.000000  0.707429  2.429721
  1     0.000000  2.484233  1.242007     0.000000  2.485561  1.242140
  1     0.000000  2.484233 -1.242007     0.000000  2.485561 -1.242140
  1     0.000000  1.239444 -3.383806     0.000000  1.243049 -3.372589
  1     0.000000 -1.239444 -3.383806     0.000000 -1.243049 -3.372589
  1     0.000000 -2.484233 -1.242007     0.000000 -2.485561 -1.242140
  1     0.000000 -2.484233  1.242007     0.000000 -2.485561  1.242140
  1     0.000000 -1.239444  3.383806     0.000000 -1.243049  3.372589
  1     0.000000  1.239444  3.383806     0.000000  1.243049  3.372589
 generating redundant internal coords
         300        3600          18
 Adding extra bonds for z output only
           6           6           6           6           6           6
           6           6           6           6           1           1
           1           1           1           1           1           1
 search for int coords
   1 str   2   1   1.411
   2 str   3   2   1.411
   3 str   4   3   1.404
   4 str   5   4   1.389
   5 str   6   5   1.404
   6 str   7   2   1.430
   7 str   7   6   1.411
   8 str   8   7   1.411
   9 str   9   8   1.404
  10 str  10   1   1.404
  11 str  10   9   1.389
  12 str  11   1   1.084
  13 str  12   3   1.084
  14 str  13   4   1.083
  15 str  14   5   1.083
  16 str  15   6   1.084
  17 str  16   8   1.084
  18 str  17   9   1.083
  19 str  18  10   1.083
 nber stretches=          19
  20 ben   1   2   3
  21 prop tor   1   2   3   4
  22 prop tor   1   2   3  12
  23 ben   1   2   7
  24 prop tor   1   2   7   6
  25 prop tor   1   2   7   8
  26 ben   1  10   9
  27 ben   1  10  18
  28 ben   2   1  10
  29 prop tor   2   1  10   9
  30 prop tor   2   1  10  18
  31 ben   2   1  11
  32 ben   2   3   4
  33 prop tor   2   3   4   5
  34 prop tor   2   3   4  13
  35 ben   2   3  12
  36 ben   2   7   6
  37 ben   2   7   8
  38 prop tor   2   7   8   9
  39 prop tor   2   7   8  16
  40 ben   3   2   7
  41 prop tor   3   2   7   6
  42 prop tor   3   2   7   8
  43 ben   3   4   5
  44 prop tor   3   4   5   6
  45 prop tor   3   4   5  14
  46 ben   3   4  13
  47 ben   4   3  12
  48 ben   4   5   6
  49 prop tor   4   5   6   7
  50 prop tor   4   5   6  15
  51 ben   4   5  14
  52 ben   5   4  13
  53 ben   5   6   7
  54 prop tor   5   6   7   2
  55 prop tor   5   6   7   8
  56 ben   5   6  15
  57 ben   6   5  14
  58 ben   6   7   8
  59 prop tor   6   7   8   9
  60 prop tor   6   7   8  16
  61 prop tor   7   2   3   4
  62 prop tor   7   2   3  12
  63 ben   7   6  15
  64 ben   7   8   9
  65 prop tor   7   8   9  10
  66 prop tor   7   8   9  17
  67 ben   7   8  16
  68 ben   8   9  10
  69 prop tor   8   9  10   1
  70 prop tor   8   9  10  18
  71 ben   8   9  17
  72 ben   9   8  16
  73 ben   9  10  18
  74 prop tor  10   1   2   3
  75 prop tor  10   1   2   7
  76 ben  10   1  11
  77 ben  10   9  17
  78 prop tor  11   1   2   3
  79 prop tor  11   1   2   7
  80 prop tor  11   1  10   9
  81 prop tor  11   1  10  18
  82 prop tor  12   3   4   5
  83 prop tor  12   3   4  13
  84 prop tor  13   4   5   6
  85 prop tor  13   4   5  14
  86 prop tor  14   5   6   7
  87 prop tor  14   5   6  15
  88 prop tor  15   6   7   2
  89 prop tor  15   6   7   8
  90 prop tor  16   8   9  10
  91 prop tor  16   8   9  17
  92 prop tor  17   9  10   1
  93 prop tor  17   9  10  18
 nber bend=              30
 nber lin bend=           0
 nber prop tor=          44
 nber impr tor=           0
 nber tot redund int=          93
 generating redundant internal coords
         300        3600          18
 search for int coords
   1 str   2   1   1.420
   2 str   3   2   1.420
   3 str   4   3   1.374
   4 str   5   4   1.415
   5 str   6   5   1.374
   6 str   7   2   1.431
   7 str   7   6   1.420
   8 str   8   7   1.420
   9 str   9   8   1.374
  10 str  10   1   1.374
  11 str  10   9   1.415
  12 str  11   1   1.085
  13 str  12   3   1.085
  14 str  13   4   1.084
  15 str  14   5   1.084
  16 str  15   6   1.085
  17 str  16   8   1.085
  18 str  17   9   1.084
  19 str  18  10   1.084
 nber stretches=          19
  20 ben   1   2   3
  21 prop tor   1   2   3   4
  22 prop tor   1   2   3  12
  23 ben   1   2   7
  24 prop tor   1   2   7   6
  25 prop tor   1   2   7   8
  26 ben   1  10   9
  27 ben   1  10  18
  28 ben   2   1  10
  29 prop tor   2   1  10   9
  30 prop tor   2   1  10  18
  31 ben   2   1  11
  32 ben   2   3   4
  33 prop tor   2   3   4   5
  34 prop tor   2   3   4  13
  35 ben   2   3  12
  36 ben   2   7   6
  37 ben   2   7   8
  38 prop tor   2   7   8   9
  39 prop tor   2   7   8  16
  40 ben   3   2   7
  41 prop tor   3   2   7   6
  42 prop tor   3   2   7   8
  43 ben   3   4   5
  44 prop tor   3   4   5   6
  45 prop tor   3   4   5  14
  46 ben   3   4  13
  47 ben   4   3  12
  48 ben   4   5   6
  49 prop tor   4   5   6   7
  50 prop tor   4   5   6  15
  51 ben   4   5  14
  52 ben   5   4  13
  53 ben   5   6   7
  54 prop tor   5   6   7   2
  55 prop tor   5   6   7   8
  56 ben   5   6  15
  57 ben   6   5  14
  58 ben   6   7   8
  59 prop tor   6   7   8   9
  60 prop tor   6   7   8  16
  61 prop tor   7   2   3   4
  62 prop tor   7   2   3  12
  63 ben   7   6  15
  64 ben   7   8   9
  65 prop tor   7   8   9  10
  66 prop tor   7   8   9  17
  67 ben   7   8  16
  68 ben   8   9  10
  69 prop tor   8   9  10   1
  70 prop tor   8   9  10  18
  71 ben   8   9  17
  72 ben   9   8  16
  73 ben   9  10  18
  74 prop tor  10   1   2   3
  75 prop tor  10   1   2   7
  76 ben  10   1  11
  77 ben  10   9  17
  78 prop tor  11   1   2   3
  79 prop tor  11   1   2   7
  80 prop tor  11   1  10   9
  81 prop tor  11   1  10  18
  82 prop tor  12   3   4   5
  83 prop tor  12   3   4  13
  84 prop tor  13   4   5   6
  85 prop tor  13   4   5  14
  86 prop tor  14   5   6   7
  87 prop tor  14   5   6  15
  88 prop tor  15   6   7   2
  89 prop tor  15   6   7   8
  90 prop tor  16   8   9  10
  91 prop tor  16   8   9  17
  92 prop tor  17   9  10   1
  93 prop tor  17   9  10  18
 nber bend=              30
 nber lin bend=           0
 nber prop tor=          44
 nber impr tor=           0
 nber tot redund int=          93
 Eigenvalues of G in red int coords
    Gval -0.00000000 -0.00000000 -0.00000000 -0.00000000 -0.00000000 -0.00000000 -0.00000000 -0.00000000
    Gval -0.00000000 -0.00000000 -0.00000000 -0.00000000 -0.00000000 -0.00000000 -0.00000000 -0.00000000
    Gval -0.00000000 -0.00000000 -0.00000000 -0.00000000 -0.00000000 -0.00000000 -0.00000000  0.00000000
    Gval  0.00000000  0.00000000  0.00000000  0.00000000  0.00000000  0.00000000  0.00000000  0.00000000
    Gval  0.00000000  0.00000000  0.00000000  0.00000000  0.00000000  0.00000000  0.00000000  0.00000000
    Gval  0.00000000  0.00000000  0.00000000  0.00000000  0.00000000  0.00001847  0.00002367  0.00003746
    Gval  0.00004521  0.00005531  0.00007222  0.00007782  0.00010236  0.00010312  0.00012748  0.00013128
    Gval  0.00013414  0.00014903  0.00021066  0.00022371  0.00028992  0.00037328  0.00037993  0.00039920
    Gval  0.00049097  0.00059298  0.00059327  0.00059579  0.00059847  0.00060931  0.00062769  0.00064837
    Gval  0.00066173  0.00072154  0.00072433  0.00104422  0.00105901  0.00111173  0.00111660  0.00111866
    Gval  0.00115772  0.00116186  0.00117016  0.00117040  0.00166078  0.00189900  0.00190223  0.00248570
    Gval  0.00283428  0.00339129  0.00363498  0.00398142  0.00403599
  1.847055247904099E-005  1.847055247904099E-005
  2.367128731539249E-005  1.847055247904099E-005
  3.746228758553105E-005  1.847055247904099E-005
  4.520540210127677E-005  1.847055247904099E-005
  5.530870340831327E-005  1.847055247904099E-005
  7.222080013474412E-005  1.847055247904099E-005
  7.781886335509207E-005  1.847055247904099E-005
  1.023591627643542E-004  1.847055247904099E-005
  1.031183254448260E-004  1.847055247904099E-005
  1.274842283876596E-004  1.847055247904099E-005
  1.312841412458951E-004  1.847055247904099E-005
  1.341410875899075E-004  1.847055247904099E-005
  1.490312071895223E-004  1.847055247904099E-005
  2.106613923810081E-004  1.847055247904099E-005
  2.237122815536810E-004  1.847055247904099E-005
  2.899196843429496E-004  1.847055247904099E-005
  3.732830857438012E-004  1.847055247904099E-005
  3.799290027072714E-004  1.847055247904099E-005
  3.992026814420193E-004  1.847055247904099E-005
  4.909695417957574E-004  1.847055247904099E-005
  5.929759350378910E-004  1.847055247904099E-005
  5.932668051525435E-004  1.847055247904099E-005
  5.957926563088720E-004  1.847055247904099E-005
  5.984695069258417E-004  1.847055247904099E-005
  6.093140603300500E-004  1.847055247904099E-005
  6.276887898105669E-004  1.847055247904099E-005
  6.483737743557960E-004  1.847055247904099E-005
  6.617283415797715E-004  1.847055247904099E-005
  7.215394164990663E-004  1.847055247904099E-005
  7.243313564671117E-004  1.847055247904099E-005
  1.044216673026874E-003  1.847055247904099E-005
  1.059007381150029E-003  1.847055247904099E-005
  1.111730745057020E-003  1.847055247904099E-005
  1.116604588592495E-003  1.847055247904099E-005
  1.118655445544896E-003  1.847055247904099E-005
  1.157715988692480E-003  1.847055247904099E-005
  1.161855835152581E-003  1.847055247904099E-005
  1.170156761657873E-003  1.847055247904099E-005
  1.170396233363656E-003  1.847055247904099E-005
  1.660784663314053E-003  1.847055247904099E-005
  1.898997904782266E-003  1.847055247904099E-005
  1.902225932689062E-003  1.847055247904099E-005
  2.485703675079928E-003  1.847055247904099E-005
  2.834277496238640E-003  1.847055247904099E-005
  3.391287180290531E-003  1.847055247904099E-005
  3.634983845505136E-003  1.847055247904099E-005
  3.981420056080045E-003  1.847055247904099E-005
  4.035987883272601E-003  1.847055247904099E-005
 cut=1d-8, nber non-redundant internal coords=          48
 Check on Eigenvals of non-red overlap matrix:
  0.00001847  0.00002367  0.00003746  0.00004521  0.00005531  0.00007222  0.00007782  0.00010236
  0.00010312  0.00012748  0.00013128  0.00013414  0.00014903  0.00021066  0.00022371  0.00028992
  0.00037328  0.00037993  0.00039920  0.00049097  0.00059298  0.00059327  0.00059579  0.00059847
  0.00060931  0.00062769  0.00064837  0.00066173  0.00072154  0.00072433  0.00104422  0.00105901
  0.00111173  0.00111660  0.00111866  0.00115772  0.00116186  0.00117016  0.00117040  0.00166078
  0.00189900  0.00190223  0.00248570  0.00283428  0.00339129  0.00363498  0.00398142  0.00403599
 generating redundant internal coords
         300        3600          18
 search for int coords
   1 str   2   1   1.411
   2 str   3   2   1.411
   3 str   4   3   1.404
   4 str   5   4   1.389
   5 str   6   5   1.404
   6 str   7   2   1.430
   7 str   7   6   1.411
   8 str   8   7   1.411
   9 str   9   8   1.404
  10 str  10   1   1.404
  11 str  10   9   1.389
  12 str  11   1   1.084
  13 str  12   3   1.084
  14 str  13   4   1.083
  15 str  14   5   1.083
  16 str  15   6   1.084
  17 str  16   8   1.084
  18 str  17   9   1.083
  19 str  18  10   1.083
 nber stretches=          19
  20 ben   1   2   3
  21 prop tor   1   2   3   4
  22 prop tor   1   2   3  12
  23 ben   1   2   7
  24 prop tor   1   2   7   6
  25 prop tor   1   2   7   8
  26 ben   1  10   9
  27 ben   1  10  18
  28 ben   2   1  10
  29 prop tor   2   1  10   9
  30 prop tor   2   1  10  18
  31 ben   2   1  11
  32 ben   2   3   4
  33 prop tor   2   3   4   5
  34 prop tor   2   3   4  13
  35 ben   2   3  12
  36 ben   2   7   6
  37 ben   2   7   8
  38 prop tor   2   7   8   9
  39 prop tor   2   7   8  16
  40 ben   3   2   7
  41 prop tor   3   2   7   6
  42 prop tor   3   2   7   8
  43 ben   3   4   5
  44 prop tor   3   4   5   6
  45 prop tor   3   4   5  14
  46 ben   3   4  13
  47 ben   4   3  12
  48 ben   4   5   6
  49 prop tor   4   5   6   7
  50 prop tor   4   5   6  15
  51 ben   4   5  14
  52 ben   5   4  13
  53 ben   5   6   7
  54 prop tor   5   6   7   2
  55 prop tor   5   6   7   8
  56 ben   5   6  15
  57 ben   6   5  14
  58 ben   6   7   8
  59 prop tor   6   7   8   9
  60 prop tor   6   7   8  16
  61 prop tor   7   2   3   4
  62 prop tor   7   2   3  12
  63 ben   7   6  15
  64 ben   7   8   9
  65 prop tor   7   8   9  10
  66 prop tor   7   8   9  17
  67 ben   7   8  16
  68 ben   8   9  10
  69 prop tor   8   9  10   1
  70 prop tor   8   9  10  18
  71 ben   8   9  17
  72 ben   9   8  16
  73 ben   9  10  18
  74 prop tor  10   1   2   3
  75 prop tor  10   1   2   7
  76 ben  10   1  11
  77 ben  10   9  17
  78 prop tor  11   1   2   3
  79 prop tor  11   1   2   7
  80 prop tor  11   1  10   9
  81 prop tor  11   1  10  18
  82 prop tor  12   3   4   5
  83 prop tor  12   3   4  13
  84 prop tor  13   4   5   6
  85 prop tor  13   4   5  14
  86 prop tor  14   5   6   7
  87 prop tor  14   5   6  15
  88 prop tor  15   6   7   2
  89 prop tor  15   6   7   8
  90 prop tor  16   8   9  10
  91 prop tor  16   8   9  17
  92 prop tor  17   9  10   1
  93 prop tor  17   9  10  18
 nber bend=              30
 nber lin bend=           0
 nber prop tor=          44
 nber impr tor=           0
 nber tot redund int=          93
 Eigenvalues of G in red int coords
    Gval -0.00000000 -0.00000000 -0.00000000 -0.00000000 -0.00000000 -0.00000000 -0.00000000 -0.00000000
    Gval -0.00000000 -0.00000000 -0.00000000 -0.00000000 -0.00000000 -0.00000000 -0.00000000 -0.00000000
    Gval -0.00000000 -0.00000000 -0.00000000 -0.00000000 -0.00000000 -0.00000000  0.00000000  0.00000000
    Gval  0.00000000  0.00000000  0.00000000  0.00000000  0.00000000  0.00000000  0.00000000  0.00000000
    Gval  0.00000000  0.00000000  0.00000000  0.00000000  0.00000000  0.00000000  0.00000000  0.00000000
    Gval  0.00000000  0.00000000  0.00000000  0.00000000  0.00000000  0.00001849  0.00002353  0.00003773
    Gval  0.00004504  0.00005537  0.00007221  0.00007785  0.00010220  0.00010238  0.00012271  0.00013063
    Gval  0.00013328  0.00015176  0.00021308  0.00022069  0.00028907  0.00037173  0.00037949  0.00040024
    Gval  0.00048224  0.00059300  0.00059329  0.00059579  0.00059851  0.00060900  0.00062725  0.00064765
    Gval  0.00066075  0.00071787  0.00072149  0.00104676  0.00106142  0.00110305  0.00111500  0.00112222
    Gval  0.00115438  0.00115920  0.00117253  0.00117278  0.00166742  0.00191128  0.00191175  0.00250468
    Gval  0.00285804  0.00337120  0.00362104  0.00399191  0.00404336
  1.849450882309361E-005  1.849450882309361E-005
  2.352827172034281E-005  1.849450882309361E-005
  3.773061157596204E-005  1.849450882309361E-005
  4.504234256584265E-005  1.849450882309361E-005
  5.536563133531980E-005  1.849450882309361E-005
  7.220882373413209E-005  1.849450882309361E-005
  7.784990026955412E-005  1.849450882309361E-005
  1.022020425485537E-004  1.849450882309361E-005
  1.023811490738122E-004  1.849450882309361E-005
  1.227120711756126E-004  1.849450882309361E-005
  1.306266026462881E-004  1.849450882309361E-005
  1.332811854600902E-004  1.849450882309361E-005
  1.517617353208951E-004  1.849450882309361E-005
  2.130773204674517E-004  1.849450882309361E-005
  2.206887990743985E-004  1.849450882309361E-005
  2.890715982539912E-004  1.849450882309361E-005
  3.717332177207035E-004  1.849450882309361E-005
  3.794850350546629E-004  1.849450882309361E-005
  4.002393784901505E-004  1.849450882309361E-005
  4.822403694535567E-004  1.849450882309361E-005
  5.929991694036117E-004  1.849450882309361E-005
  5.932890178198711E-004  1.849450882309361E-005
  5.957910770586951E-004  1.849450882309361E-005
  5.985058508413522E-004  1.849450882309361E-005
  6.089998662395225E-004  1.849450882309361E-005
  6.272528105284232E-004  1.849450882309361E-005
  6.476466334992854E-004  1.849450882309361E-005
  6.607457072225531E-004  1.849450882309361E-005
  7.178716987024056E-004  1.849450882309361E-005
  7.214873672056471E-004  1.849450882309361E-005
  1.046755979454983E-003  1.849450882309361E-005
  1.061420584242528E-003  1.849450882309361E-005
  1.103049884970042E-003  1.849450882309361E-005
  1.115000250573628E-003  1.849450882309361E-005
  1.122222898796308E-003  1.849450882309361E-005
  1.154383265681534E-003  1.849450882309361E-005
  1.159198339354154E-003  1.849450882309361E-005
  1.172534927412607E-003  1.849450882309361E-005
  1.172783651179814E-003  1.849450882309361E-005
  1.667419032695093E-003  1.849450882309361E-005
  1.911275307763365E-003  1.849450882309361E-005
  1.911747486872326E-003  1.849450882309361E-005
  2.504679171768155E-003  1.849450882309361E-005
  2.858044780661862E-003  1.849450882309361E-005
  3.371199238332479E-003  1.849450882309361E-005
  3.621039457447673E-003  1.849450882309361E-005
  3.991909111211100E-003  1.849450882309361E-005
  4.043363491652737E-003  1.849450882309361E-005
 cut=1d-8, nber non-redundant internal coords=          48
 Check on Eigenvals of non-red overlap matrix:
  0.00001849  0.00002353  0.00003773  0.00004504  0.00005537  0.00007221  0.00007785  0.00010220
  0.00010238  0.00012271  0.00013063  0.00013328  0.00015176  0.00021308  0.00022069  0.00028907
  0.00037173  0.00037949  0.00040024  0.00048224  0.00059300  0.00059329  0.00059579  0.00059851
  0.00060900  0.00062725  0.00064765  0.00066075  0.00071787  0.00072149  0.00104676  0.00106142
  0.00110305  0.00111500  0.00112222  0.00115438  0.00115920  0.00117253  0.00117278  0.00166742
  0.00191128  0.00191175  0.00250468  0.00285804  0.00337120  0.00362104  0.00399191  0.00404336
 d1=
   2.9   0.0   0.0  -2.4  -0.0   0.0  -0.0   0.0   4.5  -0.0   0.0   3.8   0.0   0.0   0.0  -0.0  -0.0   0.3   0.0   0.0
   0.0   0.2  -0.0  -0.0  -0.0  -0.0   0.0   0.0  -0.0  -0.0   0.0   1.5  -0.0  -0.0  -0.0  -0.0  -0.3   0.0  -0.0  -0.0
  -0.0  -0.0   0.0  -0.0   0.0   0.0   0.0  -0.0
 d2=
  -2.9  -0.0   0.0  -2.4   0.0  -0.0   0.0   4.4   0.0  -0.0   0.0  -4.0   0.0   0.0   0.0  -0.0   0.0  -0.3   0.0   0.0
   0.0   0.2   0.0   0.0   0.0   0.0   0.0  -0.0  -0.0   0.0  -0.0   1.5  -0.0   0.0  -0.0   0.0  -0.3  -0.0   0.0  -0.0
   0.0  -0.0  -0.0  -0.0  -0.0  -0.0  -0.0  -0.0
 curvilinear- renormalizn of Dush matrix done
  mol 1 sym            1  -> mol 2 sym            1
  mol 1 sym            2  -> mol 2 sym            2
  mol 1 sym            3  -> mol 2 sym            3
  mol 1 sym            4  -> mol 2 sym            4
  mol 1 sym            5  -> mol 2 sym            5
  mol 1 sym            6  -> mol 2 sym            6
  mol 1 sym            7  -> mol 2 sym            7
  mol 1 sym            8  -> mol 2 sym            8

 Dushinsky matrix, ncs 2 in terms of ncs 1

   mode   freq    coeff     %      %tot     of    at

   1 B2g    -0. -0.0000     0.0     0.0  11 B2g   480.
   2 B1u    -0.  0.0000     0.0     0.0   9 B1u   366.
   3 B1g    -0. -0.0000     0.0     0.0  17 B1g   729.
   4 B3u    -0. -0.0000     0.0     0.0   7 B3u   173.
   5 B3g     0.  0.0000     0.0     0.0  13 B3g   519.
   6 B2u     0.  0.0000     0.0     0.0  16 B2u   636.
   7 B3u   156. -0.9997    99.9    96.5   7 B3u   173.
   8 Au    181.  0.9996    99.9   101.8   8 Au    186.
   9 B1u   359. -0.9999   100.0    99.1   9 B1u   366.
  10 B1g   375.  0.9976    99.5    98.4  10 B1g   395.
  11 B3u   425.  0.9931    98.6   100.1  12 B3u   487.
  12 B2g   439. -0.9841    96.9    99.3  11 B2g   480.
  13 B3g   473.  0.9954    99.1   101.4  13 B3g   519.
  14 Ag    515.  0.9998   100.0    99.3  14 Ag    520.
  15 Au    561. -0.9650    93.1    99.2  15 Au    635.
  16 B2u   610. -0.9982    99.6    98.8  16 B2u   636.
  17 B2g   739.  0.9688    93.9   100.6  19 B2g   786.
  18 B1g   755.  0.9969    99.4   100.5  17 B1g   729.
  19 Ag    775.  0.9994    99.9    98.8  18 Ag    773.
  20 B3u   779.  0.9925    98.5   100.5  20 B3u   799.
  21 B1u   810.  0.9996    99.9   100.9  21 B1u   809.
  22 Au    875. -0.9327    87.0   100.0  22 Au    848.
  23 B2g   936.  0.9654    93.2   100.6  23 B2g   896.
  24 B3g   942. -0.9934    98.7    98.7  24 B3g   951.
  25 B1g   983.  0.9963    99.3    99.1  25 B1g   956.
  26 B3u  1004.  0.9947    98.9    99.4  26 B3u   973.
  27 Au   1029. -0.9552    91.2   100.5  27 Au    993.
  28 B2g  1030. -0.9724    94.6   100.3  28 B2g  1000.
  29 B2u  1038. -0.9391    88.2   100.0  29 B2u  1035.
  30 Ag   1066. -0.9846    96.9   100.1  30 Ag   1046.
  31 B3g  1119. -0.9639    92.9   100.2  33 B3g  1172.
  32 B1u  1124.  0.9878    97.6    99.7  31 B1u  1151.
  33 B2u  1192.  0.7659    58.7   100.2  32 B2u  1169.
                -0.5720    32.7          35 B2u  1232.
  34 Ag   1205.  0.9938    98.8   100.2  34 Ag   1185.
  35 B2u  1235.  0.5868    34.4   100.1  32 B2u  1169.
                 0.7221    52.1          35 B2u  1232.
                 0.3598    12.9          38 B2u  1391.
  36 B3g  1260.  0.9920    98.4   100.0  36 B3g  1270.
  37 B1u  1305. -0.9981    99.6   100.5  37 B1u  1287.
  38 Ag   1405.  0.9604    92.2   100.1  39 Ag   1398.
  39 B2u  1415. -0.3672    13.5   100.1  35 B2u  1232.
                 0.8975    80.6          38 B2u  1391.
  40 B1u  1433. -0.9959    99.2    99.7  40 B1u  1418.
  41 B3g  1469. -0.9481    89.9   100.8  42 B3g  1491.
  42 Ag   1500.  0.9378    87.9    99.8  41 Ag   1490.
  43 B3g  1508.  0.9289    86.3   100.0  46 B3g  1670.
  44 B1u  1550. -0.9866    97.3   100.6  45 B1u  1641.
  45 B2u  1568. -0.9877    97.6    99.1  43 B2u  1548.
  46 Ag   1623. -0.9627    92.7    99.8  44 Ag   1613.
  47 B3g  3185.  0.9694    94.0   100.0  47 B3g  3154.
  48 B1u  3187. -0.9590    92.0   100.0  48 B1u  3156.
  49 B2u  3188.  0.9920    98.4   100.0  49 B2u  3158.
  50 Ag   3190.  0.9835    96.7   100.0  50 Ag   3162.
  51 B3g  3201.  0.9694    94.0   100.0  51 B3g  3172.
  52 B1u  3201.  0.9590    92.0   100.0  52 B1u  3173.
  53 B2u  3212.  0.9919    98.4   100.0  53 B2u  3185.
  54 Ag   3212.  0.9835    96.7   100.0  54 Ag   3186.
 nber times 1st assigned=           1           0
 nber times 1st assigned=           2           0
 nber times 1st assigned=           3           0
 nber times 1st assigned=           4           0
 nber times 1st assigned=           5           0
 nber times 1st assigned=           6           0
 nber times 1st assigned=           8           0
 nber times 1st assigned=          10           0
 nber times 1st assigned=          12           0
 nber times 1st assigned=          14           0
 nber times 1st assigned=          15           0
 nber times 1st assigned=          18           0
 nber times 1st assigned=          19           0
 nber times 1st assigned=          20           0
 nber times 1st assigned=          21           0
 nber times 1st assigned=          22           0
 nber times 1st assigned=          23           0
 nber times 1st assigned=          24           0
 nber times 1st assigned=          25           0
 nber times 1st assigned=          26           0
 nber times 1st assigned=          27           0
 nber times 1st assigned=          28           0
 nber times 1st assigned=          29           0
 nber times 1st assigned=          30           0
 nber times 1st assigned=          31           0
 nber times 1st assigned=          32           0
 nber times 1st assigned=          33           0
 nber times 1st assigned=          34           0
 nber times 1st assigned=          35           0
 nber times 1st assigned=          36           0
 nber times 1st assigned=          37           0
 nber times 1st assigned=          38           0
 nber times 1st assigned=          39           0
 nber times 1st assigned=          40           0
 nber times 1st assigned=          41           0
 nber times 1st assigned=          42           0
 nber times 1st assigned=          43           0
 nber times 1st assigned=          44           0
 nber times 1st assigned=          45           0
 nber times 1st assigned=          46           0
 nber times 1st assigned=          47           0
 nber times 1st assigned=          48           0
 nber times 1st assigned=          49           0
 nber times 1st assigned=          50           0
 nber times 1st assigned=          51           0
 nber times 1st assigned=          52           0
 nber times 1st assigned=          53           0
 nber times 1st assigned=          54           0
 Dushinsky matrix written to .out file
 modes represented=   47.9493234063398     

 Dushinsky matrix, ncs 1 in terms of ncs 2

   mode   freq    coeff     %      %tot     of    at

   7 B3u   173. -0.9997    99.9    96.5   7 B3u   156.
   8 Au    186.  0.9996    99.9   101.8   8 Au    181.
   9 B1u   366. -0.9999   100.0    99.2   9 B1u   359.
  10 B1g   395.  0.9976    99.5    98.3  10 B1g   375.
  11 B2g   480. -0.9841    96.9    99.2  12 B2g   439.
  12 B3u   487.  0.9931    98.6   100.0  11 B3u   425.
  13 B3g   519.  0.9954    99.1   101.7  13 B3g   473.
  14 Ag    520.  0.9998   100.0    99.3  14 Ag    515.
  15 Au    635. -0.9650    93.1    98.8  15 Au    561.
  16 B2u   636. -0.9982    99.6    98.8  16 B2u   610.
  17 B1g   729.  0.9969    99.4   100.5  18 B1g   755.
  18 Ag    773.  0.9994    99.9    98.8  19 Ag    775.
  19 B2g   786.  0.9688    93.9   100.6  17 B2g   739.
  20 B3u   799.  0.9925    98.5   100.6  20 B3u   779.
  21 B1u   809.  0.9996    99.9   101.0  21 B1u   810.
  22 Au    848. -0.9327    87.0   100.9  22 Au    875.
  23 B2g   896.  0.9654    93.2   100.9  23 B2g   936.
  24 B3g   951. -0.9934    98.7    98.8  24 B3g   942.
  25 B1g   956.  0.9963    99.3    99.2  25 B1g   983.
  26 B3u   973.  0.9947    98.9    99.3  26 B3u  1004.
  27 Au    993. -0.9552    91.2   100.1  27 Au   1029.
  28 B2g  1000. -0.9724    94.6   100.0  28 B2g  1030.
  29 B2u  1035. -0.9391    88.2    99.9  29 B2u  1038.
  30 Ag   1046. -0.9846    96.9   100.1  30 Ag   1066.
  31 B1u  1151.  0.9878    97.6    99.6  32 B1u  1124.
  32 B2u  1169.  0.7659    58.7   100.1  33 B2u  1192.
                 0.5868    34.4          35 B2u  1235.
  33 B3g  1172. -0.9639    92.9   100.0  31 B3g  1119.
  34 Ag   1185.  0.9938    98.8   100.2  34 Ag   1205.
  35 B2u  1232. -0.5720    32.7   100.0  33 B2u  1192.
                 0.7221    52.1          35 B2u  1235.
                -0.3672    13.5          39 B2u  1415.
  36 B3g  1270.  0.9920    98.4   100.0  36 B3g  1260.
  37 B1u  1287. -0.9981    99.6   100.5  37 B1u  1305.
  38 B2u  1391.  0.3598    12.9   100.3  35 B2u  1235.
                 0.8975    80.6          39 B2u  1415.
  39 Ag   1398.  0.9604    92.2   100.2  38 Ag   1405.
  40 B1u  1418. -0.9959    99.2    99.6  40 B1u  1433.
  41 Ag   1490.  0.9378    87.9    99.4  42 Ag   1500.
  42 B3g  1491. -0.9481    89.9   100.5  41 B3g  1469.
  43 B2u  1548. -0.9877    97.6    99.2  45 B2u  1568.
  44 Ag   1613. -0.9627    92.7   100.2  46 Ag   1623.
  45 B1u  1641. -0.9866    97.3   100.7  44 B1u  1550.
  46 B3g  1670.  0.9289    86.3   100.3  43 B3g  1508.
  47 B3g  3154.  0.9694    94.0   100.0  47 B3g  3185.
  48 B1u  3156. -0.9590    92.0   100.0  48 B1u  3187.
  49 B2u  3158.  0.9920    98.4   100.0  49 B2u  3188.
  50 Ag   3162.  0.9835    96.7   100.0  50 Ag   3190.
  51 B3g  3172.  0.9694    94.0   100.0  51 B3g  3201.
  52 B1u  3173.  0.9590    92.0   100.0  52 B1u  3201.
  53 B2u  3185.  0.9919    98.4   100.0  53 B2u  3212.
  54 Ag   3186.  0.9835    96.7   100.0  54 Ag   3212.
 nber times 1st assigned=           1           0
 nber times 1st assigned=           2           0
 nber times 1st assigned=           3           0
 nber times 1st assigned=           4           0
 nber times 1st assigned=           5           0
 nber times 1st assigned=           6           0
 nber times 1st assigned=           7           0
 nber times 1st assigned=           8           0
 nber times 1st assigned=           9           0
 nber times 1st assigned=          10           0
 nber times 1st assigned=          11           0
 nber times 1st assigned=          12           0
 nber times 1st assigned=          13           0
 nber times 1st assigned=          14           0
 nber times 1st assigned=          15           0
 nber times 1st assigned=          16           0
 nber times 1st assigned=          17           0
 nber times 1st assigned=          18           0
 nber times 1st assigned=          19           0
 nber times 1st assigned=          20           0
 nber times 1st assigned=          21           0
 nber times 1st assigned=          22           0
 nber times 1st assigned=          23           0
 nber times 1st assigned=          24           0
 nber times 1st assigned=          25           0
 nber times 1st assigned=          26           0
 nber times 1st assigned=          27           0
 nber times 1st assigned=          28           0
 nber times 1st assigned=          29           0
 nber times 1st assigned=          30           0
 nber times 1st assigned=          31           0
 nber times 1st assigned=          32           0
 nber times 1st assigned=          33           0
 nber times 1st assigned=          34           0
 nber times 1st assigned=          35           0
 nber times 1st assigned=          36           0
 nber times 1st assigned=          37           0
 nber times 1st assigned=          38           0
 nber times 1st assigned=          39           0
 nber times 1st assigned=          40           0
 nber times 1st assigned=          41           0
 nber times 1st assigned=          42           0
 nber times 1st assigned=          43           0
 nber times 1st assigned=          44           0
 nber times 1st assigned=          45           0
 nber times 1st assigned=          46           0
 nber times 1st assigned=          47           0
 nber times 1st assigned=          48           0
 nber times 1st assigned=          49           0
 nber times 1st assigned=          50           0
 nber times 1st assigned=          51           0
 nber times 1st assigned=          52           0
 nber times 1st assigned=          53           0
 nber times 1st assigned=          54           0
 modes represented=   47.9493234063398     
 p1=
   -0.   -0.   -0.    0.    0.    0.   -0.   -0.    0.    0.    0.    0.   -0.    3.   -0.   -0.    0.   -1.    0.    0.
   -0.   -0.    0.    0.   -0.   -0.   -0.    0.   -0.   -0.   -0.    0.    0.    2.    0.   -0.    0.    0.   -4.   -0.
   -1.    0.   -0.    4.   -0.    0.    0.    0.   -0.    0.   -0.   -0.    0.   -0.
 p2=
    0.   -0.   -0.   -0.   -0.    0.    0.    0.   -0.   -0.    0.   -0.    0.   -3.   -0.    0.   -0.   -0.    1.    0.
   -0.   -0.   -0.   -0.    0.   -0.   -0.   -0.   -0.   -1.    0.   -0.    0.   -2.   -0.   -0.    0.    5.    0.    0.
   -0.    1.   -0.   -0.   -0.    4.   -0.   -0.   -0.   -0.   -0.   -0.    0.    0.

 Displacement: in terms of nc of 1 THEN of nc of 2

   1 B1u freq=    -0. Q= -0.000 lam=    -0.0 B2g freq=    -0. Q= -0.000 lam=    -0.0
   2 B3u freq=     0. Q= -0.000 lam=     0.0 B1u freq=    -0. Q= -0.000 lam=    -0.0
   3 B1g freq=     0. Q= -0.000 lam=     0.0 B1g freq=    -0. Q= -0.000 lam=    -0.0
   4 B2g freq=     0. Q=  0.000 lam=     0.0 B3u freq=    -0. Q=  0.000 lam=    -0.0
   5 B2u freq=     0. Q=  0.000 lam=     0.0 B3g freq=     0. Q=  0.000 lam=     0.0
   6 B3g freq=     0. Q=  0.000 lam=     0.0 B2u freq=     0. Q=  0.000 lam=     0.0
   7 B3u freq=   173. Q= -0.000 lam=     0.0 B3u freq=   156. Q= -0.000 lam=     0.0
   8 Au  freq=   186. Q= -0.000 lam=     0.0 Au  freq=   181. Q= -0.000 lam=     0.0
   9 B1u freq=   366. Q=  0.000 lam=     0.0 B1u freq=   359. Q=  0.000 lam=     0.0
  10 B1g freq=   395. Q=  0.000 lam=     0.0 B1g freq=   375. Q=  0.000 lam=     0.0
  11 B2g freq=   480. Q=  0.000 lam=     0.0 B3u freq=   425. Q=  0.000 lam=     0.0
  12 B3u freq=   487. Q=  0.000 lam=     0.0 B2g freq=   439. Q=  0.000 lam=     0.0
  13 B3g freq=   519. Q= -0.000 lam=     0.0 B3g freq=   473. Q= -0.000 lam=     0.0
  14 Ag  freq=   520. Q=  0.288 lam=    21.6 Ag  freq=   515. Q=  0.298 lam=    22.8
  15 Au  freq=   635. Q= -0.000 lam=     0.0 Au  freq=   561. Q= -0.000 lam=     0.0
  16 B2u freq=   636. Q= -0.000 lam=     0.0 B2u freq=   610. Q= -0.000 lam=     0.0
  17 B1g freq=   729. Q=  0.000 lam=     0.0 B2g freq=   739. Q=  0.000 lam=     0.0
  18 Ag  freq=   773. Q= -0.086 lam=     2.9 B1g freq=   755. Q= -0.000 lam=     0.0
  19 B2g freq=   786. Q=  0.000 lam=     0.0 Ag  freq=   775. Q=  0.066 lam=     1.7
  20 B3u freq=   799. Q=  0.000 lam=     0.0 B3u freq=   779. Q=  0.000 lam=     0.0
  21 B1u freq=   809. Q= -0.000 lam=     0.0 B1u freq=   810. Q= -0.000 lam=     0.0
  22 Au  freq=   848. Q= -0.000 lam=     0.0 Au  freq=   875. Q= -0.000 lam=     0.0
  23 B2g freq=   896. Q=  0.000 lam=     0.0 B2g freq=   936. Q=  0.000 lam=     0.0
  24 B3g freq=   951. Q=  0.000 lam=     0.0 B3g freq=   942. Q=  0.000 lam=     0.0
  25 B1g freq=   956. Q= -0.000 lam=     0.0 B1g freq=   983. Q= -0.000 lam=     0.0
  26 B3u freq=   973. Q= -0.000 lam=     0.0 B3u freq=  1004. Q= -0.000 lam=     0.0
  27 Au  freq=   993. Q= -0.000 lam=     0.0 Au  freq=  1029. Q= -0.000 lam=     0.0
  28 B2g freq=  1000. Q=  0.000 lam=     0.0 B2g freq=  1030. Q=  0.000 lam=     0.0
  29 B2u freq=  1035. Q= -0.000 lam=     0.0 B2u freq=  1038. Q= -0.000 lam=     0.0
  30 Ag  freq=  1046. Q= -0.032 lam=     0.5 Ag  freq=  1066. Q= -0.164 lam=    14.4
  31 B1u freq=  1151. Q= -0.000 lam=     0.0 B3g freq=  1119. Q= -0.000 lam=     0.0
  32 B2u freq=  1169. Q=  0.000 lam=     0.0 B1u freq=  1124. Q=  0.000 lam=     0.0
  33 B3g freq=  1172. Q=  0.000 lam=     0.0 B2u freq=  1192. Q=  0.000 lam=     0.0
  34 Ag  freq=  1185. Q=  0.237 lam=    33.2 Ag  freq=  1205. Q=  0.248 lam=    36.9
  35 B2u freq=  1232. Q=  0.000 lam=     0.0 B2u freq=  1235. Q=  0.000 lam=     0.0
  36 B3g freq=  1270. Q= -0.000 lam=     0.0 B3g freq=  1260. Q= -0.000 lam=     0.0
  37 B1u freq=  1287. Q=  0.000 lam=     0.0 B1u freq=  1305. Q=  0.000 lam=     0.0
  38 B2u freq=  1391. Q=  0.000 lam=     0.0 Ag  freq=  1405. Q=  0.692 lam=   336.5
  39 Ag  freq=  1398. Q= -0.610 lam=   260.3 B2u freq=  1415. Q= -0.000 lam=     0.0
  40 B1u freq=  1418. Q= -0.000 lam=     0.0 B1u freq=  1433. Q= -0.000 lam=     0.0
  41 Ag  freq=  1490. Q= -0.220 lam=    35.9 B3g freq=  1469. Q= -0.000 lam=     0.0
  42 B3g freq=  1491. Q=  0.000 lam=     0.0 Ag  freq=  1500. Q=  0.204 lam=    31.2
  43 B2u freq=  1548. Q= -0.000 lam=     0.0 B3g freq=  1508. Q= -0.000 lam=     0.0
  44 Ag  freq=  1613. Q=  0.721 lam=   419.1 B1u freq=  1550. Q=  0.000 lam=     0.0
  45 B1u freq=  1641. Q= -0.000 lam=     0.0 B2u freq=  1568. Q= -0.000 lam=     0.0
  46 B3g freq=  1670. Q=  0.000 lam=     0.0 Ag  freq=  1623. Q=  0.597 lam=   288.9
  47 B3g freq=  3154. Q=  0.000 lam=     0.0 B3g freq=  3185. Q=  0.000 lam=     0.0
  48 B1u freq=  3156. Q=  0.000 lam=     0.0 B1u freq=  3187. Q=  0.000 lam=     0.0
  49 B2u freq=  3158. Q= -0.000 lam=     0.0 B2u freq=  3188. Q= -0.000 lam=     0.0
  50 Ag  freq=  3162. Q=  0.008 lam=     0.1 Ag  freq=  3190. Q=  0.018 lam=     0.5
  51 B3g freq=  3172. Q= -0.000 lam=     0.0 B3g freq=  3201. Q= -0.000 lam=     0.0
  52 B1u freq=  3173. Q= -0.000 lam=     0.0 B1u freq=  3201. Q= -0.000 lam=     0.0
  53 B2u freq=  3185. Q=  0.000 lam=     0.0 B2u freq=  3212. Q=  0.000 lam=     0.0
  54 Ag  freq=  3186. Q= -0.047 lam=     3.5 Ag  freq=  3212. Q= -0.037 lam=     2.2

 total reorg energy (cm**-1, kcal/mol)=      777.      735.      2.22      2.10
 Nber of molecules processed=           2
