 Enter ifcurve (0=recti, 1=orth curvi, 2=apprx curvi, -1 = skip
 And atom ordering flag, 0= never changes, 1= use the first order thenceforth,
  2= deduce it (does read on fail), 3= always read it
 Reading file: 
 ./conjugated_carbonyls_3_C-1S0.log                                             
                                          
  Entering Gaussian System, Link 0=g16                                          
  
 Gaussian format, type: g94, g98, g03= F F F
  #P Geom=AllCheck Guess=TCheck SCRF=Check Test GenChk UB3LYP/6-311G(d,p    
 energy type= B3LYP   
 Original G94 input coords:
  8  1.396064 -3.247086  0.000000
  6  0.741140 -2.184541  0.000000
  6 -0.741140 -2.184541  0.000000
  8 -1.396064 -3.247086  0.000000
  6 -1.423415 -0.874781  0.000000
  6 -2.834981 -0.872411  0.000000
  6 -3.558584  0.302520  0.000000
  6 -2.879601  1.533545  0.000000
  6 -1.495387  1.554832  0.000000
  6 -0.730276  0.369443  0.000000
  6  0.730276  0.369443  0.000000
  6  1.495387  1.554832  0.000000
  6  2.879601  1.533545  0.000000
  6  3.558584  0.302520  0.000000
  6  2.834981 -0.872411  0.000000
  6  1.423415 -0.874781  0.000000
  1 -3.317474 -1.842907  0.000000
  1 -4.644755  0.278539  0.000000
  1 -3.434951  2.466778  0.000000
  1 -0.994796  2.516071  0.000000
  1  0.994796  2.516071  0.000000
  1  3.434951  2.466778  0.000000
  1  4.644755  0.278539  0.000000
  1  3.317474 -1.842907  0.000000
 nber atoms=          24
  SCF Done:  E(UB3LYP) =  -688.987367311     A.U. after    1 cycles             
  
          23          40 "  -688.987367311"
After scan for Atom:   Atom  AN      X      Y      Z        X      Y      Z        X      Y      Z   
After scan for Atom:   Atom  AN      X      Y      Z        X      Y      Z        X      Y      Z   
After scan for Atom:   Atom  AN      X      Y      Z        X      Y      Z        X      Y      Z   
After scan for Atom:   Atom  AN      X      Y      Z        X      Y      Z        X      Y      Z   
After scan for Atom:   Atom  AN      X      Y      Z        X      Y      Z        X      Y      Z   
After scan for Atom:   Atom  AN      X      Y      Z        X      Y      Z        X      Y      Z   
After scan for Atom:   Atom  AN      X      Y      Z        X      Y      Z        X      Y      Z   
After scan for Atom:   Atom  AN      X      Y      Z        X      Y      Z        X      Y      Z   
After scan for Atom:   Atom  AN      X      Y      Z        X      Y      Z        X      Y      Z   
After scan for Atom:   Atom  AN      X      Y      Z        X      Y      Z        X      Y      Z   
After scan for Atom:   Atom  AN      X      Y      Z        X      Y      Z        X      Y      Z   
After scan for Atom:   Atom  AN      X      Y      Z        X      Y      Z        X      Y      Z   
After scan for Atom:   Atom  AN      X      Y      Z        X      Y      Z        X      Y      Z   
After scan for Atom:   Atom  AN      X      Y      Z        X      Y      Z        X      Y      Z   
After scan for Atom:   Atom  AN      X      Y      Z        X      Y      Z        X      Y      Z   
After scan for Atom:   Atom  AN      X      Y      Z        X      Y      Z        X      Y      Z   
After scan for Atom:   Atom  AN      X      Y      Z        X      Y      Z        X      Y      Z   
After scan for Atom:   Atom  AN      X      Y      Z        X      Y      Z        X      Y      Z   
After scan for Atom:   Atom  AN      X      Y      Z        X      Y      Z        X      Y      Z   
After scan for Atom:   Atom  AN      X      Y      Z        X      Y      Z        X      Y      Z   
After scan for Atom:   Atom  AN      X      Y      Z        X      Y      Z        X      Y      Z   
After scan for Atom:   Atom  AN      X      Y      Z        X      Y      Z        X      Y      Z   
 g94    frequencies=
     0.0    0.0    0.0    0.0    0.0    0.0   52.8   91.5  122.9  157.1
   245.1  272.6  318.6  365.3  386.2  400.5  413.9  440.7  452.7  465.5
   565.4  571.8  610.8  632.4  674.6  691.5  695.6  728.4  755.6  765.4
   783.1  799.6  849.7  859.6  909.7  929.7  933.1  986.8  988.5 1010.3
  1045.2 1053.4 1070.2 1103.6 1130.0 1164.9 1169.7 1230.0 1230.5 1257.5
  1275.2 1322.5 1350.6 1363.4 1451.6 1452.6 1488.4 1501.6 1546.0 1548.3
  1588.6 1596.9 1624.0 1634.1 3129.6 3130.3 3146.9 3150.6 3166.5 3180.7
  3184.7 3185.5
 g94    symmetries=
                                                 A      A      A      A
       A      A      A      A      A      A      A      A      A      A
       A      A      A      A      A      A      A      A      A      A
       A      A      A      A      A      A      A      A      A      A
       A      A      A      A      A      A      A      A      A      A
       A      A      A      A      A      A      A      A      A      A
       A      A      A      A      A      A      A      A      A      A
       A      A
 atomic masses:
 15.9949 12.0000 12.0000 15.9949 12.0000 12.0000 12.0000 12.0000 12.0000 12.0000
 12.0000 12.0000 12.0000 12.0000 12.0000 12.0000  1.0078  1.0078  1.0078  1.0078
  1.0078  1.0078  1.0078  1.0078
 looking for force constants in 
 ./conjugated_carbonyls_3_C-1S0.fchk                                            
  
 Cartesian Force Constants                  R   N=        2628                  
  
 n3=          72        2628
 g94-fc frequencies=
    -2.7   -2.1   -0.0   -0.0   -0.0    1.4   52.8   91.5  122.9  157.1
   245.1  272.6  318.6  365.3  386.3  400.5  413.9  440.7  452.7  465.5
   565.4  571.8  610.8  632.4  674.6  691.5  695.7  728.4  755.6  765.4
   783.1  799.6  849.8  859.6  909.7  929.7  933.1  986.8  988.5 1010.4
  1045.2 1053.4 1070.3 1103.6 1130.0 1164.9 1169.7 1230.0 1230.5 1257.5
  1275.3 1322.5 1350.6 1363.4 1451.7 1452.6 1488.4 1501.7 1546.0 1548.3
  1588.6 1596.9 1624.0 1634.1 3129.7 3130.4 3147.0 3150.6 3166.5 3180.7
  3184.8 3185.5
 at 99999: n3=          72
 symm operator            1 :  F  nop=           0
 symm operator            2 :  T  nop=           1
 symm operator            3 :  F  nop=           1
 symm operator            4 :  F  nop=           1
 symm operator            5 :  T  nop=           2
 symm operator            6 :  F  nop=           2
 symm operator            7 :  T  nop=           3
 swap           2           3
   1   1.39606   0.00000  -3.24709
   2   0.74114   0.00000  -2.18454
   3  -0.74114   0.00000  -2.18454
   4  -1.39606   0.00000  -3.24709
   5  -1.42342   0.00000  -0.87478
   6  -2.83498   0.00000  -0.87241
   7  -3.55858   0.00000   0.30252
   8  -2.87960   0.00000   1.53354
   9  -1.49539   0.00000   1.55483
  10  -0.73028   0.00000   0.36944
  11   0.73028   0.00000   0.36944
  12   1.49539   0.00000   1.55483
  13   2.87960   0.00000   1.53354
  14   3.55858   0.00000   0.30252
  15   2.83498   0.00000  -0.87241
  16   1.42342   0.00000  -0.87478
  17  -3.31747   0.00000  -1.84291
  18  -4.64475   0.00000   0.27854
  19  -3.43495   0.00000   2.46678
  20  -0.99480   0.00000   2.51607
  21   0.99480   0.00000   2.51607
  22   3.43495   0.00000   2.46678
  23   4.64475   0.00000   0.27854
  24   3.31747   0.00000  -1.84291
 swap           1           2
   1   0.00000   1.39606  -3.24709
   2   0.00000   0.74114  -2.18454
   3   0.00000  -0.74114  -2.18454
   4   0.00000  -1.39606  -3.24709
   5   0.00000  -1.42342  -0.87478
   6   0.00000  -2.83498  -0.87241
   7   0.00000  -3.55858   0.30252
   8   0.00000  -2.87960   1.53354
   9   0.00000  -1.49539   1.55483
  10   0.00000  -0.73028   0.36944
  11   0.00000   0.73028   0.36944
  12   0.00000   1.49539   1.55483
  13   0.00000   2.87960   1.53354
  14   0.00000   3.55858   0.30252
  15   0.00000   2.83498  -0.87241
  16   0.00000   1.42342  -0.87478
  17   0.00000  -3.31747  -1.84291
  18   0.00000  -4.64475   0.27854
  19   0.00000  -3.43495   2.46678
  20   0.00000  -0.99480   2.51607
  21   0.00000   0.99480   2.51607
  22   0.00000   3.43495   2.46678
  23   0.00000   4.64475   0.27854
  24   0.00000   3.31747  -1.84291
 The point group of the molecule is C2V
 enforcing symm op           1  jsymt=          -1          -1           1
 enforcing symm op           6  jsymt=           1          -1           1
 enforcing symm op           7  jsymt=          -1           1           1
 cartesian coord symmetries:
 A1 :   24 A2 :   12 B1 :   12 B2 :   24
 Symmetry rotation matrix:
   0.00000   0.00000   1.00000
  -1.00000   0.00000   0.00000
   0.00000  -1.00000   0.00000

 Projecting out zero-frequency components
 generating redundant internal coords
         300        3600          24
 search for int coords
   1 str   2   1   1.248
   2 str   3   2   1.482
   3 str   4   3   1.248
   4 str   5   3   1.477
   5 str   6   5   1.412
   6 str   7   6   1.380
   7 str   8   7   1.406
   8 str   9   8   1.384
   9 str  10   5   1.424
  10 str  10   9   1.411
  11 str  11  10   1.461
  12 str  12  11   1.411
  13 str  13  12   1.384
  14 str  14  13   1.406
  15 str  15  14   1.380
  16 str  16   2   1.477
  17 str  16  11   1.424
  18 str  16  15   1.412
  19 str  17   6   1.084
  20 str  18   7   1.086
  21 str  19   8   1.086
  22 str  20   9   1.084
  23 str  21  12   1.084
  24 str  22  13   1.086
  25 str  23  14   1.086
  26 str  24  15   1.084
 nber stretches=          26
  27 ben   1   2   3
  28 prop tor   1   2   3   4
  29 prop tor   1   2   3   5
  30 ben   1   2  16
  31 prop tor   1   2  16  11
  32 prop tor   1   2  16  15
  33 ben   2   3   4
  34 ben   2   3   5
  35 prop tor   2   3   5   6
  36 prop tor   2   3   5  10
  37 ben   2  16  11
  38 ben   2  16  15
  39 ben   3   2  16
  40 prop tor   3   2  16  11
  41 prop tor   3   2  16  15
  42 ben   3   5   6
  43 prop tor   3   5   6   7
  44 prop tor   3   5   6  17
  45 ben   3   5  10
  46 prop tor   3   5  10   9
  47 prop tor   3   5  10  11
  48 ben   4   3   5
  49 prop tor   4   3   5   6
  50 prop tor   4   3   5  10
  51 ben   5   6   7
  52 prop tor   5   6   7   8
  53 prop tor   5   6   7  18
  54 ben   5   6  17
  55 ben   5  10   9
  56 ben   5  10  11
  57 prop tor   5  10  11  12
  58 prop tor   5  10  11  16
  59 ben   6   5  10
  60 prop tor   6   5  10   9
  61 prop tor   6   5  10  11
  62 ben   6   7   8
  63 prop tor   6   7   8   9
  64 prop tor   6   7   8  19
  65 ben   6   7  18
  66 ben   7   6  17
  67 ben   7   8   9
  68 prop tor   7   8   9  10
  69 prop tor   7   8   9  20
  70 ben   7   8  19
  71 ben   8   7  18
  72 ben   8   9  10
  73 prop tor   8   9  10   5
  74 prop tor   8   9  10  11
  75 ben   8   9  20
  76 ben   9   8  19
  77 ben   9  10  11
  78 prop tor   9  10  11  12
  79 prop tor   9  10  11  16
  80 prop tor  10   5   6   7
  81 prop tor  10   5   6  17
  82 ben  10   9  20
  83 ben  10  11  12
  84 prop tor  10  11  12  13
  85 prop tor  10  11  12  21
  86 ben  10  11  16
  87 prop tor  10  11  16   2
  88 prop tor  10  11  16  15
  89 ben  11  12  13
  90 prop tor  11  12  13  14
  91 prop tor  11  12  13  22
  92 ben  11  12  21
  93 ben  11  16  15
  94 ben  12  11  16
  95 prop tor  12  11  16   2
  96 prop tor  12  11  16  15
  97 ben  12  13  14
  98 prop tor  12  13  14  15
  99 prop tor  12  13  14  23
 100 ben  12  13  22
 101 ben  13  12  21
 102 ben  13  14  15
 103 prop tor  13  14  15  16
 104 prop tor  13  14  15  24
 105 ben  13  14  23
 106 ben  14  13  22
 107 ben  14  15  16
 108 prop tor  14  15  16   2
 109 prop tor  14  15  16  11
 110 ben  14  15  24
 111 ben  15  14  23
 112 prop tor  16   2   3   4
 113 prop tor  16   2   3   5
 114 prop tor  16  11  12  13
 115 prop tor  16  11  12  21
 116 ben  16  15  24
 117 prop tor  17   6   7   8
 118 prop tor  17   6   7  18
 119 prop tor  18   7   8   9
 120 prop tor  18   7   8  19
 121 prop tor  19   8   9  10
 122 prop tor  19   8   9  20
 123 prop tor  20   9  10   5
 124 prop tor  20   9  10  11
 125 prop tor  21  12  13  14
 126 prop tor  21  12  13  22
 127 prop tor  22  13  14  15
 128 prop tor  22  13  14  23
 129 prop tor  23  14  15  16
 130 prop tor  23  14  15  24
 131 prop tor  24  15  16   2
 132 prop tor  24  15  16  11
 nber bend=              42
 nber lin bend=           0
 nber prop tor=          64
 nber impr tor=           0
 nber tot redund int=         132
 Eigenvalues of G in red int coords
    Gval -0.00000000 -0.00000000 -0.00000000 -0.00000000 -0.00000000 -0.00000000 -0.00000000 -0.00000000
    Gval -0.00000000 -0.00000000 -0.00000000 -0.00000000 -0.00000000 -0.00000000 -0.00000000 -0.00000000
    Gval -0.00000000 -0.00000000 -0.00000000 -0.00000000 -0.00000000 -0.00000000 -0.00000000 -0.00000000
    Gval -0.00000000 -0.00000000 -0.00000000 -0.00000000 -0.00000000 -0.00000000 -0.00000000 -0.00000000
    Gval -0.00000000  0.00000000  0.00000000  0.00000000  0.00000000  0.00000000  0.00000000  0.00000000
    Gval  0.00000000  0.00000000  0.00000000  0.00000000  0.00000000  0.00000000  0.00000000  0.00000000
    Gval  0.00000000  0.00000000  0.00000000  0.00000000  0.00000000  0.00000000  0.00000000  0.00000000
    Gval  0.00000000  0.00000000  0.00000000  0.00000000  0.00000000  0.00000000  0.00000000  0.00000000
    Gval  0.00000000  0.00000000  0.00000690  0.00001096  0.00001163  0.00002018  0.00002161  0.00002592
    Gval  0.00003555  0.00004702  0.00004778  0.00004903  0.00005480  0.00005962  0.00006091  0.00007802
    Gval  0.00007860  0.00009760  0.00010022  0.00010946  0.00011273  0.00012817  0.00012926  0.00013208
    Gval  0.00015634  0.00020236  0.00023025  0.00026457  0.00026952  0.00029502  0.00032183  0.00037655
    Gval  0.00037793  0.00040387  0.00042908  0.00043848  0.00044543  0.00059320  0.00059324  0.00059727
    Gval  0.00059743  0.00061783  0.00062187  0.00062752  0.00065500  0.00065537  0.00069302  0.00088685
    Gval  0.00095568  0.00105005  0.00105119  0.00111640  0.00111665  0.00115771  0.00115789  0.00116927
    Gval  0.00116935  0.00120734  0.00166402  0.00181567  0.00185415  0.00215296  0.00261420  0.00279930
    Gval  0.00347295  0.00352354  0.00401787  0.00402203
  6.900473341557713E-006  6.900473341557713E-006
  1.096367433821180E-005  6.900473341557713E-006
  1.163428963870920E-005  6.900473341557713E-006
  2.018233581486473E-005  6.900473341557713E-006
  2.160546816327146E-005  6.900473341557713E-006
  2.592367150864336E-005  6.900473341557713E-006
  3.554595209200179E-005  6.900473341557713E-006
  4.702168168916232E-005  6.900473341557713E-006
  4.777693008978089E-005  6.900473341557713E-006
  4.902543943502430E-005  6.900473341557713E-006
  5.480390301265209E-005  6.900473341557713E-006
  5.962023504908143E-005  6.900473341557713E-006
  6.091241902271265E-005  6.900473341557713E-006
  7.801605039146457E-005  6.900473341557713E-006
  7.860485693567301E-005  6.900473341557713E-006
  9.759886098653326E-005  6.900473341557713E-006
  1.002182703365898E-004  6.900473341557713E-006
  1.094577861242125E-004  6.900473341557713E-006
  1.127289923545993E-004  6.900473341557713E-006
  1.281725365546244E-004  6.900473341557713E-006
  1.292622678075750E-004  6.900473341557713E-006
  1.320839854114870E-004  6.900473341557713E-006
  1.563440368910672E-004  6.900473341557713E-006
  2.023627849000425E-004  6.900473341557713E-006
  2.302513009197348E-004  6.900473341557713E-006
  2.645714845742036E-004  6.900473341557713E-006
  2.695218269233261E-004  6.900473341557713E-006
  2.950218596454726E-004  6.900473341557713E-006
  3.218322930465005E-004  6.900473341557713E-006
  3.765467772077278E-004  6.900473341557713E-006
  3.779292828322108E-004  6.900473341557713E-006
  4.038672845700316E-004  6.900473341557713E-006
  4.290819001692087E-004  6.900473341557713E-006
  4.384813932692297E-004  6.900473341557713E-006
  4.454333170323819E-004  6.900473341557713E-006
  5.932025708744616E-004  6.900473341557713E-006
  5.932425923011347E-004  6.900473341557713E-006
  5.972697994434132E-004  6.900473341557713E-006
  5.974348581794533E-004  6.900473341557713E-006
  6.178269905817777E-004  6.900473341557713E-006
  6.218722408549631E-004  6.900473341557713E-006
  6.275223893510141E-004  6.900473341557713E-006
  6.549980541085953E-004  6.900473341557713E-006
  6.553665547678727E-004  6.900473341557713E-006
  6.930228379566950E-004  6.900473341557713E-006
  8.868486916651817E-004  6.900473341557713E-006
  9.556824282558218E-004  6.900473341557713E-006
  1.050046053132738E-003  6.900473341557713E-006
  1.051193803203107E-003  6.900473341557713E-006
  1.116401328577547E-003  6.900473341557713E-006
  1.116645241271111E-003  6.900473341557713E-006
  1.157705052498823E-003  6.900473341557713E-006
  1.157894589773517E-003  6.900473341557713E-006
  1.169273864754710E-003  6.900473341557713E-006
  1.169345618513291E-003  6.900473341557713E-006
  1.207335630386643E-003  6.900473341557713E-006
  1.664021789284857E-003  6.900473341557713E-006
  1.815671747111607E-003  6.900473341557713E-006
  1.854146849595051E-003  6.900473341557713E-006
  2.152962215009741E-003  6.900473341557713E-006
  2.614196663561434E-003  6.900473341557713E-006
  2.799296359597015E-003  6.900473341557713E-006
  3.472946972581863E-003  6.900473341557713E-006
  3.523541823887104E-003  6.900473341557713E-006
  4.017872113049357E-003  6.900473341557713E-006
  4.022029592989739E-003  6.900473341557713E-006
 cut=1d-8, nber non-redundant internal coords=          66
 Check on Eigenvals of non-red overlap matrix:
  0.00000690  0.00001096  0.00001163  0.00002018  0.00002161  0.00002592  0.00003555  0.00004702
  0.00004778  0.00004903  0.00005480  0.00005962  0.00006091  0.00007802  0.00007860  0.00009760
  0.00010022  0.00010946  0.00011273  0.00012817  0.00012926  0.00013208  0.00015634  0.00020236
  0.00023025  0.00026457  0.00026952  0.00029502  0.00032183  0.00037655  0.00037793  0.00040387
  0.00042908  0.00043848  0.00044543  0.00059320  0.00059324  0.00059727  0.00059743  0.00061783
  0.00062187  0.00062752  0.00065500  0.00065537  0.00069302  0.00088685  0.00095568  0.00105005
  0.00105119  0.00111640  0.00111665  0.00115771  0.00115789  0.00116927  0.00116935  0.00120734
  0.00166402  0.00181567  0.00185415  0.00215296  0.00261420  0.00279930  0.00347295  0.00352354
  0.00401787  0.00402203
 Checking for correct frequencies
 recalc frequencies=
    -0.0   -0.0   -0.0   -0.0    0.0    0.0   52.8   91.5  122.9  157.1
   245.1  272.6  318.6  365.3  386.3  400.5  413.9  440.7  452.7  465.5
   565.4  571.8  610.8  632.4  674.6  691.5  695.7  728.4  755.6  765.4
   783.1  799.6  849.8  859.6  909.7  929.7  933.1  986.8  988.5 1010.4
  1045.2 1053.4 1070.3 1103.6 1130.0 1164.9 1169.7 1230.0 1230.5 1257.5
  1275.3 1322.5 1350.6 1363.4 1451.7 1452.6 1488.4 1501.7 1546.0 1548.3
  1588.6 1596.9 1624.0 1634.1 3129.7 3130.4 3147.0 3150.6 3166.5 3180.7
  3184.8 3185.5
 recalc symmetries=
     A1     B2     B2     B1     B1     A2     A2     B1     A2     B1 
     A1     A2     B2     A1     B1     B2     A1     A2     B1     A1 
     B1     A2     B2     B2     B2     A1     A2     B1     B1     A2 
     A2     A1     A2     B1     A2     B1     B2     B1     A2     B2 
     A1     B2     A1     A1     B2     A1     B2     A1     B2     A1 
     B2     A1     B2     A1     B2     A1     B2     A1     B2     A1 
     B2     A1     A1     B2     B2     A1     B2     A1     B2     A1 
     B2     A1 
 recalc freqs check OK
 Zero-point lengths:
 10.0000 10.0000 10.0000 10.0000 10.0000 10.0000 34.1317 25.9204 22.3584 19.7788
 15.8356 15.0155 13.8889 12.9714 12.6142 12.3874 12.1854 11.8090 11.6522 11.4901
 10.4257 10.3671 10.0307  9.8581  9.5447  9.4275  9.3993  9.1858  9.0187  8.9606
  8.8591  8.7672  8.5045  8.4557  8.2194  8.1306  8.1157  7.8920  7.8851  7.7994
  7.6683  7.6383  7.5780  7.4626  7.3749  7.2635  7.2487  7.0688  7.0673  6.9910
  6.9422  6.8170  6.7458  6.7140  6.5067  6.5045  6.4259  6.3975  6.3050  6.3004
  6.2199  6.2037  6.1517  6.1327  4.4315  4.4309  4.4192  4.4167  4.4056  4.3957
  4.3929  4.3924
 highest evec of mol 1
  0.0000  0.0020 -0.0006
  0.0000 -0.0016  0.0028
  0.0000  0.0016  0.0028
  0.0000 -0.0020 -0.0006
  0.0000 -0.0026  0.0013
  0.0000  0.0814  0.1663
  0.0000  0.0469 -0.0048
  0.0000  0.0146 -0.0272
  0.0000 -0.0313 -0.0587
  0.0000 -0.0024  0.0002
  0.0000  0.0024  0.0002
  0.0000  0.0313 -0.0587
  0.0000 -0.0146 -0.0272
  0.0000 -0.0469 -0.0048
  0.0000 -0.0814  0.1663
  0.0000  0.0026  0.0013
  0.0000 -0.2829 -0.5477
  0.0000 -0.1400 -0.0017
  0.0000 -0.0473  0.0798
  0.0000  0.1061  0.1965
  0.0000 -0.1061  0.1965
  0.0000  0.0473  0.0798
  0.0000  0.1400 -0.0017
  0.0000  0.2829 -0.5477
 generating redundant internal coords
         300        3600          24
 Adding extra bonds for z output only
           8           6           6           8           6           6
           6           6           6           6           6           6
           6           6           6           6           1           1
           1           1           1           1           1           1
 search for int coords
   1 str   2   1   1.248
   2 str   3   2   1.482
   3 str   4   3   1.248
   4 str   5   3   1.477
   5 str   6   5   1.412
   6 str   7   6   1.380
   7 str   8   7   1.406
   8 str   9   8   1.384
   9 str  10   5   1.424
  10 str  10   9   1.411
  11 str  11  10   1.461
  12 str  12  11   1.411
  13 str  13  12   1.384
  14 str  14  13   1.406
  15 str  15  14   1.380
  16 str  16   2   1.477
  17 str  16  11   1.424
  18 str  16  15   1.412
  19 str  17   6   1.084
  20 str  18   7   1.086
  21 str  19   8   1.086
  22 str  20   9   1.084
  23 str  21  12   1.084
  24 str  22  13   1.086
  25 str  23  14   1.086
  26 str  24  15   1.084
 nber stretches=          26
  27 ben   1   2   3
  28 prop tor   1   2   3   4
  29 prop tor   1   2   3   5
  30 ben   1   2  16
  31 prop tor   1   2  16  11
  32 prop tor   1   2  16  15
  33 ben   2   3   4
  34 ben   2   3   5
  35 prop tor   2   3   5   6
  36 prop tor   2   3   5  10
  37 ben   2  16  11
  38 ben   2  16  15
  39 ben   3   2  16
  40 prop tor   3   2  16  11
  41 prop tor   3   2  16  15
  42 ben   3   5   6
  43 prop tor   3   5   6   7
  44 prop tor   3   5   6  17
  45 ben   3   5  10
  46 prop tor   3   5  10   9
  47 prop tor   3   5  10  11
  48 ben   4   3   5
  49 prop tor   4   3   5   6
  50 prop tor   4   3   5  10
  51 ben   5   6   7
  52 prop tor   5   6   7   8
  53 prop tor   5   6   7  18
  54 ben   5   6  17
  55 ben   5  10   9
  56 ben   5  10  11
  57 prop tor   5  10  11  12
  58 prop tor   5  10  11  16
  59 ben   6   5  10
  60 prop tor   6   5  10   9
  61 prop tor   6   5  10  11
  62 ben   6   7   8
  63 prop tor   6   7   8   9
  64 prop tor   6   7   8  19
  65 ben   6   7  18
  66 ben   7   6  17
  67 ben   7   8   9
  68 prop tor   7   8   9  10
  69 prop tor   7   8   9  20
  70 ben   7   8  19
  71 ben   8   7  18
  72 ben   8   9  10
  73 prop tor   8   9  10   5
  74 prop tor   8   9  10  11
  75 ben   8   9  20
  76 ben   9   8  19
  77 ben   9  10  11
  78 prop tor   9  10  11  12
  79 prop tor   9  10  11  16
  80 prop tor  10   5   6   7
  81 prop tor  10   5   6  17
  82 ben  10   9  20
  83 ben  10  11  12
  84 prop tor  10  11  12  13
  85 prop tor  10  11  12  21
  86 ben  10  11  16
  87 prop tor  10  11  16   2
  88 prop tor  10  11  16  15
  89 ben  11  12  13
  90 prop tor  11  12  13  14
  91 prop tor  11  12  13  22
  92 ben  11  12  21
  93 ben  11  16  15
  94 ben  12  11  16
  95 prop tor  12  11  16   2
  96 prop tor  12  11  16  15
  97 ben  12  13  14
  98 prop tor  12  13  14  15
  99 prop tor  12  13  14  23
 100 ben  12  13  22
 101 ben  13  12  21
 102 ben  13  14  15
 103 prop tor  13  14  15  16
 104 prop tor  13  14  15  24
 105 ben  13  14  23
 106 ben  14  13  22
 107 ben  14  15  16
 108 prop tor  14  15  16   2
 109 prop tor  14  15  16  11
 110 ben  14  15  24
 111 ben  15  14  23
 112 prop tor  16   2   3   4
 113 prop tor  16   2   3   5
 114 prop tor  16  11  12  13
 115 prop tor  16  11  12  21
 116 ben  16  15  24
 117 prop tor  17   6   7   8
 118 prop tor  17   6   7  18
 119 prop tor  18   7   8   9
 120 prop tor  18   7   8  19
 121 prop tor  19   8   9  10
 122 prop tor  19   8   9  20
 123 prop tor  20   9  10   5
 124 prop tor  20   9  10  11
 125 prop tor  21  12  13  14
 126 prop tor  21  12  13  22
 127 prop tor  22  13  14  15
 128 prop tor  22  13  14  23
 129 prop tor  23  14  15  16
 130 prop tor  23  14  15  24
 131 prop tor  24  15  16   2
 132 prop tor  24  15  16  11
 nber bend=              42
 nber lin bend=           0
 nber prop tor=          64
 nber impr tor=           0
 nber tot redund int=         132
 Reading file: 
 ./conjugated_carbonyls_3_C-2S0.log                                             
                                          
  Entering Gaussian System, Link 0=g16                                          
  
 Gaussian format, type: g94, g98, g03= F F F
  #P Geom=AllCheck Guess=TCheck SCRF=Check Test GenChk UB3LYP/6-311G(d,p    
 energy type= B3LYP   
 Original G94 input coords:
  8  1.390846 -3.270405  0.000000
  6  0.737490 -2.191738  0.000000
  6 -0.737490 -2.191738  0.000000
  8 -1.390846 -3.270405  0.000000
  6 -1.442159 -0.883752  0.000000
  6 -2.838739 -0.882546  0.000000
  6 -3.588660  0.318621  0.000000
  6 -2.894356  1.532333  0.000000
  6 -1.502728  1.568389  0.000000
  6 -0.714453  0.359590  0.000000
  6  0.714453  0.359590  0.000000
  6  1.502728  1.568389  0.000000
  6  2.894356  1.532333  0.000000
  6  3.588660  0.318621  0.000000
  6  2.838739 -0.882546  0.000000
  6  1.442159 -0.883752  0.000000
  1 -3.321035 -1.855007  0.000000
  1 -4.677371  0.297371  0.000000
  1 -3.448024  2.474314  0.000000
  1 -1.005927  2.532829  0.000000
  1  1.005927  2.532829  0.000000
  1  3.448024  2.474314  0.000000
  1  4.677371  0.297371  0.000000
  1  3.321035 -1.855007  0.000000
 nber atoms=          24
  SCF Done:  E(UB3LYP) =  -688.849413207     A.U. after    1 cycles             
  
          23          40 "  -688.849413207"
After scan for Atom:   Atom  AN      X      Y      Z        X      Y      Z        X      Y      Z   
After scan for Atom:   Atom  AN      X      Y      Z        X      Y      Z        X      Y      Z   
After scan for Atom:   Atom  AN      X      Y      Z        X      Y      Z        X      Y      Z   
After scan for Atom:   Atom  AN      X      Y      Z        X      Y      Z        X      Y      Z   
After scan for Atom:   Atom  AN      X      Y      Z        X      Y      Z        X      Y      Z   
After scan for Atom:   Atom  AN      X      Y      Z        X      Y      Z        X      Y      Z   
After scan for Atom:   Atom  AN      X      Y      Z        X      Y      Z        X      Y      Z   
After scan for Atom:   Atom  AN      X      Y      Z        X      Y      Z        X      Y      Z   
After scan for Atom:   Atom  AN      X      Y      Z        X      Y      Z        X      Y      Z   
After scan for Atom:   Atom  AN      X      Y      Z        X      Y      Z        X      Y      Z   
After scan for Atom:   Atom  AN      X      Y      Z        X      Y      Z        X      Y      Z   
After scan for Atom:   Atom  AN      X      Y      Z        X      Y      Z        X      Y      Z   
After scan for Atom:   Atom  AN      X      Y      Z        X      Y      Z        X      Y      Z   
After scan for Atom:   Atom  AN      X      Y      Z        X      Y      Z        X      Y      Z   
After scan for Atom:   Atom  AN      X      Y      Z        X      Y      Z        X      Y      Z   
After scan for Atom:   Atom  AN      X      Y      Z        X      Y      Z        X      Y      Z   
After scan for Atom:   Atom  AN      X      Y      Z        X      Y      Z        X      Y      Z   
After scan for Atom:   Atom  AN      X      Y      Z        X      Y      Z        X      Y      Z   
After scan for Atom:   Atom  AN      X      Y      Z        X      Y      Z        X      Y      Z   
After scan for Atom:   Atom  AN      X      Y      Z        X      Y      Z        X      Y      Z   
After scan for Atom:   Atom  AN      X      Y      Z        X      Y      Z        X      Y      Z   
After scan for Atom:   Atom  AN      X      Y      Z        X      Y      Z        X      Y      Z   
 g94    frequencies=
     0.0    0.0    0.0    0.0    0.0    0.0   49.8   83.3   99.9  155.2
   240.2  247.5  316.9  371.3  380.2  385.1  409.1  414.1  450.8  455.6
   508.6  558.2  562.4  596.3  607.1  612.9  631.1  657.3  670.4  676.0
   691.9  704.6  753.0  788.9  839.5  845.0  847.3  851.1  916.8  990.8
  1023.1 1033.0 1051.2 1078.2 1087.3 1126.8 1142.7 1180.4 1215.6 1247.3
  1264.1 1329.0 1337.0 1356.1 1408.8 1440.6 1450.4 1461.3 1477.0 1489.6
  1512.6 1546.5 1558.8 1590.3 3051.3 3053.0 3097.1 3098.9 3137.6 3153.6
  3154.0 3159.3
 g94    symmetries=
                                                 A      A      A      A
       A      A      A      A      A      A      A      A      A      A
       A      A      A      A      A      A      A      A      A      A
       A      A      A      A      A      A      A      A      A      A
       A      A      A      A      A      A      A      A      A      A
       A      A      A      A      A      A      A      A      A      A
       A      A      A      A      A      A      A      A      A      A
       A      A
 atomic masses:
 15.9949 12.0000 12.0000 15.9949 12.0000 12.0000 12.0000 12.0000 12.0000 12.0000
 12.0000 12.0000 12.0000 12.0000 12.0000 12.0000  1.0078  1.0078  1.0078  1.0078
  1.0078  1.0078  1.0078  1.0078
 looking for force constants in 
 ./conjugated_carbonyls_3_C-2S0.fchk                                            
  
 Cartesian Force Constants                  R   N=        2628                  
  
 n3=          72        2628
 g94-fc frequencies=
    -3.2   -3.1   -1.2   -0.0   -0.0    0.0   49.8   83.3   99.9  155.2
   240.2  247.5  316.9  371.3  380.2  385.1  409.1  414.1  450.8  455.6
   508.6  558.2  562.4  596.3  607.1  612.9  631.1  657.3  670.4  676.0
   691.9  704.6  753.1  789.0  839.5  845.0  847.3  851.2  916.8  990.8
  1023.1 1033.0 1051.3 1078.2 1087.3 1126.8 1142.7 1180.4 1215.6 1247.3
  1264.2 1329.1 1337.1 1356.1 1408.8 1440.6 1450.4 1461.3 1477.1 1489.6
  1512.6 1546.5 1558.8 1590.3 3051.4 3053.0 3097.2 3098.9 3137.7 3153.7
  3154.1 3159.4
 at 99999: n3=          72
 symm operator            1 :  F  nop=           0
 symm operator            2 :  T  nop=           1
 symm operator            3 :  F  nop=           1
 symm operator            4 :  F  nop=           1
 symm operator            5 :  T  nop=           2
 symm operator            6 :  F  nop=           2
 symm operator            7 :  T  nop=           3
 swap           2           3
   1   1.39085   0.00000  -3.27040
   2   0.73749   0.00000  -2.19174
   3  -0.73749   0.00000  -2.19174
   4  -1.39085   0.00000  -3.27040
   5  -1.44216   0.00000  -0.88375
   6  -2.83874   0.00000  -0.88255
   7  -3.58866   0.00000   0.31862
   8  -2.89436   0.00000   1.53233
   9  -1.50273   0.00000   1.56839
  10  -0.71445   0.00000   0.35959
  11   0.71445   0.00000   0.35959
  12   1.50273   0.00000   1.56839
  13   2.89436   0.00000   1.53233
  14   3.58866   0.00000   0.31862
  15   2.83874   0.00000  -0.88255
  16   1.44216   0.00000  -0.88375
  17  -3.32104   0.00000  -1.85501
  18  -4.67737   0.00000   0.29737
  19  -3.44802   0.00000   2.47431
  20  -1.00593   0.00000   2.53283
  21   1.00593   0.00000   2.53283
  22   3.44802   0.00000   2.47431
  23   4.67737   0.00000   0.29737
  24   3.32104   0.00000  -1.85501
 swap           1           2
   1   0.00000   1.39085  -3.27040
   2   0.00000   0.73749  -2.19174
   3   0.00000  -0.73749  -2.19174
   4   0.00000  -1.39085  -3.27040
   5   0.00000  -1.44216  -0.88375
   6   0.00000  -2.83874  -0.88255
   7   0.00000  -3.58866   0.31862
   8   0.00000  -2.89436   1.53233
   9   0.00000  -1.50273   1.56839
  10   0.00000  -0.71445   0.35959
  11   0.00000   0.71445   0.35959
  12   0.00000   1.50273   1.56839
  13   0.00000   2.89436   1.53233
  14   0.00000   3.58866   0.31862
  15   0.00000   2.83874  -0.88255
  16   0.00000   1.44216  -0.88375
  17   0.00000  -3.32104  -1.85501
  18   0.00000  -4.67737   0.29737
  19   0.00000  -3.44802   2.47431
  20   0.00000  -1.00593   2.53283
  21   0.00000   1.00593   2.53283
  22   0.00000   3.44802   2.47431
  23   0.00000   4.67737   0.29737
  24   0.00000   3.32104  -1.85501
 The point group of the molecule is C2V
 enforcing symm op           1  jsymt=          -1          -1           1
 enforcing symm op           6  jsymt=           1          -1           1
 enforcing symm op           7  jsymt=          -1           1           1
 cartesian coord symmetries:
 A1 :   24 A2 :   12 B1 :   12 B2 :   24
 Symmetry rotation matrix:
   0.00000   0.00000   1.00000
  -1.00000   0.00000   0.00000
   0.00000  -1.00000   0.00000

 Projecting out zero-frequency components
 generating redundant internal coords
         300        3600          24
 search for int coords
   1 str   2   1   1.261
   2 str   3   2   1.475
   3 str   4   3   1.261
   4 str   5   3   1.486
   5 str   6   5   1.397
   6 str   7   6   1.416
   7 str   8   7   1.398
   8 str   9   8   1.392
   9 str  10   5   1.441
  10 str  10   9   1.443
  11 str  11  10   1.429
  12 str  12  11   1.443
  13 str  13  12   1.392
  14 str  14  13   1.398
  15 str  15  14   1.416
  16 str  16   2   1.486
  17 str  16  11   1.441
  18 str  16  15   1.397
  19 str  17   6   1.085
  20 str  18   7   1.089
  21 str  19   8   1.093
  22 str  20   9   1.085
  23 str  21  12   1.085
  24 str  22  13   1.093
  25 str  23  14   1.089
  26 str  24  15   1.085
 nber stretches=          26
  27 ben   1   2   3
  28 prop tor   1   2   3   4
  29 prop tor   1   2   3   5
  30 ben   1   2  16
  31 prop tor   1   2  16  11
  32 prop tor   1   2  16  15
  33 ben   2   3   4
  34 ben   2   3   5
  35 prop tor   2   3   5   6
  36 prop tor   2   3   5  10
  37 ben   2  16  11
  38 ben   2  16  15
  39 ben   3   2  16
  40 prop tor   3   2  16  11
  41 prop tor   3   2  16  15
  42 ben   3   5   6
  43 prop tor   3   5   6   7
  44 prop tor   3   5   6  17
  45 ben   3   5  10
  46 prop tor   3   5  10   9
  47 prop tor   3   5  10  11
  48 ben   4   3   5
  49 prop tor   4   3   5   6
  50 prop tor   4   3   5  10
  51 ben   5   6   7
  52 prop tor   5   6   7   8
  53 prop tor   5   6   7  18
  54 ben   5   6  17
  55 ben   5  10   9
  56 ben   5  10  11
  57 prop tor   5  10  11  12
  58 prop tor   5  10  11  16
  59 ben   6   5  10
  60 prop tor   6   5  10   9
  61 prop tor   6   5  10  11
  62 ben   6   7   8
  63 prop tor   6   7   8   9
  64 prop tor   6   7   8  19
  65 ben   6   7  18
  66 ben   7   6  17
  67 ben   7   8   9
  68 prop tor   7   8   9  10
  69 prop tor   7   8   9  20
  70 ben   7   8  19
  71 ben   8   7  18
  72 ben   8   9  10
  73 prop tor   8   9  10   5
  74 prop tor   8   9  10  11
  75 ben   8   9  20
  76 ben   9   8  19
  77 ben   9  10  11
  78 prop tor   9  10  11  12
  79 prop tor   9  10  11  16
  80 prop tor  10   5   6   7
  81 prop tor  10   5   6  17
  82 ben  10   9  20
  83 ben  10  11  12
  84 prop tor  10  11  12  13
  85 prop tor  10  11  12  21
  86 ben  10  11  16
  87 prop tor  10  11  16   2
  88 prop tor  10  11  16  15
  89 ben  11  12  13
  90 prop tor  11  12  13  14
  91 prop tor  11  12  13  22
  92 ben  11  12  21
  93 ben  11  16  15
  94 ben  12  11  16
  95 prop tor  12  11  16   2
  96 prop tor  12  11  16  15
  97 ben  12  13  14
  98 prop tor  12  13  14  15
  99 prop tor  12  13  14  23
 100 ben  12  13  22
 101 ben  13  12  21
 102 ben  13  14  15
 103 prop tor  13  14  15  16
 104 prop tor  13  14  15  24
 105 ben  13  14  23
 106 ben  14  13  22
 107 ben  14  15  16
 108 prop tor  14  15  16   2
 109 prop tor  14  15  16  11
 110 ben  14  15  24
 111 ben  15  14  23
 112 prop tor  16   2   3   4
 113 prop tor  16   2   3   5
 114 prop tor  16  11  12  13
 115 prop tor  16  11  12  21
 116 ben  16  15  24
 117 prop tor  17   6   7   8
 118 prop tor  17   6   7  18
 119 prop tor  18   7   8   9
 120 prop tor  18   7   8  19
 121 prop tor  19   8   9  10
 122 prop tor  19   8   9  20
 123 prop tor  20   9  10   5
 124 prop tor  20   9  10  11
 125 prop tor  21  12  13  14
 126 prop tor  21  12  13  22
 127 prop tor  22  13  14  15
 128 prop tor  22  13  14  23
 129 prop tor  23  14  15  16
 130 prop tor  23  14  15  24
 131 prop tor  24  15  16   2
 132 prop tor  24  15  16  11
 nber bend=              42
 nber lin bend=           0
 nber prop tor=          64
 nber impr tor=           0
 nber tot redund int=         132
 Eigenvalues of G in red int coords
    Gval -0.00000000 -0.00000000 -0.00000000 -0.00000000 -0.00000000 -0.00000000 -0.00000000 -0.00000000
    Gval -0.00000000 -0.00000000 -0.00000000 -0.00000000 -0.00000000 -0.00000000 -0.00000000 -0.00000000
    Gval -0.00000000 -0.00000000 -0.00000000 -0.00000000 -0.00000000 -0.00000000 -0.00000000 -0.00000000
    Gval -0.00000000 -0.00000000 -0.00000000 -0.00000000 -0.00000000 -0.00000000 -0.00000000 -0.00000000
    Gval -0.00000000  0.00000000  0.00000000  0.00000000  0.00000000  0.00000000  0.00000000  0.00000000
    Gval  0.00000000  0.00000000  0.00000000  0.00000000  0.00000000  0.00000000  0.00000000  0.00000000
    Gval  0.00000000  0.00000000  0.00000000  0.00000000  0.00000000  0.00000000  0.00000000  0.00000000
    Gval  0.00000000  0.00000000  0.00000000  0.00000000  0.00000000  0.00000000  0.00000000  0.00000000
    Gval  0.00000000  0.00000000  0.00000679  0.00001095  0.00001159  0.00002019  0.00002156  0.00002582
    Gval  0.00003561  0.00004712  0.00004760  0.00004933  0.00005470  0.00005951  0.00006070  0.00007770
    Gval  0.00007809  0.00009362  0.00010021  0.00010892  0.00011226  0.00012779  0.00012830  0.00013083
    Gval  0.00015499  0.00020155  0.00022891  0.00026045  0.00026429  0.00029382  0.00031909  0.00037036
    Gval  0.00037695  0.00040372  0.00042826  0.00042903  0.00045064  0.00059318  0.00059323  0.00059713
    Gval  0.00059734  0.00059947  0.00061689  0.00062122  0.00065307  0.00065351  0.00069817  0.00088076
    Gval  0.00095368  0.00104291  0.00104411  0.00111210  0.00111235  0.00114910  0.00114930  0.00116111
    Gval  0.00116114  0.00120150  0.00162903  0.00180734  0.00184456  0.00214420  0.00260651  0.00278457
    Gval  0.00344445  0.00350167  0.00398972  0.00399332
  6.792023272182236E-006  6.792023272182236E-006
  1.095340624737539E-005  6.792023272182236E-006
  1.159481325249906E-005  6.792023272182236E-006
  2.018867648494504E-005  6.792023272182236E-006
  2.155761530014714E-005  6.792023272182236E-006
  2.582394931005987E-005  6.792023272182236E-006
  3.560611648761237E-005  6.792023272182236E-006
  4.712103863095269E-005  6.792023272182236E-006
  4.760481071570090E-005  6.792023272182236E-006
  4.933499133055263E-005  6.792023272182236E-006
  5.469895477973783E-005  6.792023272182236E-006
  5.951312694238083E-005  6.792023272182236E-006
  6.070040721973849E-005  6.792023272182236E-006
  7.769697976973694E-005  6.792023272182236E-006
  7.808794471423112E-005  6.792023272182236E-006
  9.362228567754686E-005  6.792023272182236E-006
  1.002095744283499E-004  6.792023272182236E-006
  1.089223890271681E-004  6.792023272182236E-006
  1.122620695155688E-004  6.792023272182236E-006
  1.277919055178375E-004  6.792023272182236E-006
  1.283028508832835E-004  6.792023272182236E-006
  1.308326768678703E-004  6.792023272182236E-006
  1.549895942664950E-004  6.792023272182236E-006
  2.015462132017598E-004  6.792023272182236E-006
  2.289062220123836E-004  6.792023272182236E-006
  2.604479321620775E-004  6.792023272182236E-006
  2.642907853066749E-004  6.792023272182236E-006
  2.938231552297243E-004  6.792023272182236E-006
  3.190901674294222E-004  6.792023272182236E-006
  3.703560895396105E-004  6.792023272182236E-006
  3.769540180654857E-004  6.792023272182236E-006
  4.037225661123388E-004  6.792023272182236E-006
  4.282599582197591E-004  6.792023272182236E-006
  4.290268378571810E-004  6.792023272182236E-006
  4.506403435020946E-004  6.792023272182236E-006
  5.931814537111717E-004  6.792023272182236E-006
  5.932261209948759E-004  6.792023272182236E-006
  5.971269783682542E-004  6.792023272182236E-006
  5.973363511870120E-004  6.792023272182236E-006
  5.994707637846646E-004  6.792023272182236E-006
  6.168875161228642E-004  6.792023272182236E-006
  6.212226562912025E-004  6.792023272182236E-006
  6.530749467671406E-004  6.792023272182236E-006
  6.535139171276541E-004  6.792023272182236E-006
  6.981653254001837E-004  6.792023272182236E-006
  8.807604523279940E-004  6.792023272182236E-006
  9.536810335468611E-004  6.792023272182236E-006
  1.042914561907079E-003  6.792023272182236E-006
  1.044109109658180E-003  6.792023272182236E-006
  1.112102317661753E-003  6.792023272182236E-006
  1.112346228241165E-003  6.792023272182236E-006
  1.149095415049334E-003  6.792023272182236E-006
  1.149304404106494E-003  6.792023272182236E-006
  1.161106634067274E-003  6.792023272182236E-006
  1.161135724558001E-003  6.792023272182236E-006
  1.201500413089461E-003  6.792023272182236E-006
  1.629031616804808E-003  6.792023272182236E-006
  1.807335897767947E-003  6.792023272182236E-006
  1.844564867289166E-003  6.792023272182236E-006
  2.144195334781966E-003  6.792023272182236E-006
  2.606509830357253E-003  6.792023272182236E-006
  2.784567467243637E-003  6.792023272182236E-006
  3.444451481037135E-003  6.792023272182236E-006
  3.501673570404814E-003  6.792023272182236E-006
  3.989724395875795E-003  6.792023272182236E-006
  3.993323888581366E-003  6.792023272182236E-006
 cut=1d-8, nber non-redundant internal coords=          66
 Check on Eigenvals of non-red overlap matrix:
  0.00000679  0.00001095  0.00001159  0.00002019  0.00002156  0.00002582  0.00003561  0.00004712
  0.00004760  0.00004933  0.00005470  0.00005951  0.00006070  0.00007770  0.00007809  0.00009362
  0.00010021  0.00010892  0.00011226  0.00012779  0.00012830  0.00013083  0.00015499  0.00020155
  0.00022891  0.00026045  0.00026429  0.00029382  0.00031909  0.00037036  0.00037695  0.00040372
  0.00042826  0.00042903  0.00045064  0.00059318  0.00059323  0.00059713  0.00059734  0.00059947
  0.00061689  0.00062122  0.00065307  0.00065351  0.00069817  0.00088076  0.00095368  0.00104291
  0.00104411  0.00111210  0.00111235  0.00114910  0.00114930  0.00116111  0.00116114  0.00120150
  0.00162903  0.00180734  0.00184456  0.00214420  0.00260651  0.00278457  0.00344445  0.00350167
  0.00398972  0.00399332
 Checking for correct frequencies
 recalc frequencies=
    -0.0   -0.0   -0.0   -0.0   -0.0    0.0   49.8   83.3   99.9  155.2
   240.2  247.5  316.9  371.3  380.2  385.1  409.1  414.1  450.8  455.6
   508.6  558.2  562.4  596.3  607.1  612.9  631.1  657.3  670.4  676.0
   691.9  704.6  753.1  789.0  839.5  845.0  847.3  851.2  916.8  990.8
  1023.1 1033.0 1051.3 1078.2 1087.3 1126.8 1142.7 1180.4 1215.6 1247.3
  1264.2 1329.1 1337.1 1356.1 1408.8 1440.6 1450.4 1461.3 1477.1 1489.6
  1512.6 1546.5 1558.8 1590.3 3051.4 3053.0 3097.2 3098.9 3137.7 3153.7
  3154.1 3159.4
 recalc symmetries=
     A1     B2     A2     B1     B2     B1     A2     B1     A2     B1 
     A1     A2     B2     A1     B1     B2     B1     A1     A2     A1 
     A2     A2     B1     B2     B1     B2     A2     B1     B2     A1 
     A2     B1     A2     A1     A2     B1     B1     A2     B2     B2 
     A1     B2     A1     A1     B2     B2     A1     B2     A1     B2 
     A1     A1     B2     A1     B2     B2     A1     B2     A1     B2 
     A1     A1     B2     A1     B2     A1     B2     A1     B2     B2 
     A1     A1 
 recalc freqs check OK
 Zero-point lengths:
 10.0000 10.0000 10.0000 10.0000 10.0000 10.0000 35.1256 27.1595 24.8085 19.8995
 15.9949 15.7587 13.9264 12.8659 12.7140 12.6333 12.2570 12.1829 11.6764 11.6148
 10.9930 10.4927 10.4540 10.1523 10.0618 10.0141  9.8683  9.6697  9.5750  9.5348
  9.4248  9.3397  9.0341  8.8261  8.5564  8.5283  8.5169  8.4975  8.1877  7.8759
  7.7507  7.7135  7.6461  7.5500  7.5184  7.3853  7.3337  7.2156  7.1105  7.0196
  6.9726  6.8002  6.7798  6.7321  6.6050  6.5316  6.5095  6.4853  6.4506  6.4233
  6.3743  6.3040  6.2791  6.2166  4.4879  4.4867  4.4546  4.4534  4.4258  4.4145
  4.4143  4.4106
 highest evec of mol 2
  0.0000  0.0008 -0.0009
  0.0000  0.0010  0.0020
  0.0000 -0.0010  0.0020
  0.0000 -0.0008 -0.0009
  0.0000  0.0017  0.0018
  0.0000  0.0307  0.0634
  0.0000  0.0283  0.0021
  0.0000  0.0186 -0.0289
  0.0000 -0.0839 -0.1599
  0.0000 -0.0049 -0.0004
  0.0000  0.0049 -0.0004
  0.0000  0.0839 -0.1599
  0.0000 -0.0186 -0.0289
  0.0000 -0.0283  0.0021
  0.0000 -0.0307  0.0634
  0.0000 -0.0017  0.0018
  0.0000 -0.1089 -0.2129
  0.0000 -0.0834 -0.0022
  0.0000 -0.0512  0.0841
  0.0000  0.2932  0.5483
  0.0000 -0.2932  0.5483
  0.0000  0.0512  0.0841
  0.0000  0.0834 -0.0022
  0.0000  0.1089 -0.2129
 Enter nber and list of atoms to keep of mol #2
 keep list:          24           1           2           3           4
           5           6           7           8           9          10
          11          12          13          14          15          16
          17          18          19          20          21          22
          23          24
 reordering atoms
           1   1.39084600000000     
           2  0.737490000000000     
           3 -0.737490000000000     
           4  -1.39084600000000     
           5  -1.44215900000000     
           6  -2.83873900000000     
           7  -3.58866000000000     
           8  -2.89435600000000     
           9  -1.50272800000000     
          10 -0.714453000000000     
          11  0.714453000000000     
          12   1.50272800000000     
          13   2.89435600000000     
          14   3.58866000000000     
          15   2.83873900000000     
          16   1.44215900000000     
          17  -3.32103500000000     
          18  -4.67737100000000     
          19  -3.44802400000000     
          20  -1.00592700000000     
          21   1.00592700000000     
          22   3.44802400000000     
          23   4.67737100000000     
          24   3.32103500000000     
           1           1
           2           2
           3           3
           4           4
           5           5
           6           6
           7           7
           8           8
           9           9
          10          10
          11          11
          12          12
          13          13
          14          14
          15          15
          16          16
          17          17
          18          18
          19          19
          20          20
          21          21
          22          22
          23          23
          24          24
 initial cartes coords mol 1
   8   0.00000   2.70712   1.39606
   6   0.00000   1.64458   0.74114
   6   0.00000   1.64458  -0.74114
   8   0.00000   2.70712  -1.39606
   6   0.00000   0.33482  -1.42342
   6   0.00000   0.33245  -2.83498
   6   0.00000  -0.84248  -3.55858
   6   0.00000  -2.07351  -2.87960
   6   0.00000  -2.09480  -1.49539
   6   0.00000  -0.90941  -0.73028
   6   0.00000  -0.90941   0.73028
   6   0.00000  -2.09480   1.49539
   6   0.00000  -2.07351   2.87960
   6   0.00000  -0.84248   3.55858
   6   0.00000   0.33245   2.83498
   6   0.00000   0.33482   1.42342
   1   0.00000   1.30294  -3.31747
   1   0.00000  -0.81850  -4.64475
   1   0.00000  -3.00674  -3.43495
   1   0.00000  -3.05603  -0.99480
   1   0.00000  -3.05603   0.99480
   1   0.00000  -3.00674   3.43495
   1   0.00000  -0.81850   4.64475
   1   0.00000   1.30294   3.31747
 initial cartes coords mol 2
   8   0.00000   2.72579   1.39085
   6   0.00000   1.64712   0.73749
   6   0.00000   1.64712  -0.73749
   8   0.00000   2.72579  -1.39085
   6   0.00000   0.33913  -1.44216
   6   0.00000   0.33793  -2.83874
   6   0.00000  -0.86324  -3.58866
   6   0.00000  -2.07695  -2.89436
   6   0.00000  -2.11301  -1.50273
   6   0.00000  -0.90421  -0.71445
   6   0.00000  -0.90421   0.71445
   6   0.00000  -2.11301   1.50273
   6   0.00000  -2.07695   2.89436
   6   0.00000  -0.86324   3.58866
   6   0.00000   0.33793   2.83874
   6   0.00000   0.33913   1.44216
   1   0.00000   1.31039  -3.32104
   1   0.00000  -0.84199  -4.67737
   1   0.00000  -3.01893  -3.44802
   1   0.00000  -3.07745  -1.00593
   1   0.00000  -3.07745   1.00593
   1   0.00000  -3.01893   3.44802
   1   0.00000  -0.84199   4.67737
   1   0.00000   1.31039   3.32104
 loop 1 0
 mod cartes coords mol 2
   8   0.00000   2.72579   1.39085
   6   0.00000   1.64712   0.73749
   6   0.00000   1.64712  -0.73749
   8   0.00000   2.72579  -1.39085
   6   0.00000   0.33913  -1.44216
   6   0.00000   0.33793  -2.83874
   6   0.00000  -0.86324  -3.58866
   6   0.00000  -2.07695  -2.89436
   6   0.00000  -2.11301  -1.50273
   6   0.00000  -0.90421  -0.71445
   6   0.00000  -0.90421   0.71445
   6   0.00000  -2.11301   1.50273
   6   0.00000  -2.07695   2.89436
   6   0.00000  -0.86324   3.58866
   6   0.00000   0.33793   2.83874
   6   0.00000   0.33913   1.44216
   1   0.00000   1.31039  -3.32104
   1   0.00000  -0.84199  -4.67737
   1   0.00000  -3.01893  -3.44802
   1   0.00000  -3.07745  -1.00593
   1   0.00000  -3.07745   1.00593
   1   0.00000  -3.01893   3.44802
   1   0.00000  -0.84199   4.67737
   1   0.00000   1.31039   3.32104
 read in order, maxerr=  0.04 for atom  18
 final axis swaps:           1           1           1
 final xyz swap pattern=           1
 reorder list:
   1   2   3   4   5   6   7   8   9  10  11  12  13  14  15  16  17  18  19  20
  21  22  23  24
 axis signs=           1           1           1
  8     0.000000  2.725787  1.390846     0.000000  2.707123  1.396064
  6     0.000000  1.647120  0.737490     0.000000  1.644578  0.741140
  6     0.000000  1.647120 -0.737490     0.000000  1.644578 -0.741140
  8     0.000000  2.725787 -1.390846     0.000000  2.707123 -1.396064
  6     0.000000  0.339134 -1.442159     0.000000  0.334818 -1.423415
  6     0.000000  0.337928 -2.838739     0.000000  0.332448 -2.834981
  6     0.000000 -0.863239 -3.588660     0.000000 -0.842483 -3.558584
  6     0.000000 -2.076951 -2.894356     0.000000 -2.073508 -2.879601
  6     0.000000 -2.113007 -1.502728     0.000000 -2.094795 -1.495387
  6     0.000000 -0.904208 -0.714453     0.000000 -0.909406 -0.730276
  6     0.000000 -0.904208  0.714453     0.000000 -0.909406  0.730276
  6     0.000000 -2.113007  1.502728     0.000000 -2.094795  1.495387
  6     0.000000 -2.076951  2.894356     0.000000 -2.073508  2.879601
  6     0.000000 -0.863239  3.588660     0.000000 -0.842483  3.558584
  6     0.000000  0.337928  2.838739     0.000000  0.332448  2.834981
  6     0.000000  0.339134  1.442159     0.000000  0.334818  1.423415
  1     0.000000  1.310389 -3.321035     0.000000  1.302944 -3.317474
  1     0.000000 -0.841989 -4.677371     0.000000 -0.818502 -4.644755
  1     0.000000 -3.018932 -3.448024     0.000000 -3.006741 -3.434951
  1     0.000000 -3.077447 -1.005927     0.000000 -3.056034 -0.994796
  1     0.000000 -3.077447  1.005927     0.000000 -3.056034  0.994796
  1     0.000000 -3.018932  3.448024     0.000000 -3.006741  3.434951
  1     0.000000 -0.841989  4.677371     0.000000 -0.818502  4.644755
  1     0.000000  1.310389  3.321035     0.000000  1.302944  3.317474
 generating redundant internal coords
         300        3600          24
 Adding extra bonds for z output only
           8           6           6           8           6           6
           6           6           6           6           6           6
           6           6           6           6           1           1
           1           1           1           1           1           1
 search for int coords
   1 str   2   1   1.261
   2 str   3   2   1.475
   3 str   4   3   1.261
   4 str   5   3   1.486
   5 str   6   5   1.397
   6 str   7   6   1.416
   7 str   8   7   1.398
   8 str   9   8   1.392
   9 str  10   5   1.441
  10 str  10   9   1.443
  11 str  11  10   1.429
  12 str  12  11   1.443
  13 str  13  12   1.392
  14 str  14  13   1.398
  15 str  15  14   1.416
  16 str  16   2   1.486
  17 str  16  11   1.441
  18 str  16  15   1.397
  19 str  17   6   1.085
  20 str  18   7   1.089
  21 str  19   8   1.093
  22 str  20   9   1.085
  23 str  21  12   1.085
  24 str  22  13   1.093
  25 str  23  14   1.089
  26 str  24  15   1.085
 nber stretches=          26
  27 ben   1   2   3
  28 prop tor   1   2   3   4
  29 prop tor   1   2   3   5
  30 ben   1   2  16
  31 prop tor   1   2  16  11
  32 prop tor   1   2  16  15
  33 ben   2   3   4
  34 ben   2   3   5
  35 prop tor   2   3   5   6
  36 prop tor   2   3   5  10
  37 ben   2  16  11
  38 ben   2  16  15
  39 ben   3   2  16
  40 prop tor   3   2  16  11
  41 prop tor   3   2  16  15
  42 ben   3   5   6
  43 prop tor   3   5   6   7
  44 prop tor   3   5   6  17
  45 ben   3   5  10
  46 prop tor   3   5  10   9
  47 prop tor   3   5  10  11
  48 ben   4   3   5
  49 prop tor   4   3   5   6
  50 prop tor   4   3   5  10
  51 ben   5   6   7
  52 prop tor   5   6   7   8
  53 prop tor   5   6   7  18
  54 ben   5   6  17
  55 ben   5  10   9
  56 ben   5  10  11
  57 prop tor   5  10  11  12
  58 prop tor   5  10  11  16
  59 ben   6   5  10
  60 prop tor   6   5  10   9
  61 prop tor   6   5  10  11
  62 ben   6   7   8
  63 prop tor   6   7   8   9
  64 prop tor   6   7   8  19
  65 ben   6   7  18
  66 ben   7   6  17
  67 ben   7   8   9
  68 prop tor   7   8   9  10
  69 prop tor   7   8   9  20
  70 ben   7   8  19
  71 ben   8   7  18
  72 ben   8   9  10
  73 prop tor   8   9  10   5
  74 prop tor   8   9  10  11
  75 ben   8   9  20
  76 ben   9   8  19
  77 ben   9  10  11
  78 prop tor   9  10  11  12
  79 prop tor   9  10  11  16
  80 prop tor  10   5   6   7
  81 prop tor  10   5   6  17
  82 ben  10   9  20
  83 ben  10  11  12
  84 prop tor  10  11  12  13
  85 prop tor  10  11  12  21
  86 ben  10  11  16
  87 prop tor  10  11  16   2
  88 prop tor  10  11  16  15
  89 ben  11  12  13
  90 prop tor  11  12  13  14
  91 prop tor  11  12  13  22
  92 ben  11  12  21
  93 ben  11  16  15
  94 ben  12  11  16
  95 prop tor  12  11  16   2
  96 prop tor  12  11  16  15
  97 ben  12  13  14
  98 prop tor  12  13  14  15
  99 prop tor  12  13  14  23
 100 ben  12  13  22
 101 ben  13  12  21
 102 ben  13  14  15
 103 prop tor  13  14  15  16
 104 prop tor  13  14  15  24
 105 ben  13  14  23
 106 ben  14  13  22
 107 ben  14  15  16
 108 prop tor  14  15  16   2
 109 prop tor  14  15  16  11
 110 ben  14  15  24
 111 ben  15  14  23
 112 prop tor  16   2   3   4
 113 prop tor  16   2   3   5
 114 prop tor  16  11  12  13
 115 prop tor  16  11  12  21
 116 ben  16  15  24
 117 prop tor  17   6   7   8
 118 prop tor  17   6   7  18
 119 prop tor  18   7   8   9
 120 prop tor  18   7   8  19
 121 prop tor  19   8   9  10
 122 prop tor  19   8   9  20
 123 prop tor  20   9  10   5
 124 prop tor  20   9  10  11
 125 prop tor  21  12  13  14
 126 prop tor  21  12  13  22
 127 prop tor  22  13  14  15
 128 prop tor  22  13  14  23
 129 prop tor  23  14  15  16
 130 prop tor  23  14  15  24
 131 prop tor  24  15  16   2
 132 prop tor  24  15  16  11
 nber bend=              42
 nber lin bend=           0
 nber prop tor=          64
 nber impr tor=           0
 nber tot redund int=         132
 generating redundant internal coords
         300        3600          24
 search for int coords
   1 str   2   1   1.248
   2 str   3   2   1.482
   3 str   4   3   1.248
   4 str   5   3   1.477
   5 str   6   5   1.412
   6 str   7   6   1.380
   7 str   8   7   1.406
   8 str   9   8   1.384
   9 str  10   5   1.424
  10 str  10   9   1.411
  11 str  11  10   1.461
  12 str  12  11   1.411
  13 str  13  12   1.384
  14 str  14  13   1.406
  15 str  15  14   1.380
  16 str  16   2   1.477
  17 str  16  11   1.424
  18 str  16  15   1.412
  19 str  17   6   1.084
  20 str  18   7   1.086
  21 str  19   8   1.086
  22 str  20   9   1.084
  23 str  21  12   1.084
  24 str  22  13   1.086
  25 str  23  14   1.086
  26 str  24  15   1.084
 nber stretches=          26
  27 ben   1   2   3
  28 prop tor   1   2   3   4
  29 prop tor   1   2   3   5
  30 ben   1   2  16
  31 prop tor   1   2  16  11
  32 prop tor   1   2  16  15
  33 ben   2   3   4
  34 ben   2   3   5
  35 prop tor   2   3   5   6
  36 prop tor   2   3   5  10
  37 ben   2  16  11
  38 ben   2  16  15
  39 ben   3   2  16
  40 prop tor   3   2  16  11
  41 prop tor   3   2  16  15
  42 ben   3   5   6
  43 prop tor   3   5   6   7
  44 prop tor   3   5   6  17
  45 ben   3   5  10
  46 prop tor   3   5  10   9
  47 prop tor   3   5  10  11
  48 ben   4   3   5
  49 prop tor   4   3   5   6
  50 prop tor   4   3   5  10
  51 ben   5   6   7
  52 prop tor   5   6   7   8
  53 prop tor   5   6   7  18
  54 ben   5   6  17
  55 ben   5  10   9
  56 ben   5  10  11
  57 prop tor   5  10  11  12
  58 prop tor   5  10  11  16
  59 ben   6   5  10
  60 prop tor   6   5  10   9
  61 prop tor   6   5  10  11
  62 ben   6   7   8
  63 prop tor   6   7   8   9
  64 prop tor   6   7   8  19
  65 ben   6   7  18
  66 ben   7   6  17
  67 ben   7   8   9
  68 prop tor   7   8   9  10
  69 prop tor   7   8   9  20
  70 ben   7   8  19
  71 ben   8   7  18
  72 ben   8   9  10
  73 prop tor   8   9  10   5
  74 prop tor   8   9  10  11
  75 ben   8   9  20
  76 ben   9   8  19
  77 ben   9  10  11
  78 prop tor   9  10  11  12
  79 prop tor   9  10  11  16
  80 prop tor  10   5   6   7
  81 prop tor  10   5   6  17
  82 ben  10   9  20
  83 ben  10  11  12
  84 prop tor  10  11  12  13
  85 prop tor  10  11  12  21
  86 ben  10  11  16
  87 prop tor  10  11  16   2
  88 prop tor  10  11  16  15
  89 ben  11  12  13
  90 prop tor  11  12  13  14
  91 prop tor  11  12  13  22
  92 ben  11  12  21
  93 ben  11  16  15
  94 ben  12  11  16
  95 prop tor  12  11  16   2
  96 prop tor  12  11  16  15
  97 ben  12  13  14
  98 prop tor  12  13  14  15
  99 prop tor  12  13  14  23
 100 ben  12  13  22
 101 ben  13  12  21
 102 ben  13  14  15
 103 prop tor  13  14  15  16
 104 prop tor  13  14  15  24
 105 ben  13  14  23
 106 ben  14  13  22
 107 ben  14  15  16
 108 prop tor  14  15  16   2
 109 prop tor  14  15  16  11
 110 ben  14  15  24
 111 ben  15  14  23
 112 prop tor  16   2   3   4
 113 prop tor  16   2   3   5
 114 prop tor  16  11  12  13
 115 prop tor  16  11  12  21
 116 ben  16  15  24
 117 prop tor  17   6   7   8
 118 prop tor  17   6   7  18
 119 prop tor  18   7   8   9
 120 prop tor  18   7   8  19
 121 prop tor  19   8   9  10
 122 prop tor  19   8   9  20
 123 prop tor  20   9  10   5
 124 prop tor  20   9  10  11
 125 prop tor  21  12  13  14
 126 prop tor  21  12  13  22
 127 prop tor  22  13  14  15
 128 prop tor  22  13  14  23
 129 prop tor  23  14  15  16
 130 prop tor  23  14  15  24
 131 prop tor  24  15  16   2
 132 prop tor  24  15  16  11
 nber bend=              42
 nber lin bend=           0
 nber prop tor=          64
 nber impr tor=           0
 nber tot redund int=         132
 Eigenvalues of G in red int coords
    Gval -0.00000000 -0.00000000 -0.00000000 -0.00000000 -0.00000000 -0.00000000 -0.00000000 -0.00000000
    Gval -0.00000000 -0.00000000 -0.00000000 -0.00000000 -0.00000000 -0.00000000 -0.00000000 -0.00000000
    Gval -0.00000000 -0.00000000 -0.00000000 -0.00000000 -0.00000000 -0.00000000 -0.00000000 -0.00000000
    Gval -0.00000000 -0.00000000 -0.00000000 -0.00000000 -0.00000000 -0.00000000 -0.00000000 -0.00000000
    Gval -0.00000000 -0.00000000 -0.00000000 -0.00000000  0.00000000  0.00000000  0.00000000  0.00000000
    Gval  0.00000000  0.00000000  0.00000000  0.00000000  0.00000000  0.00000000  0.00000000  0.00000000
    Gval  0.00000000  0.00000000  0.00000000  0.00000000  0.00000000  0.00000000  0.00000000  0.00000000
    Gval  0.00000000  0.00000000  0.00000000  0.00000000  0.00000000  0.00000000  0.00000000  0.00000000
    Gval  0.00000000  0.00000000  0.00000690  0.00001096  0.00001163  0.00002018  0.00002161  0.00002592
    Gval  0.00003555  0.00004702  0.00004778  0.00004903  0.00005480  0.00005962  0.00006091  0.00007802
    Gval  0.00007860  0.00009760  0.00010022  0.00010946  0.00011273  0.00012817  0.00012926  0.00013208
    Gval  0.00015634  0.00020236  0.00023025  0.00026457  0.00026952  0.00029502  0.00032183  0.00037655
    Gval  0.00037793  0.00040387  0.00042908  0.00043848  0.00044543  0.00059320  0.00059324  0.00059727
    Gval  0.00059743  0.00061783  0.00062187  0.00062752  0.00065500  0.00065537  0.00069302  0.00088685
    Gval  0.00095568  0.00105005  0.00105119  0.00111640  0.00111665  0.00115771  0.00115789  0.00116927
    Gval  0.00116935  0.00120734  0.00166402  0.00181567  0.00185415  0.00215296  0.00261420  0.00279930
    Gval  0.00347295  0.00352354  0.00401787  0.00402203
  6.900473341557624E-006  6.900473341557624E-006
  1.096367433821179E-005  6.900473341557624E-006
  1.163428963870908E-005  6.900473341557624E-006
  2.018233581486477E-005  6.900473341557624E-006
  2.160546816327133E-005  6.900473341557624E-006
  2.592367150864319E-005  6.900473341557624E-006
  3.554595209200165E-005  6.900473341557624E-006
  4.702168168916227E-005  6.900473341557624E-006
  4.777693008978088E-005  6.900473341557624E-006
  4.902543943502391E-005  6.900473341557624E-006
  5.480390301265199E-005  6.900473341557624E-006
  5.962023504908136E-005  6.900473341557624E-006
  6.091241902271255E-005  6.900473341557624E-006
  7.801605039146450E-005  6.900473341557624E-006
  7.860485693567296E-005  6.900473341557624E-006
  9.759886098653346E-005  6.900473341557624E-006
  1.002182703365897E-004  6.900473341557624E-006
  1.094577861242123E-004  6.900473341557624E-006
  1.127289923545992E-004  6.900473341557624E-006
  1.281725365546244E-004  6.900473341557624E-006
  1.292622678075746E-004  6.900473341557624E-006
  1.320839854114865E-004  6.900473341557624E-006
  1.563440368910668E-004  6.900473341557624E-006
  2.023627849000421E-004  6.900473341557624E-006
  2.302513009197346E-004  6.900473341557624E-006
  2.645714845742036E-004  6.900473341557624E-006
  2.695218269233260E-004  6.900473341557624E-006
  2.950218596454714E-004  6.900473341557624E-006
  3.218322930465005E-004  6.900473341557624E-006
  3.765467772077277E-004  6.900473341557624E-006
  3.779292828322110E-004  6.900473341557624E-006
  4.038672845700318E-004  6.900473341557624E-006
  4.290819001692092E-004  6.900473341557624E-006
  4.384813932692291E-004  6.900473341557624E-006
  4.454333170323812E-004  6.900473341557624E-006
  5.932025708744616E-004  6.900473341557624E-006
  5.932425923011346E-004  6.900473341557624E-006
  5.972697994434121E-004  6.900473341557624E-006
  5.974348581794523E-004  6.900473341557624E-006
  6.178269905817762E-004  6.900473341557624E-006
  6.218722408549622E-004  6.900473341557624E-006
  6.275223893510162E-004  6.900473341557624E-006
  6.549980541085947E-004  6.900473341557624E-006
  6.553665547678723E-004  6.900473341557624E-006
  6.930228379566945E-004  6.900473341557624E-006
  8.868486916651841E-004  6.900473341557624E-006
  9.556824282558217E-004  6.900473341557624E-006
  1.050046053132736E-003  6.900473341557624E-006
  1.051193803203105E-003  6.900473341557624E-006
  1.116401328577548E-003  6.900473341557624E-006
  1.116645241271112E-003  6.900473341557624E-006
  1.157705052498824E-003  6.900473341557624E-006
  1.157894589773518E-003  6.900473341557624E-006
  1.169273864754711E-003  6.900473341557624E-006
  1.169345618513292E-003  6.900473341557624E-006
  1.207335630386648E-003  6.900473341557624E-006
  1.664021789284859E-003  6.900473341557624E-006
  1.815671747111610E-003  6.900473341557624E-006
  1.854146849595051E-003  6.900473341557624E-006
  2.152962215009743E-003  6.900473341557624E-006
  2.614196663561434E-003  6.900473341557624E-006
  2.799296359597016E-003  6.900473341557624E-006
  3.472946972581868E-003  6.900473341557624E-006
  3.523541823887106E-003  6.900473341557624E-006
  4.017872113049359E-003  6.900473341557624E-006
  4.022029592989741E-003  6.900473341557624E-006
 cut=1d-8, nber non-redundant internal coords=          66
 Check on Eigenvals of non-red overlap matrix:
  0.00000690  0.00001096  0.00001163  0.00002018  0.00002161  0.00002592  0.00003555  0.00004702
  0.00004778  0.00004903  0.00005480  0.00005962  0.00006091  0.00007802  0.00007860  0.00009760
  0.00010022  0.00010946  0.00011273  0.00012817  0.00012926  0.00013208  0.00015634  0.00020236
  0.00023025  0.00026457  0.00026952  0.00029502  0.00032183  0.00037655  0.00037793  0.00040387
  0.00042908  0.00043848  0.00044543  0.00059320  0.00059324  0.00059727  0.00059743  0.00061783
  0.00062187  0.00062752  0.00065500  0.00065537  0.00069302  0.00088685  0.00095568  0.00105005
  0.00105119  0.00111640  0.00111665  0.00115771  0.00115789  0.00116927  0.00116935  0.00120734
  0.00166402  0.00181567  0.00185415  0.00215296  0.00261420  0.00279930  0.00347295  0.00352354
  0.00401787  0.00402203
 generating redundant internal coords
         300        3600          24
 search for int coords
   1 str   2   1   1.261
   2 str   3   2   1.475
   3 str   4   3   1.261
   4 str   5   3   1.486
   5 str   6   5   1.397
   6 str   7   6   1.416
   7 str   8   7   1.398
   8 str   9   8   1.392
   9 str  10   5   1.441
  10 str  10   9   1.443
  11 str  11  10   1.429
  12 str  12  11   1.443
  13 str  13  12   1.392
  14 str  14  13   1.398
  15 str  15  14   1.416
  16 str  16   2   1.486
  17 str  16  11   1.441
  18 str  16  15   1.397
  19 str  17   6   1.085
  20 str  18   7   1.089
  21 str  19   8   1.093
  22 str  20   9   1.085
  23 str  21  12   1.085
  24 str  22  13   1.093
  25 str  23  14   1.089
  26 str  24  15   1.085
 nber stretches=          26
  27 ben   1   2   3
  28 prop tor   1   2   3   4
  29 prop tor   1   2   3   5
  30 ben   1   2  16
  31 prop tor   1   2  16  11
  32 prop tor   1   2  16  15
  33 ben   2   3   4
  34 ben   2   3   5
  35 prop tor   2   3   5   6
  36 prop tor   2   3   5  10
  37 ben   2  16  11
  38 ben   2  16  15
  39 ben   3   2  16
  40 prop tor   3   2  16  11
  41 prop tor   3   2  16  15
  42 ben   3   5   6
  43 prop tor   3   5   6   7
  44 prop tor   3   5   6  17
  45 ben   3   5  10
  46 prop tor   3   5  10   9
  47 prop tor   3   5  10  11
  48 ben   4   3   5
  49 prop tor   4   3   5   6
  50 prop tor   4   3   5  10
  51 ben   5   6   7
  52 prop tor   5   6   7   8
  53 prop tor   5   6   7  18
  54 ben   5   6  17
  55 ben   5  10   9
  56 ben   5  10  11
  57 prop tor   5  10  11  12
  58 prop tor   5  10  11  16
  59 ben   6   5  10
  60 prop tor   6   5  10   9
  61 prop tor   6   5  10  11
  62 ben   6   7   8
  63 prop tor   6   7   8   9
  64 prop tor   6   7   8  19
  65 ben   6   7  18
  66 ben   7   6  17
  67 ben   7   8   9
  68 prop tor   7   8   9  10
  69 prop tor   7   8   9  20
  70 ben   7   8  19
  71 ben   8   7  18
  72 ben   8   9  10
  73 prop tor   8   9  10   5
  74 prop tor   8   9  10  11
  75 ben   8   9  20
  76 ben   9   8  19
  77 ben   9  10  11
  78 prop tor   9  10  11  12
  79 prop tor   9  10  11  16
  80 prop tor  10   5   6   7
  81 prop tor  10   5   6  17
  82 ben  10   9  20
  83 ben  10  11  12
  84 prop tor  10  11  12  13
  85 prop tor  10  11  12  21
  86 ben  10  11  16
  87 prop tor  10  11  16   2
  88 prop tor  10  11  16  15
  89 ben  11  12  13
  90 prop tor  11  12  13  14
  91 prop tor  11  12  13  22
  92 ben  11  12  21
  93 ben  11  16  15
  94 ben  12  11  16
  95 prop tor  12  11  16   2
  96 prop tor  12  11  16  15
  97 ben  12  13  14
  98 prop tor  12  13  14  15
  99 prop tor  12  13  14  23
 100 ben  12  13  22
 101 ben  13  12  21
 102 ben  13  14  15
 103 prop tor  13  14  15  16
 104 prop tor  13  14  15  24
 105 ben  13  14  23
 106 ben  14  13  22
 107 ben  14  15  16
 108 prop tor  14  15  16   2
 109 prop tor  14  15  16  11
 110 ben  14  15  24
 111 ben  15  14  23
 112 prop tor  16   2   3   4
 113 prop tor  16   2   3   5
 114 prop tor  16  11  12  13
 115 prop tor  16  11  12  21
 116 ben  16  15  24
 117 prop tor  17   6   7   8
 118 prop tor  17   6   7  18
 119 prop tor  18   7   8   9
 120 prop tor  18   7   8  19
 121 prop tor  19   8   9  10
 122 prop tor  19   8   9  20
 123 prop tor  20   9  10   5
 124 prop tor  20   9  10  11
 125 prop tor  21  12  13  14
 126 prop tor  21  12  13  22
 127 prop tor  22  13  14  15
 128 prop tor  22  13  14  23
 129 prop tor  23  14  15  16
 130 prop tor  23  14  15  24
 131 prop tor  24  15  16   2
 132 prop tor  24  15  16  11
 nber bend=              42
 nber lin bend=           0
 nber prop tor=          64
 nber impr tor=           0
 nber tot redund int=         132
 Eigenvalues of G in red int coords
    Gval -0.00000000 -0.00000000 -0.00000000 -0.00000000 -0.00000000 -0.00000000 -0.00000000 -0.00000000
    Gval -0.00000000 -0.00000000 -0.00000000 -0.00000000 -0.00000000 -0.00000000 -0.00000000 -0.00000000
    Gval -0.00000000 -0.00000000 -0.00000000 -0.00000000 -0.00000000 -0.00000000 -0.00000000 -0.00000000
    Gval -0.00000000 -0.00000000 -0.00000000 -0.00000000 -0.00000000  0.00000000  0.00000000  0.00000000
    Gval  0.00000000  0.00000000  0.00000000  0.00000000  0.00000000  0.00000000  0.00000000  0.00000000
    Gval  0.00000000  0.00000000  0.00000000  0.00000000  0.00000000  0.00000000  0.00000000  0.00000000
    Gval  0.00000000  0.00000000  0.00000000  0.00000000  0.00000000  0.00000000  0.00000000  0.00000000
    Gval  0.00000000  0.00000000  0.00000000  0.00000000  0.00000000  0.00000000  0.00000000  0.00000000
    Gval  0.00000000  0.00000000  0.00000679  0.00001095  0.00001159  0.00002019  0.00002156  0.00002582
    Gval  0.00003561  0.00004712  0.00004760  0.00004933  0.00005470  0.00005951  0.00006070  0.00007770
    Gval  0.00007809  0.00009362  0.00010021  0.00010892  0.00011226  0.00012779  0.00012830  0.00013083
    Gval  0.00015499  0.00020155  0.00022891  0.00026045  0.00026429  0.00029382  0.00031909  0.00037036
    Gval  0.00037695  0.00040372  0.00042826  0.00042903  0.00045064  0.00059318  0.00059323  0.00059713
    Gval  0.00059734  0.00059947  0.00061689  0.00062122  0.00065307  0.00065351  0.00069817  0.00088076
    Gval  0.00095368  0.00104291  0.00104411  0.00111210  0.00111235  0.00114910  0.00114930  0.00116111
    Gval  0.00116114  0.00120150  0.00162903  0.00180734  0.00184456  0.00214420  0.00260651  0.00278457
    Gval  0.00344445  0.00350167  0.00398972  0.00399332
  6.792023272182249E-006  6.792023272182249E-006
  1.095340624737541E-005  6.792023272182249E-006
  1.159481325249908E-005  6.792023272182249E-006
  2.018867648494505E-005  6.792023272182249E-006
  2.155761530014722E-005  6.792023272182249E-006
  2.582394931005988E-005  6.792023272182249E-006
  3.560611648761231E-005  6.792023272182249E-006
  4.712103863095253E-005  6.792023272182249E-006
  4.760481071570090E-005  6.792023272182249E-006
  4.933499133055252E-005  6.792023272182249E-006
  5.469895477973777E-005  6.792023272182249E-006
  5.951312694238091E-005  6.792023272182249E-006
  6.070040721973854E-005  6.792023272182249E-006
  7.769697976973690E-005  6.792023272182249E-006
  7.808794471423100E-005  6.792023272182249E-006
  9.362228567754688E-005  6.792023272182249E-006
  1.002095744283498E-004  6.792023272182249E-006
  1.089223890271680E-004  6.792023272182249E-006
  1.122620695155690E-004  6.792023272182249E-006
  1.277919055178375E-004  6.792023272182249E-006
  1.283028508832834E-004  6.792023272182249E-006
  1.308326768678703E-004  6.792023272182249E-006
  1.549895942664951E-004  6.792023272182249E-006
  2.015462132017600E-004  6.792023272182249E-006
  2.289062220123833E-004  6.792023272182249E-006
  2.604479321620775E-004  6.792023272182249E-006
  2.642907853066749E-004  6.792023272182249E-006
  2.938231552297245E-004  6.792023272182249E-006
  3.190901674294219E-004  6.792023272182249E-006
  3.703560895396101E-004  6.792023272182249E-006
  3.769540180654849E-004  6.792023272182249E-006
  4.037225661123396E-004  6.792023272182249E-006
  4.282599582197586E-004  6.792023272182249E-006
  4.290268378571805E-004  6.792023272182249E-006
  4.506403435020935E-004  6.792023272182249E-006
  5.931814537111723E-004  6.792023272182249E-006
  5.932261209948764E-004  6.792023272182249E-006
  5.971269783682545E-004  6.792023272182249E-006
  5.973363511870123E-004  6.792023272182249E-006
  5.994707637846648E-004  6.792023272182249E-006
  6.168875161228635E-004  6.792023272182249E-006
  6.212226562912020E-004  6.792023272182249E-006
  6.530749467671407E-004  6.792023272182249E-006
  6.535139171276541E-004  6.792023272182249E-006
  6.981653254001835E-004  6.792023272182249E-006
  8.807604523279936E-004  6.792023272182249E-006
  9.536810335468612E-004  6.792023272182249E-006
  1.042914561907076E-003  6.792023272182249E-006
  1.044109109658177E-003  6.792023272182249E-006
  1.112102317661751E-003  6.792023272182249E-006
  1.112346228241163E-003  6.792023272182249E-006
  1.149095415049334E-003  6.792023272182249E-006
  1.149304404106494E-003  6.792023272182249E-006
  1.161106634067274E-003  6.792023272182249E-006
  1.161135724558001E-003  6.792023272182249E-006
  1.201500413089462E-003  6.792023272182249E-006
  1.629031616804808E-003  6.792023272182249E-006
  1.807335897767946E-003  6.792023272182249E-006
  1.844564867289164E-003  6.792023272182249E-006
  2.144195334781959E-003  6.792023272182249E-006
  2.606509830357238E-003  6.792023272182249E-006
  2.784567467243627E-003  6.792023272182249E-006
  3.444451481037129E-003  6.792023272182249E-006
  3.501673570404811E-003  6.792023272182249E-006
  3.989724395875794E-003  6.792023272182249E-006
  3.993323888581366E-003  6.792023272182249E-006
 cut=1d-8, nber non-redundant internal coords=          66
 Check on Eigenvals of non-red overlap matrix:
  0.00000679  0.00001095  0.00001159  0.00002019  0.00002156  0.00002582  0.00003561  0.00004712
  0.00004760  0.00004933  0.00005470  0.00005951  0.00006070  0.00007770  0.00007809  0.00009362
  0.00010021  0.00010892  0.00011226  0.00012779  0.00012830  0.00013083  0.00015499  0.00020155
  0.00022891  0.00026045  0.00026429  0.00029382  0.00031909  0.00037036  0.00037695  0.00040372
  0.00042826  0.00042903  0.00045064  0.00059318  0.00059323  0.00059713  0.00059734  0.00059947
  0.00061689  0.00062122  0.00065307  0.00065351  0.00069817  0.00088076  0.00095368  0.00104291
  0.00104411  0.00111210  0.00111235  0.00114910  0.00114930  0.00116111  0.00116114  0.00120150
  0.00162903  0.00180734  0.00184456  0.00214420  0.00260651  0.00278457  0.00344445  0.00350167
  0.00398972  0.00399332
 d1=
  -1.4  -8.2   0.0   0.0  -3.5   1.8  -0.0   0.0  -0.0   0.0   1.4   0.0   2.3   0.0   2.4   0.0   1.2  -0.0   0.0  -1.0
  -1.4  -0.0  -2.7   0.0   0.0  -3.4  -0.0  -3.3   0.0  -0.0  -1.1   0.0  -0.0   3.8  -0.0   0.3  -0.0   0.4   0.0  -0.2
   0.0  -0.0   0.7  -0.0   0.0  -0.0   0.0  -0.2  -0.0  -0.0   0.8  -0.3   0.0  -0.0  -0.2  -0.0   0.0   0.0  -0.0  -0.0
   0.0   0.0  -0.0  -0.0  -0.0   0.0
 d2=
   1.5  -8.1  -0.0   0.0  -3.4  -1.9   0.0   0.0   0.0   0.0  -1.2   0.0  -2.3  -0.0  -2.4  -0.0   1.2  -0.0  -0.0  -0.5
  -1.6   0.0   2.7   0.0   0.0   3.2  -0.0   3.5   0.0  -0.0  -0.9  -0.0  -0.0   3.9  -0.0  -0.3  -0.0  -0.4  -0.0   0.0
  -0.1  -0.0  -0.7  -0.0  -0.0  -0.0  -0.0  -0.2  -0.0   0.0  -0.8  -0.3  -0.0  -0.0  -0.1   0.0   0.0  -0.0   0.0   0.0
  -0.0  -0.0   0.0   0.0   0.0  -0.0
 curvilinear- renormalizn of Dush matrix done
  mol 1 sym            1  -> mol 2 sym            1
  mol 1 sym            2  -> mol 2 sym            2
  mol 1 sym            3  -> mol 2 sym            3
  mol 1 sym            4  -> mol 2 sym            4

 Dushinsky matrix, ncs 2 in terms of ncs 1

   mode   freq    coeff     %      %tot     of    at

   1 A1     -0. -0.0000     0.0     0.0  17 A1    414.
   2 B2     -0.  0.0000     0.0     0.0  16 B2    401.
   3 A2     -0. -0.0000     0.0     0.0   7 A2     53.
   4 B1     -0. -0.0000     0.0     0.0   8 B1     91.
   5 B2     -0. -0.0000     0.0     0.0  13 B2    319.
   6 B1      0. -0.0000     0.0     0.0   8 B1     91.
   7 A2     50.  0.9657    93.3   100.6   7 A2     53.
   8 B1     83.  0.9986    99.7    99.1   8 B1     91.
   9 A2    100. -0.9476    89.8    98.9   9 A2    123.
  10 B1    155.  0.9979    99.6    96.5  10 B1    157.
  11 A1    240. -0.9998   100.0    98.3  11 A1    245.
  12 A2    247. -0.9745    95.0    98.0  12 A2    273.
  13 B2    317.  0.9993    99.9    99.6  13 B2    319.
  14 A1    371.  0.9971    99.4    98.4  14 A1    365.
  15 B1    380. -0.7548    57.0    98.3  15 B1    386.
                -0.6450    41.6          19 B1    453.
  16 B2    385.  0.9978    99.6   101.6  16 B2    401.
  17 B1    409. -0.6591    43.4    97.7  15 B1    386.
                 0.7393    54.7          19 B1    453.
  18 A1    414. -0.9966    99.3    98.6  17 A1    414.
  19 A2    451.  0.9276    86.0   102.8  18 A2    441.
  20 A1    456.  0.9990    99.8    98.9  20 A1    466.
  21 A2    509. -0.8243    68.0    99.4  22 A2    572.
  22 A2    558. -0.3779    14.3    99.1  22 A2    572.
                -0.4208    17.7          27 A2    696.
                 0.7006    49.1          33 A2    850.
  23 B1    562.  0.8698    75.7    98.7  21 B1    565.
                 0.4066    16.5          28 B1    728.
  24 B2    596.  0.8989    80.8    98.9  23 B2    611.
                -0.4326    18.7          24 B2    632.
  25 B1    607. -0.4412    19.5   100.3  21 B1    565.
                 0.5645    31.9          28 B1    728.
                -0.5799    33.6          34 B1    860.
  26 B2    613.  0.4487    20.1    98.0  23 B2    611.
                 0.8931    79.8          24 B2    632.
  27 A2    631.  0.3195    10.2   100.9  22 A2    572.
                 0.4387    19.2          27 A2    696.
                 0.6722    45.2          30 A2    765.
                 0.3617    13.1          33 A2    850.
  28 B1    657. -0.3485    12.1    99.7  28 B1    728.
                 0.5127    26.3          29 B1    756.
                -0.5954    35.5          34 B1    860.
                -0.4589    21.1          36 B1    930.
  29 B2    670.  0.9990    99.8   100.2  25 B2    675.
  30 A1    676. -0.9956    99.1    99.0  26 A1    691.
  31 A2    692.  0.7395    54.7   100.1  27 A2    696.
                -0.5409    29.3          30 A2    765.
  32 B1    705. -0.5381    29.0    99.5  28 B1    728.
                -0.7821    61.2          29 B1    756.
  33 A2    753.  0.9256    85.7    99.1  31 A2    783.
  34 A1    789. -0.9907    98.2    99.2  32 A1    800.
  35 A2    839. -0.3975    15.8    98.0  30 A2    765.
                -0.8367    70.0          35 A2    910.
                 0.3258    10.6          39 A2    988.
  36 B1    845. -0.7689    59.1    98.2  36 B1    930.
                 0.4855    23.6          38 B1    987.
  37 B1    847. -0.4493    20.2    99.4  34 B1    860.
                 0.4158    17.3          36 B1    930.
                 0.7867    61.9          38 B1    987.
  38 A2    851.  0.3904    15.2    99.5  33 A2    850.
                -0.3175    10.1          35 A2    910.
                -0.8526    72.7          39 A2    988.
  39 B2    917. -0.9776    95.6    99.6  37 B2    933.
  40 B2    991. -0.9737    94.8    98.9  40 B2   1010.
  41 A1   1023. -0.8785    77.2   100.0  41 A1   1045.
                 0.3822    14.6          44 A1   1104.
  42 B2   1033.  0.9503    90.3    99.4  42 B2   1053.
  43 A1   1051.  0.4389    19.3    99.5  41 A1   1045.
                 0.6479    42.0          43 A1   1070.
                 0.6096    37.2          44 A1   1104.
  44 A1   1078.  0.7148    51.1    99.2  43 A1   1070.
                -0.6558    43.0          44 A1   1104.
  45 B2   1087.  0.9208    84.8    99.2  45 B2   1130.
  46 B2   1127. -0.9520    90.6    99.7  47 B2   1170.
  47 A1   1143. -0.9286    86.2    99.4  46 A1   1165.
  48 B2   1180. -0.9278    86.1    99.8  49 B2   1230.
[...]
 nber times 1st assigned=          26           0
 nber times 1st assigned=          27           0
 nber times 1st assigned=          28           0
 nber times 1st assigned=          29           0
 nber times 1st assigned=          30           0
 nber times 1st assigned=          31           0
 nber times 1st assigned=          32           0
 nber times 1st assigned=          33           0
 nber times 1st assigned=          34           0
 nber times 1st assigned=          35           0
 nber times 1st assigned=          36           0
 nber times 1st assigned=          37           0
 nber times 1st assigned=          38           0
 nber times 1st assigned=          39           0
 nber times 1st assigned=          40           0
 nber times 1st assigned=          41           0
 nber times 1st assigned=          42           0
 nber times 1st assigned=          43           0
 nber times 1st assigned=          44           0
 nber times 1st assigned=          45           0
 nber times 1st assigned=          46           0
 nber times 1st assigned=          47           0
 nber times 1st assigned=          48           0
 nber times 1st assigned=          49           0
 nber times 1st assigned=          50           0
 nber times 1st assigned=          51           0
 nber times 1st assigned=          52           0
 nber times 1st assigned=          53           0
 nber times 1st assigned=          54           0
 nber times 1st assigned=          55           0
 nber times 1st assigned=          56           0
 nber times 1st assigned=          57           0
 nber times 1st assigned=          58           0
 nber times 1st assigned=          59           0
 nber times 1st assigned=          60           0
 nber times 1st assigned=          61           0
 nber times 1st assigned=          62           0
 nber times 1st assigned=          63           0
 nber times 1st assigned=          64           0
 nber times 1st assigned=          65           0
 nber times 1st assigned=          66           0
 nber times 1st assigned=          67           0
 nber times 1st assigned=          68           0
 nber times 1st assigned=          69           0
 nber times 1st assigned=          70           0
 nber times 1st assigned=          71           0
 nber times 1st assigned=          72           0
 Dushinsky matrix written to .out file
 modes represented=   65.6485198885631     

 Dushinsky matrix, ncs 1 in terms of ncs 2

   mode   freq    coeff     %      %tot     of    at

   7 A2     53.  0.9657    93.3   101.2   7 A2     50.
   8 B1     91.  0.9986    99.7   100.1   8 B1     83.
   9 A2    123. -0.9476    89.8    98.8   9 A2    100.
  10 B1    157.  0.9979    99.6    96.4  10 B1    155.
  11 A1    245. -0.9998   100.0    98.6  11 A1    240.
  12 A2    273. -0.9745    95.0    98.7  12 A2    247.
  13 B2    319.  0.9993    99.9    99.8  13 B2    317.
  14 A1    365.  0.9971    99.4    98.4  14 A1    371.
  15 B1    386. -0.7548    57.0   100.4  15 B1    380.
                -0.6591    43.4          17 B1    409.
  16 B2    401.  0.9978    99.6   101.9  16 B2    385.
  17 A1    414. -0.9966    99.3    98.9  18 A1    414.
  18 A2    441.  0.9276    86.0   101.5  19 A2    451.
  19 B1    453. -0.6450    41.6    95.3  15 B1    380.
                 0.7393    54.7          17 B1    409.
  20 A1    466.  0.9990    99.8    98.9  20 A1    456.
  21 B1    565.  0.8698    75.7    99.3  23 B1    562.
                -0.4412    19.5          25 B1    607.
  22 A2    572. -0.8243    68.0   100.0  21 A2    509.
                -0.3779    14.3          22 A2    558.
                 0.3195    10.2          27 A2    631.
  23 B2    611.  0.8989    80.8   100.2  24 B2    596.
                 0.4487    20.1          26 B2    613.
  24 B2    632. -0.4326    18.7    96.9  24 B2    596.
                 0.8931    79.8          26 B2    613.
  25 B2    675.  0.9990    99.8   100.3  29 B2    670.
  26 A1    691. -0.9956    99.1    99.2  30 A1    676.
  27 A2    696. -0.4208    17.7   100.0  22 A2    558.
                 0.4387    19.2          27 A2    631.
                 0.7395    54.7          31 A2    692.
  28 B1    728.  0.4066    16.5    97.9  23 B1    562.
                 0.5645    31.9          25 B1    607.
                -0.3485    12.1          28 B1    657.
                -0.5381    29.0          32 B1    705.
  29 B1    756.  0.5127    26.3    99.5  28 B1    657.
                -0.7821    61.2          32 B1    705.
  30 A2    765.  0.6722    45.2    99.0  27 A2    631.
                -0.5409    29.3          31 A2    692.
                -0.3975    15.8          35 A2    839.
  31 A2    783.  0.9256    85.7    99.1  33 A2    753.
  32 A1    800. -0.9907    98.2    98.9  34 A1    789.
  33 A2    850.  0.7006    49.1   100.0  22 A2    558.
                 0.3617    13.1          27 A2    631.
                 0.3904    15.2          38 A2    851.
  34 B1    860. -0.5799    33.6   100.1  25 B1    607.
                -0.5954    35.5          28 B1    657.
                -0.4493    20.2          37 B1    847.
  35 A2    910. -0.8367    70.0    98.7  35 A2    839.
                -0.3175    10.1          38 A2    851.
  36 B1    930. -0.4589    21.1    98.9  28 B1    657.
                -0.7689    59.1          36 B1    845.
                 0.4158    17.3          37 B1    847.
  37 B2    933. -0.9776    95.6    99.5  39 B2    917.
  38 B1    987.  0.4855    23.6    99.5  36 B1    845.
                 0.7867    61.9          37 B1    847.
  39 A2    988.  0.3258    10.6    99.5  35 A2    839.
                -0.8526    72.7          38 A2    851.
  40 B2   1010. -0.9737    94.8    98.9  40 B2    991.
  41 A1   1045. -0.8785    77.2    99.6  41 A1   1023.
                 0.4389    19.3          43 A1   1051.
  42 B2   1053.  0.9503    90.3    99.0  42 B2   1033.
  43 A1   1070.  0.6479    42.0   100.0  43 A1   1051.
                 0.7148    51.1          44 A1   1078.
  44 A1   1104.  0.3822    14.6    99.0  41 A1   1023.
                 0.6096    37.2          43 A1   1051.
                -0.6558    43.0          44 A1   1078.
  45 B2   1130.  0.9208    84.8    99.4  45 B2   1087.
  46 A1   1165. -0.9286    86.2    99.3  47 A1   1143.
  47 B2   1170. -0.9520    90.6    99.4  46 B2   1127.
  48 A1   1230. -0.8901    79.2    99.9  49 A1   1216.
                 0.3481    12.1          51 A1   1264.
  49 B2   1230. -0.9278    86.1    99.6  48 B2   1180.
  50 A1   1257. -0.4244    18.0    99.6  49 A1   1216.
                -0.7314    53.5          51 A1   1264.
                -0.3449    11.9          52 A1   1329.
  51 B2   1275.  0.8237    67.8    99.7  50 B2   1247.
                 0.4511    20.3          53 B2   1337.
  52 A1   1323.  0.4631    21.4    99.4  51 A1   1264.
                -0.8153    66.5          52 A1   1329.
  53 B2   1351.  0.4188    17.5    99.9  50 B2   1247.
                -0.6338    40.2          53 B2   1337.
                 0.6127    37.5          55 B2   1409.
  54 A1   1363. -0.9517    90.6    99.9  54 A1   1356.
  55 B2   1452.  0.5202    27.1    99.6  53 B2   1337.
                 0.4778    22.8          55 B2   1409.
                -0.6467    41.8          56 B2   1441.
  56 A1   1453. -0.9225    85.1    99.5  57 A1   1450.
  57 B2   1488.  0.7422    55.1    99.3  58 B2   1461.
                -0.5010    25.1          60 B2   1490.
  58 A1   1502. -0.8680    75.3    99.7  59 A1   1477.
                -0.3387    11.5          64 A1   1590.
  59 B2   1546.  0.5492    30.2   100.0  58 B2   1461.
                 0.6977    48.7          60 B2   1490.
                 0.3897    15.2          63 B2   1559.
  60 A1   1548. -0.7932    62.9    99.5  61 A1   1513.
                 0.5747    33.0          62 A1   1546.
  61 B2   1589.  0.4846    23.5    99.7  55 B2   1409.
                 0.6604    43.6          56 B2   1441.
                 0.3257    10.6          60 B2   1490.
  62 A1   1597. -0.5513    30.4    99.8  61 A1   1513.
                -0.8089    65.4          62 A1   1546.
  63 A1   1624. -0.3747    14.0    99.8  59 A1   1477.
                 0.9185    84.4          64 A1   1590.
  64 B2   1634. -0.3229    10.4    99.9  60 B2   1490.
                 0.9080    82.5          63 B2   1559.
  65 B2   3130.  0.8646    74.8   100.0  65 B2   3051.
                -0.4718    22.3          67 B2   3097.
  66 A1   3130.  0.8508    72.4   100.0  66 A1   3053.
                 0.5178    26.8          68 A1   3099.
  67 B2   3147.  0.4041    16.3   100.0  65 B2   3051.
                 0.8572    73.5          67 B2   3097.
                 0.3180    10.1          69 B2   3138.
  68 A1   3151. -0.5058    25.6   100.0  66 A1   3053.
                 0.8530    72.8          68 A1   3099.
  69 B2   3166. -0.9321    86.9   100.0  69 B2   3138.
  70 A1   3181. -0.6695    44.8   100.0  71 A1   3154.
                 0.7286    53.1          72 A1   3159.
  71 B2   3185. -0.9996    99.9   100.0  70 B2   3154.
  72 A1   3185.  0.7408    54.9   100.0  71 A1   3154.
                 0.6691    44.8          72 A1   3159.
 nber times 1st assigned=           1           0
 nber times 1st assigned=           2           0
 nber times 1st assigned=           3           0
 nber times 1st assigned=           4           0
 nber times 1st assigned=           5           0
 nber times 1st assigned=           6           0
 nber times 1st assigned=           7           0
 nber times 1st assigned=           8           0
 nber times 1st assigned=           9           0
 nber times 1st assigned=          10           0
 nber times 1st assigned=          11           0
 nber times 1st assigned=          12           0
 nber times 1st assigned=          13           0
 nber times 1st assigned=          14           0
 nber times 1st assigned=          15           0
 nber times 1st assigned=          16           0
 nber times 1st assigned=          17           0
 nber times 1st assigned=          18           0
 nber times 1st assigned=          19           0
 nber times 1st assigned=          20           0
 nber times 1st assigned=          21           0
 nber times 1st assigned=          22           0
 nber times 1st assigned=          23           0
 nber times 1st assigned=          24           0
 nber times 1st assigned=          25           0
 nber times 1st assigned=          26           0
 nber times 1st assigned=          27           0
 nber times 1st assigned=          28           0
 nber times 1st assigned=          29           0
 nber times 1st assigned=          30           0
 nber times 1st assigned=          31           0
 nber times 1st assigned=          32           0
 nber times 1st assigned=          33           0
 nber times 1st assigned=          34           0
 nber times 1st assigned=          35           0
 nber times 1st assigned=          36           0
 nber times 1st assigned=          37           0
 nber times 1st assigned=          38           0
 nber times 1st assigned=          39           0
 nber times 1st assigned=          40           0
 nber times 1st assigned=          41           0
 nber times 1st assigned=          42           0
 nber times 1st assigned=          43           0
 nber times 1st assigned=          44           0
 nber times 1st assigned=          45           0
 nber times 1st assigned=          46           0
 nber times 1st assigned=          47           0
 nber times 1st assigned=          48           0
 nber times 1st assigned=          49           0
 nber times 1st assigned=          50           0
 nber times 1st assigned=          51           0
 nber times 1st assigned=          52           0
 nber times 1st assigned=          53           0
 nber times 1st assigned=          54           0
 nber times 1st assigned=          55           0
 nber times 1st assigned=          56           0
 nber times 1st assigned=          57           0
 nber times 1st assigned=          58           0
 nber times 1st assigned=          59           0
 nber times 1st assigned=          60           0
 nber times 1st assigned=          61           0
 nber times 1st assigned=          62           0
 nber times 1st assigned=          63           0
 nber times 1st assigned=          64           0
 nber times 1st assigned=          65           0
 nber times 1st assigned=          66           0
 nber times 1st assigned=          67           0
 nber times 1st assigned=          68           0
 nber times 1st assigned=          69           0
 nber times 1st assigned=          70           0
 nber times 1st assigned=          71           0
 nber times 1st assigned=          72           0
 modes represented=   65.6485198885631     
 p1=
   -0.    0.    0.   -0.   -0.   -0.    0.    0.    0.    0.   -0.   -0.   -0.   -6.    0.    0.   -3.    0.   -0.    5.
   -0.    0.    0.   -0.   -0.    3.   -0.   -0.    0.    0.   -0.    2.    0.    0.   -0.   -0.    0.   -0.    0.   -0.
   -3.   -0.   -0.   -0.    0.    2.    0.   -3.    0.    1.    0.    0.    0.    3.   -0.   -3.    0.    1.   -0.    2.
   -0.   -2.   -4.   -0.   -0.   -0.    0.    0.   -0.   -0.   -0.   -0.
 p2=
   -0.   -0.    0.    0.   -0.    0.   -0.   -0.    0.   -0.   -0.   -0.   -0.    6.    0.    0.    0.   -3.   -0.   -5.
    0.   -0.    0.    0.   -0.   -0.    0.    0.    0.    3.    0.   -0.    0.    1.   -0.    0.    0.    0.   -0.   -0.
   -3.    0.    2.   -0.    0.   -0.    2.   -0.   -2.   -0.    1.    1.    0.    2.   -0.   -0.   -3.   -0.   -1.   -0.
    1.   -3.   -0.    4.   -0.    0.    0.   -0.   -0.    0.    0.    0.

 Displacement: in terms of nc of 1 THEN of nc of 2

   1 A1  freq=    -0. Q= -0.000 lam=    -0.0 A1  freq=    -0. Q= -0.000 lam=    -0.0
   2 B2  freq=    -0. Q=  0.000 lam=    -0.0 B2  freq=    -0. Q=  0.000 lam=    -0.0
   3 B2  freq=    -0. Q=  0.000 lam=    -0.0 A2  freq=    -0. Q=  0.000 lam=    -0.0
   4 B1  freq=    -0. Q= -0.000 lam=    -0.0 B1  freq=    -0. Q= -0.000 lam=    -0.0
   5 B1  freq=     0. Q= -0.000 lam=     0.0 B2  freq=    -0. Q= -0.000 lam=    -0.0
   6 A2  freq=     0. Q= -0.000 lam=     0.0 B1  freq=     0. Q= -0.000 lam=     0.0
   7 A2  freq=    53. Q=  0.000 lam=     0.0 A2  freq=    50. Q=  0.000 lam=     0.0
   8 B1  freq=    91. Q=  0.000 lam=     0.0 B1  freq=    83. Q=  0.000 lam=     0.0
   9 A2  freq=   123. Q=  0.000 lam=     0.0 A2  freq=   100. Q=  0.000 lam=     0.0
  10 B1  freq=   157. Q=  0.000 lam=     0.0 B1  freq=   155. Q=  0.000 lam=     0.0
  11 A1  freq=   245. Q= -0.024 lam=     0.1 A1  freq=   240. Q= -0.008 lam=     0.0
  12 A2  freq=   273. Q= -0.000 lam=     0.0 A2  freq=   247. Q= -0.000 lam=     0.0
  13 B2  freq=   319. Q= -0.000 lam=     0.0 B2  freq=   317. Q= -0.000 lam=     0.0
  14 A1  freq=   365. Q= -0.435 lam=    34.5 A1  freq=   371. Q= -0.452 lam=    37.9
  15 B1  freq=   386. Q=  0.000 lam=     0.0 B1  freq=   380. Q=  0.000 lam=     0.0
  16 B2  freq=   401. Q=  0.000 lam=     0.0 B2  freq=   385. Q=  0.000 lam=     0.0
  17 A1  freq=   414. Q= -0.262 lam=    14.2 B1  freq=   409. Q= -0.000 lam=     0.0
  18 A2  freq=   441. Q=  0.000 lam=     0.0 A1  freq=   414. Q=  0.252 lam=    13.2
  19 B1  freq=   453. Q= -0.000 lam=     0.0 A2  freq=   451. Q= -0.000 lam=     0.0
  20 A1  freq=   466. Q=  0.473 lam=    52.0 A1  freq=   456. Q=  0.468 lam=    50.0
  21 B1  freq=   565. Q= -0.000 lam=     0.0 A2  freq=   509. Q= -0.000 lam=     0.0
  22 A2  freq=   572. Q=  0.000 lam=     0.0 A2  freq=   558. Q=  0.000 lam=     0.0
  23 B2  freq=   611. Q=  0.000 lam=     0.0 B1  freq=   562. Q=  0.000 lam=     0.0
  24 B2  freq=   632. Q= -0.000 lam=     0.0 B2  freq=   596. Q= -0.000 lam=     0.0
  25 B2  freq=   675. Q= -0.000 lam=     0.0 B1  freq=   607. Q= -0.000 lam=     0.0
  26 A1  freq=   691. Q=  0.278 lam=    26.7 B2  freq=   613. Q=  0.000 lam=     0.0
  27 A2  freq=   696. Q= -0.000 lam=     0.0 A2  freq=   631. Q= -0.000 lam=     0.0
  28 B1  freq=   728. Q= -0.000 lam=     0.0 B1  freq=   657. Q= -0.000 lam=     0.0
  29 B1  freq=   756. Q=  0.000 lam=     0.0 B2  freq=   670. Q=  0.000 lam=     0.0
  30 A2  freq=   765. Q=  0.000 lam=     0.0 A1  freq=   676. Q=  0.273 lam=    25.3
  31 A2  freq=   783. Q= -0.000 lam=     0.0 A2  freq=   692. Q= -0.000 lam=     0.0
  32 A1  freq=   800. Q=  0.177 lam=    12.6 B1  freq=   705. Q=  0.000 lam=     0.0
  33 A2  freq=   850. Q=  0.000 lam=     0.0 A2  freq=   753. Q=  0.000 lam=     0.0
  34 B1  freq=   860. Q=  0.000 lam=     0.0 A1  freq=   789. Q=  0.159 lam=    10.0
  35 A2  freq=   910. Q= -0.000 lam=     0.0 A2  freq=   839. Q= -0.000 lam=     0.0
  36 B1  freq=   930. Q= -0.000 lam=     0.0 B1  freq=   845. Q= -0.000 lam=     0.0
  37 B2  freq=   933. Q=  0.000 lam=     0.0 B1  freq=   847. Q=  0.000 lam=     0.0
  38 B1  freq=   987. Q= -0.000 lam=     0.0 A2  freq=   851. Q= -0.000 lam=     0.0
  39 A2  freq=   988. Q=  0.000 lam=     0.0 B2  freq=   917. Q=  0.000 lam=     0.0
  40 B2  freq=  1010. Q= -0.000 lam=     0.0 B2  freq=   991. Q= -0.000 lam=     0.0
  41 A1  freq=  1045. Q= -0.411 lam=    88.1 A1  freq=  1023. Q= -0.397 lam=    80.8
  42 B2  freq=  1053. Q= -0.000 lam=     0.0 B2  freq=  1033. Q= -0.000 lam=     0.0
  43 A1  freq=  1070. Q= -0.014 lam=     0.1 A1  freq=  1051. Q= -0.268 lam=    37.6
  44 A1  freq=  1104. Q= -0.028 lam=     0.4 A1  freq=  1078. Q= -0.064 lam=     2.2
  45 B2  freq=  1130. Q=  0.000 lam=     0.0 B2  freq=  1087. Q=  0.000 lam=     0.0
  46 A1  freq=  1165. Q=  0.238 lam=    32.9 B2  freq=  1127. Q=  0.000 lam=     0.0
  47 B2  freq=  1170. Q=  0.000 lam=     0.0 A1  freq=  1143. Q=  0.287 lam=    47.0
  48 A1  freq=  1230. Q= -0.367 lam=    82.9 B2  freq=  1180. Q= -0.000 lam=     0.0
  49 B2  freq=  1230. Q=  0.000 lam=     0.0 A1  freq=  1216. Q=  0.266 lam=    43.1
  50 A1  freq=  1257. Q=  0.116 lam=     8.5 B2  freq=  1247. Q=  0.000 lam=     0.0
  51 B2  freq=  1275. Q=  0.000 lam=     0.0 A1  freq=  1264. Q=  0.135 lam=    11.5
  52 A1  freq=  1323. Q=  0.059 lam=     2.3 A1  freq=  1329. Q=  0.100 lam=     6.6
  53 B2  freq=  1351. Q=  0.000 lam=     0.0 B2  freq=  1337. Q=  0.000 lam=     0.0
  54 A1  freq=  1363. Q=  0.487 lam=   161.9 A1  freq=  1356. Q=  0.363 lam=    89.3
  55 B2  freq=  1452. Q= -0.000 lam=     0.0 B2  freq=  1409. Q= -0.000 lam=     0.0
  56 A1  freq=  1453. Q= -0.385 lam=   107.5 B2  freq=  1441. Q= -0.000 lam=     0.0
  57 B2  freq=  1488. Q=  0.000 lam=     0.0 A1  freq=  1450. Q=  0.410 lam=   121.9
  58 A1  freq=  1502. Q=  0.081 lam=     4.9 B2  freq=  1461. Q=  0.000 lam=     0.0
  59 B2  freq=  1546. Q= -0.000 lam=     0.0 A1  freq=  1477. Q= -0.079 lam=     4.6
  60 A1  freq=  1548. Q=  0.382 lam=   113.3 B2  freq=  1490. Q=  0.000 lam=     0.0
  61 B2  freq=  1589. Q= -0.000 lam=     0.0 A1  freq=  1513. Q= -0.147 lam=    16.3
  62 A1  freq=  1597. Q= -0.318 lam=    81.0 A1  freq=  1546. Q= -0.517 lam=   206.6
  63 A1  freq=  1624. Q= -0.726 lam=   427.8 B2  freq=  1559. Q= -0.000 lam=     0.0
  64 B2  freq=  1634. Q= -0.000 lam=     0.0 A1  freq=  1590. Q= -0.668 lam=   354.7
  65 B2  freq=  3130. Q= -0.000 lam=     0.0 B2  freq=  3051. Q= -0.000 lam=     0.0
  66 A1  freq=  3130. Q= -0.031 lam=     1.5 A1  freq=  3053. Q= -0.060 lam=     5.6
  67 B2  freq=  3147. Q=  0.000 lam=     0.0 B2  freq=  3097. Q=  0.000 lam=     0.0
  68 A1  freq=  3151. Q=  0.070 lam=     7.6 A1  freq=  3099. Q=  0.049 lam=     3.8
  69 B2  freq=  3166. Q= -0.000 lam=     0.0 B2  freq=  3138. Q= -0.000 lam=     0.0
  70 A1  freq=  3181. Q= -0.019 lam=     0.6 B2  freq=  3154. Q= -0.000 lam=     0.0
  71 B2  freq=  3185. Q= -0.000 lam=     0.0 A1  freq=  3154. Q= -0.007 lam=     0.1
  72 A1  freq=  3185. Q= -0.017 lam=     0.4 A1  freq=  3159. Q= -0.016 lam=     0.4

 total reorg energy (cm**-1, kcal/mol)=     1262.     1168.      3.61      3.34
 Nber of molecules processed=           2
