 Enter ifcurve (0=recti, 1=orth curvi, 2=apprx curvi, -1 = skip
 And atom ordering flag, 0= never changes, 1= use the first order thenceforth,
  2= deduce it (does read on fail), 3= always read it
 Reading file: 
 ./TT-BT_2_C0S0.log                                                             
                                          
  Entering Gaussian System, Link 0=g16                                          
  
 Gaussian format, type: g94, g98, g03= F F F
  #P Geom=AllCheck Guess=TCheck SCRF=Check GenChk RB3LYP/6-311G(d,p) Fre    
 energy type= B3LYP   
 Original G94 input coords:
  6  0.964342  0.140021  0.009031
  6 -0.248385  0.151245  0.009310
  6 -1.653320  0.204602  0.009651
  7 -2.445549 -0.826573  0.009607
  6 -3.767031 -0.440493  0.009996
  6 -4.860006 -1.319932  0.010057
  6 -6.143398 -0.799464  0.010469
  6 -6.358694  0.588745  0.010822
  6 -5.293110  1.479654  0.010768
  6 -3.999564  0.956991  0.010354
 16 -2.467405  1.798592  0.010180
  6  2.362788  0.117994  0.008750
  6  3.190296 -0.986407  0.008339
  6  4.553747 -0.617912  0.008151
 16  6.063774 -1.491650  0.007657
  6  6.954485  0.011849  0.007816
  6  6.155333  1.118087  0.008221
  6  4.780178  0.756294  0.008413
 16  3.280936  1.637229  0.008907
  1 -4.675251 -2.386986  0.009782
  1 -6.994802 -1.469970  0.010520
  1 -7.372115  0.973042  0.011141
  1 -5.465437  2.548978  0.011041
  1  2.809110 -1.997408  0.008189
  1  8.033193 -0.020817  0.007594
  1  6.533577  2.130528  0.008372
 nber atoms=          26
  SCF Done:  E(RB3LYP) =  -1825.28797345     A.U. after    1 cycles             
  
          23          40 "  -1825.28797345"
After scan for Atom:   Atom  AN      X      Y      Z        X      Y      Z        X      Y      Z   
After scan for Atom:   Atom  AN      X      Y      Z        X      Y      Z        X      Y      Z   
After scan for Atom:   Atom  AN      X      Y      Z        X      Y      Z        X      Y      Z   
After scan for Atom:   Atom  AN      X      Y      Z        X      Y      Z        X      Y      Z   
After scan for Atom:   Atom  AN      X      Y      Z        X      Y      Z        X      Y      Z   
After scan for Atom:   Atom  AN      X      Y      Z        X      Y      Z        X      Y      Z   
After scan for Atom:   Atom  AN      X      Y      Z        X      Y      Z        X      Y      Z   
After scan for Atom:   Atom  AN      X      Y      Z        X      Y      Z        X      Y      Z   
After scan for Atom:   Atom  AN      X      Y      Z        X      Y      Z        X      Y      Z   
After scan for Atom:   Atom  AN      X      Y      Z        X      Y      Z        X      Y      Z   
After scan for Atom:   Atom  AN      X      Y      Z        X      Y      Z        X      Y      Z   
After scan for Atom:   Atom  AN      X      Y      Z        X      Y      Z        X      Y      Z   
After scan for Atom:   Atom  AN      X      Y      Z        X      Y      Z        X      Y      Z   
After scan for Atom:   Atom  AN      X      Y      Z        X      Y      Z        X      Y      Z   
After scan for Atom:   Atom  AN      X      Y      Z        X      Y      Z        X      Y      Z   
After scan for Atom:   Atom  AN      X      Y      Z        X      Y      Z        X      Y      Z   
After scan for Atom:   Atom  AN      X      Y      Z        X      Y      Z        X      Y      Z   
After scan for Atom:   Atom  AN      X      Y      Z        X      Y      Z        X      Y      Z   
After scan for Atom:   Atom  AN      X      Y      Z        X      Y      Z        X      Y      Z   
After scan for Atom:   Atom  AN      X      Y      Z        X      Y      Z        X      Y      Z   
After scan for Atom:   Atom  AN      X      Y      Z        X      Y      Z        X      Y      Z   
After scan for Atom:   Atom  AN      X      Y      Z        X      Y      Z        X      Y      Z   
After scan for Atom:   Atom  AN      X      Y      Z        X      Y      Z        X      Y      Z   
After scan for Atom:   Atom  AN      X      Y      Z        X      Y      Z        X      Y      Z   
 g94    frequencies=
     0.0    0.0    0.0    0.0    0.0    0.0   18.6   27.3   28.5   81.2
   109.8  172.3  189.6  193.0  203.0  247.0  315.9  338.3  358.4  421.9
   434.3  444.8  456.0  471.9  496.1  509.5  536.0  546.3  547.4  603.1
   605.1  624.6  642.0  674.6  710.5  711.3  716.5  738.3  764.3  775.3
   831.2  844.2  868.6  880.8  885.5  919.9  955.3  993.1 1032.0 1043.9
  1086.8 1113.4 1144.3 1177.6 1185.0 1208.0 1236.5 1271.5 1311.6 1342.9
  1363.4 1382.2 1451.5 1457.7 1487.4 1491.4 1518.6 1571.3 1592.7 1636.0
  2281.4 3169.5 3181.5 3192.2 3199.9 3215.6 3225.0 3244.8
 g94    symmetries=
                                                 A      A      A      A
       A      A      A      A      A      A      A      A      A      A
       A      A      A      A      A      A      A      A      A      A
       A      A      A      A      A      A      A      A      A      A
       A      A      A      A      A      A      A      A      A      A
       A      A      A      A      A      A      A      A      A      A
       A      A      A      A      A      A      A      A      A      A
       A      A      A      A      A      A      A      A
 atomic masses:
 12.0000 12.0000 12.0000 14.0031 12.0000 12.0000 12.0000 12.0000 12.0000 12.0000
 31.9721 12.0000 12.0000 12.0000 31.9721 12.0000 12.0000 12.0000 31.9721  1.0078
  1.0078  1.0078  1.0078  1.0078  1.0078  1.0078
 looking for force constants in 
 ./TT-BT_2_C0S0.fchk                                                            
  
 Cartesian Force Constants                  R   N=        3081                  
  
 n3=          78        3081
 g94-fc frequencies=
    -0.0    0.0    0.0    0.9    1.1    4.6   18.7   27.3   28.5   81.2
   109.8  172.3  189.6  193.1  203.0  247.0  316.0  338.3  358.4  421.9
   434.3  444.8  456.0  471.9  496.1  509.5  536.0  546.3  547.4  603.1
   605.1  624.6  642.0  674.6  710.6  711.3  716.5  738.3  764.4  775.4
   831.2  844.3  868.6  880.8  885.5  919.9  955.3  993.2 1032.0 1043.9
  1086.9 1113.5 1144.3 1177.6 1185.1 1208.0 1236.5 1271.5 1311.6 1343.0
  1363.4 1382.2 1451.5 1457.7 1487.4 1491.5 1518.7 1571.3 1592.7 1636.0
  2281.4 3169.6 3181.6 3192.3 3200.0 3215.7 3225.1 3244.9
 at 99999: n3=          78
 symm operator            1 :  F  nop=           0
 symm operator            2 :  F  nop=           0
 symm operator            3 :  F  nop=           0
 symm operator            4 :  F  nop=           0
 symm operator            5 :  F  nop=           0
 symm operator            6 :  F  nop=           0
 symm operator            7 :  F  nop=           0
 The point group of the molecule is  C1
 Symmetry rotation matrix:
   1.00000   0.00000   0.00000
   0.00000   1.00000   0.00000
   0.00000   0.00000   1.00000

 Projecting out zero-frequency components
 generating redundant internal coords
         300        3600          26
 search for int coords
   1 str   2   1   1.213
   2 str   3   2   1.406
   3 str   4   3   1.300
   4 str   5   4   1.377
   5 str   6   5   1.403
   6 str   7   6   1.385
   7 str   8   7   1.405
   8 str   9   8   1.389
   9 str  10   5   1.417
  10 str  10   9   1.395
  11 str  11   3   1.790
  12 str  11  10   1.748
  13 str  12   1   1.399
  14 str  13  12   1.380
  15 str  14  13   1.412
  16 str  15  14   1.745
  17 str  16  15   1.748
  18 str  17  16   1.365
  19 str  18  14   1.393
  20 str  18  17   1.422
  21 str  19  12   1.775
  22 str  19  18   1.739
  23 str  20   6   1.083
  24 str  21   7   1.084
  25 str  22   8   1.084
  26 str  23   9   1.083
  27 str  24  13   1.080
  28 str  25  16   1.079
  29 str  26  17   1.081
 nber stretches=          29
  30 lin ben   1   2   3
  32 ben   1  12  13
  33 prop tor   1  12  13  14
  34 prop tor   1  12  13  24
  35 ben   1  12  19
  36 prop tor   1  12  19  18
 Extend lin bond           1          12           2           3
  37 lin ben   2   1  12
  39 ben   2   3   4
  40 prop tor   2   3   4   5
  41 ben   2   3  11
  42 prop tor   2   3  11  10
  43 ben   3   4   5
  44 prop tor   3   4   5   6
  45 prop tor   3   4   5  10
  46 ben   3  11  10
  47 ben   4   3  11
  48 prop tor   4   3  11  10
  49 ben   4   5   6
  50 prop tor   4   5   6   7
  51 prop tor   4   5   6  20
  52 ben   4   5  10
  53 prop tor   4   5  10   9
  54 prop tor   4   5  10  11
  55 ben   5   6   7
  56 prop tor   5   6   7   8
  57 prop tor   5   6   7  21
  58 ben   5   6  20
  59 ben   5  10   9
  60 ben   5  10  11
  61 prop tor   5  10  11   3
  62 ben   6   5  10
  63 prop tor   6   5  10   9
  64 prop tor   6   5  10  11
  65 ben   6   7   8
  66 prop tor   6   7   8   9
  67 prop tor   6   7   8  22
  68 ben   6   7  21
  69 ben   7   6  20
  70 ben   7   8   9
  71 prop tor   7   8   9  10
  72 prop tor   7   8   9  23
  73 ben   7   8  22
  74 ben   8   7  21
  75 ben   8   9  10
  76 prop tor   8   9  10   5
  77 prop tor   8   9  10  11
  78 ben   8   9  23
  79 ben   9   8  22
  80 ben   9  10  11
  81 prop tor   9  10  11   3
  82 prop tor  10   5   6   7
  83 prop tor  10   5   6  20
  84 ben  10   9  23
  85 prop tor  11   3   4   5
  86 ben  12  13  14
  87 prop tor  12  13  14  15
  88 prop tor  12  13  14  18
  89 ben  12  13  24
  90 ben  12  19  18
  91 ben  13  12  19
  92 prop tor  13  12  19  18
  93 ben  13  14  15
  94 prop tor  13  14  15  16
  95 ben  13  14  18
  96 prop tor  13  14  18  17
  97 prop tor  13  14  18  19
  98 ben  14  13  24
  99 ben  14  15  16
 100 prop tor  14  15  16  17
 101 prop tor  14  15  16  25
 102 ben  14  18  17
 103 ben  14  18  19
 104 prop tor  14  18  19  12
 105 ben  15  14  18
 106 prop tor  15  14  18  17
 107 prop tor  15  14  18  19
 108 ben  15  16  17
 109 prop tor  15  16  17  18
 110 prop tor  15  16  17  26
 111 ben  15  16  25
 112 ben  16  17  18
 113 prop tor  16  17  18  14
 114 prop tor  16  17  18  19
 115 ben  16  17  26
 116 ben  17  16  25
 117 ben  17  18  19
 118 prop tor  17  18  19  12
 119 prop tor  18  14  15  16
 120 ben  18  17  26
 121 prop tor  19  12  13  14
 122 prop tor  19  12  13  24
 123 prop tor  20   6   7   8
 124 prop tor  20   6   7  21
 125 prop tor  21   7   8   9
 126 prop tor  21   7   8  22
 127 prop tor  22   8   9  10
 128 prop tor  22   8   9  23
 129 prop tor  23   9  10   5
 130 prop tor  23   9  10  11
 131 prop tor  24  13  14  15
 132 prop tor  24  13  14  18
 133 prop tor  25  16  17  18
 134 prop tor  25  16  17  26
 135 prop tor  26  17  18  14
 136 prop tor  26  17  18  19
 137 lin bend prop tor   1  12   3   2
 138 lin bend prop tor   1  12   3   4
 139 lin bend prop tor   1  12   3  11
 140 lin bend prop tor  13  12   3   2
 141 lin bend prop tor  13  12   3   4
 142 lin bend prop tor  13  12   3  11
 143 lin bend prop tor  19  12   3   2
 144 lin bend prop tor  19  12   3   4
 145 lin bend prop tor  19  12   3  11
 nber bend=              47
 nber lin bend=           1
 nber prop tor=          69
 nber impr tor=           0
 nber tot redund int=         145
 Eigenvalues of G in red int coords
    Gval -0.00000000 -0.00000000 -0.00000000 -0.00000000 -0.00000000 -0.00000000 -0.00000000 -0.00000000
    Gval -0.00000000 -0.00000000 -0.00000000 -0.00000000 -0.00000000 -0.00000000 -0.00000000 -0.00000000
    Gval -0.00000000 -0.00000000 -0.00000000 -0.00000000 -0.00000000 -0.00000000 -0.00000000 -0.00000000
    Gval -0.00000000 -0.00000000 -0.00000000 -0.00000000 -0.00000000 -0.00000000 -0.00000000 -0.00000000
    Gval -0.00000000  0.00000000  0.00000000  0.00000000  0.00000000  0.00000000  0.00000000  0.00000000
    Gval  0.00000000  0.00000000  0.00000000  0.00000000  0.00000000  0.00000000  0.00000000  0.00000000
    Gval  0.00000000  0.00000000  0.00000000  0.00000000  0.00000000  0.00000000  0.00000000  0.00000000
    Gval  0.00000000  0.00000000  0.00000000  0.00000000  0.00000000  0.00000000  0.00000000  0.00000000
    Gval  0.00000000  0.00000000  0.00000000  0.00000000  0.00000000  0.00000000  0.00000000  0.00000000
    Gval  0.00000000  0.00000051  0.00000190  0.00000485  0.00000614  0.00001588  0.00001670  0.00001979
    Gval  0.00002211  0.00002701  0.00002929  0.00003318  0.00003534  0.00004149  0.00004675  0.00005028
    Gval  0.00005209  0.00006106  0.00006202  0.00007746  0.00008620  0.00009266  0.00010542  0.00010932
    Gval  0.00012028  0.00012421  0.00013025  0.00014694  0.00015621  0.00015723  0.00019599  0.00020749
    Gval  0.00021297  0.00022501  0.00026815  0.00030006  0.00030429  0.00031509  0.00032844  0.00036838
    Gval  0.00039285  0.00039999  0.00043942  0.00045033  0.00059315  0.00059660  0.00059750  0.00061829
    Gval  0.00062190  0.00062710  0.00062722  0.00065502  0.00065683  0.00076769  0.00091587  0.00105448
    Gval  0.00108136  0.00112255  0.00114504  0.00116349  0.00117174  0.00118663  0.00129046  0.00163231
    Gval  0.00180041  0.00207895  0.00269954  0.00350428  0.00357039  0.00396911  0.00402184  0.34129132
    Gval  3.04431794
  5.112050938039579E-007  5.112050938039579E-007
  1.898105946257579E-006  5.112050938039579E-007
  4.853498920461074E-006  5.112050938039579E-007
  6.135431626360550E-006  5.112050938039579E-007
  1.587895627192472E-005  5.112050938039579E-007
  1.669603744051336E-005  5.112050938039579E-007
  1.979374352477462E-005  5.112050938039579E-007
  2.210848105921759E-005  5.112050938039579E-007
  2.700809183936986E-005  5.112050938039579E-007
  2.928574459110341E-005  5.112050938039579E-007
  3.317957923640722E-005  5.112050938039579E-007
  3.534310863278875E-005  5.112050938039579E-007
  4.149288731830414E-005  5.112050938039579E-007
  4.675303905546019E-005  5.112050938039579E-007
  5.028283999485560E-005  5.112050938039579E-007
  5.209001016190167E-005  5.112050938039579E-007
  6.105999970864715E-005  5.112050938039579E-007
  6.202103745354692E-005  5.112050938039579E-007
  7.745792752354771E-005  5.112050938039579E-007
  8.619881257459182E-005  5.112050938039579E-007
  9.265528943307188E-005  5.112050938039579E-007
  1.054176799709957E-004  5.112050938039579E-007
  1.093210548799211E-004  5.112050938039579E-007
  1.202765095513256E-004  5.112050938039579E-007
  1.242130836393498E-004  5.112050938039579E-007
  1.302460877071014E-004  5.112050938039579E-007
  1.469401914769117E-004  5.112050938039579E-007
  1.562140567029466E-004  5.112050938039579E-007
  1.572309940050623E-004  5.112050938039579E-007
  1.959946306189152E-004  5.112050938039579E-007
  2.074854420763423E-004  5.112050938039579E-007
  2.129720690331732E-004  5.112050938039579E-007
  2.250127844403681E-004  5.112050938039579E-007
  2.681545238220258E-004  5.112050938039579E-007
  3.000596779641900E-004  5.112050938039579E-007
  3.042922092444320E-004  5.112050938039579E-007
  3.150909996156119E-004  5.112050938039579E-007
  3.284382840519028E-004  5.112050938039579E-007
  3.683753930773042E-004  5.112050938039579E-007
  3.928485939233416E-004  5.112050938039579E-007
  3.999863685562282E-004  5.112050938039579E-007
  4.394248401213294E-004  5.112050938039579E-007
  4.503317400327605E-004  5.112050938039579E-007
  5.931525709644942E-004  5.112050938039579E-007
  5.965992259655125E-004  5.112050938039579E-007
  5.975039045610125E-004  5.112050938039579E-007
  6.182936289762104E-004  5.112050938039579E-007
  6.218992632387909E-004  5.112050938039579E-007
  6.270967264669098E-004  5.112050938039579E-007
  6.272157625767518E-004  5.112050938039579E-007
  6.550235409568097E-004  5.112050938039579E-007
  6.568253304523853E-004  5.112050938039579E-007
  7.676919865918473E-004  5.112050938039579E-007
  9.158682048543936E-004  5.112050938039579E-007
  1.054477546924975E-003  5.112050938039579E-007
  1.081358662075510E-003  5.112050938039579E-007
  1.122553709630813E-003  5.112050938039579E-007
  1.145040458105450E-003  5.112050938039579E-007
  1.163485300244665E-003  5.112050938039579E-007
  1.171741152113519E-003  5.112050938039579E-007
  1.186631143460191E-003  5.112050938039579E-007
  1.290456123939541E-003  5.112050938039579E-007
  1.632306874640781E-003  5.112050938039579E-007
  1.800408647889185E-003  5.112050938039579E-007
  2.078952507951837E-003  5.112050938039579E-007
  2.699541611522746E-003  5.112050938039579E-007
  3.504279824859014E-003  5.112050938039579E-007
  3.570392787866175E-003  5.112050938039579E-007
  3.969105319695541E-003  5.112050938039579E-007
  4.021836182718694E-003  5.112050938039579E-007
  0.341291323648535       5.112050938039579E-007
   3.04431794345129       5.112050938039579E-007
 cut=1d-8, nber non-redundant internal coords=          72
 Check on Eigenvals of non-red overlap matrix:
  0.00000051  0.00000190  0.00000485  0.00000614  0.00001588  0.00001670  0.00001979  0.00002211
  0.00002701  0.00002929  0.00003318  0.00003534  0.00004149  0.00004675  0.00005028  0.00005209
  0.00006106  0.00006202  0.00007746  0.00008620  0.00009266  0.00010542  0.00010932  0.00012028
  0.00012421  0.00013025  0.00014694  0.00015621  0.00015723  0.00019599  0.00020749  0.00021297
  0.00022501  0.00026815  0.00030006  0.00030429  0.00031509  0.00032844  0.00036838  0.00039285
  0.00039999  0.00043942  0.00045033  0.00059315  0.00059660  0.00059750  0.00061829  0.00062190
  0.00062710  0.00062722  0.00065502  0.00065683  0.00076769  0.00091587  0.00105448  0.00108136
  0.00112255  0.00114504  0.00116349  0.00117174  0.00118663  0.00129046  0.00163231  0.00180041
  0.00207895  0.00269954  0.00350428  0.00357039  0.00396911  0.00402184  0.34129132  3.04431794
 Checking for correct frequencies
 recalc frequencies=
    -0.0   -0.0   -0.0   -0.0    0.0    0.0   18.6   27.3   28.5   81.2
   109.8  172.3  189.6  193.1  203.0  247.0  316.0  338.3  358.4  421.9
   434.3  444.8  456.0  471.9  496.1  509.5  536.0  546.3  547.4  603.1
   605.1  624.6  642.0  674.6  710.6  711.3  716.5  738.3  764.4  775.4
   831.2  844.3  868.6  880.8  885.5  919.9  955.3  993.2 1032.0 1043.9
  1086.9 1113.5 1144.3 1177.6 1185.1 1208.0 1236.5 1271.5 1311.6 1343.0
  1363.4 1382.2 1451.5 1457.7 1487.4 1491.5 1518.7 1571.3 1592.7 1636.0
  2281.4 3169.6 3181.6 3192.3 3200.0 3215.7 3225.1 3244.9
 recalc symmetries=
                                                                       
                                                                       
                                                                       
                                                                       
                                                                       
                                                                       
                                                                       
                                                         
 recalc freqs check OK
 Zero-point lengths:
 10.0000 10.0000 10.0000 10.0000 10.0000 10.0000 57.4083 47.4758 46.4669 27.5139
 23.6570 18.8859 18.0049 17.8425 17.3993 15.7755 13.9471 13.4783 13.0958 12.0698
 11.8957 11.7549 11.6094 11.4121 11.1306 10.9834 10.7077 10.6070 10.5959 10.0949
 10.0783  9.9199  9.7844  9.5447  9.3002  9.2951  9.2614  9.1237  8.9670  8.9032
  8.5989  8.5321  8.4116  8.3534  8.3311  8.1738  8.0208  7.8665  7.7171  7.6730
  7.5199  7.4295  7.3287  7.2244  7.2016  7.1327  7.0501  6.9523  6.8454  6.7650
  6.7141  6.6682  6.5071  6.4931  6.4280  6.4193  6.3616  6.2541  6.2120  6.1292
  5.1903  4.4034  4.3951  4.3878  4.3825  4.3718  4.3654  4.3521
 highest evec of mol 1
  0.0001  0.0001  0.0000
 -0.0001  0.0000  0.0000
  0.0000 -0.0000 -0.0000
  0.0000  0.0000 -0.0000
 -0.0000  0.0000  0.0000
  0.0000  0.0001  0.0000
  0.0000  0.0001  0.0000
  0.0000 -0.0000 -0.0000
  0.0000 -0.0001 -0.0000
 -0.0000 -0.0000  0.0000
  0.0000  0.0000 -0.0000
  0.0002 -0.0003 -0.0000
  0.0014  0.0037  0.0000
 -0.0037 -0.0003  0.0000
 -0.0008 -0.0022 -0.0000
  0.2808 -0.0233 -0.0001
  0.0224  0.1001  0.0000
 -0.0073 -0.0024  0.0000
  0.0004 -0.0001 -0.0000
  0.0000 -0.0002 -0.0000
 -0.0002 -0.0001  0.0000
 -0.0001  0.0000  0.0000
 -0.0000  0.0002  0.0000
 -0.0041 -0.0108 -0.0000
 -0.9070  0.0312  0.0002
 -0.1005 -0.2760 -0.0000
 generating redundant internal coords
         300        3600          26
 Adding extra bonds for z output only
           6           6           6           7           6           6
           6           6           6           6          16           6
           6           6          16           6           6           6
          16           1           1           1           1           1
           1           1
 search for int coords
   1 str   2   1   1.213
   2 str   3   2   1.406
   3 str   4   3   1.300
   4 str   5   4   1.377
   5 str   6   5   1.403
   6 str   7   6   1.385
   7 str   8   7   1.405
   8 str   9   8   1.389
   9 str  10   5   1.417
  10 str  10   9   1.395
  11 str  11   3   1.790
  12 str  11  10   1.748
  13 str  12   1   1.399
  14 str  13  12   1.380
  15 str  14  13   1.412
  16 str  15  14   1.745
  17 str  16  15   1.748
  18 str  17  16   1.365
  19 str  18  14   1.393
  20 str  18  17   1.422
  21 str  19  12   1.775
  22 str  19  18   1.739
  23 str  20   6   1.083
  24 str  21   7   1.084
  25 str  22   8   1.084
  26 str  23   9   1.083
  27 str  24  13   1.080
  28 str  25  16   1.079
  29 str  26  17   1.081
 nber stretches=          29
  30 lin ben   1   2   3
  32 ben   1  12  13
  33 prop tor   1  12  13  14
  34 prop tor   1  12  13  24
  35 ben   1  12  19
  36 prop tor   1  12  19  18
 Extend lin bond           1          12           2           3
  37 lin ben   2   1  12
  39 ben   2   3   4
  40 prop tor   2   3   4   5
  41 ben   2   3  11
  42 prop tor   2   3  11  10
  43 ben   3   4   5
  44 prop tor   3   4   5   6
  45 prop tor   3   4   5  10
  46 ben   3  11  10
  47 ben   4   3  11
  48 prop tor   4   3  11  10
  49 ben   4   5   6
  50 prop tor   4   5   6   7
  51 prop tor   4   5   6  20
  52 ben   4   5  10
  53 prop tor   4   5  10   9
  54 prop tor   4   5  10  11
  55 ben   5   6   7
  56 prop tor   5   6   7   8
  57 prop tor   5   6   7  21
  58 ben   5   6  20
  59 ben   5  10   9
  60 ben   5  10  11
  61 prop tor   5  10  11   3
  62 ben   6   5  10
  63 prop tor   6   5  10   9
  64 prop tor   6   5  10  11
  65 ben   6   7   8
  66 prop tor   6   7   8   9
  67 prop tor   6   7   8  22
  68 ben   6   7  21
  69 ben   7   6  20
  70 ben   7   8   9
  71 prop tor   7   8   9  10
  72 prop tor   7   8   9  23
  73 ben   7   8  22
  74 ben   8   7  21
  75 ben   8   9  10
  76 prop tor   8   9  10   5
  77 prop tor   8   9  10  11
  78 ben   8   9  23
  79 ben   9   8  22
  80 ben   9  10  11
  81 prop tor   9  10  11   3
  82 prop tor  10   5   6   7
  83 prop tor  10   5   6  20
  84 ben  10   9  23
  85 prop tor  11   3   4   5
  86 ben  12  13  14
  87 prop tor  12  13  14  15
  88 prop tor  12  13  14  18
  89 ben  12  13  24
  90 ben  12  19  18
  91 ben  13  12  19
  92 prop tor  13  12  19  18
  93 ben  13  14  15
  94 prop tor  13  14  15  16
  95 ben  13  14  18
  96 prop tor  13  14  18  17
  97 prop tor  13  14  18  19
  98 ben  14  13  24
  99 ben  14  15  16
 100 prop tor  14  15  16  17
 101 prop tor  14  15  16  25
 102 ben  14  18  17
 103 ben  14  18  19
 104 prop tor  14  18  19  12
 105 ben  15  14  18
 106 prop tor  15  14  18  17
 107 prop tor  15  14  18  19
 108 ben  15  16  17
 109 prop tor  15  16  17  18
 110 prop tor  15  16  17  26
 111 ben  15  16  25
 112 ben  16  17  18
 113 prop tor  16  17  18  14
 114 prop tor  16  17  18  19
 115 ben  16  17  26
 116 ben  17  16  25
 117 ben  17  18  19
 118 prop tor  17  18  19  12
 119 prop tor  18  14  15  16
 120 ben  18  17  26
 121 prop tor  19  12  13  14
 122 prop tor  19  12  13  24
 123 prop tor  20   6   7   8
 124 prop tor  20   6   7  21
 125 prop tor  21   7   8   9
 126 prop tor  21   7   8  22
 127 prop tor  22   8   9  10
 128 prop tor  22   8   9  23
 129 prop tor  23   9  10   5
 130 prop tor  23   9  10  11
 131 prop tor  24  13  14  15
 132 prop tor  24  13  14  18
 133 prop tor  25  16  17  18
 134 prop tor  25  16  17  26
 135 prop tor  26  17  18  14
 136 prop tor  26  17  18  19
 137 lin bend prop tor   1  12   3   2
 138 lin bend prop tor   1  12   3   4
 139 lin bend prop tor   1  12   3  11
 140 lin bend prop tor  13  12   3   2
 141 lin bend prop tor  13  12   3   4
 142 lin bend prop tor  13  12   3  11
 143 lin bend prop tor  19  12   3   2
 144 lin bend prop tor  19  12   3   4
 145 lin bend prop tor  19  12   3  11
 nber bend=              47
 nber lin bend=           1
 nber prop tor=          69
 nber impr tor=           0
 nber tot redund int=         145
 Reading file: 
 ./TT-BT_2_C0S1.log                                                             
                                          
  Entering Gaussian System, Link 0=g16                                          
  
 Gaussian format, type: g94, g98, g03= F F F
  #P Geom=AllCheck Guess=TCheck SCRF=Check GenChk RB3LYP TD(FC,Read)/6-3    
 energy type= TD      
 Original G94 input coords:
  6  0.977997  0.149360  0.009250
  6 -0.262164  0.152244  0.009493
  6 -1.629832  0.199301  0.009751
  7 -2.457786 -0.847117  0.009682
  6 -3.748658 -0.454202  0.010012
  6 -4.861999 -1.329773  0.010029
  6 -6.136596 -0.802824  0.010388
  6 -6.350985  0.592667  0.010739
  6 -5.280336  1.482219  0.010732
  6 -3.989173  0.963907  0.010371
 16 -2.467757  1.815775  0.010273
  6  2.339109  0.132506  0.008895
  6  3.201094 -0.998512  0.008395
  6  4.536615 -0.624127  0.008146
 16  6.059189 -1.502944  0.007540
  6  6.946403  0.004731  0.007683
  6  6.137341  1.118719  0.008164
  6  4.774772  0.769977  0.008427
 16  3.276671  1.671155  0.009028
  1 -4.681886 -2.397472  0.009758
  1 -6.992416 -1.468202  0.010403
  1 -7.363926  0.978036  0.011018
  1 -5.452320  2.551748  0.011003
  1  2.816767 -2.007743  0.008247
  1  8.025399 -0.022319  0.007400
  1  6.522167  2.129130  0.008314
 nber atoms=          26
  Total Energy, E(TD-HF/TD-DFT) =  -1825.17279014                               
  
          32          49 "  -1825.17279014"
After scan for Atom:   Atom  AN      X      Y      Z        X      Y      Z        X      Y      Z   
After scan for Atom:   Atom  AN      X      Y      Z        X      Y      Z        X      Y      Z   
After scan for Atom:   Atom  AN      X      Y      Z        X      Y      Z        X      Y      Z   
After scan for Atom:   Atom  AN      X      Y      Z        X      Y      Z        X      Y      Z   
After scan for Atom:   Atom  AN      X      Y      Z        X      Y      Z        X      Y      Z   
After scan for Atom:   Atom  AN      X      Y      Z        X      Y      Z        X      Y      Z   
After scan for Atom:   Atom  AN      X      Y      Z        X      Y      Z        X      Y      Z   
After scan for Atom:   Atom  AN      X      Y      Z        X      Y      Z        X      Y      Z   
After scan for Atom:   Atom  AN      X      Y      Z        X      Y      Z        X      Y      Z   
After scan for Atom:   Atom  AN      X      Y      Z        X      Y      Z        X      Y      Z   
After scan for Atom:   Atom  AN      X      Y      Z        X      Y      Z        X      Y      Z   
After scan for Atom:   Atom  AN      X      Y      Z        X      Y      Z        X      Y      Z   
After scan for Atom:   Atom  AN      X      Y      Z        X      Y      Z        X      Y      Z   
After scan for Atom:   Atom  AN      X      Y      Z        X      Y      Z        X      Y      Z   
After scan for Atom:   Atom  AN      X      Y      Z        X      Y      Z        X      Y      Z   
After scan for Atom:   Atom  AN      X      Y      Z        X      Y      Z        X      Y      Z   
After scan for Atom:   Atom  AN      X      Y      Z        X      Y      Z        X      Y      Z   
After scan for Atom:   Atom  AN      X      Y      Z        X      Y      Z        X      Y      Z   
After scan for Atom:   Atom  AN      X      Y      Z        X      Y      Z        X      Y      Z   
After scan for Atom:   Atom  AN      X      Y      Z        X      Y      Z        X      Y      Z   
After scan for Atom:   Atom  AN      X      Y      Z        X      Y      Z        X      Y      Z   
After scan for Atom:   Atom  AN      X      Y      Z        X      Y      Z        X      Y      Z   
After scan for Atom:   Atom  AN      X      Y      Z        X      Y      Z        X      Y      Z   
After scan for Atom:   Atom  AN      X      Y      Z        X      Y      Z        X      Y      Z   
 g94    frequencies=
     0.0    0.0    0.0    0.0    0.0    0.0   25.6   25.8   30.6   70.0
   106.3  133.8  182.1  189.5  191.1  232.3  274.7  316.8  355.6  372.7
   425.6  435.3  436.4  441.4  480.7  491.1  498.4  509.4  514.5  555.1
   597.7  610.2  627.1  634.3  671.8  673.3  703.1  723.6  747.8  765.3
   769.8  814.5  853.4  865.6  877.0  902.0  938.6  981.9  997.3 1028.2
  1075.6 1097.6 1132.3 1144.8 1160.4 1181.4 1219.1 1269.6 1311.9 1345.2
  1358.1 1375.4 1416.0 1445.4 1448.9 1469.8 1484.1 1533.4 1560.1 1606.5
  2130.8 3168.9 3179.7 3191.6 3200.1 3211.8 3229.4 3243.1
 g94    symmetries=
                                                 A      A      A      A
       A      A      A      A      A      A      A      A      A      A
       A      A      A      A      A      A      A      A      A      A
       A      A      A      A      A      A      A      A      A      A
       A      A      A      A      A      A      A      A      A      A
       A      A      A      A      A      A      A      A      A      A
       A      A      A      A      A      A      A      A      A      A
       A      A      A      A      A      A      A      A
 atomic masses:
 12.0000 12.0000 12.0000 14.0031 12.0000 12.0000 12.0000 12.0000 12.0000 12.0000
 31.9721 12.0000 12.0000 12.0000 31.9721 12.0000 12.0000 12.0000 31.9721  1.0078
  1.0078  1.0078  1.0078  1.0078  1.0078  1.0078
 looking for force constants in 
 ./TT-BT_2_C0S1.fchk                                                            
  
 Cartesian Force Constants                  R   N=        3081                  
  
 n3=          78        3081
 g94-fc frequencies=
    -0.0    0.0    0.0    0.6    1.5    3.8   25.6   25.8   30.6   70.0
   106.3  133.8  182.1  189.5  191.1  232.3  274.7  316.8  355.7  372.7
   425.7  435.3  436.4  441.4  480.7  491.1  498.4  509.5  514.6  555.1
   597.7  610.2  627.1  634.3  671.8  673.3  703.1  723.6  747.8  765.3
   769.8  814.5  853.4  865.6  877.0  902.0  938.6  981.9  997.4 1028.2
  1075.6 1097.6 1132.3 1144.8 1160.4 1181.4 1219.1 1269.6 1311.9 1345.2
  1358.1 1375.4 1416.1 1445.4 1448.9 1469.8 1484.2 1533.5 1560.1 1606.6
  2130.9 3168.9 3179.7 3191.7 3200.1 3211.9 3229.5 3243.1
 at 99999: n3=          78
 symm operator            1 :  F  nop=           0
 symm operator            2 :  F  nop=           0
 symm operator            3 :  F  nop=           0
 symm operator            4 :  F  nop=           0
 symm operator            5 :  F  nop=           0
 symm operator            6 :  F  nop=           0
 symm operator            7 :  F  nop=           0
 The point group of the molecule is  C1
 Symmetry rotation matrix:
   1.00000   0.00000   0.00000
   0.00000   1.00000   0.00000
   0.00000   0.00000   1.00000

 Projecting out zero-frequency components
 generating redundant internal coords
         300        3600          26
 search for int coords
   1 str   2   1   1.240
   2 str   3   2   1.368
   3 str   4   3   1.334
   4 str   5   4   1.349
   5 str   6   5   1.416
   6 str   7   6   1.379
   7 str   8   7   1.412
   8 str   9   8   1.392
   9 str  10   5   1.438
  10 str  10   9   1.391
  11 str  11   3   1.821
  12 str  11  10   1.744
  13 str  12   1   1.361
  14 str  13  12   1.422
  15 str  14  13   1.387
  16 str  15  14   1.758
  17 str  16  15   1.749
  18 str  17  16   1.377
  19 str  18  14   1.414
  20 str  18  17   1.406
  21 str  19  12   1.802
  22 str  19  18   1.748
  23 str  20   6   1.083
  24 str  21   7   1.084
  25 str  22   8   1.084
  26 str  23   9   1.083
  27 str  24  13   1.080
  28 str  25  16   1.079
  29 str  26  17   1.081
 nber stretches=          29
  30 lin ben   1   2   3
  32 ben   1  12  13
  33 prop tor   1  12  13  14
  34 prop tor   1  12  13  24
  35 ben   1  12  19
  36 prop tor   1  12  19  18
 Extend lin bond           1          12           2           3
  37 lin ben   2   1  12
  39 ben   2   3   4
  40 prop tor   2   3   4   5
  41 ben   2   3  11
  42 prop tor   2   3  11  10
  43 ben   3   4   5
  44 prop tor   3   4   5   6
  45 prop tor   3   4   5  10
  46 ben   3  11  10
  47 ben   4   3  11
  48 prop tor   4   3  11  10
  49 ben   4   5   6
  50 prop tor   4   5   6   7
  51 prop tor   4   5   6  20
  52 ben   4   5  10
  53 prop tor   4   5  10   9
  54 prop tor   4   5  10  11
  55 ben   5   6   7
  56 prop tor   5   6   7   8
  57 prop tor   5   6   7  21
  58 ben   5   6  20
  59 ben   5  10   9
  60 ben   5  10  11
  61 prop tor   5  10  11   3
  62 ben   6   5  10
  63 prop tor   6   5  10   9
  64 prop tor   6   5  10  11
  65 ben   6   7   8
  66 prop tor   6   7   8   9
  67 prop tor   6   7   8  22
  68 ben   6   7  21
  69 ben   7   6  20
  70 ben   7   8   9
  71 prop tor   7   8   9  10
  72 prop tor   7   8   9  23
  73 ben   7   8  22
  74 ben   8   7  21
  75 ben   8   9  10
  76 prop tor   8   9  10   5
  77 prop tor   8   9  10  11
  78 ben   8   9  23
  79 ben   9   8  22
  80 ben   9  10  11
  81 prop tor   9  10  11   3
  82 prop tor  10   5   6   7
  83 prop tor  10   5   6  20
  84 ben  10   9  23
  85 prop tor  11   3   4   5
  86 ben  12  13  14
  87 prop tor  12  13  14  15
  88 prop tor  12  13  14  18
  89 ben  12  13  24
  90 ben  12  19  18
  91 ben  13  12  19
  92 prop tor  13  12  19  18
  93 ben  13  14  15
  94 prop tor  13  14  15  16
  95 ben  13  14  18
  96 prop tor  13  14  18  17
  97 prop tor  13  14  18  19
  98 ben  14  13  24
  99 ben  14  15  16
 100 prop tor  14  15  16  17
 101 prop tor  14  15  16  25
 102 ben  14  18  17
 103 ben  14  18  19
 104 prop tor  14  18  19  12
 105 ben  15  14  18
 106 prop tor  15  14  18  17
 107 prop tor  15  14  18  19
 108 ben  15  16  17
 109 prop tor  15  16  17  18
 110 prop tor  15  16  17  26
 111 ben  15  16  25
 112 ben  16  17  18
 113 prop tor  16  17  18  14
 114 prop tor  16  17  18  19
 115 ben  16  17  26
 116 ben  17  16  25
 117 ben  17  18  19
 118 prop tor  17  18  19  12
 119 prop tor  18  14  15  16
 120 ben  18  17  26
 121 prop tor  19  12  13  14
 122 prop tor  19  12  13  24
 123 prop tor  20   6   7   8
 124 prop tor  20   6   7  21
 125 prop tor  21   7   8   9
 126 prop tor  21   7   8  22
 127 prop tor  22   8   9  10
 128 prop tor  22   8   9  23
 129 prop tor  23   9  10   5
 130 prop tor  23   9  10  11
 131 prop tor  24  13  14  15
 132 prop tor  24  13  14  18
 133 prop tor  25  16  17  18
 134 prop tor  25  16  17  26
 135 prop tor  26  17  18  14
 136 prop tor  26  17  18  19
 137 lin bend prop tor   1  12   3   2
 138 lin bend prop tor   1  12   3   4
 139 lin bend prop tor   1  12   3  11
 140 lin bend prop tor  13  12   3   2
 141 lin bend prop tor  13  12   3   4
 142 lin bend prop tor  13  12   3  11
 143 lin bend prop tor  19  12   3   2
 144 lin bend prop tor  19  12   3   4
 145 lin bend prop tor  19  12   3  11
 nber bend=              47
 nber lin bend=           1
 nber prop tor=          69
 nber impr tor=           0
 nber tot redund int=         145
 Eigenvalues of G in red int coords
    Gval -0.00000000 -0.00000000 -0.00000000 -0.00000000 -0.00000000 -0.00000000 -0.00000000 -0.00000000
    Gval -0.00000000 -0.00000000 -0.00000000 -0.00000000 -0.00000000 -0.00000000 -0.00000000 -0.00000000
    Gval -0.00000000 -0.00000000 -0.00000000 -0.00000000 -0.00000000 -0.00000000 -0.00000000 -0.00000000
    Gval -0.00000000 -0.00000000 -0.00000000 -0.00000000 -0.00000000 -0.00000000 -0.00000000 -0.00000000
    Gval -0.00000000 -0.00000000 -0.00000000 -0.00000000  0.00000000  0.00000000  0.00000000  0.00000000
    Gval  0.00000000  0.00000000  0.00000000  0.00000000  0.00000000  0.00000000  0.00000000  0.00000000
    Gval  0.00000000  0.00000000  0.00000000  0.00000000  0.00000000  0.00000000  0.00000000  0.00000000
    Gval  0.00000000  0.00000000  0.00000000  0.00000000  0.00000000  0.00000000  0.00000000  0.00000000
    Gval  0.00000000  0.00000000  0.00000000  0.00000000  0.00000000  0.00000000  0.00000000  0.00000000
    Gval  0.00000000  0.00000051  0.00000189  0.00000488  0.00000622  0.00001589  0.00001663  0.00001976
    Gval  0.00002226  0.00002715  0.00002895  0.00003316  0.00003532  0.00004126  0.00004673  0.00005014
    Gval  0.00005206  0.00006126  0.00006176  0.00007749  0.00008620  0.00009315  0.00010500  0.00010883
    Gval  0.00011982  0.00012257  0.00012974  0.00014521  0.00015592  0.00015698  0.00019455  0.00020913
    Gval  0.00021212  0.00022380  0.00026644  0.00029921  0.00030340  0.00031349  0.00032631  0.00036848
    Gval  0.00039021  0.00039805  0.00043650  0.00044264  0.00059314  0.00059657  0.00059745  0.00061828
    Gval  0.00062189  0.00062674  0.00063122  0.00065452  0.00065842  0.00075371  0.00091045  0.00105407
    Gval  0.00108172  0.00112134  0.00114519  0.00116322  0.00117084  0.00118365  0.00128581  0.00161565
    Gval  0.00179715  0.00207792  0.00268978  0.00351346  0.00356389  0.00393774  0.00401319  0.31126704
    Gval  5.57324475
  5.094662784110433E-007  5.094662784110433E-007
  1.890638167648354E-006  5.094662784110433E-007
  4.875572979252224E-006  5.094662784110433E-007
  6.221345089458071E-006  5.094662784110433E-007
  1.588900969105438E-005  5.094662784110433E-007
  1.662531334649208E-005  5.094662784110433E-007
  1.975902427177894E-005  5.094662784110433E-007
  2.225797662925160E-005  5.094662784110433E-007
  2.714666631744526E-005  5.094662784110433E-007
  2.895040992429816E-005  5.094662784110433E-007
  3.316246379853317E-005  5.094662784110433E-007
  3.532021453721842E-005  5.094662784110433E-007
  4.126286625413295E-005  5.094662784110433E-007
  4.672591652389349E-005  5.094662784110433E-007
  5.013889839148982E-005  5.094662784110433E-007
  5.205816717294560E-005  5.094662784110433E-007
  6.125696306885311E-005  5.094662784110433E-007
  6.175667448640333E-005  5.094662784110433E-007
  7.749255189794581E-005  5.094662784110433E-007
  8.620278346316728E-005  5.094662784110433E-007
  9.315136416785871E-005  5.094662784110433E-007
  1.049989633276491E-004  5.094662784110433E-007
  1.088266885802414E-004  5.094662784110433E-007
  1.198226521256727E-004  5.094662784110433E-007
  1.225734364531921E-004  5.094662784110433E-007
  1.297371013626185E-004  5.094662784110433E-007
  1.452145069976415E-004  5.094662784110433E-007
  1.559207049809562E-004  5.094662784110433E-007
  1.569766728850010E-004  5.094662784110433E-007
  1.945515002218232E-004  5.094662784110433E-007
  2.091257850758094E-004  5.094662784110433E-007
  2.121229352093575E-004  5.094662784110433E-007
  2.237977260746827E-004  5.094662784110433E-007
  2.664432553100750E-004  5.094662784110433E-007
  2.992090143169024E-004  5.094662784110433E-007
  3.034009308938640E-004  5.094662784110433E-007
  3.134885823724516E-004  5.094662784110433E-007
  3.263070376867196E-004  5.094662784110433E-007
  3.684771273805472E-004  5.094662784110433E-007
  3.902125877588097E-004  5.094662784110433E-007
  3.980518098166818E-004  5.094662784110433E-007
  4.364965939895191E-004  5.094662784110433E-007
  4.426448609631303E-004  5.094662784110433E-007
  5.931384641140002E-004  5.094662784110433E-007
  5.965683120129961E-004  5.094662784110433E-007
  5.974450895834832E-004  5.094662784110433E-007
  6.182828410412890E-004  5.094662784110433E-007
  6.218877732048048E-004  5.094662784110433E-007
  6.267402336372893E-004  5.094662784110433E-007
  6.312247220780849E-004  5.094662784110433E-007
  6.545249084261686E-004  5.094662784110433E-007
  6.584238992135174E-004  5.094662784110433E-007
  7.537116201500461E-004  5.094662784110433E-007
  9.104470805762977E-004  5.094662784110433E-007
  1.054073182147623E-003  5.094662784110433E-007
  1.081722357369232E-003  5.094662784110433E-007
  1.121342567895672E-003  5.094662784110433E-007
  1.145190449032207E-003  5.094662784110433E-007
  1.163218703006952E-003  5.094662784110433E-007
  1.170843036654707E-003  5.094662784110433E-007
  1.183654008015605E-003  5.094662784110433E-007
  1.285812455049599E-003  5.094662784110433E-007
  1.615654442356591E-003  5.094662784110433E-007
  1.797154417378244E-003  5.094662784110433E-007
  2.077916944467038E-003  5.094662784110433E-007
  2.689784317391734E-003  5.094662784110433E-007
  3.513461922953231E-003  5.094662784110433E-007
  3.563891164171226E-003  5.094662784110433E-007
  3.937739789894585E-003  5.094662784110433E-007
  4.013188208421204E-003  5.094662784110433E-007
  0.311267044638152       5.094662784110433E-007
   5.57324474861131       5.094662784110433E-007
 cut=1d-8, nber non-redundant internal coords=          72
 Check on Eigenvals of non-red overlap matrix:
  0.00000051  0.00000189  0.00000488  0.00000622  0.00001589  0.00001663  0.00001976  0.00002226
  0.00002715  0.00002895  0.00003316  0.00003532  0.00004126  0.00004673  0.00005014  0.00005206
  0.00006126  0.00006176  0.00007749  0.00008620  0.00009315  0.00010500  0.00010883  0.00011982
  0.00012257  0.00012974  0.00014521  0.00015592  0.00015698  0.00019455  0.00020913  0.00021212
  0.00022380  0.00026644  0.00029921  0.00030340  0.00031349  0.00032631  0.00036848  0.00039021
  0.00039805  0.00043650  0.00044264  0.00059314  0.00059657  0.00059745  0.00061828  0.00062189
  0.00062674  0.00063122  0.00065452  0.00065842  0.00075371  0.00091045  0.00105407  0.00108172
  0.00112134  0.00114519  0.00116322  0.00117084  0.00118365  0.00128581  0.00161565  0.00179715
  0.00207792  0.00268978  0.00351346  0.00356389  0.00393774  0.00401319  0.31126704  5.57324475
 Checking for correct frequencies
 recalc frequencies=
    -0.0   -0.0   -0.0    0.0    0.0    0.0   25.6   25.8   30.6   70.0
   106.3  133.8  182.1  189.5  191.1  232.3  274.7  316.8  355.7  372.7
   425.7  435.3  436.4  441.4  480.7  491.1  498.4  509.5  514.6  555.1
   597.7  610.2  627.1  634.3  671.8  673.3  703.1  723.6  747.8  765.3
   769.8  814.5  853.4  865.6  877.0  902.0  938.6  981.9  997.4 1028.2
  1075.6 1097.6 1132.3 1144.8 1160.4 1181.4 1219.1 1269.6 1311.9 1345.2
  1358.1 1375.4 1416.1 1445.4 1448.9 1469.8 1484.2 1533.5 1560.1 1606.6
  2130.9 3168.9 3179.7 3191.7 3200.1 3211.9 3229.5 3243.1
 recalc symmetries=
                                                                       
                                                                       
                                                                       
                                                                       
                                                                       
                                                                       
                                                                       
                                                         
 recalc freqs check OK
 Zero-point lengths:
 10.0000 10.0000 10.0000 10.0000 10.0000 10.0000 49.0103 48.7729 44.8029 29.6238
 24.0437 21.4333 18.3697 18.0093 17.9354 16.2660 14.9585 13.9276 13.1456 12.8416
 12.0162 11.8824 11.8677 11.7996 11.3075 11.1869 11.1049 10.9835 10.9289 10.5219
 10.1404 10.0363  9.8996  9.8433  9.5644  9.5543  9.3496  9.2162  9.0655  8.9615
  8.9353  8.6865  8.4861  8.4261  8.3715  8.2545  8.0920  7.9116  7.8500  7.7314
  7.5590  7.4829  7.3674  7.3269  7.2776  7.2126  7.1003  6.9576  6.8445  6.7593
  6.7271  6.6846  6.5880  6.5208  6.5128  6.4664  6.4351  6.3308  6.2765  6.1851
  5.3705  4.4039  4.3964  4.3882  4.3824  4.3744  4.3625  4.3533
 highest evec of mol 2
  0.0007  0.0001 -0.0000
 -0.0007  0.0000  0.0000
  0.0004  0.0002 -0.0000
 -0.0003 -0.0002  0.0000
  0.0002 -0.0001 -0.0000
 -0.0001  0.0001  0.0000
  0.0002  0.0002 -0.0000
  0.0000 -0.0001 -0.0000
  0.0001 -0.0002 -0.0000
 -0.0001  0.0000  0.0000
 -0.0000  0.0001  0.0000
 -0.0001 -0.0004 -0.0000
 -0.0003 -0.0004 -0.0000
 -0.0030 -0.0004  0.0000
 -0.0009 -0.0020 -0.0000
  0.2830 -0.0199 -0.0001
  0.0203  0.0868  0.0000
 -0.0073 -0.0020  0.0000
  0.0004  0.0001 -0.0000
  0.0001 -0.0003 -0.0000
 -0.0007 -0.0005  0.0000
 -0.0003  0.0001  0.0000
 -0.0001  0.0006  0.0000
  0.0008  0.0019  0.0000
 -0.9200  0.0267  0.0002
 -0.0880 -0.2381 -0.0000
 Enter nber and list of atoms to keep of mol #2
 keep list:          26           1           2           3           4
           5           6           7           8           9          10
          11          12          13          14          15          16
          17          18          19          20          21          22
          23          24          25          26
 reordering atoms
           1  0.480968422127885     
           2 -0.758200125556987     
           3  -2.12663355354095     
           4  -2.90948570684036     
           5  -4.21585308194881     
           6  -5.29107791933567     
           7  -6.58686662367185     
           8  -6.86021777340260     
           9  -5.82823921691636     
          10  -4.51626552494424     
          11  -3.03232771223358     
          12   1.84157146203647     
          13   2.75072553770182     
          14   4.06917595882954     
          15   5.62763448073504     
          16   6.45014069255889     
          17   5.59458395030331     
          18   4.24802283373861     
          19   2.71306743314192     
          20  -5.06586706108683     
          21  -7.41371201075363     
          22  -7.88858408999753     
          23  -6.04540595578171     
          24   2.40952527869053     
          25   7.52931351329460     
          26   5.93623274018416     
           1           1
           2           2
           3           3
           4           4
           5           5
           6           6
           7           7
           8           8
           9           9
          10          10
          11          11
          12          12
          13          13
          14          14
          15          15
          16          16
          17          17
          18          18
          19          19
          20          20
          21          21
          22          22
          23          23
          24          24
          25          25
          26          26
 initial cartes coords mol 1
   6  -0.00006  -0.07108   0.46664
   6  -0.00005  -0.11129  -0.74547
   6  -0.00002  -0.11756  -2.15140
   7  -0.00002  -1.18141  -2.89919
   6   0.00000  -0.85171  -4.23586
   6   0.00001  -1.77671  -5.29055
   6   0.00003  -1.31114  -6.59486
   6   0.00004   0.06669  -6.86884
   6   0.00003   1.00199  -5.84199
   6   0.00001   0.53465  -4.52744
  16  -0.00001   1.44047  -3.03235
   6  -0.00004  -0.03378   1.86476
   6  -0.00003  -1.10209   2.73836
   6  -0.00000  -0.67611   4.08496
  16   0.00002  -1.48503   5.63068
   6   0.00005   0.05489   6.45683
   6   0.00004   1.12625   5.61149
   6   0.00001   0.70646   4.25291
  16  -0.00001   1.52303   2.71766
   1   0.00001  -2.83497  -5.06071
   1   0.00004  -2.01715  -7.41707
   1   0.00006   0.40767  -7.89764
   1   0.00004   2.06304  -6.05951
   1  -0.00005  -2.12835   2.40039
   1   0.00007   0.06800   7.53595
   1   0.00006   2.15382   5.94645
 initial cartes coords mol 2
   6   0.00013  -0.06432   0.48097
   6   0.00010  -0.11401  -0.75820
   6   0.00005  -0.12497  -2.12663
   7   0.00006  -1.20554  -2.90949
   6   0.00001  -0.86770  -4.21585
   6   0.00000  -1.78968  -5.29108
   6  -0.00005  -1.31724  -6.58687
   6  -0.00009   0.06791  -6.86022
   6  -0.00008   1.00205  -5.82824
   6  -0.00003   0.53894  -4.51627
  16  -0.00001   1.45453  -3.03233
   6   0.00008  -0.02346   1.84157
   6   0.00005  -1.11692   2.75073
   6  -0.00000  -0.68626   4.06918
  16  -0.00006  -1.49975   5.62763
   6  -0.00009   0.04418   6.45014
   6  -0.00006   1.12287   5.59458
   6  -0.00001   0.71668   4.24802
  16   0.00004   1.55355   2.71307
   1   0.00003  -2.84879  -5.06587
   1  -0.00006  -2.01829  -7.41371
   1  -0.00013   0.41000  -7.88858
   1  -0.00011   2.06333  -6.04541
   1   0.00007  -2.14154   2.40953
   1  -0.00013   0.06289   7.52931
   1  -0.00008   2.14869   5.93623
 loop 1 0
 mod cartes coords mol 2
   6   0.00013  -0.06432   0.48097
   6   0.00010  -0.11401  -0.75820
   6   0.00005  -0.12497  -2.12663
   7   0.00006  -1.20554  -2.90949
   6   0.00001  -0.86770  -4.21585
   6   0.00000  -1.78968  -5.29108
   6  -0.00005  -1.31724  -6.58687
   6  -0.00009   0.06791  -6.86022
   6  -0.00008   1.00205  -5.82824
   6  -0.00003   0.53894  -4.51627
  16  -0.00001   1.45453  -3.03233
   6   0.00008  -0.02346   1.84157
   6   0.00005  -1.11692   2.75073
   6  -0.00000  -0.68626   4.06918
  16  -0.00006  -1.49975   5.62763
   6  -0.00009   0.04418   6.45014
   6  -0.00006   1.12287   5.59458
   6  -0.00001   0.71668   4.24802
  16   0.00004   1.55355   2.71307
   1   0.00003  -2.84879  -5.06587
   1  -0.00006  -2.01829  -7.41371
   1  -0.00013   0.41000  -7.88858
   1  -0.00011   2.06333  -6.04541
   1   0.00007  -2.14154   2.40953
   1  -0.00013   0.06289   7.52931
   1  -0.00008   2.14869   5.93623
 read in order, maxerr=  0.03 for atom  19
 final axis swaps:           1           1           1
 final xyz swap pattern=           1
 reorder list:
   1   2   3   4   5   6   7   8   9  10  11  12  13  14  15  16  17  18  19  20
  21  22  23  24  25  26
 axis signs=           1           1           1
  6     0.000133 -0.064320  0.480968    -0.000063 -0.071076  0.466642
  6     0.000104 -0.114009 -0.758200    -0.000050 -0.111291 -0.745470
  6     0.000052 -0.124970 -2.126634    -0.000024 -0.117562 -2.151404
  7     0.000060 -1.205544 -2.909486    -0.000020 -1.181406 -2.899191
  6     0.000011 -0.867702 -4.215853     0.000000 -0.851714 -4.235857
  6     0.000001 -1.789681 -5.291078     0.000012 -1.776712 -5.290554
  6    -0.000049 -1.317236 -6.586867     0.000035 -1.311138 -6.594863
  6    -0.000090  0.067913 -6.860218     0.000045  0.066692 -6.868836
  6    -0.000082  1.002050 -5.828239     0.000031  1.001989 -5.841992
  6    -0.000033  0.538936 -4.516266     0.000009  0.534652 -4.527444
 16    -0.000009  1.454532 -3.032328    -0.000012  1.440471 -3.032354
  6     0.000080 -0.023462  1.841571    -0.000037 -0.033779  1.864764
  6     0.000048 -1.116924  2.750726    -0.000032 -1.102094  2.738363
  6    -0.000001 -0.686262  4.069176    -0.000004 -0.676110  4.084960
 16    -0.000057 -1.499748  5.627634     0.000016 -1.485025  5.630682
  6    -0.000093  0.044181  6.450141     0.000047  0.054894  6.456832
  6    -0.000064  1.122872  5.594584     0.000043  1.126247  5.611486
  6    -0.000013  0.716684  4.248023     0.000014  0.706462  4.252911
 16     0.000038  1.553548  2.713067    -0.000005  1.523026  2.717659
  1     0.000033 -2.848785 -5.065867     0.000005 -2.834971 -5.060714
  1    -0.000057 -2.018294 -7.413712     0.000045 -2.017146 -7.417066
  1    -0.000128  0.409997 -7.888584     0.000062  0.407667 -7.897642
  1    -0.000113  2.063328 -6.045406     0.000039  2.063043 -6.059511
  1     0.000065 -2.141539  2.409525    -0.000049 -2.128351  2.400394
  1    -0.000133  0.062894  7.529314     0.000066  0.068003  7.535955
  1    -0.000079  2.148687  5.936233     0.000059  2.153817  5.946454
 generating redundant internal coords
         300        3600          26
 Adding extra bonds for z output only
           6           6           6           7           6           6
           6           6           6           6          16           6
           6           6          16           6           6           6
          16           1           1           1           1           1
           1           1
 search for int coords
   1 str   2   1   1.240
   2 str   3   2   1.368
   3 str   4   3   1.334
   4 str   5   4   1.349
   5 str   6   5   1.416
   6 str   7   6   1.379
   7 str   8   7   1.412
   8 str   9   8   1.392
   9 str  10   5   1.438
  10 str  10   9   1.391
  11 str  11   3   1.821
  12 str  11  10   1.744
  13 str  12   1   1.361
  14 str  13  12   1.422
  15 str  14  13   1.387
  16 str  15  14   1.758
  17 str  16  15   1.749
  18 str  17  16   1.377
  19 str  18  14   1.414
  20 str  18  17   1.406
  21 str  19  12   1.802
  22 str  19  18   1.748
  23 str  20   6   1.083
  24 str  21   7   1.084
  25 str  22   8   1.084
  26 str  23   9   1.083
  27 str  24  13   1.080
  28 str  25  16   1.079
  29 str  26  17   1.081
 nber stretches=          29
  30 lin ben   1   2   3
  32 ben   1  12  13
  33 prop tor   1  12  13  14
  34 prop tor   1  12  13  24
  35 ben   1  12  19
  36 prop tor   1  12  19  18
 Extend lin bond           1          12           2           3
  37 lin ben   2   1  12
  39 ben   2   3   4
  40 prop tor   2   3   4   5
  41 ben   2   3  11
  42 prop tor   2   3  11  10
  43 ben   3   4   5
  44 prop tor   3   4   5   6
  45 prop tor   3   4   5  10
  46 ben   3  11  10
  47 ben   4   3  11
  48 prop tor   4   3  11  10
  49 ben   4   5   6
  50 prop tor   4   5   6   7
  51 prop tor   4   5   6  20
  52 ben   4   5  10
  53 prop tor   4   5  10   9
  54 prop tor   4   5  10  11
  55 ben   5   6   7
  56 prop tor   5   6   7   8
  57 prop tor   5   6   7  21
  58 ben   5   6  20
  59 ben   5  10   9
  60 ben   5  10  11
  61 prop tor   5  10  11   3
  62 ben   6   5  10
  63 prop tor   6   5  10   9
  64 prop tor   6   5  10  11
  65 ben   6   7   8
  66 prop tor   6   7   8   9
  67 prop tor   6   7   8  22
  68 ben   6   7  21
  69 ben   7   6  20
  70 ben   7   8   9
  71 prop tor   7   8   9  10
  72 prop tor   7   8   9  23
  73 ben   7   8  22
  74 ben   8   7  21
  75 ben   8   9  10
  76 prop tor   8   9  10   5
  77 prop tor   8   9  10  11
  78 ben   8   9  23
  79 ben   9   8  22
  80 ben   9  10  11
  81 prop tor   9  10  11   3
  82 prop tor  10   5   6   7
  83 prop tor  10   5   6  20
  84 ben  10   9  23
  85 prop tor  11   3   4   5
  86 ben  12  13  14
  87 prop tor  12  13  14  15
  88 prop tor  12  13  14  18
  89 ben  12  13  24
  90 ben  12  19  18
  91 ben  13  12  19
  92 prop tor  13  12  19  18
  93 ben  13  14  15
  94 prop tor  13  14  15  16
  95 ben  13  14  18
  96 prop tor  13  14  18  17
  97 prop tor  13  14  18  19
  98 ben  14  13  24
  99 ben  14  15  16
 100 prop tor  14  15  16  17
 101 prop tor  14  15  16  25
 102 ben  14  18  17
 103 ben  14  18  19
 104 prop tor  14  18  19  12
 105 ben  15  14  18
 106 prop tor  15  14  18  17
 107 prop tor  15  14  18  19
 108 ben  15  16  17
 109 prop tor  15  16  17  18
 110 prop tor  15  16  17  26
 111 ben  15  16  25
 112 ben  16  17  18
 113 prop tor  16  17  18  14
 114 prop tor  16  17  18  19
 115 ben  16  17  26
 116 ben  17  16  25
 117 ben  17  18  19
 118 prop tor  17  18  19  12
 119 prop tor  18  14  15  16
 120 ben  18  17  26
 121 prop tor  19  12  13  14
 122 prop tor  19  12  13  24
 123 prop tor  20   6   7   8
 124 prop tor  20   6   7  21
 125 prop tor  21   7   8   9
 126 prop tor  21   7   8  22
 127 prop tor  22   8   9  10
 128 prop tor  22   8   9  23
 129 prop tor  23   9  10   5
 130 prop tor  23   9  10  11
 131 prop tor  24  13  14  15
 132 prop tor  24  13  14  18
 133 prop tor  25  16  17  18
 134 prop tor  25  16  17  26
 135 prop tor  26  17  18  14
 136 prop tor  26  17  18  19
 137 lin bend prop tor   1  12   3   2
 138 lin bend prop tor   1  12   3   4
 139 lin bend prop tor   1  12   3  11
 140 lin bend prop tor  13  12   3   2
 141 lin bend prop tor  13  12   3   4
 142 lin bend prop tor  13  12   3  11
 143 lin bend prop tor  19  12   3   2
 144 lin bend prop tor  19  12   3   4
 145 lin bend prop tor  19  12   3  11
 nber bend=              47
 nber lin bend=           1
 nber prop tor=          69
 nber impr tor=           0
 nber tot redund int=         145
 generating redundant internal coords
         300        3600          26
 search for int coords
   1 str   2   1   1.213
   2 str   3   2   1.406
   3 str   4   3   1.300
   4 str   5   4   1.377
   5 str   6   5   1.403
   6 str   7   6   1.385
   7 str   8   7   1.405
   8 str   9   8   1.389
   9 str  10   5   1.417
  10 str  10   9   1.395
  11 str  11   3   1.790
  12 str  11  10   1.748
  13 str  12   1   1.399
  14 str  13  12   1.380
  15 str  14  13   1.412
  16 str  15  14   1.745
  17 str  16  15   1.748
  18 str  17  16   1.365
  19 str  18  14   1.393
  20 str  18  17   1.422
  21 str  19  12   1.775
  22 str  19  18   1.739
  23 str  20   6   1.083
  24 str  21   7   1.084
  25 str  22   8   1.084
  26 str  23   9   1.083
  27 str  24  13   1.080
  28 str  25  16   1.079
  29 str  26  17   1.081
 nber stretches=          29
  30 lin ben   1   2   3
  32 ben   1  12  13
  33 prop tor   1  12  13  14
  34 prop tor   1  12  13  24
  35 ben   1  12  19
  36 prop tor   1  12  19  18
 Extend lin bond           1          12           2           3
  37 lin ben   2   1  12
  39 ben   2   3   4
  40 prop tor   2   3   4   5
  41 ben   2   3  11
  42 prop tor   2   3  11  10
  43 ben   3   4   5
  44 prop tor   3   4   5   6
  45 prop tor   3   4   5  10
  46 ben   3  11  10
  47 ben   4   3  11
  48 prop tor   4   3  11  10
  49 ben   4   5   6
  50 prop tor   4   5   6   7
  51 prop tor   4   5   6  20
  52 ben   4   5  10
  53 prop tor   4   5  10   9
  54 prop tor   4   5  10  11
  55 ben   5   6   7
  56 prop tor   5   6   7   8
  57 prop tor   5   6   7  21
  58 ben   5   6  20
  59 ben   5  10   9
  60 ben   5  10  11
  61 prop tor   5  10  11   3
  62 ben   6   5  10
  63 prop tor   6   5  10   9
  64 prop tor   6   5  10  11
  65 ben   6   7   8
  66 prop tor   6   7   8   9
  67 prop tor   6   7   8  22
  68 ben   6   7  21
  69 ben   7   6  20
  70 ben   7   8   9
  71 prop tor   7   8   9  10
  72 prop tor   7   8   9  23
  73 ben   7   8  22
  74 ben   8   7  21
  75 ben   8   9  10
  76 prop tor   8   9  10   5
  77 prop tor   8   9  10  11
  78 ben   8   9  23
  79 ben   9   8  22
  80 ben   9  10  11
  81 prop tor   9  10  11   3
  82 prop tor  10   5   6   7
  83 prop tor  10   5   6  20
  84 ben  10   9  23
  85 prop tor  11   3   4   5
  86 ben  12  13  14
  87 prop tor  12  13  14  15
  88 prop tor  12  13  14  18
  89 ben  12  13  24
  90 ben  12  19  18
  91 ben  13  12  19
  92 prop tor  13  12  19  18
  93 ben  13  14  15
  94 prop tor  13  14  15  16
  95 ben  13  14  18
  96 prop tor  13  14  18  17
  97 prop tor  13  14  18  19
  98 ben  14  13  24
  99 ben  14  15  16
 100 prop tor  14  15  16  17
 101 prop tor  14  15  16  25
 102 ben  14  18  17
 103 ben  14  18  19
 104 prop tor  14  18  19  12
 105 ben  15  14  18
 106 prop tor  15  14  18  17
 107 prop tor  15  14  18  19
 108 ben  15  16  17
 109 prop tor  15  16  17  18
 110 prop tor  15  16  17  26
 111 ben  15  16  25
 112 ben  16  17  18
 113 prop tor  16  17  18  14
 114 prop tor  16  17  18  19
 115 ben  16  17  26
 116 ben  17  16  25
 117 ben  17  18  19
 118 prop tor  17  18  19  12
 119 prop tor  18  14  15  16
 120 ben  18  17  26
 121 prop tor  19  12  13  14
 122 prop tor  19  12  13  24
 123 prop tor  20   6   7   8
 124 prop tor  20   6   7  21
 125 prop tor  21   7   8   9
 126 prop tor  21   7   8  22
 127 prop tor  22   8   9  10
 128 prop tor  22   8   9  23
 129 prop tor  23   9  10   5
 130 prop tor  23   9  10  11
 131 prop tor  24  13  14  15
 132 prop tor  24  13  14  18
 133 prop tor  25  16  17  18
 134 prop tor  25  16  17  26
 135 prop tor  26  17  18  14
 136 prop tor  26  17  18  19
 137 lin bend prop tor   1  12   3   2
 138 lin bend prop tor   1  12   3   4
 139 lin bend prop tor   1  12   3  11
 140 lin bend prop tor  13  12   3   2
 141 lin bend prop tor  13  12   3   4
 142 lin bend prop tor  13  12   3  11
 143 lin bend prop tor  19  12   3   2
 144 lin bend prop tor  19  12   3   4
 145 lin bend prop tor  19  12   3  11
 nber bend=              47
 nber lin bend=           1
 nber prop tor=          69
 nber impr tor=           0
 nber tot redund int=         145
 Eigenvalues of G in red int coords
    Gval -0.00000000 -0.00000000 -0.00000000 -0.00000000 -0.00000000 -0.00000000 -0.00000000 -0.00000000
    Gval -0.00000000 -0.00000000 -0.00000000 -0.00000000 -0.00000000 -0.00000000 -0.00000000 -0.00000000
    Gval -0.00000000 -0.00000000 -0.00000000 -0.00000000 -0.00000000 -0.00000000 -0.00000000 -0.00000000
    Gval -0.00000000 -0.00000000 -0.00000000 -0.00000000 -0.00000000 -0.00000000 -0.00000000 -0.00000000
    Gval -0.00000000 -0.00000000 -0.00000000 -0.00000000  0.00000000  0.00000000  0.00000000  0.00000000
    Gval  0.00000000  0.00000000  0.00000000  0.00000000  0.00000000  0.00000000  0.00000000  0.00000000
    Gval  0.00000000  0.00000000  0.00000000  0.00000000  0.00000000  0.00000000  0.00000000  0.00000000
    Gval  0.00000000  0.00000000  0.00000000  0.00000000  0.00000000  0.00000000  0.00000000  0.00000000
    Gval  0.00000000  0.00000000  0.00000000  0.00000000  0.00000000  0.00000000  0.00000000  0.00000000
    Gval  0.00000000  0.00000051  0.00000190  0.00000485  0.00000614  0.00001588  0.00001670  0.00001979
    Gval  0.00002211  0.00002701  0.00002929  0.00003318  0.00003534  0.00004149  0.00004675  0.00005028
    Gval  0.00005209  0.00006106  0.00006202  0.00007746  0.00008620  0.00009266  0.00010542  0.00010932
    Gval  0.00012028  0.00012421  0.00013025  0.00014694  0.00015621  0.00015723  0.00019599  0.00020749
    Gval  0.00021297  0.00022501  0.00026815  0.00030006  0.00030429  0.00031509  0.00032844  0.00036838
    Gval  0.00039285  0.00039999  0.00043942  0.00045033  0.00059315  0.00059660  0.00059750  0.00061829
    Gval  0.00062190  0.00062710  0.00062722  0.00065502  0.00065683  0.00076769  0.00091587  0.00105448
    Gval  0.00108136  0.00112255  0.00114504  0.00116349  0.00117174  0.00118663  0.00129046  0.00163231
    Gval  0.00180041  0.00207895  0.00269954  0.00350428  0.00357039  0.00396911  0.00402184  0.34129132
    Gval  3.04431794
  5.112050938039968E-007  5.112050938039968E-007
  1.898105946257642E-006  5.112050938039968E-007
  4.853498920460993E-006  5.112050938039968E-007
  6.135431626365432E-006  5.112050938039968E-007
  1.587895627192472E-005  5.112050938039968E-007
  1.669603744056107E-005  5.112050938039968E-007
  1.979374352477459E-005  5.112050938039968E-007
  2.210848105921755E-005  5.112050938039968E-007
  2.700809183940179E-005  5.112050938039968E-007
  2.928574459110330E-005  5.112050938039968E-007
  3.317957923640725E-005  5.112050938039968E-007
  3.534310863278866E-005  5.112050938039968E-007
  4.149288731830415E-005  5.112050938039968E-007
  4.675303905546021E-005  5.112050938039968E-007
  5.028283999485563E-005  5.112050938039968E-007
  5.209001016190166E-005  5.112050938039968E-007
  6.105999970864735E-005  5.112050938039968E-007
  6.202103745354696E-005  5.112050938039968E-007
  7.745792752354779E-005  5.112050938039968E-007
  8.619881257459180E-005  5.112050938039968E-007
  9.265528943307183E-005  5.112050938039968E-007
  1.054176799710070E-004  5.112050938039968E-007
  1.093210548799211E-004  5.112050938039968E-007
  1.202765095513255E-004  5.112050938039968E-007
  1.242130836393502E-004  5.112050938039968E-007
  1.302460877071013E-004  5.112050938039968E-007
  1.469401914769364E-004  5.112050938039968E-007
  1.562140567029467E-004  5.112050938039968E-007
  1.572309940050624E-004  5.112050938039968E-007
  1.959946306189155E-004  5.112050938039968E-007
  2.074854420763428E-004  5.112050938039968E-007
  2.129720690331599E-004  5.112050938039968E-007
  2.250127844403686E-004  5.112050938039968E-007
  2.681545238220266E-004  5.112050938039968E-007
  3.000596779641902E-004  5.112050938039968E-007
  3.042922092444316E-004  5.112050938039968E-007
  3.150909996156117E-004  5.112050938039968E-007
  3.284382840519023E-004  5.112050938039968E-007
  3.683753930773038E-004  5.112050938039968E-007
  3.928485939233416E-004  5.112050938039968E-007
  3.999863685562281E-004  5.112050938039968E-007
  4.394248401213302E-004  5.112050938039968E-007
  4.503317400327749E-004  5.112050938039968E-007
  5.931525709644944E-004  5.112050938039968E-007
  5.965992259655120E-004  5.112050938039968E-007
  5.975039045610133E-004  5.112050938039968E-007
  6.182936289762104E-004  5.112050938039968E-007
  6.218992632387900E-004  5.112050938039968E-007
  6.270967264669062E-004  5.112050938039968E-007
  6.272157625767509E-004  5.112050938039968E-007
  6.550235409568096E-004  5.112050938039968E-007
  6.568253304523861E-004  5.112050938039968E-007
  7.676919865918369E-004  5.112050938039968E-007
  9.158682048543869E-004  5.112050938039968E-007
  1.054477546924973E-003  5.112050938039968E-007
  1.081358662075512E-003  5.112050938039968E-007
  1.122553709630813E-003  5.112050938039968E-007
  1.145040458105454E-003  5.112050938039968E-007
  1.163485300244668E-003  5.112050938039968E-007
  1.171741152113521E-003  5.112050938039968E-007
  1.186631143460191E-003  5.112050938039968E-007
  1.290456123939542E-003  5.112050938039968E-007
  1.632306874640783E-003  5.112050938039968E-007
  1.800408647889181E-003  5.112050938039968E-007
  2.078952507951836E-003  5.112050938039968E-007
  2.699541611522754E-003  5.112050938039968E-007
  3.504279824859015E-003  5.112050938039968E-007
  3.570392787866163E-003  5.112050938039968E-007
  3.969105319695539E-003  5.112050938039968E-007
  4.021836182718706E-003  5.112050938039968E-007
  0.341291323648931       5.112050938039968E-007
   3.04431794353279       5.112050938039968E-007
 cut=1d-8, nber non-redundant internal coords=          72
 Check on Eigenvals of non-red overlap matrix:
  0.00000051  0.00000190  0.00000485  0.00000614  0.00001588  0.00001670  0.00001979  0.00002211
  0.00002701  0.00002929  0.00003318  0.00003534  0.00004149  0.00004675  0.00005028  0.00005209
  0.00006106  0.00006202  0.00007746  0.00008620  0.00009266  0.00010542  0.00010932  0.00012028
  0.00012421  0.00013025  0.00014694  0.00015621  0.00015723  0.00019599  0.00020749  0.00021297
  0.00022501  0.00026815  0.00030006  0.00030429  0.00031509  0.00032844  0.00036838  0.00039285
  0.00039999  0.00043942  0.00045033  0.00059315  0.00059660  0.00059750  0.00061829  0.00062190
  0.00062710  0.00062722  0.00065502  0.00065683  0.00076769  0.00091587  0.00105448  0.00108136
  0.00112255  0.00114504  0.00116349  0.00117174  0.00118663  0.00129046  0.00163231  0.00180041
  0.00207895  0.00269954  0.00350428  0.00357039  0.00396911  0.00402184  0.34129132  3.04431794
 generating redundant internal coords
         300        3600          26
 search for int coords
   1 str   2   1   1.240
   2 str   3   2   1.368
   3 str   4   3   1.334
   4 str   5   4   1.349
   5 str   6   5   1.416
   6 str   7   6   1.379
   7 str   8   7   1.412
   8 str   9   8   1.392
   9 str  10   5   1.438
  10 str  10   9   1.391
  11 str  11   3   1.821
  12 str  11  10   1.744
  13 str  12   1   1.361
  14 str  13  12   1.422
  15 str  14  13   1.387
  16 str  15  14   1.758
  17 str  16  15   1.749
  18 str  17  16   1.377
  19 str  18  14   1.414
  20 str  18  17   1.406
  21 str  19  12   1.802
  22 str  19  18   1.748
  23 str  20   6   1.083
  24 str  21   7   1.084
  25 str  22   8   1.084
  26 str  23   9   1.083
  27 str  24  13   1.080
  28 str  25  16   1.079
  29 str  26  17   1.081
 nber stretches=          29
  30 lin ben   1   2   3
  32 ben   1  12  13
  33 prop tor   1  12  13  14
  34 prop tor   1  12  13  24
  35 ben   1  12  19
  36 prop tor   1  12  19  18
 Extend lin bond           1          12           2           3
  37 lin ben   2   1  12
  39 ben   2   3   4
  40 prop tor   2   3   4   5
  41 ben   2   3  11
  42 prop tor   2   3  11  10
  43 ben   3   4   5
  44 prop tor   3   4   5   6
  45 prop tor   3   4   5  10
  46 ben   3  11  10
  47 ben   4   3  11
  48 prop tor   4   3  11  10
  49 ben   4   5   6
  50 prop tor   4   5   6   7
  51 prop tor   4   5   6  20
  52 ben   4   5  10
  53 prop tor   4   5  10   9
  54 prop tor   4   5  10  11
  55 ben   5   6   7
  56 prop tor   5   6   7   8
  57 prop tor   5   6   7  21
  58 ben   5   6  20
  59 ben   5  10   9
  60 ben   5  10  11
  61 prop tor   5  10  11   3
  62 ben   6   5  10
  63 prop tor   6   5  10   9
  64 prop tor   6   5  10  11
  65 ben   6   7   8
  66 prop tor   6   7   8   9
  67 prop tor   6   7   8  22
  68 ben   6   7  21
  69 ben   7   6  20
  70 ben   7   8   9
  71 prop tor   7   8   9  10
  72 prop tor   7   8   9  23
  73 ben   7   8  22
  74 ben   8   7  21
  75 ben   8   9  10
  76 prop tor   8   9  10   5
  77 prop tor   8   9  10  11
  78 ben   8   9  23
  79 ben   9   8  22
  80 ben   9  10  11
  81 prop tor   9  10  11   3
  82 prop tor  10   5   6   7
  83 prop tor  10   5   6  20
  84 ben  10   9  23
  85 prop tor  11   3   4   5
  86 ben  12  13  14
  87 prop tor  12  13  14  15
  88 prop tor  12  13  14  18
  89 ben  12  13  24
  90 ben  12  19  18
  91 ben  13  12  19
  92 prop tor  13  12  19  18
  93 ben  13  14  15
  94 prop tor  13  14  15  16
  95 ben  13  14  18
  96 prop tor  13  14  18  17
  97 prop tor  13  14  18  19
  98 ben  14  13  24
  99 ben  14  15  16
 100 prop tor  14  15  16  17
 101 prop tor  14  15  16  25
 102 ben  14  18  17
 103 ben  14  18  19
 104 prop tor  14  18  19  12
 105 ben  15  14  18
 106 prop tor  15  14  18  17
 107 prop tor  15  14  18  19
 108 ben  15  16  17
 109 prop tor  15  16  17  18
 110 prop tor  15  16  17  26
 111 ben  15  16  25
 112 ben  16  17  18
 113 prop tor  16  17  18  14
 114 prop tor  16  17  18  19
 115 ben  16  17  26
 116 ben  17  16  25
 117 ben  17  18  19
 118 prop tor  17  18  19  12
 119 prop tor  18  14  15  16
 120 ben  18  17  26
 121 prop tor  19  12  13  14
 122 prop tor  19  12  13  24
 123 prop tor  20   6   7   8
 124 prop tor  20   6   7  21
 125 prop tor  21   7   8   9
 126 prop tor  21   7   8  22
 127 prop tor  22   8   9  10
 128 prop tor  22   8   9  23
 129 prop tor  23   9  10   5
 130 prop tor  23   9  10  11
 131 prop tor  24  13  14  15
 132 prop tor  24  13  14  18
 133 prop tor  25  16  17  18
 134 prop tor  25  16  17  26
 135 prop tor  26  17  18  14
 136 prop tor  26  17  18  19
 137 lin bend prop tor   1  12   3   2
 138 lin bend prop tor   1  12   3   4
 139 lin bend prop tor   1  12   3  11
 140 lin bend prop tor  13  12   3   2
 141 lin bend prop tor  13  12   3   4
 142 lin bend prop tor  13  12   3  11
 143 lin bend prop tor  19  12   3   2
 144 lin bend prop tor  19  12   3   4
 145 lin bend prop tor  19  12   3  11
 nber bend=              47
 nber lin bend=           1
 nber prop tor=          69
 nber impr tor=           0
 nber tot redund int=         145
 Eigenvalues of G in red int coords
    Gval -0.00000000 -0.00000000 -0.00000000 -0.00000000 -0.00000000 -0.00000000 -0.00000000 -0.00000000
    Gval -0.00000000 -0.00000000 -0.00000000 -0.00000000 -0.00000000 -0.00000000 -0.00000000 -0.00000000
    Gval -0.00000000 -0.00000000 -0.00000000 -0.00000000 -0.00000000 -0.00000000 -0.00000000 -0.00000000
    Gval -0.00000000 -0.00000000 -0.00000000 -0.00000000 -0.00000000 -0.00000000 -0.00000000 -0.00000000
    Gval -0.00000000 -0.00000000 -0.00000000 -0.00000000 -0.00000000 -0.00000000  0.00000000  0.00000000
    Gval  0.00000000  0.00000000  0.00000000  0.00000000  0.00000000  0.00000000  0.00000000  0.00000000
    Gval  0.00000000  0.00000000  0.00000000  0.00000000  0.00000000  0.00000000  0.00000000  0.00000000
    Gval  0.00000000  0.00000000  0.00000000  0.00000000  0.00000000  0.00000000  0.00000000  0.00000000
    Gval  0.00000000  0.00000000  0.00000000  0.00000000  0.00000000  0.00000000  0.00000000  0.00000000
    Gval  0.00000000  0.00000051  0.00000189  0.00000488  0.00000622  0.00001589  0.00001663  0.00001976
    Gval  0.00002226  0.00002715  0.00002895  0.00003316  0.00003532  0.00004126  0.00004673  0.00005014
    Gval  0.00005206  0.00006126  0.00006176  0.00007749  0.00008620  0.00009315  0.00010500  0.00010883
    Gval  0.00011982  0.00012257  0.00012974  0.00014521  0.00015592  0.00015698  0.00019455  0.00020913
    Gval  0.00021212  0.00022380  0.00026644  0.00029921  0.00030340  0.00031349  0.00032631  0.00036848
    Gval  0.00039021  0.00039805  0.00043650  0.00044264  0.00059314  0.00059657  0.00059745  0.00061828
    Gval  0.00062189  0.00062674  0.00063122  0.00065452  0.00065842  0.00075371  0.00091045  0.00105407
    Gval  0.00108172  0.00112134  0.00114519  0.00116322  0.00117084  0.00118365  0.00128581  0.00161565
    Gval  0.00179715  0.00207792  0.00268978  0.00351346  0.00356389  0.00393774  0.00401319  0.31126704
    Gval  5.57324475
  5.094662784109829E-007  5.094662784109829E-007
  1.890638167648351E-006  5.094662784109829E-007
  4.875572979252151E-006  5.094662784109829E-007
  6.221345089426090E-006  5.094662784109829E-007
  1.588900969105438E-005  5.094662784109829E-007
  1.662531334648742E-005  5.094662784109829E-007
  1.975902427177899E-005  5.094662784109829E-007
  2.225797662925169E-005  5.094662784109829E-007
  2.714666631744307E-005  5.094662784109829E-007
  2.895040992429817E-005  5.094662784109829E-007
  3.316246379853319E-005  5.094662784109829E-007
  3.532021453721842E-005  5.094662784109829E-007
  4.126286625413293E-005  5.094662784109829E-007
  4.672591652389344E-005  5.094662784109829E-007
  5.013889839148983E-005  5.094662784109829E-007
  5.205816717294564E-005  5.094662784109829E-007
  6.125696306885322E-005  5.094662784109829E-007
  6.175667448640336E-005  5.094662784109829E-007
  7.749255189794584E-005  5.094662784109829E-007
  8.620278346316724E-005  5.094662784109829E-007
  9.315136416785884E-005  5.094662784109829E-007
  1.049989633276444E-004  5.094662784109829E-007
  1.088266885802414E-004  5.094662784109829E-007
  1.198226521256727E-004  5.094662784109829E-007
  1.225734364531922E-004  5.094662784109829E-007
  1.297371013626185E-004  5.094662784109829E-007
  1.452145069976395E-004  5.094662784109829E-007
  1.559207049809562E-004  5.094662784109829E-007
  1.569766728850009E-004  5.094662784109829E-007
  1.945515002218232E-004  5.094662784109829E-007
  2.091257850758091E-004  5.094662784109829E-007
  2.121229352093211E-004  5.094662784109829E-007
  2.237977260746826E-004  5.094662784109829E-007
  2.664432553100749E-004  5.094662784109829E-007
  2.992090143169017E-004  5.094662784109829E-007
  3.034009308938648E-004  5.094662784109829E-007
  3.134885823724510E-004  5.094662784109829E-007
  3.263070376867192E-004  5.094662784109829E-007
  3.684771273805478E-004  5.094662784109829E-007
  3.902125877588097E-004  5.094662784109829E-007
  3.980518098166819E-004  5.094662784109829E-007
  4.364965939894940E-004  5.094662784109829E-007
  4.426448609631296E-004  5.094662784109829E-007
  5.931384641140019E-004  5.094662784109829E-007
  5.965683120129963E-004  5.094662784109829E-007
  5.974450895834843E-004  5.094662784109829E-007
  6.182828410412891E-004  5.094662784109829E-007
  6.218877732048037E-004  5.094662784109829E-007
  6.267402336372885E-004  5.094662784109829E-007
  6.312247220780763E-004  5.094662784109829E-007
  6.545249084261692E-004  5.094662784109829E-007
  6.584238992135146E-004  5.094662784109829E-007
  7.537116201500282E-004  5.094662784109829E-007
  9.104470805762728E-004  5.094662784109829E-007
  1.054073182147620E-003  5.094662784109829E-007
  1.081722357369233E-003  5.094662784109829E-007
  1.121342567895671E-003  5.094662784109829E-007
  1.145190449032208E-003  5.094662784109829E-007
  1.163218703006953E-003  5.094662784109829E-007
  1.170843036654708E-003  5.094662784109829E-007
  1.183654008015604E-003  5.094662784109829E-007
  1.285812455049597E-003  5.094662784109829E-007
  1.615654442356589E-003  5.094662784109829E-007
  1.797154417378244E-003  5.094662784109829E-007
  2.077916944467037E-003  5.094662784109829E-007
  2.689784317391741E-003  5.094662784109829E-007
  3.513461922953239E-003  5.094662784109829E-007
  3.563891164171226E-003  5.094662784109829E-007
  3.937739789894581E-003  5.094662784109829E-007
  4.013188208421211E-003  5.094662784109829E-007
  0.311267044639062       5.094662784109829E-007
   5.57324474861103       5.094662784109829E-007
 cut=1d-8, nber non-redundant internal coords=          72
 Check on Eigenvals of non-red overlap matrix:
  0.00000051  0.00000189  0.00000488  0.00000622  0.00001589  0.00001663  0.00001976  0.00002226
  0.00002715  0.00002895  0.00003316  0.00003532  0.00004126  0.00004673  0.00005014  0.00005206
  0.00006126  0.00006176  0.00007749  0.00008620  0.00009315  0.00010500  0.00010883  0.00011982
  0.00012257  0.00012974  0.00014521  0.00015592  0.00015698  0.00019455  0.00020913  0.00021212
  0.00022380  0.00026644  0.00029921  0.00030340  0.00031349  0.00032631  0.00036848  0.00039021
  0.00039805  0.00043650  0.00044264  0.00059314  0.00059657  0.00059745  0.00061828  0.00062189
  0.00062674  0.00063122  0.00065452  0.00065842  0.00075371  0.00091045  0.00105407  0.00108172
  0.00112134  0.00114519  0.00116322  0.00117084  0.00118365  0.00128581  0.00161565  0.00179715
  0.00207792  0.00268978  0.00351346  0.00356389  0.00393774  0.00401319  0.31126704  5.57324475
 d1=
   6.0   4.3  -3.1   0.1  -2.0  -0.0   2.8   0.3   0.0  -2.1   3.6  -7.9  -2.9  -0.4   1.3   0.7  -3.6  -0.8  -0.7  -1.4
  -2.4   0.0   1.6  -1.1  -0.6   0.1   0.0  -1.1   1.2  -2.6   0.5   0.0   3.5  -1.3   0.0  -0.8   1.9  -1.0  -1.0  -0.8
   0.4   0.5  -0.0   0.0  -0.0   0.1   0.1  -0.1   0.0  -0.0   0.0   0.0  -0.0  -0.0  -0.2   0.2   0.2   0.8   0.1  -0.1
  -0.2   0.0   0.0  -0.0  -0.0  -0.0   0.0   0.0   0.0  -0.0   0.0  -0.0
 d2=
   5.9  -4.1  -3.1  -0.1   2.0   0.0   2.8   0.4  -0.0   1.9  -3.7   7.8   3.1   0.5  -1.3  -0.5  -3.5   0.4  -0.6  -1.4
   2.4   0.0  -1.5   0.9  -0.6   0.2  -0.0  -0.4  -1.6   2.6  -1.2  -0.2  -3.6  -1.1  -0.0   1.1  -1.9  -0.8  -0.9  -0.8
   0.1  -0.1  -0.5   0.0  -0.0  -0.1  -0.1   0.1  -0.0   0.0   0.0  -0.0  -0.0   0.0  -0.3   0.2   0.2   0.8   0.1  -0.1
  -0.2  -0.0  -0.0   0.0   0.0   0.0  -0.0  -0.0  -0.0   0.0  -0.0   0.0
 curvilinear- renormalizn of Dush matrix done
  mol 1 sym            1  -> mol 2 sym            1

 Dushinsky matrix, ncs 2 in terms of ncs 1

   mode   freq    coeff     %      %tot     of    at

   1        -0. -0.0004     0.0     0.0   8        27.
   2        -0. -0.0001     0.0     0.0   8        27.
   3        -0. -0.0003     0.0     0.0   8        27.
   4         0.  0.0000     0.0     0.0   8        27.
   5         0. -0.0001     0.0     0.0   8        27.
   6         0.  0.0000     0.0     0.0   8        27.
   7        26.  0.4249    18.1   108.2   7        19.
                -0.9035    81.6           9        28.
   8        26.  1.0000   100.0    99.5   8        27.
   9        31. -0.8805    77.5    99.7   7        19.
                -0.4672    21.8           9        28.
  10        70. -0.9951    99.0   103.8  10        81.
  11       106.  0.9999   100.0    98.8  11       110.
  12       134. -0.8725    76.1   106.8  12       172.
                -0.4079    16.6          15       203.
  13       182. -0.8061    65.0    99.7  14       193.
                -0.5103    26.0          15       203.
  14       189. -0.9996    99.9    98.9  13       190.
  15       191. -0.4137    17.1   104.2  12       172.
                -0.5676    32.2          14       193.
                 0.6498    42.2          15       203.
  16       232. -0.9206    84.7    98.9  16       247.
  17       275.  0.9225    85.1   119.5  18       338.
  18       317. -0.9992    99.8   101.0  17       316.
  19       356.  0.9986    99.7    99.0  19       358.
  20       373.  0.3264    10.7   125.3   9        28.
                -0.9139    83.5          20       422.
  21       426.  0.9931    98.6   100.3  21       434.
  22       435.  0.9666    93.4   100.1  23       456.
  23       436.  0.9662    93.3   101.2  22       445.
  24       441. -0.9461    89.5   120.4  24       472.
  25       481.  0.8807    77.6    98.8  25       496.
[...]
 nber times 1st assigned=          37           0
 nber times 1st assigned=          38           0
 nber times 1st assigned=          39           0
 nber times 1st assigned=          40           0
 nber times 1st assigned=          41           0
 nber times 1st assigned=          42           0
 nber times 1st assigned=          43           0
 nber times 1st assigned=          44           0
 nber times 1st assigned=          45           0
 nber times 1st assigned=          46           0
 nber times 1st assigned=          47           0
 nber times 1st assigned=          48           0
 nber times 1st assigned=          49           0
 nber times 1st assigned=          50           0
 nber times 1st assigned=          51           0
 nber times 1st assigned=          52           0
 nber times 1st assigned=          53           0
 nber times 1st assigned=          54           0
 nber times 1st assigned=          55           0
 nber times 1st assigned=          56           0
 nber times 1st assigned=          57           0
 nber times 1st assigned=          58           0
 nber times 1st assigned=          59           0
 nber times 1st assigned=          60           0
 nber times 1st assigned=          61           0
 nber times 1st assigned=          62           0
 nber times 1st assigned=          63           0
 nber times 1st assigned=          64           0
 nber times 1st assigned=          65           0
 nber times 1st assigned=          66           0
 nber times 1st assigned=          67           0
 nber times 1st assigned=          68           0
 nber times 1st assigned=          69           0
 nber times 1st assigned=          70           0
 nber times 1st assigned=          71           0
 nber times 1st assigned=          72           0
 nber times 1st assigned=          73           0
 nber times 1st assigned=          74           0
 nber times 1st assigned=          75           0
 nber times 1st assigned=          76           0
 nber times 1st assigned=          77           0
 nber times 1st assigned=          78           0
 Dushinsky matrix written to .out file
 modes represented=   73.5131994330798     

 Dushinsky matrix, ncs 1 in terms of ncs 2

   mode   freq    coeff     %      %tot     of    at

   7        19.  0.4249    18.1   102.2   7        26.
                -0.8805    77.5           9        31.
   8        27.  1.0000   100.0   100.1   8        26.
   9        28. -0.9035    81.6   176.7   7        26.
                -0.4672    21.8           9        31.
                 0.3264    10.7          20       373.
                 0.4190    17.6          28       509.
  10        81. -0.9951    99.0   122.9  10        70.
  11       110.  0.9999   100.0    99.6  11       106.
  12       172. -0.8725    76.1   104.4  12       134.
                -0.4137    17.1          15       191.
  13       190. -0.9996    99.9    99.5  14       189.
  14       193. -0.8061    65.0   100.2  13       182.
                -0.5676    32.2          15       191.
  15       203. -0.4079    16.6    98.3  12       134.
                -0.5103    26.0          13       182.
                 0.6498    42.2          15       191.
  16       247. -0.9206    84.7   101.8  16       232.
  17       316. -0.9992    99.8   101.2  18       317.
  18       338.  0.9225    85.1   106.6  17       275.
  19       358.  0.9986    99.7    99.0  19       356.
  20       422. -0.9139    83.5   115.0  20       373.
  21       434.  0.9931    98.6   100.1  21       426.
  22       445.  0.9662    93.3   101.9  23       436.
  23       456.  0.9666    93.4   100.1  22       435.
  24       472. -0.9461    89.5   112.1  24       441.
  25       496.  0.8807    77.6    99.0  25       481.
                -0.3833    14.7          27       498.
  26       509.  0.4194    17.6   100.0  25       481.
                 0.8940    79.9          27       498.
  27       536. -0.9566    91.5    99.9  26       491.
  28       546. -0.9316    86.8    99.7  29       515.
  29       547.  0.8437    71.2   119.1  28       509.
  30       603. -0.9475    89.8    99.6  30       555.
  31       605. -0.9864    97.3    99.3  31       598.
  32       625. -0.9908    98.2    99.7  32       610.
  33       642.  0.8115    65.8    99.1  33       627.
                 0.5389    29.0          34       634.
  34       675. -0.5518    30.5   101.5  33       627.
                 0.7946    63.1          34       634.
  35       711.  0.9848    97.0   100.2  36       673.
  36       711. -0.7616    58.0   100.6  35       672.
                -0.6066    36.8          37       703.
  37       717.  0.5741    33.0   100.3  35       672.
                -0.7851    61.6          37       703.
  38       738.  0.9976    99.5    99.6  38       724.
  39       764. -0.9908    98.2    99.6  39       748.
  40       775. -0.9464    89.6    99.6  40       765.
  41       831.  0.9857    97.2    99.3  42       814.
  42       844. -0.9310    86.7   100.6  41       770.
  43       869. -0.9917    98.3    99.5  43       853.
  44       881.  0.9850    97.0    99.2  44       866.
  45       885.  0.9731    94.7    99.3  45       877.
  46       920.  0.9635    92.8   100.1  46       902.
  47       955. -0.9816    96.3    99.9  47       939.
  48       993. -0.9868    97.4    99.8  48       982.
  49      1032. -0.8145    66.3    99.1  49       997.
                 0.5414    29.3          50      1028.
  50      1044. -0.5092    25.9    99.5  49       997.
                -0.8358    69.9          50      1028.
  51      1087. -0.9910    98.2    99.6  51      1076.
  52      1113.  0.9769    95.4    99.8  52      1098.
  53      1144.  0.9697    94.0   100.0  54      1145.
  54      1178. -0.5248    27.5    99.5  53      1132.
                 0.7820    61.2          55      1160.
  55      1185. -0.9867    97.4    99.9  56      1181.
  56      1208. -0.4328    18.7    99.7  53      1132.
                -0.4378    19.2          55      1160.
                 0.7541    56.9          57      1219.
  57      1236. -0.6115    37.4    99.3  53      1132.
                -0.5938    35.3          57      1219.
  58      1272. -0.9194    84.5    99.9  58      1270.
  59      1312.  0.7422    55.1    99.7  59      1312.
                -0.5099    26.0          61      1358.
  60      1343.  0.8063    65.0   100.2  60      1345.
                 0.4204    17.7          61      1358.
  61      1363.  0.5583    31.2    99.9  59      1312.
                -0.4790    22.9          60      1345.
                 0.5759    33.2          61      1358.
  62      1382.  0.8790    77.3    99.5  63      1416.
  63      1451.  0.4395    19.3    99.5  62      1375.
                -0.3923    15.4          63      1416.
                -0.6295    39.6          67      1484.
  64      1458. -0.3597    12.9    99.9  62      1375.
                 0.7874    62.0          65      1449.
                -0.3370    11.4          67      1484.
  65      1487. -0.7245    52.5    99.7  66      1470.
                 0.5206    27.1          67      1484.
                -0.3293    10.8          68      1533.
  66      1491. -0.5638    31.8   100.0  62      1375.
                 0.5711    32.6          64      1445.
                -0.4367    19.1          65      1449.
  67      1519.  0.3284    10.8   100.3  62      1375.
                 0.6979    48.7          64      1445.
                 0.3676    13.5          67      1484.
  68      1571.  0.3298    10.9   100.0  66      1470.
                -0.7469    55.8          68      1533.
                -0.3649    13.3          69      1560.
  69      1593.  0.3771    14.2   100.0  68      1533.
                -0.8624    74.4          69      1560.
  70      1636. -0.9440    89.1    99.8  70      1607.
  71      2281. -0.9956    99.1   100.0  71      2131.
  72      3170. -0.9924    98.5   100.0  72      3169.
  73      3182. -0.9910    98.2   100.0  73      3180.
  74      3192. -0.9928    98.6   100.0  74      3192.
  75      3200. -0.9965    99.3   100.0  75      3200.
  76      3216.  0.9990    99.8   100.0  76      3212.
  77      3225. -0.9998   100.0   100.0  77      3229.
  78      3245.  0.9989    99.8   100.0  78      3243.
 nber times 1st assigned=           1           0
 nber times 1st assigned=           2           0
 nber times 1st assigned=           3           0
 nber times 1st assigned=           4           0
 nber times 1st assigned=           5           0
 nber times 1st assigned=           6           0
 nber times 1st assigned=           7           0
 nber times 1st assigned=           8           0
 nber times 1st assigned=           9           0
 nber times 1st assigned=          10           0
 nber times 1st assigned=          11           0
 nber times 1st assigned=          12           0
 nber times 1st assigned=          13           0
 nber times 1st assigned=          14           0
 nber times 1st assigned=          15           0
 nber times 1st assigned=          16           0
 nber times 1st assigned=          17           0
 nber times 1st assigned=          18           0
 nber times 1st assigned=          19           0
 nber times 1st assigned=          20           0
 nber times 1st assigned=          21           0
 nber times 1st assigned=          22           0
 nber times 1st assigned=          23           0
 nber times 1st assigned=          24           0
 nber times 1st assigned=          25           0
 nber times 1st assigned=          26           0
 nber times 1st assigned=          27           0
 nber times 1st assigned=          28           0
 nber times 1st assigned=          29           0
 nber times 1st assigned=          30           0
 nber times 1st assigned=          31           0
 nber times 1st assigned=          32           0
 nber times 1st assigned=          33           0
 nber times 1st assigned=          34           0
 nber times 1st assigned=          35           0
 nber times 1st assigned=          36           0
 nber times 1st assigned=          37           0
 nber times 1st assigned=          38           0
 nber times 1st assigned=          39           0
 nber times 1st assigned=          40           0
 nber times 1st assigned=          41           0
 nber times 1st assigned=          42           0
 nber times 1st assigned=          43           0
 nber times 1st assigned=          44           0
 nber times 1st assigned=          45           0
 nber times 1st assigned=          46           0
 nber times 1st assigned=          47           0
 nber times 1st assigned=          48           0
 nber times 1st assigned=          49           0
 nber times 1st assigned=          50           0
 nber times 1st assigned=          51           0
 nber times 1st assigned=          52           0
 nber times 1st assigned=          53           0
 nber times 1st assigned=          54           0
 nber times 1st assigned=          55           0
 nber times 1st assigned=          56           0
 nber times 1st assigned=          57           0
 nber times 1st assigned=          58           0
 nber times 1st assigned=          59           0
 nber times 1st assigned=          60           0
 nber times 1st assigned=          61           0
 nber times 1st assigned=          62           0
 nber times 1st assigned=          63           0
 nber times 1st assigned=          64           0
 nber times 1st assigned=          65           0
 nber times 1st assigned=          66           0
 nber times 1st assigned=          67           0
 nber times 1st assigned=          68           0
 nber times 1st assigned=          69           0
 nber times 1st assigned=          70           0
 nber times 1st assigned=          71           0
 nber times 1st assigned=          72           0
 nber times 1st assigned=          73           0
 nber times 1st assigned=          74           0
 nber times 1st assigned=          75           0
 nber times 1st assigned=          76           0
 nber times 1st assigned=          77           0
 nber times 1st assigned=          78           0
 modes represented=   73.5131994330798     
 p1=
   -0.   -0.    0.   -0.    0.    0.    0.   -6.   -0.   -0.   -4.   -0.   -4.   -0.   -0.    0.   -0.    0.   -0.    0.
    0.   -5.   -2.    0.    2.   -2.    0.    1.   -0.   -0.    2.   -0.   -3.    5.    0.    2.    1.    0.   -1.   -0.
    1.   -0.    0.    0.   -1.    0.    0.   -0.   -2.   -1.   -0.    0.   -1.    1.   -0.    1.    1.    1.    1.   -1.
   -3.    0.   -2.   -3.    2.   -3.    3.    0.   -0.    1.    3.   -0.   -0.   -0.   -0.    0.   -0.    0.
 p2=
    0.    0.    0.   -0.    0.    0.   -0.    6.   -0.    0.    4.   -0.   -0.   -4.    0.   -0.   -0.   -0.    0.   -0.
   -0.    1.    6.    0.   -1.   -0.    3.   -0.    1.   -0.    3.   -0.    5.   -2.    1.    0.    2.    0.   -0.   -0.
    0.   -1.   -0.   -0.    1.    0.    0.   -0.   -1.    0.   -1.   -1.    1.    1.    0.   -0.   -1.   -1.    2.   -1.
    3.   -3.   -0.    1.   -0.   -2.   -4.   -0.   -0.    1.    4.   -0.   -0.   -0.   -0.   -0.   -0.   -0.

 Displacement: in terms of nc of 1 THEN of nc of 2

   1     freq=    -0. Q= -0.000 lam=    -0.0     freq=    -0. Q= -0.000 lam=    -0.0
   2     freq=    -0. Q= -0.000 lam=    -0.0     freq=    -0. Q= -0.000 lam=    -0.0
   3     freq=    -0. Q=  0.000 lam=    -0.0     freq=    -0. Q=  0.000 lam=    -0.0
   4     freq=    -0. Q= -0.000 lam=    -0.0     freq=     0. Q= -0.000 lam=     0.0
   5     freq=     0. Q=  0.000 lam=     0.0     freq=     0. Q=  0.000 lam=     0.0
   6     freq=     0. Q=  0.000 lam=     0.0     freq=     0. Q=  0.000 lam=     0.0
   7     freq=    19. Q=  0.000 lam=     0.0     freq=    26. Q=  0.001 lam=     0.0
   8     freq=    27. Q= -0.124 lam=     0.2     freq=    26. Q= -0.118 lam=     0.2
   9     freq=    28. Q= -0.002 lam=     0.0     freq=    31. Q= -0.000 lam=     0.0
  10     freq=    81. Q= -0.000 lam=     0.0     freq=    70. Q= -0.000 lam=     0.0
  11     freq=   110. Q= -0.155 lam=     1.3     freq=   106. Q= -0.153 lam=     1.2
  12     freq=   172. Q= -0.000 lam=     0.0     freq=   134. Q= -0.000 lam=     0.0
  13     freq=   190. Q= -0.240 lam=     5.5     freq=   182. Q= -0.000 lam=     0.0
  14     freq=   193. Q= -0.000 lam=     0.0     freq=   189. Q= -0.221 lam=     4.6
  15     freq=   203. Q= -0.000 lam=     0.0     freq=   191. Q= -0.000 lam=     0.0
  16     freq=   247. Q=  0.000 lam=     0.0     freq=   232. Q=  0.000 lam=     0.0
  17     freq=   316. Q= -0.010 lam=     0.0     freq=   275. Q= -0.000 lam=     0.0
  18     freq=   338. Q=  0.000 lam=     0.0     freq=   317. Q=  0.007 lam=     0.0
  19     freq=   358. Q= -0.006 lam=     0.0     freq=   356. Q= -0.008 lam=     0.0
  20     freq=   422. Q=  0.000 lam=     0.0     freq=   373. Q=  0.000 lam=     0.0
  21     freq=   434. Q=  0.000 lam=     0.0     freq=   426. Q=  0.000 lam=     0.0
  22     freq=   445. Q= -0.465 lam=    48.1     freq=   435. Q= -0.045 lam=     0.4
  23     freq=   456. Q= -0.198 lam=     9.0     freq=   436. Q= -0.531 lam=    61.6
  24     freq=   472. Q=  0.000 lam=     0.0     freq=   441. Q=  0.000 lam=     0.0
  25     freq=   496. Q=  0.207 lam=    10.6     freq=   481. Q=  0.052 lam=     0.6
  26     freq=   509. Q= -0.221 lam=    12.5     freq=   491. Q= -0.000 lam=     0.0
  27     freq=   536. Q=  0.000 lam=     0.0     freq=   498. Q=  0.277 lam=    19.1
  28     freq=   546. Q=  0.064 lam=     1.1     freq=   509. Q=  0.000 lam=     0.0
  29     freq=   547. Q= -0.000 lam=     0.0     freq=   515. Q= -0.082 lam=     1.7
  30     freq=   603. Q= -0.000 lam=     0.0     freq=   555. Q= -0.000 lam=     0.0
  31     freq=   605. Q=  0.211 lam=    13.5     freq=   598. Q=  0.256 lam=    19.6
  32     freq=   625. Q= -0.000 lam=     0.0     freq=   610. Q= -0.000 lam=     0.0
  33     freq=   642. Q= -0.279 lam=    25.0     freq=   627. Q= -0.498 lam=    77.8
  34     freq=   675. Q=  0.521 lam=    91.4     freq=   634. Q=  0.224 lam=    16.0
  35     freq=   711. Q=  0.000 lam=     0.0     freq=   672. Q=  0.144 lam=     7.0
  36     freq=   711. Q=  0.244 lam=    21.1     freq=   673. Q=  0.000 lam=     0.0
  37     freq=   717. Q=  0.089 lam=     2.8     freq=   703. Q=  0.172 lam=    10.4
  38     freq=   738. Q=  0.000 lam=     0.0     freq=   724. Q=  0.000 lam=     0.0
  39     freq=   764. Q= -0.104 lam=     4.1     freq=   748. Q= -0.037 lam=     0.5
  40     freq=   775. Q= -0.000 lam=     0.0     freq=   765. Q= -0.000 lam=     0.0
  41     freq=   831. Q=  0.128 lam=     6.8     freq=   770. Q=  0.000 lam=     0.0
  42     freq=   844. Q= -0.000 lam=     0.0     freq=   814. Q= -0.067 lam=     1.8
  43     freq=   869. Q=  0.000 lam=     0.0     freq=   853. Q=  0.000 lam=     0.0
  44     freq=   881. Q=  0.000 lam=     0.0     freq=   866. Q=  0.000 lam=     0.0
  45     freq=   885. Q= -0.100 lam=     4.4     freq=   877. Q= -0.083 lam=     3.0
  46     freq=   920. Q=  0.048 lam=     1.1     freq=   902. Q=  0.037 lam=     0.6
  47     freq=   955. Q=  0.000 lam=     0.0     freq=   939. Q=  0.000 lam=     0.0
  48     freq=   993. Q= -0.000 lam=     0.0     freq=   982. Q= -0.000 lam=     0.0
  49     freq=  1032. Q= -0.200 lam=    20.7     freq=   997. Q= -0.080 lam=     3.2
  50     freq=  1044. Q= -0.137 lam=     9.9     freq=  1028. Q= -0.032 lam=     0.5
  51     freq=  1087. Q= -0.061 lam=     2.0     freq=  1076. Q= -0.116 lam=     7.3
  52     freq=  1113. Q=  0.059 lam=     1.9     freq=  1098. Q=  0.132 lam=     9.5
  53     freq=  1144. Q= -0.181 lam=    18.7     freq=  1132. Q= -0.145 lam=    11.9
  54     freq=  1178. Q=  0.086 lam=     4.3     freq=  1145. Q=  0.165 lam=    15.6
  55     freq=  1185. Q= -0.040 lam=     0.9     freq=  1160. Q= -0.009 lam=     0.0
  56     freq=  1208. Q=  0.176 lam=    18.7     freq=  1181. Q=  0.005 lam=     0.0
  57     freq=  1236. Q=  0.154 lam=    14.6     freq=  1219. Q=  0.157 lam=    15.1
  58     freq=  1272. Q=  0.111 lam=     7.8     freq=  1270. Q=  0.093 lam=     5.5
  59     freq=  1312. Q=  0.107 lam=     7.6     freq=  1312. Q=  0.360 lam=    85.1
  60     freq=  1343. Q= -0.086 lam=     5.0     freq=  1345. Q= -0.117 lam=     9.2
  61     freq=  1363. Q= -0.447 lam=   136.1     freq=  1358. Q= -0.410 lam=   114.1
  62     freq=  1382. Q=  0.002 lam=     0.0     freq=  1375. Q=  0.438 lam=   131.8
  63     freq=  1451. Q= -0.372 lam=   100.2     freq=  1416. Q= -0.013 lam=     0.1
  64     freq=  1458. Q= -0.454 lam=   150.0     freq=  1445. Q= -0.101 lam=     7.4
  65     freq=  1487. Q=  0.280 lam=    58.2     freq=  1449. Q=  0.010 lam=     0.1
  66     freq=  1491. Q= -0.460 lam=   157.8     freq=  1470. Q= -0.240 lam=    42.2
  67     freq=  1519. Q=  0.464 lam=   163.5     freq=  1484. Q=  0.646 lam=   309.8
  68     freq=  1571. Q=  0.008 lam=     0.0     freq=  1533. Q=  0.005 lam=     0.0
  69     freq=  1593. Q= -0.058 lam=     2.7     freq=  1560. Q= -0.056 lam=     2.4
  70     freq=  1636. Q=  0.089 lam=     6.5     freq=  1607. Q=  0.136 lam=    14.9
  71     freq=  2281. Q=  0.623 lam=   442.7     freq=  2131. Q=  0.710 lam=   536.3
  72     freq=  3170. Q= -0.003 lam=     0.0     freq=  3169. Q= -0.004 lam=     0.0
  73     freq=  3182. Q= -0.002 lam=     0.0     freq=  3180. Q= -0.002 lam=     0.0
  74     freq=  3192. Q= -0.000 lam=     0.0     freq=  3192. Q= -0.001 lam=     0.0
  75     freq=  3200. Q= -0.005 lam=     0.0     freq=  3200. Q= -0.006 lam=     0.1
  76     freq=  3216. Q=  0.004 lam=     0.0     freq=  3212. Q=  0.004 lam=     0.0
  77     freq=  3225. Q= -0.017 lam=     0.5     freq=  3229. Q= -0.012 lam=     0.2
  78     freq=  3245. Q=  0.004 lam=     0.0     freq=  3243. Q=  0.005 lam=     0.0

 total reorg energy (cm**-1, kcal/mol)=     1589.     1549.      4.54      4.43
 Nber of molecules processed=           2
