 Enter ifcurve (0=recti, 1=orth curvi, 2=apprx curvi, -1 = skip
 And atom ordering flag, 0= never changes, 1= use the first order thenceforth,
  2= deduce it (does read on fail), 3= always read it
 Reading file: 
 ./TT-PDI_3_C0S2.log                                                            
                                          
  Entering Gaussian System, Link 0=g16                                          
  
 Gaussian format, type: g94, g98, g03= F F F
  #P Geom=AllCheck Guess=TCheck SCRF=Check GenChk RB3LYP TD(FC,Read)/6-3    
 energy type= TD      
 Original G94 input coords:
  6  1.671808 -1.211815 -0.100208
  6  2.663501 -0.082407  0.197223
  6  3.975143 -0.569477  0.821589
  7  2.908330  0.771630 -1.008934
  6  3.515919  0.204973 -2.135875
  8  3.851258 -0.970327 -2.157730
  6  3.737340  1.085475 -3.303015
  6  4.341595  0.555002 -4.449212
  6  4.562521  1.350258 -5.555139
  6  4.190241  2.722961 -5.574500
  6  4.414678  3.565407 -6.721945
  6  5.023092  3.078524 -7.911594
  6  5.232435  3.894957 -9.003656
  6  4.846757  5.240479 -8.968645
  6  5.088654  6.081384-10.158332
  8  5.609237  5.649153-11.170065
  7  4.682093  7.428154-10.066611
  6  4.907739  8.273268-11.218228
  6  5.970164  9.171356-11.223401
  6  6.181509  9.988357-12.325147
  6  5.346534  9.911633-13.452111
  6  5.597278 10.763469-14.618724
  6  6.801279 11.248965-15.065730
  6  6.658832 12.045959-16.230785
 16  7.754942 12.915865-17.271844
  6  6.421884 13.429413-18.281915
  6  5.212420 12.964719-17.855227
  6  5.351925 12.171492-16.682069
 16  4.258018 11.299954-15.644286
  6  4.281598  8.997437-13.425329
  6  4.060441  8.190272-12.317312
  6  4.073653  8.014581 -8.937630
  8  3.753136  9.188706 -8.935439
  6  3.853760  7.129099 -7.776740
  6  3.249862  7.657540 -6.629337
  6  3.028042  6.860877 -5.525160
  6  3.399815  5.488355 -5.508605
  6  3.174610  4.645606 -4.361587
  6  2.565412  5.129188 -3.170793
  6  2.356170  4.310794 -2.079548
  6  2.743188  2.965481 -2.116370
  6  2.504305  2.117680 -0.930204
  8  1.977950  2.569694  0.075079
  6  3.351124  2.441814 -3.276350
  6  3.573718  3.276880 -4.413242
  6  4.016233  4.935096 -6.671065
  6  4.239447  5.770662 -7.808793
  1  1.412157 -1.712253  0.836666
  1  2.092937 -1.948438 -0.783160
  1  0.749786 -0.813259 -0.531310
  1  2.192301  0.606932  0.894309
  1  4.489903 -1.279199  0.175253
  1  3.754766 -1.060156  1.773569
  1  4.641376  0.272296  1.027426
  1  4.627520 -0.488846 -4.441048
  1  5.031281  0.906837 -6.422127
  1  5.333343  2.045213 -7.974267
  1  5.695777  3.518598 -9.906614
  1  6.618032  9.242450-10.358358
  1  6.987887 10.711233-12.304164
  1  7.743855 11.012280-14.592318
  1  6.625513 14.052670-19.138924
  1  4.278364 13.179775-18.355058
  1  3.633138  8.901956-14.288231
  1  3.238527  7.485039-12.310883
  1  2.964991  8.701807 -6.635581
  1  2.559463  7.302729 -4.657317
  1  2.253788  6.162026 -3.106121
  1  1.891827  4.686203 -1.176884
 nber atoms=          69
  Total Energy, E(TD-HF/TD-DFT) =  -2706.72541198                               
  
          32          49 "  -2706.72541198"
After scan for Atom:   Atom  AN      X      Y      Z        X      Y      Z        X      Y      Z   
After scan for Atom:   Atom  AN      X      Y      Z        X      Y      Z        X      Y      Z   
After scan for Atom:   Atom  AN      X      Y      Z        X      Y      Z        X      Y      Z   
After scan for Atom:   Atom  AN      X      Y      Z        X      Y      Z        X      Y      Z   
After scan for Atom:   Atom  AN      X      Y      Z        X      Y      Z        X      Y      Z   
After scan for Atom:   Atom  AN      X      Y      Z        X      Y      Z        X      Y      Z   
After scan for Atom:   Atom  AN      X      Y      Z        X      Y      Z        X      Y      Z   
After scan for Atom:   Atom  AN      X      Y      Z        X      Y      Z        X      Y      Z   
After scan for Atom:   Atom  AN      X      Y      Z        X      Y      Z        X      Y      Z   
After scan for Atom:   Atom  AN      X      Y      Z        X      Y      Z        X      Y      Z   
After scan for Atom:   Atom  AN      X      Y      Z        X      Y      Z        X      Y      Z   
After scan for Atom:   Atom  AN      X      Y      Z        X      Y      Z        X      Y      Z   
After scan for Atom:   Atom  AN      X      Y      Z        X      Y      Z        X      Y      Z   
After scan for Atom:   Atom  AN      X      Y      Z        X      Y      Z        X      Y      Z   
After scan for Atom:   Atom  AN      X      Y      Z        X      Y      Z        X      Y      Z   
After scan for Atom:   Atom  AN      X      Y      Z        X      Y      Z        X      Y      Z   
After scan for Atom:   Atom  AN      X      Y      Z        X      Y      Z        X      Y      Z   
After scan for Atom:   Atom  AN      X      Y      Z        X      Y      Z        X      Y      Z   
After scan for Atom:   Atom  AN      X      Y      Z        X      Y      Z        X      Y      Z   
After scan for Atom:   Atom  AN      X      Y      Z        X      Y      Z        X      Y      Z   
After scan for Atom:   Atom  AN      X      Y      Z        X      Y      Z        X      Y      Z   
After scan for Atom:   Atom  AN      X      Y      Z        X      Y      Z        X      Y      Z   
After scan for Atom:   Atom  AN      X      Y      Z        X      Y      Z        X      Y      Z   
After scan for Atom:   Atom  AN      X      Y      Z        X      Y      Z        X      Y      Z   
After scan for Atom:   Atom  AN      X      Y      Z        X      Y      Z        X      Y      Z   
After scan for Atom:   Atom  AN      X      Y      Z        X      Y      Z        X      Y      Z   
After scan for Atom:   Atom  AN      X      Y      Z        X      Y      Z        X      Y      Z   
After scan for Atom:   Atom  AN      X      Y      Z        X      Y      Z        X      Y      Z   
After scan for Atom:   Atom  AN      X      Y      Z        X      Y      Z        X      Y      Z   
After scan for Atom:   Atom  AN      X      Y      Z        X      Y      Z        X      Y      Z   
After scan for Atom:   Atom  AN      X      Y      Z        X      Y      Z        X      Y      Z   
After scan for Atom:   Atom  AN      X      Y      Z        X      Y      Z        X      Y      Z   
After scan for Atom:   Atom  AN      X      Y      Z        X      Y      Z        X      Y      Z   
After scan for Atom:   Atom  AN      X      Y      Z        X      Y      Z        X      Y      Z   
After scan for Atom:   Atom  AN      X      Y      Z        X      Y      Z        X      Y      Z   
After scan for Atom:   Atom  AN      X      Y      Z        X      Y      Z        X      Y      Z   
After scan for Atom:   Atom  AN      X      Y      Z        X      Y      Z        X      Y      Z   
After scan for Atom:   Atom  AN      X      Y      Z        X      Y      Z        X      Y      Z   
After scan for Atom:   Atom  AN      X      Y      Z        X      Y      Z        X      Y      Z   
After scan for Atom:   Atom  AN      X      Y      Z        X      Y      Z        X      Y      Z   
After scan for Atom:   Atom  AN      X      Y      Z        X      Y      Z        X      Y      Z   
After scan for Atom:   Atom  AN      X      Y      Z        X      Y      Z        X      Y      Z   
After scan for Atom:   Atom  AN      X      Y      Z        X      Y      Z        X      Y      Z   
After scan for Atom:   Atom  AN      X      Y      Z        X      Y      Z        X      Y      Z   
After scan for Atom:   Atom  AN      X      Y      Z        X      Y      Z        X      Y      Z   
After scan for Atom:   Atom  AN      X      Y      Z        X      Y      Z        X      Y      Z   
After scan for Atom:   Atom  AN      X      Y      Z        X      Y      Z        X      Y      Z   
After scan for Atom:   Atom  AN      X      Y      Z        X      Y      Z        X      Y      Z   
After scan for Atom:   Atom  AN      X      Y      Z        X      Y      Z        X      Y      Z   
After scan for Atom:   Atom  AN      X      Y      Z        X      Y      Z        X      Y      Z   
After scan for Atom:   Atom  AN      X      Y      Z        X      Y      Z        X      Y      Z   
After scan for Atom:   Atom  AN      X      Y      Z        X      Y      Z        X      Y      Z   
After scan for Atom:   Atom  AN      X      Y      Z        X      Y      Z        X      Y      Z   
After scan for Atom:   Atom  AN      X      Y      Z        X      Y      Z        X      Y      Z   
After scan for Atom:   Atom  AN      X      Y      Z        X      Y      Z        X      Y      Z   
After scan for Atom:   Atom  AN      X      Y      Z        X      Y      Z        X      Y      Z   
After scan for Atom:   Atom  AN      X      Y      Z        X      Y      Z        X      Y      Z   
After scan for Atom:   Atom  AN      X      Y      Z        X      Y      Z        X      Y      Z   
After scan for Atom:   Atom  AN      X      Y      Z        X      Y      Z        X      Y      Z   
After scan for Atom:   Atom  AN      X      Y      Z        X      Y      Z        X      Y      Z   
After scan for Atom:   Atom  AN      X      Y      Z        X      Y      Z        X      Y      Z   
After scan for Atom:   Atom  AN      X      Y      Z        X      Y      Z        X      Y      Z   
After scan for Atom:   Atom  AN      X      Y      Z        X      Y      Z        X      Y      Z   
After scan for Atom:   Atom  AN      X      Y      Z        X      Y      Z        X      Y      Z   
After scan for Atom:   Atom  AN      X      Y      Z        X      Y      Z        X      Y      Z   
After scan for Atom:   Atom  AN      X      Y      Z        X      Y      Z        X      Y      Z   
After scan for Atom:   Atom  AN      X      Y      Z        X      Y      Z        X      Y      Z   
 g94    frequencies=
     0.0    0.0    0.0    0.0    0.0    0.0    5.7    9.1   14.3   28.0
    29.4   43.9   52.6   55.8   60.7   70.8   77.0   89.9  102.1  106.4
   109.6  133.0  161.7  167.7  183.9  194.5  199.5  204.3  211.9  215.8
   234.2  235.2  245.2  256.8  282.7  287.9  302.5  307.3  326.0  342.9
   351.7  370.7  389.9  392.7  412.6  417.5  419.4  431.6  437.2  439.1
   446.9  454.0  458.5  466.9  473.0  478.6  486.9  502.4  503.6  506.4
   516.4  526.3  545.8  572.0  573.3  576.0  577.7  597.4  605.2  615.5
   623.1  635.1  639.8  652.7  655.4  678.1  691.3  701.5  706.3  708.4
   711.8  726.3  745.6  753.0  759.8  760.9  762.5  771.5  798.8  807.1
   812.6  814.5  815.1  822.6  828.9  832.5  832.8  835.5  838.0  851.8
   859.2  876.4  901.0  905.3  923.8  933.7  945.1  956.6  965.9  971.0
   974.5  976.3  977.7  981.6  987.7  988.4 1035.3 1061.2 1083.5 1094.9
  1109.1 1134.3 1135.6 1155.3 1157.4 1163.8 1164.7 1175.6 1178.6 1185.6
  1195.8 1204.2 1205.3 1210.4 1224.0 1232.6 1242.3 1244.5 1251.8 1263.4
  1299.5 1313.2 1316.8 1318.5 1333.1 1350.4 1357.5 1362.7 1366.0 1378.6
  1380.3 1382.3 1391.6 1400.0 1403.8 1415.9 1430.5 1439.4 1439.6 1444.4
  1458.0 1460.9 1466.3 1484.8 1492.1 1497.4 1505.1 1505.2 1510.8 1522.4
  1532.0 1546.5 1554.7 1560.5 1570.4 1580.8 1599.1 1599.6 1609.6 1622.7
  1647.6 1685.4 1706.0 1724.7 1741.8 3034.1 3038.2 3092.0 3095.3 3112.3
  3132.5 3142.8 3177.3 3180.6 3195.3 3197.3 3197.8 3198.1 3204.5 3204.7
  3212.6 3212.7 3212.9 3213.9 3223.8 3224.1 3244.7
 g94    symmetries=
                                                 A      A      A      A
       A      A      A      A      A      A      A      A      A      A
       A      A      A      A      A      A      A      A      A      A
       A      A      A      A      A      A      A      A      A      A
       A      A      A      A      A      A      A      A      A      A
       A      A      A      A      A      A      A      A      A      A
       A      A      A      A      A      A      A      A      A      A
       A      A      A      A      A      A      A      A      A      A
       A      A      A      A      A      A      A      A      A      A
       A      A      A      A      A      A      A      A      A      A
       A      A      A      A      A      A      A      A      A      A
       A      A      A      A      A      A      A      A      A      A
       A      A      A      A      A      A      A      A      A      A
       A      A      A      A      A      A      A      A      A      A
       A      A      A      A      A      A      A      A      A      A
       A      A      A      A      A      A      A      A      A      A
       A      A      A      A      A      A      A      A      A      A
       A      A      A      A      A      A      A      A      A      A
       A      A      A      A      A      A      A      A      A      A
       A      A      A      A      A      A      A      A      A      A
       A      A      A      A      A      A      A
 atomic masses:
 12.0000 12.0000 12.0000 14.0031 12.0000 15.9949 12.0000 12.0000 12.0000 12.0000
 12.0000 12.0000 12.0000 12.0000 12.0000 15.9949 14.0031 12.0000 12.0000 12.0000
 12.0000 12.0000 12.0000 12.0000 31.9721 12.0000 12.0000 12.0000 31.9721 12.0000
 12.0000 12.0000 15.9949 12.0000 12.0000 12.0000 12.0000 12.0000 12.0000 12.0000
 12.0000 12.0000 15.9949 12.0000 12.0000 12.0000 12.0000  1.0078  1.0078  1.0078
  1.0078  1.0078  1.0078  1.0078  1.0078  1.0078  1.0078  1.0078  1.0078  1.0078
  1.0078  1.0078  1.0078  1.0078  1.0078  1.0078  1.0078  1.0078  1.0078
 looking for force constants in 
 ./TT-PDI_3_C0S2.fchk                                                           
  
 Cartesian Force Constants                  R   N=       21528                  
  
 n3=         207       21528
 g94-fc frequencies=
    -1.4   -0.7   -0.0   -0.0    0.0    2.7    5.8    9.1   14.3   28.0
    29.4   43.9   52.6   55.8   60.7   70.8   77.0   89.9  102.1  106.4
   109.6  133.0  161.8  167.7  183.9  194.5  199.5  204.3  211.9  215.8
   234.2  235.2  245.2  256.8  282.7  287.9  302.5  307.3  326.0  342.9
   351.7  370.8  389.9  392.7  412.6  417.5  419.4  431.6  437.2  439.1
   446.9  454.0  458.5  466.9  473.0  478.6  486.9  502.5  503.7  506.4
   516.4  526.3  545.9  572.1  573.4  576.1  577.7  597.4  605.2  615.5
   623.1  635.1  639.8  652.7  655.4  678.1  691.3  701.5  706.4  708.5
   711.8  726.3  745.6  753.1  759.8  760.9  762.5  771.5  798.8  807.1
   812.6  814.5  815.1  822.6  828.9  832.5  832.8  835.5  838.0  851.8
   859.3  876.5  901.0  905.3  923.8  933.7  945.1  956.6  966.0  971.0
   974.5  976.3  977.8  981.7  987.8  988.4 1035.4 1061.2 1083.5 1094.9
  1109.2 1134.3 1135.6 1155.3 1157.5 1163.8 1164.7 1175.7 1178.6 1185.6
  1195.8 1204.3 1205.3 1210.4 1224.0 1232.7 1242.3 1244.5 1251.9 1263.4
  1299.6 1313.2 1316.8 1318.5 1333.1 1350.4 1357.5 1362.8 1366.1 1378.6
  1380.4 1382.3 1391.7 1400.0 1403.8 1415.9 1430.6 1439.4 1439.6 1444.4
  1458.0 1460.9 1466.3 1484.8 1492.1 1497.4 1505.1 1505.3 1510.9 1522.4
  1532.0 1546.6 1554.8 1560.6 1570.4 1580.9 1599.2 1599.7 1609.6 1622.7
  1647.7 1685.5 1706.0 1724.8 1741.8 3034.1 3038.3 3092.1 3095.3 3112.4
  3132.5 3142.9 3177.3 3180.7 3195.3 3197.4 3197.8 3198.2 3204.6 3204.8
  3212.6 3212.8 3213.0 3214.0 3223.9 3224.1 3244.8
 at 99999: n3=         207
 symm operator            1 :  F  nop=           0
 symm operator            2 :  F  nop=           0
 symm operator            3 :  F  nop=           0
 symm operator            4 :  F  nop=           0
 symm operator            5 :  F  nop=           0
 symm operator            6 :  F  nop=           0
 symm operator            7 :  F  nop=           0
 The point group of the molecule is  C1
 Symmetry rotation matrix:
   1.00000   0.00000   0.00000
   0.00000   1.00000   0.00000
   0.00000   0.00000   1.00000

 Projecting out zero-frequency components
 generating redundant internal coords
         300        3600          69
 search for int coords
   1 str   2   1   1.532
   2 str   3   2   1.532
   3 str   4   2   1.498
   4 str   5   4   1.400
   5 str   6   5   1.222
   6 str   7   5   1.479
   7 str   8   7   1.400
   8 str   9   8   1.380
   9 str  10   9   1.422
  10 str  11  10   1.441
  11 str  12  11   1.422
  12 str  13  12   1.379
  13 str  14  13   1.400
  14 str  15  14   1.477
  15 str  16  15   1.217
  16 str  17  15   1.410
  17 str  18  17   1.446
  18 str  19  18   1.391
  19 str  20  19   1.388
  20 str  21  20   1.405
  21 str  22  21   1.466
  22 str  23  22   1.373
  23 str  24  23   1.419
  24 str  25  24   1.744
  25 str  26  25   1.750
  26 str  27  26   1.364
  27 str  28  24   1.388
  28 str  28  27   1.423
  29 str  29  22   1.770
  30 str  29  28   1.742
  31 str  30  21   1.404
  32 str  31  18   1.390
  33 str  31  30   1.389
  34 str  32  17   1.410
  35 str  33  32   1.217
  36 str  34  32   1.477
  37 str  35  34   1.400
  38 str  36  35   1.380
  39 str  37  36   1.422
  40 str  38  37   1.441
  41 str  39  38   1.422
  42 str  40  39   1.380
  43 str  41  40   1.400
  44 str  42   4   1.408
  45 str  42  41   1.477
  46 str  43  42   1.221
  47 str  44   7   1.411
  48 str  44  41   1.410
  49 str  45  10   1.427
  50 str  45  38   1.427
  51 str  45  44   1.428
  52 str  46  11   1.427
  53 str  46  37   1.427
  54 str  47  14   1.413
  55 str  47  34   1.412
  56 str  47  46   1.429
  57 str  48   1   1.093
  58 str  49   1   1.089
  59 str  50   1   1.093
  60 str  51   2   1.088
  61 str  52   3   1.089
  62 str  53   3   1.093
  63 str  54   3   1.093
  64 str  55   8   1.082
  65 str  56   9   1.081
  66 str  57  12   1.081
  67 str  58  13   1.082
  68 str  59  19   1.083
  69 str  60  20   1.083
  70 str  61  23   1.081
  71 str  62  26   1.079
  72 str  63  27   1.081
  73 str  64  30   1.084
  74 str  65  31   1.083
  75 str  66  35   1.082
  76 str  67  36   1.081
  77 str  68  39   1.081
  78 str  69  40   1.082
 nber stretches=          78
  79 ben   1   2   3
  80 prop tor   1   2   3  52
  81 prop tor   1   2   3  53
  82 prop tor   1   2   3  54
  83 ben   1   2   4
  84 prop tor   1   2   4   5
  85 prop tor   1   2   4  42
  86 ben   1   2  51
  87 ben   2   1  48
  88 ben   2   1  49
  89 ben   2   1  50
  90 ben   2   3  52
  91 ben   2   3  53
  92 ben   2   3  54
  93 ben   2   4   5
  94 prop tor   2   4   5   6
  95 prop tor   2   4   5   7
  96 ben   2   4  42
  97 prop tor   2   4  42  41
  98 prop tor   2   4  42  43
  99 ben   3   2   4
 100 prop tor   3   2   4   5
 101 prop tor   3   2   4  42
 102 ben   3   2  51
 103 prop tor   4   2   3  52
 104 prop tor   4   2   3  53
 105 prop tor   4   2   3  54
 106 ben   4   2  51
 107 ben   4   5   6
 108 ben   4   5   7
 109 prop tor   4   5   7   8
 110 prop tor   4   5   7  44
 111 ben   4  42  41
 112 ben   4  42  43
 113 ben   5   4  42
 114 prop tor   5   4  42  41
 115 prop tor   5   4  42  43
 116 ben   5   7   8
 117 prop tor   5   7   8   9
 118 prop tor   5   7   8  55
 119 ben   5   7  44
 120 prop tor   5   7  44  41
 121 prop tor   5   7  44  45
 122 ben   6   5   7
 123 prop tor   6   5   7   8
 124 prop tor   6   5   7  44
 125 ben   7   8   9
 126 prop tor   7   8   9  10
 127 prop tor   7   8   9  56
 128 ben   7   8  55
 129 ben   7  44  41
 130 ben   7  44  45
 131 prop tor   7  44  45  10
 132 prop tor   7  44  45  38
 133 ben   8   7  44
 134 prop tor   8   7  44  41
 135 prop tor   8   7  44  45
 136 ben   8   9  10
 137 prop tor   8   9  10  11
 138 prop tor   8   9  10  45
 139 ben   8   9  56
 140 ben   9   8  55
 141 ben   9  10  11
 142 prop tor   9  10  11  12
 143 prop tor   9  10  11  46
 144 ben   9  10  45
 145 prop tor   9  10  45  38
 146 prop tor   9  10  45  44
 147 ben  10   9  56
 148 ben  10  11  12
 149 prop tor  10  11  12  13
 150 prop tor  10  11  12  57
 151 ben  10  11  46
 152 prop tor  10  11  46  37
 153 prop tor  10  11  46  47
 154 ben  10  45  38
 155 ben  10  45  44
 156 ben  11  10  45
 157 prop tor  11  10  45  38
 158 prop tor  11  10  45  44
 159 ben  11  12  13
 160 prop tor  11  12  13  14
 161 prop tor  11  12  13  58
 162 ben  11  12  57
 163 ben  11  46  37
 164 ben  11  46  47
 165 prop tor  11  46  47  14
 166 prop tor  11  46  47  34
 167 ben  12  11  46
 168 prop tor  12  11  46  37
 169 prop tor  12  11  46  47
 170 ben  12  13  14
 171 prop tor  12  13  14  15
 172 prop tor  12  13  14  47
 173 ben  12  13  58
 174 ben  13  12  57
 175 ben  13  14  15
 176 prop tor  13  14  15  16
 177 prop tor  13  14  15  17
 178 ben  13  14  47
 179 prop tor  13  14  47  34
 180 prop tor  13  14  47  46
 181 ben  14  13  58
 182 ben  14  15  16
 183 ben  14  15  17
 184 prop tor  14  15  17  18
 185 prop tor  14  15  17  32
 186 ben  14  47  34
 187 ben  14  47  46
 188 ben  15  14  47
 189 prop tor  15  14  47  34
 190 prop tor  15  14  47  46
 191 ben  15  17  18
 192 prop tor  15  17  18  19
 193 prop tor  15  17  18  31
 194 ben  15  17  32
 195 prop tor  15  17  32  33
 196 prop tor  15  17  32  34
 197 ben  16  15  17
 198 prop tor  16  15  17  18
 199 prop tor  16  15  17  32
 200 ben  17  18  19
 201 prop tor  17  18  19  20
 202 prop tor  17  18  19  59
 203 ben  17  18  31
 204 prop tor  17  18  31  30
 205 prop tor  17  18  31  65
 206 ben  17  32  33
 207 ben  17  32  34
 208 prop tor  17  32  34  35
 209 prop tor  17  32  34  47
 210 ben  18  17  32
 211 prop tor  18  17  32  33
 212 prop tor  18  17  32  34
 213 ben  18  19  20
 214 prop tor  18  19  20  21
 215 prop tor  18  19  20  60
 216 ben  18  19  59
 217 ben  18  31  30
 218 ben  18  31  65
 219 ben  19  18  31
 220 prop tor  19  18  31  30
 221 prop tor  19  18  31  65
 222 ben  19  20  21
 223 prop tor  19  20  21  22
 224 prop tor  19  20  21  30
 225 ben  19  20  60
 226 ben  20  19  59
 227 ben  20  21  22
 228 prop tor  20  21  22  23
 229 prop tor  20  21  22  29
 230 ben  20  21  30
 231 prop tor  20  21  30  31
 232 prop tor  20  21  30  64
 233 ben  21  20  60
 234 ben  21  22  23
 235 prop tor  21  22  23  24
 236 prop tor  21  22  23  61
 237 ben  21  22  29
 238 prop tor  21  22  29  28
 239 ben  21  30  31
 240 prop tor  21  30  31  18
 241 prop tor  21  30  31  65
 242 ben  21  30  64
 243 ben  22  21  30
 244 prop tor  22  21  30  31
 245 prop tor  22  21  30  64
 246 ben  22  23  24
 247 prop tor  22  23  24  25
 248 prop tor  22  23  24  28
 249 ben  22  23  61
 250 ben  22  29  28
 251 ben  23  22  29
 252 prop tor  23  22  29  28
 253 ben  23  24  25
 254 prop tor  23  24  25  26
 255 ben  23  24  28
 256 prop tor  23  24  28  27
 257 prop tor  23  24  28  29
 258 ben  24  23  61
 259 ben  24  25  26
 260 prop tor  24  25  26  27
 261 prop tor  24  25  26  62
 262 ben  24  28  27
 263 ben  24  28  29
 264 prop tor  24  28  29  22
 265 ben  25  24  28
 266 prop tor  25  24  28  27
 267 prop tor  25  24  28  29
 268 ben  25  26  27
 269 prop tor  25  26  27  28
 270 prop tor  25  26  27  63
 271 ben  25  26  62
 272 ben  26  27  28
 273 prop tor  26  27  28  24
 274 prop tor  26  27  28  29
 275 ben  26  27  63
 276 ben  27  26  62
 277 ben  27  28  29
 278 prop tor  27  28  29  22
 279 prop tor  28  24  25  26
 280 ben  28  27  63
 281 prop tor  29  22  23  24
 282 prop tor  29  22  23  61
 283 prop tor  30  21  22  23
 284 prop tor  30  21  22  29
 285 ben  30  31  65
 286 prop tor  31  18  19  20
 287 prop tor  31  18  19  59
 288 ben  31  30  64
 289 prop tor  32  17  18  19
 290 prop tor  32  17  18  31
 291 ben  32  34  35
 292 prop tor  32  34  35  36
 293 prop tor  32  34  35  66
 294 ben  32  34  47
 295 prop tor  32  34  47  14
 296 prop tor  32  34  47  46
 297 ben  33  32  34
 298 prop tor  33  32  34  35
 299 prop tor  33  32  34  47
 300 ben  34  35  36
 301 prop tor  34  35  36  37
 302 prop tor  34  35  36  67
 303 ben  34  35  66
 304 ben  34  47  46
 305 ben  35  34  47
 306 prop tor  35  34  47  14
 307 prop tor  35  34  47  46
 308 ben  35  36  37
 309 prop tor  35  36  37  38
 310 prop tor  35  36  37  46
 311 ben  35  36  67
 312 ben  36  35  66
 313 ben  36  37  38
 314 prop tor  36  37  38  39
 315 prop tor  36  37  38  45
 316 ben  36  37  46
 317 prop tor  36  37  46  11
 318 prop tor  36  37  46  47
 319 ben  37  36  67
 320 ben  37  38  39
 321 prop tor  37  38  39  40
 322 prop tor  37  38  39  68
 323 ben  37  38  45
 324 prop tor  37  38  45  10
 325 prop tor  37  38  45  44
 326 ben  37  46  47
 327 prop tor  37  46  47  14
 328 prop tor  37  46  47  34
 329 ben  38  37  46
 330 prop tor  38  37  46  11
 331 prop tor  38  37  46  47
 332 ben  38  39  40
 333 prop tor  38  39  40  41
 334 prop tor  38  39  40  69
 335 ben  38  39  68
 336 ben  38  45  44
 337 ben  39  38  45
 338 prop tor  39  38  45  10
 339 prop tor  39  38  45  44
 340 ben  39  40  41
 341 prop tor  39  40  41  42
 342 prop tor  39  40  41  44
 343 ben  39  40  69
 344 ben  40  39  68
 345 ben  40  41  42
 346 prop tor  40  41  42   4
 347 prop tor  40  41  42  43
 348 ben  40  41  44
 349 prop tor  40  41  44   7
 350 prop tor  40  41  44  45
 351 ben  41  40  69
 352 ben  41  42  43
 353 ben  41  44  45
 354 prop tor  41  44  45  10
 355 prop tor  41  44  45  38
 356 prop tor  42   4   5   6
 357 prop tor  42   4   5   7
 358 ben  42  41  44
 359 prop tor  42  41  44   7
 360 prop tor  42  41  44  45
 361 prop tor  44   7   8   9
 362 prop tor  44   7   8  55
 363 prop tor  44  41  42   4
 364 prop tor  44  41  42  43
 365 prop tor  45  10  11  12
 366 prop tor  45  10  11  46
 367 prop tor  45  38  39  40
 368 prop tor  45  38  39  68
 369 prop tor  46  11  12  13
 370 prop tor  46  11  12  57
 371 prop tor  46  37  38  39
 372 prop tor  46  37  38  45
 373 prop tor  47  14  15  16
 374 prop tor  47  14  15  17
 375 prop tor  47  34  35  36
 376 prop tor  47  34  35  66
 377 prop tor  48   1   2   3
 378 prop tor  48   1   2   4
 379 prop tor  48   1   2  51
 380 ben  48   1  49
 381 ben  48   1  50
 382 prop tor  49   1   2   3
 383 prop tor  49   1   2   4
 384 prop tor  49   1   2  51
 385 ben  49   1  50
 386 prop tor  50   1   2   3
 387 prop tor  50   1   2   4
 388 prop tor  50   1   2  51
 389 prop tor  51   2   3  52
 390 prop tor  51   2   3  53
 391 prop tor  51   2   3  54
 392 prop tor  51   2   4   5
 393 prop tor  51   2   4  42
 394 ben  52   3  53
 395 ben  52   3  54
 396 ben  53   3  54
 397 prop tor  55   8   9  10
 398 prop tor  55   8   9  56
 399 prop tor  56   9  10  11
 400 prop tor  56   9  10  45
 401 prop tor  57  12  13  14
 402 prop tor  57  12  13  58
 403 prop tor  58  13  14  15
 404 prop tor  58  13  14  47
 405 prop tor  59  19  20  21
 406 prop tor  59  19  20  60
 407 prop tor  60  20  21  22
 408 prop tor  60  20  21  30
 409 prop tor  61  23  24  25
 410 prop tor  61  23  24  28
 411 prop tor  62  26  27  28
 412 prop tor  62  26  27  63
 413 prop tor  63  27  28  24
 414 prop tor  63  27  28  29
 415 prop tor  64  30  31  18
 416 prop tor  64  30  31  65
 417 prop tor  66  35  36  37
 418 prop tor  66  35  36  67
 419 prop tor  67  36  37  38
 420 prop tor  67  36  37  46
 421 prop tor  68  39  40  41
 422 prop tor  68  39  40  69
 423 prop tor  69  40  41  42
 424 prop tor  69  40  41  44
 nber bend=             134
 nber lin bend=           0
 nber prop tor=         212
 nber impr tor=           0
 nber tot redund int=         424
 Eigenvalues of G in red int coords
    Gval -0.00000000 -0.00000000 -0.00000000 -0.00000000 -0.00000000 -0.00000000 -0.00000000 -0.00000000
    Gval -0.00000000 -0.00000000 -0.00000000 -0.00000000 -0.00000000 -0.00000000 -0.00000000 -0.00000000
    Gval -0.00000000 -0.00000000 -0.00000000 -0.00000000 -0.00000000 -0.00000000 -0.00000000 -0.00000000
    Gval -0.00000000 -0.00000000 -0.00000000 -0.00000000 -0.00000000 -0.00000000 -0.00000000 -0.00000000
    Gval -0.00000000 -0.00000000 -0.00000000 -0.00000000 -0.00000000 -0.00000000 -0.00000000 -0.00000000
    Gval -0.00000000 -0.00000000 -0.00000000 -0.00000000 -0.00000000 -0.00000000 -0.00000000 -0.00000000
    Gval -0.00000000 -0.00000000 -0.00000000 -0.00000000 -0.00000000 -0.00000000 -0.00000000 -0.00000000
    Gval -0.00000000 -0.00000000 -0.00000000 -0.00000000 -0.00000000 -0.00000000 -0.00000000 -0.00000000
    Gval -0.00000000 -0.00000000 -0.00000000 -0.00000000 -0.00000000 -0.00000000 -0.00000000 -0.00000000
    Gval -0.00000000 -0.00000000 -0.00000000 -0.00000000 -0.00000000 -0.00000000 -0.00000000 -0.00000000
    Gval -0.00000000 -0.00000000 -0.00000000 -0.00000000 -0.00000000 -0.00000000 -0.00000000 -0.00000000
    Gval -0.00000000 -0.00000000 -0.00000000 -0.00000000 -0.00000000 -0.00000000 -0.00000000 -0.00000000
    Gval -0.00000000 -0.00000000 -0.00000000 -0.00000000 -0.00000000 -0.00000000 -0.00000000 -0.00000000
    Gval -0.00000000 -0.00000000 -0.00000000 -0.00000000 -0.00000000 -0.00000000 -0.00000000 -0.00000000
    Gval -0.00000000 -0.00000000 -0.00000000  0.00000000  0.00000000  0.00000000  0.00000000  0.00000000
    Gval  0.00000000  0.00000000  0.00000000  0.00000000  0.00000000  0.00000000  0.00000000  0.00000000
    Gval  0.00000000  0.00000000  0.00000000  0.00000000  0.00000000  0.00000000  0.00000000  0.00000000
    Gval  0.00000000  0.00000000  0.00000000  0.00000000  0.00000000  0.00000000  0.00000000  0.00000000
    Gval  0.00000000  0.00000000  0.00000000  0.00000000  0.00000000  0.00000000  0.00000000  0.00000000
    Gval  0.00000000  0.00000000  0.00000000  0.00000000  0.00000000  0.00000000  0.00000000  0.00000000
    Gval  0.00000000  0.00000000  0.00000000  0.00000000  0.00000000  0.00000000  0.00000000  0.00000000
    Gval  0.00000000  0.00000000  0.00000000  0.00000000  0.00000000  0.00000000  0.00000000  0.00000000
    Gval  0.00000000  0.00000000  0.00000000  0.00000000  0.00000000  0.00000000  0.00000000  0.00000000
    Gval  0.00000000  0.00000000  0.00000000  0.00000000  0.00000000  0.00000000  0.00000000  0.00000000
    Gval  0.00000000  0.00000000  0.00000000  0.00000000  0.00000000  0.00000000  0.00000000  0.00000000
    Gval  0.00000000  0.00000000  0.00000000  0.00000000  0.00000000  0.00000000  0.00000000  0.00000000
    Gval  0.00000000  0.00000000  0.00000000  0.00000000  0.00000000  0.00000000  0.00000000  0.00000000
    Gval  0.00000000  0.00000000  0.00000000  0.00000000  0.00000000  0.00000000  0.00000000  0.00000018
    Gval  0.00000020  0.00000090  0.00000147  0.00000172  0.00000347  0.00000371  0.00000451  0.00000525
    Gval  0.00000738  0.00000802  0.00001045  0.00001114  0.00001264  0.00001312  0.00001568  0.00001641
    Gval  0.00001715  0.00001777  0.00001835  0.00001949  0.00002139  0.00002181  0.00002384  0.00002408
    Gval  0.00002542  0.00002730  0.00002997  0.00003317  0.00003409  0.00003500  0.00003606  0.00003994
    Gval  0.00004203  0.00004751  0.00004841  0.00004884  0.00004888  0.00005120  0.00005234  0.00005365
    Gval  0.00005534  0.00005897  0.00006145  0.00006244  0.00006504  0.00006853  0.00007196  0.00007330
    Gval  0.00007956  0.00008141  0.00008251  0.00008523  0.00008728  0.00008913  0.00009009  0.00009328
    Gval  0.00009500  0.00010124  0.00010431  0.00011097  0.00011748  0.00011865  0.00012146  0.00012248
    Gval  0.00013340  0.00013580  0.00013724  0.00013848  0.00014103  0.00015112  0.00015751  0.00015888
    Gval  0.00015969  0.00016688  0.00018132  0.00018226  0.00018723  0.00020092  0.00022004  0.00022213
    Gval  0.00022978  0.00023011  0.00025174  0.00026990  0.00028564  0.00028711  0.00029205  0.00029458
    Gval  0.00030000  0.00030536  0.00031835  0.00034148  0.00035531  0.00035989  0.00037699  0.00038059
    Gval  0.00038248  0.00038492  0.00039189  0.00039271  0.00040282  0.00042308  0.00042875  0.00043264
    Gval  0.00043641  0.00044109  0.00044183  0.00046021  0.00046191  0.00046876  0.00047350  0.00048383
    Gval  0.00049578  0.00053382  0.00053717  0.00054408  0.00055213  0.00055408  0.00055595  0.00055601
    Gval  0.00057496  0.00059660  0.00059844  0.00059860  0.00059924  0.00059958  0.00059985  0.00060037
    Gval  0.00060219  0.00062163  0.00062416  0.00062617  0.00063122  0.00064074  0.00064079  0.00064423
    Gval  0.00064501  0.00064682  0.00065065  0.00067050  0.00069396  0.00069770  0.00079754  0.00080259
    Gval  0.00081467  0.00093271  0.00098902  0.00107242  0.00108136  0.00109321  0.00109414  0.00109483
    Gval  0.00109533  0.00110964  0.00114293  0.00114295  0.00114538  0.00115544  0.00116539  0.00116551
    Gval  0.00116585  0.00116608  0.00117114  0.00117173  0.00117246  0.00118674  0.00120706  0.00126151
    Gval  0.00129261  0.00129530  0.00137459  0.00148182  0.00156248  0.00171515  0.00175366  0.00179198
    Gval  0.00191881  0.00208603  0.00228008  0.00233894  0.00235207  0.00246853  0.00252133  0.00252642
    Gval  0.00256023  0.00278940  0.00292182  0.00302350  0.00304209  0.00308128  0.00309605  0.00352026
    Gval  0.00365660  0.00367527  0.00367705  0.00372194  0.00372365  0.00375427  0.00394510  0.00397409
  1.750667152348745E-007  1.750667152348745E-007
  1.958761503369512E-007  1.750667152348745E-007
  8.995122665869350E-007  1.750667152348745E-007
  1.465055641295691E-006  1.750667152348745E-007
  1.723558730018810E-006  1.750667152348745E-007
  3.469251443896948E-006  1.750667152348745E-007
  3.710318089176607E-006  1.750667152348745E-007
  4.512569914183514E-006  1.750667152348745E-007
  5.252888551289248E-006  1.750667152348745E-007
  7.375726671726470E-006  1.750667152348745E-007
  8.017443872991837E-006  1.750667152348745E-007
  1.044788377387147E-005  1.750667152348745E-007
  1.113580915607452E-005  1.750667152348745E-007
  1.264119194843183E-005  1.750667152348745E-007
  1.311916953039107E-005  1.750667152348745E-007
  1.567595081555596E-005  1.750667152348745E-007
  1.640626799796706E-005  1.750667152348745E-007
  1.714975977284662E-005  1.750667152348745E-007
  1.777012179619311E-005  1.750667152348745E-007
  1.834873028555242E-005  1.750667152348745E-007
  1.948848848649609E-005  1.750667152348745E-007
  2.139085701390136E-005  1.750667152348745E-007
  2.181121574672911E-005  1.750667152348745E-007
  2.384007764230309E-005  1.750667152348745E-007
  2.407939368045581E-005  1.750667152348745E-007
  2.541536060595694E-005  1.750667152348745E-007
  2.730385269983985E-005  1.750667152348745E-007
  2.997338818109755E-005  1.750667152348745E-007
  3.317001403655939E-005  1.750667152348745E-007
  3.409193756355789E-005  1.750667152348745E-007
  3.499861095236127E-005  1.750667152348745E-007
  3.606329971646710E-005  1.750667152348745E-007
  3.994101042795402E-005  1.750667152348745E-007
  4.202621115297443E-005  1.750667152348745E-007
  4.750889275199188E-005  1.750667152348745E-007
  4.840599908807468E-005  1.750667152348745E-007
  4.883581196876362E-005  1.750667152348745E-007
  4.888340804203794E-005  1.750667152348745E-007
  5.120268499444281E-005  1.750667152348745E-007
  5.234499040503708E-005  1.750667152348745E-007
  5.365127747022553E-005  1.750667152348745E-007
  5.534037227510156E-005  1.750667152348745E-007
  5.897332523652667E-005  1.750667152348745E-007
  6.144582586153216E-005  1.750667152348745E-007
  6.244222513450659E-005  1.750667152348745E-007
  6.503587081370091E-005  1.750667152348745E-007
  6.853361023260149E-005  1.750667152348745E-007
  7.196115641280211E-005  1.750667152348745E-007
  7.329789165140581E-005  1.750667152348745E-007
  7.955606747884350E-005  1.750667152348745E-007
  8.141066247292120E-005  1.750667152348745E-007
  8.251340994895003E-005  1.750667152348745E-007
  8.523339398930165E-005  1.750667152348745E-007
  8.727588370722584E-005  1.750667152348745E-007
  8.913114181385845E-005  1.750667152348745E-007
  9.008990372534971E-005  1.750667152348745E-007
  9.328419697046821E-005  1.750667152348745E-007
  9.499865600567735E-005  1.750667152348745E-007
  1.012361258656397E-004  1.750667152348745E-007
  1.043116690939151E-004  1.750667152348745E-007
  1.109692935147896E-004  1.750667152348745E-007
  1.174785305683180E-004  1.750667152348745E-007
  1.186463616608620E-004  1.750667152348745E-007
  1.214642737365653E-004  1.750667152348745E-007
  1.224779325025670E-004  1.750667152348745E-007
  1.334027034524433E-004  1.750667152348745E-007
  1.357982930343837E-004  1.750667152348745E-007
  1.372394361966466E-004  1.750667152348745E-007
  1.384807597230974E-004  1.750667152348745E-007
  1.410276891712274E-004  1.750667152348745E-007
  1.511243129981976E-004  1.750667152348745E-007
  1.575094335986648E-004  1.750667152348745E-007
  1.588842642715625E-004  1.750667152348745E-007
  1.596899171613149E-004  1.750667152348745E-007
  1.668846088536018E-004  1.750667152348745E-007
  1.813210051518268E-004  1.750667152348745E-007
  1.822550420140356E-004  1.750667152348745E-007
  1.872315830956979E-004  1.750667152348745E-007
  2.009155271614427E-004  1.750667152348745E-007
  2.200424416543982E-004  1.750667152348745E-007
  2.221340632494049E-004  1.750667152348745E-007
  2.297795398428427E-004  1.750667152348745E-007
  2.301075925164950E-004  1.750667152348745E-007
  2.517397418016089E-004  1.750667152348745E-007
  2.698991268982224E-004  1.750667152348745E-007
  2.856383615709774E-004  1.750667152348745E-007
  2.871144322186654E-004  1.750667152348745E-007
  2.920540071710204E-004  1.750667152348745E-007
  2.945760843133138E-004  1.750667152348745E-007
  2.999979408763510E-004  1.750667152348745E-007
  3.053626857736004E-004  1.750667152348745E-007
  3.183514636430597E-004  1.750667152348745E-007
  3.414848473566370E-004  1.750667152348745E-007
  3.553052400730821E-004  1.750667152348745E-007
  3.598885436545356E-004  1.750667152348745E-007
  3.769891052958530E-004  1.750667152348745E-007
  3.805888016006516E-004  1.750667152348745E-007
  3.824825583432565E-004  1.750667152348745E-007
  3.849194501061921E-004  1.750667152348745E-007
  3.918938375544992E-004  1.750667152348745E-007
  3.927086722470214E-004  1.750667152348745E-007
  4.028216999538240E-004  1.750667152348745E-007
  4.230768444184614E-004  1.750667152348745E-007
  4.287470239030448E-004  1.750667152348745E-007
  4.326406086542103E-004  1.750667152348745E-007
  4.364105355017679E-004  1.750667152348745E-007
  4.410919864238285E-004  1.750667152348745E-007
  4.418348448451747E-004  1.750667152348745E-007
  4.602055453758987E-004  1.750667152348745E-007
  4.619134210447068E-004  1.750667152348745E-007
  4.687559028765753E-004  1.750667152348745E-007
  4.734990693963801E-004  1.750667152348745E-007
  4.838332861193316E-004  1.750667152348745E-007
  4.957821195446205E-004  1.750667152348745E-007
  5.338179605488961E-004  1.750667152348745E-007
  5.371678396150314E-004  1.750667152348745E-007
  5.440766460542811E-004  1.750667152348745E-007
  5.521318838041662E-004  1.750667152348745E-007
  5.540808377176007E-004  1.750667152348745E-007
  5.559531817696175E-004  1.750667152348745E-007
  5.560110407422669E-004  1.750667152348745E-007
  5.749610787251194E-004  1.750667152348745E-007
  5.966038321198039E-004  1.750667152348745E-007
  5.984437527318941E-004  1.750667152348745E-007
  5.985984066343644E-004  1.750667152348745E-007
  5.992393186076465E-004  1.750667152348745E-007
  5.995764677080941E-004  1.750667152348745E-007
  5.998499464630518E-004  1.750667152348745E-007
  6.003661281262203E-004  1.750667152348745E-007
  6.021877259676044E-004  1.750667152348745E-007
  6.216311439793807E-004  1.750667152348745E-007
  6.241576516460683E-004  1.750667152348745E-007
  6.261709318668444E-004  1.750667152348745E-007
  6.312239449059682E-004  1.750667152348745E-007
  6.407410645289397E-004  1.750667152348745E-007
  6.407897570312948E-004  1.750667152348745E-007
  6.442274017075175E-004  1.750667152348745E-007
  6.450064058746987E-004  1.750667152348745E-007
  6.468152296065176E-004  1.750667152348745E-007
  6.506493941669458E-004  1.750667152348745E-007
  6.704984295168516E-004  1.750667152348745E-007
  6.939616175359902E-004  1.750667152348745E-007
  6.977049737673597E-004  1.750667152348745E-007
  7.975408154030167E-004  1.750667152348745E-007
  8.025872052179162E-004  1.750667152348745E-007
  8.146672678112939E-004  1.750667152348745E-007
  9.327074625772099E-004  1.750667152348745E-007
  9.890190563546959E-004  1.750667152348745E-007
  1.072418387205701E-003  1.750667152348745E-007
  1.081358002213589E-003  1.750667152348745E-007
  1.093208527425435E-003  1.750667152348745E-007
  1.094142174417931E-003  1.750667152348745E-007
  1.094832544947927E-003  1.750667152348745E-007
  1.095334590986213E-003  1.750667152348745E-007
  1.109641917607223E-003  1.750667152348745E-007
  1.142929358493009E-003  1.750667152348745E-007
  1.142948754351816E-003  1.750667152348745E-007
  1.145377965310488E-003  1.750667152348745E-007
  1.155442438831663E-003  1.750667152348745E-007
  1.165391278659415E-003  1.750667152348745E-007
  1.165511208839612E-003  1.750667152348745E-007
  1.165852692472181E-003  1.750667152348745E-007
  1.166075198456997E-003  1.750667152348745E-007
  1.171143017071244E-003  1.750667152348745E-007
  1.171728071304504E-003  1.750667152348745E-007
  1.172462876199971E-003  1.750667152348745E-007
  1.186744899563816E-003  1.750667152348745E-007
  1.207059023524795E-003  1.750667152348745E-007
  1.261513912103788E-003  1.750667152348745E-007
  1.292606284669806E-003  1.750667152348745E-007
  1.295300884859988E-003  1.750667152348745E-007
  1.374589334773965E-003  1.750667152348745E-007
  1.481815860792966E-003  1.750667152348745E-007
  1.562476839680153E-003  1.750667152348745E-007
  1.715148262428924E-003  1.750667152348745E-007
  1.753664739929416E-003  1.750667152348745E-007
  1.791983063168890E-003  1.750667152348745E-007
  1.918809953436745E-003  1.750667152348745E-007
  2.086033390901272E-003  1.750667152348745E-007
  2.280077245830452E-003  1.750667152348745E-007
  2.338940448181894E-003  1.750667152348745E-007
  2.352074850452413E-003  1.750667152348745E-007
  2.468529644570639E-003  1.750667152348745E-007
  2.521331431527553E-003  1.750667152348745E-007
  2.526424349467476E-003  1.750667152348745E-007
  2.560229470101278E-003  1.750667152348745E-007
  2.789402469824139E-003  1.750667152348745E-007
  2.921817321530118E-003  1.750667152348745E-007
  3.023496785648349E-003  1.750667152348745E-007
  3.042094165897482E-003  1.750667152348745E-007
  3.081277313745061E-003  1.750667152348745E-007
  3.096054299343213E-003  1.750667152348745E-007
  3.520257694534706E-003  1.750667152348745E-007
  3.656598853190023E-003  1.750667152348745E-007
  3.675266348706184E-003  1.750667152348745E-007
  3.677046413565388E-003  1.750667152348745E-007
  3.721941859929191E-003  1.750667152348745E-007
  3.723646245656302E-003  1.750667152348745E-007
  3.754272293546950E-003  1.750667152348745E-007
  3.945102842919100E-003  1.750667152348745E-007
  3.974089498484108E-003  1.750667152348745E-007
 cut=1d-8, nber non-redundant internal coords=         201
 Check on Eigenvals of non-red overlap matrix:
  0.00000018  0.00000020  0.00000090  0.00000147  0.00000172  0.00000347  0.00000371  0.00000451
  0.00000525  0.00000738  0.00000802  0.00001045  0.00001114  0.00001264  0.00001312  0.00001568
  0.00001641  0.00001715  0.00001777  0.00001835  0.00001949  0.00002139  0.00002181  0.00002384
  0.00002408  0.00002542  0.00002730  0.00002997  0.00003317  0.00003409  0.00003500  0.00003606
  0.00003994  0.00004203  0.00004751  0.00004841  0.00004884  0.00004888  0.00005120  0.00005234
  0.00005365  0.00005534  0.00005897  0.00006145  0.00006244  0.00006504  0.00006853  0.00007196
  0.00007330  0.00007956  0.00008141  0.00008251  0.00008523  0.00008728  0.00008913  0.00009009
  0.00009328  0.00009500  0.00010124  0.00010431  0.00011097  0.00011748  0.00011865  0.00012146
  0.00012248  0.00013340  0.00013580  0.00013724  0.00013848  0.00014103  0.00015112  0.00015751
  0.00015888  0.00015969  0.00016688  0.00018132  0.00018226  0.00018723  0.00020092  0.00022004
  0.00022213  0.00022978  0.00023011  0.00025174  0.00026990  0.00028564  0.00028711  0.00029205
  0.00029458  0.00030000  0.00030536  0.00031835  0.00034148  0.00035531  0.00035989  0.00037699
  0.00038059  0.00038248  0.00038492  0.00039189  0.00039271  0.00040282  0.00042308  0.00042875
  0.00043264  0.00043641  0.00044109  0.00044183  0.00046021  0.00046191  0.00046876  0.00047350
  0.00048383  0.00049578  0.00053382  0.00053717  0.00054408  0.00055213  0.00055408  0.00055595
  0.00055601  0.00057496  0.00059660  0.00059844  0.00059860  0.00059924  0.00059958  0.00059985
  0.00060037  0.00060219  0.00062163  0.00062416  0.00062617  0.00063122  0.00064074  0.00064079
  0.00064423  0.00064501  0.00064682  0.00065065  0.00067050  0.00069396  0.00069770  0.00079754
  0.00080259  0.00081467  0.00093271  0.00098902  0.00107242  0.00108136  0.00109321  0.00109414
  0.00109483  0.00109533  0.00110964  0.00114293  0.00114295  0.00114538  0.00115544  0.00116539
  0.00116551  0.00116585  0.00116608  0.00117114  0.00117173  0.00117246  0.00118674  0.00120706
  0.00126151  0.00129261  0.00129530  0.00137459  0.00148182  0.00156248  0.00171515  0.00175366
  0.00179198  0.00191881  0.00208603  0.00228008  0.00233894  0.00235207  0.00246853  0.00252133
  0.00252642  0.00256023  0.00278940  0.00292182  0.00302350  0.00304209  0.00308128  0.00309605
  0.00352026  0.00365660  0.00367527  0.00367705  0.00372194  0.00372365  0.00375427  0.00394510
  0.00397409
 Checking for correct frequencies
 recalc frequencies=
    -0.0   -0.0   -0.0   -0.0    0.0    0.0    5.7    9.1   14.3   28.0
    29.4   43.9   52.6   55.8   60.7   70.8   77.0   89.9  102.1  106.4
   109.6  133.0  161.8  167.7  183.9  194.5  199.5  204.3  211.9  215.8
   234.2  235.2  245.2  256.8  282.7  287.9  302.5  307.3  326.0  342.9
   351.7  370.8  389.9  392.7  412.6  417.5  419.4  431.6  437.2  439.1
   446.9  454.0  458.5  466.9  473.0  478.6  486.9  502.5  503.7  506.4
   516.4  526.3  545.9  572.1  573.4  576.1  577.7  597.4  605.2  615.5
   623.1  635.1  639.8  652.7  655.4  678.1  691.3  701.5  706.4  708.5
   711.8  726.3  745.6  753.1  759.8  760.9  762.5  771.5  798.8  807.1
   812.6  814.5  815.1  822.6  828.9  832.5  832.8  835.5  838.0  851.8
   859.3  876.5  901.0  905.3  923.8  933.7  945.1  956.6  966.0  971.0
   974.5  976.3  977.8  981.7  987.8  988.4 1035.4 1061.2 1083.5 1094.9
  1109.2 1134.3 1135.6 1155.3 1157.5 1163.8 1164.7 1175.7 1178.6 1185.6
  1195.8 1204.3 1205.3 1210.4 1224.0 1232.7 1242.3 1244.5 1251.9 1263.4
  1299.6 1313.2 1316.8 1318.5 1333.1 1350.4 1357.5 1362.8 1366.1 1378.6
  1380.4 1382.3 1391.7 1400.0 1403.8 1415.9 1430.6 1439.4 1439.6 1444.4
  1458.0 1460.9 1466.3 1484.8 1492.1 1497.4 1505.1 1505.3 1510.9 1522.4
  1532.0 1546.6 1554.8 1560.6 1570.4 1580.9 1599.2 1599.7 1609.6 1622.7
  1647.7 1685.5 1706.0 1724.8 1741.8 3034.1 3038.3 3092.1 3095.3 3112.4
  3132.5 3142.9 3177.3 3180.7 3195.3 3197.4 3197.8 3198.2 3204.6 3204.8
  3212.6 3212.8 3213.0 3214.0 3223.9 3224.1 3244.8
 recalc symmetries=
                                                                       
                                                                       
                                                                       
                                                                       
                                                                       
                                                                       
                                                                       
                                                                       
                                                                       
                                                                       
                                                                       
                                                                       
                                                                       
                                                                       
                                                                       
                                                                       
                                                                       
                                                                       
                                                                       
                                                                       
                                                  
 recalc freqs check OK
 Zero-point lengths:
 10.0000 10.0000 10.0000 10.0000 10.0000 10.0000103.4925 82.1913 65.6409 46.8627
 45.7591 37.4373 34.1722 33.1799 31.8160 29.4664 28.2484 26.1515 24.5373 24.0339
 23.6811 21.4956 19.4927 19.1419 18.2815 17.7780 17.5538 17.3452 17.0309 16.8771
 16.1986 16.1639 15.8323 15.4711 14.7448 14.6116 14.2545 14.1418 13.7301 13.3871
 13.2199 12.8752 12.5547 12.5108 12.2048 12.1331 12.1059 11.9336 11.8564 11.8308
 11.7266 11.6353 11.5775 11.4735 11.3988 11.3317 11.2346 11.0597 11.0465 11.0162
 10.9092 10.8066 10.6110 10.3652 10.3534 10.3291 10.3142 10.1430 10.0771  9.9928
  9.9316  9.8371  9.8010  9.7038  9.6839  9.5201  9.4290  9.3603  9.3279  9.3140
  9.2921  9.1987  9.0789  9.0341  8.9940  8.9874  8.9779  8.9254  8.7716  8.7264
  8.6966  8.6865  8.6835  8.6436  8.6107  8.5923  8.5908  8.5765  8.5637  8.4944
  8.4573  8.3739  8.2591  8.2395  8.1564  8.1131  8.0641  8.0153  7.9766  7.9559
  7.9415  7.9340  7.9283  7.9125  7.8881  7.8854  7.7046  7.6102  7.5315  7.4922
  7.4439  7.3608  7.3566  7.2937  7.2869  7.2671  7.2641  7.2303  7.2213  7.1998
  7.1690  7.1439  7.1407  7.1256  7.0861  7.0611  7.0337  7.0274  7.0068  6.9748
  6.8769  6.8411  6.8318  6.8273  6.7898  6.7463  6.7286  6.7156  6.7075  6.6769
  6.6726  6.6680  6.6455  6.6256  6.6167  6.5884  6.5545  6.5343  6.5340  6.5231
  6.4926  6.4861  6.4742  6.4336  6.4180  6.4066  6.3901  6.3898  6.3780  6.3537
  6.3338  6.3039  6.2873  6.2756  6.2558  6.2351  6.1994  6.1984  6.1792  6.1542
  6.1075  6.0386  6.0021  5.9694  5.9401  4.5007  4.4976  4.4583  4.4560  4.4437
  4.4294  4.4221  4.3981  4.3958  4.3857  4.3843  4.3840  4.3837  4.3793  4.3792
  4.3739  4.3738  4.3736  4.3730  4.3662  4.3660  4.3521
 highest evec of mol 1
  0.0000  0.0000 -0.0000
  0.0000 -0.0000 -0.0000
  0.0000  0.0000 -0.0000
 -0.0000 -0.0000  0.0000
  0.0000  0.0000 -0.0000
  0.0000 -0.0000  0.0000
 -0.0000 -0.0000  0.0000
 -0.0000  0.0000 -0.0000
 -0.0000  0.0000  0.0000
  0.0000  0.0000  0.0000
 -0.0000 -0.0000  0.0000
 -0.0000  0.0000  0.0000
 -0.0000  0.0000  0.0000
  0.0000 -0.0000  0.0000
 -0.0000  0.0000 -0.0000
  0.0000 -0.0000  0.0000
 -0.0000 -0.0000  0.0000
 -0.0000  0.0000 -0.0000
 -0.0001 -0.0000 -0.0001
 -0.0001 -0.0001  0.0000
 -0.0001 -0.0000 -0.0000
  0.0003  0.0001 -0.0001
 -0.0023  0.0004 -0.0010
 -0.0005 -0.0020  0.0028
  0.0020 -0.0004  0.0010
  0.0678  0.1633 -0.2217
 -0.0892  0.0113 -0.0344
  0.0013 -0.0041  0.0062
  0.0001  0.0002 -0.0003
  0.0001  0.0000  0.0002
  0.0001  0.0001  0.0000
  0.0000 -0.0000 -0.0000
 -0.0000  0.0000  0.0000
 -0.0000  0.0000  0.0000
  0.0000 -0.0000  0.0000
  0.0000 -0.0000 -0.0000
  0.0000 -0.0000  0.0000
  0.0000  0.0000 -0.0000
  0.0000 -0.0000  0.0000
  0.0000  0.0000 -0.0000
 -0.0000 -0.0000  0.0000
  0.0000  0.0000 -0.0000
 -0.0000  0.0000  0.0000
  0.0000 -0.0000  0.0000
 -0.0000 -0.0000 -0.0000
  0.0000 -0.0000  0.0000
  0.0000 -0.0000  0.0000
 -0.0000 -0.0000  0.0000
  0.0000  0.0000 -0.0000
  0.0000 -0.0000  0.0000
 -0.0000  0.0000  0.0000
 -0.0000  0.0000 -0.0000
 -0.0000 -0.0000  0.0000
  0.0000  0.0000 -0.0000
  0.0000 -0.0000  0.0000
  0.0000 -0.0000 -0.0000
  0.0000 -0.0001 -0.0000
  0.0000 -0.0000 -0.0000
  0.0002  0.0000  0.0003
  0.0003  0.0003  0.0000
  0.0061 -0.0015  0.0030
 -0.1763 -0.5280  0.7253
  0.2365 -0.0528  0.1242
 -0.0004 -0.0001 -0.0005
 -0.0003 -0.0003  0.0000
 -0.0000  0.0000 -0.0000
 -0.0000  0.0000  0.0000
 -0.0000  0.0000  0.0000
 -0.0000  0.0000  0.0000
 generating redundant internal coords
         300        3600          69
 Adding extra bonds for z output only
           6           6           6           7           6           8
           6           6           6           6           6           6
           6           6           6           8           7           6
           6           6           6           6           6           6
          16           6           6           6          16           6
           6           6           8           6           6           6
           6           6           6           6           6           6
           8           6           6           6           6           1
           1           1           1           1           1           1
           1           1           1           1           1           1
           1           1           1           1           1           1
           1           1           1
 search for int coords
   1 str   2   1   1.532
   2 str   3   2   1.532
   3 str   4   2   1.498
   4 str   5   4   1.400
   5 str   6   5   1.222
   6 str   7   5   1.479
   7 str   8   7   1.400
   8 str   9   8   1.380
   9 str  10   9   1.422
  10 str  11  10   1.441
  11 str  12  11   1.422
  12 str  13  12   1.379
  13 str  14  13   1.400
  14 str  15  14   1.477
  15 str  16  15   1.217
  16 str  17  15   1.410
  17 str  18  17   1.446
  18 str  19  18   1.391
  19 str  20  19   1.388
  20 str  21  20   1.405
  21 str  22  21   1.466
  22 str  23  22   1.373
  23 str  24  23   1.419
  24 str  25  24   1.744
  25 str  26  25   1.750
  26 str  27  26   1.364
  27 str  28  24   1.388
  28 str  28  27   1.423
  29 str  29  22   1.770
  30 str  29  28   1.742
  31 str  30  21   1.404
  32 str  31  18   1.390
  33 str  31  30   1.389
  34 str  32  17   1.410
  35 str  33  32   1.217
  36 str  34  32   1.477
  37 str  35  34   1.400
  38 str  36  35   1.380
  39 str  37  36   1.422
  40 str  38  37   1.441
  41 str  39  38   1.422
  42 str  40  39   1.380
  43 str  41  40   1.400
  44 str  42   4   1.408
  45 str  42  41   1.477
  46 str  43  42   1.221
  47 str  44   7   1.411
  48 str  44  41   1.410
  49 str  45  10   1.427
  50 str  45  38   1.427
  51 str  45  44   1.428
  52 str  46  11   1.427
  53 str  46  37   1.427
  54 str  47  14   1.413
  55 str  47  34   1.412
  56 str  47  46   1.429
  57 str  48   1   1.093
  58 str  49   1   1.089
  59 str  50   1   1.093
  60 str  51   2   1.088
  61 str  52   3   1.089
  62 str  53   3   1.093
  63 str  54   3   1.093
  64 str  55   8   1.082
  65 str  56   9   1.081
  66 str  57  12   1.081
  67 str  58  13   1.082
  68 str  59  19   1.083
  69 str  60  20   1.083
  70 str  61  23   1.081
  71 str  62  26   1.079
  72 str  63  27   1.081
  73 str  64  30   1.084
  74 str  65  31   1.083
  75 str  66  35   1.082
  76 str  67  36   1.081
  77 str  68  39   1.081
  78 str  69  40   1.082
 nber stretches=          78
  79 ben   1   2   3
  80 prop tor   1   2   3  52
  81 prop tor   1   2   3  53
  82 prop tor   1   2   3  54
  83 ben   1   2   4
  84 prop tor   1   2   4   5
  85 prop tor   1   2   4  42
  86 ben   1   2  51
  87 ben   2   1  48
  88 ben   2   1  49
  89 ben   2   1  50
  90 ben   2   3  52
  91 ben   2   3  53
  92 ben   2   3  54
  93 ben   2   4   5
  94 prop tor   2   4   5   6
  95 prop tor   2   4   5   7
  96 ben   2   4  42
  97 prop tor   2   4  42  41
  98 prop tor   2   4  42  43
  99 ben   3   2   4
 100 prop tor   3   2   4   5
 101 prop tor   3   2   4  42
 102 ben   3   2  51
 103 prop tor   4   2   3  52
 104 prop tor   4   2   3  53
 105 prop tor   4   2   3  54
 106 ben   4   2  51
 107 ben   4   5   6
 108 ben   4   5   7
 109 prop tor   4   5   7   8
 110 prop tor   4   5   7  44
 111 ben   4  42  41
 112 ben   4  42  43
 113 ben   5   4  42
 114 prop tor   5   4  42  41
 115 prop tor   5   4  42  43
 116 ben   5   7   8
 117 prop tor   5   7   8   9
 118 prop tor   5   7   8  55
 119 ben   5   7  44
 120 prop tor   5   7  44  41
 121 prop tor   5   7  44  45
 122 ben   6   5   7
 123 prop tor   6   5   7   8
 124 prop tor   6   5   7  44
 125 ben   7   8   9
 126 prop tor   7   8   9  10
 127 prop tor   7   8   9  56
 128 ben   7   8  55
 129 ben   7  44  41
 130 ben   7  44  45
 131 prop tor   7  44  45  10
 132 prop tor   7  44  45  38
 133 ben   8   7  44
 134 prop tor   8   7  44  41
 135 prop tor   8   7  44  45
 136 ben   8   9  10
 137 prop tor   8   9  10  11
 138 prop tor   8   9  10  45
 139 ben   8   9  56
 140 ben   9   8  55
 141 ben   9  10  11
 142 prop tor   9  10  11  12
 143 prop tor   9  10  11  46
 144 ben   9  10  45
 145 prop tor   9  10  45  38
 146 prop tor   9  10  45  44
 147 ben  10   9  56
 148 ben  10  11  12
 149 prop tor  10  11  12  13
 150 prop tor  10  11  12  57
 151 ben  10  11  46
 152 prop tor  10  11  46  37
 153 prop tor  10  11  46  47
 154 ben  10  45  38
 155 ben  10  45  44
 156 ben  11  10  45
 157 prop tor  11  10  45  38
 158 prop tor  11  10  45  44
 159 ben  11  12  13
 160 prop tor  11  12  13  14
 161 prop tor  11  12  13  58
 162 ben  11  12  57
 163 ben  11  46  37
 164 ben  11  46  47
 165 prop tor  11  46  47  14
 166 prop tor  11  46  47  34
 167 ben  12  11  46
 168 prop tor  12  11  46  37
 169 prop tor  12  11  46  47
 170 ben  12  13  14
 171 prop tor  12  13  14  15
 172 prop tor  12  13  14  47
 173 ben  12  13  58
 174 ben  13  12  57
 175 ben  13  14  15
 176 prop tor  13  14  15  16
 177 prop tor  13  14  15  17
 178 ben  13  14  47
 179 prop tor  13  14  47  34
 180 prop tor  13  14  47  46
 181 ben  14  13  58
 182 ben  14  15  16
 183 ben  14  15  17
 184 prop tor  14  15  17  18
 185 prop tor  14  15  17  32
 186 ben  14  47  34
 187 ben  14  47  46
 188 ben  15  14  47
 189 prop tor  15  14  47  34
 190 prop tor  15  14  47  46
 191 ben  15  17  18
 192 prop tor  15  17  18  19
 193 prop tor  15  17  18  31
 194 ben  15  17  32
 195 prop tor  15  17  32  33
 196 prop tor  15  17  32  34
 197 ben  16  15  17
 198 prop tor  16  15  17  18
 199 prop tor  16  15  17  32
 200 ben  17  18  19
 201 prop tor  17  18  19  20
 202 prop tor  17  18  19  59
 203 ben  17  18  31
 204 prop tor  17  18  31  30
 205 prop tor  17  18  31  65
 206 ben  17  32  33
 207 ben  17  32  34
 208 prop tor  17  32  34  35
 209 prop tor  17  32  34  47
 210 ben  18  17  32
 211 prop tor  18  17  32  33
 212 prop tor  18  17  32  34
 213 ben  18  19  20
 214 prop tor  18  19  20  21
 215 prop tor  18  19  20  60
 216 ben  18  19  59
 217 ben  18  31  30
 218 ben  18  31  65
 219 ben  19  18  31
 220 prop tor  19  18  31  30
 221 prop tor  19  18  31  65
 222 ben  19  20  21
 223 prop tor  19  20  21  22
 224 prop tor  19  20  21  30
 225 ben  19  20  60
 226 ben  20  19  59
 227 ben  20  21  22
 228 prop tor  20  21  22  23
 229 prop tor  20  21  22  29
 230 ben  20  21  30
 231 prop tor  20  21  30  31
 232 prop tor  20  21  30  64
 233 ben  21  20  60
 234 ben  21  22  23
 235 prop tor  21  22  23  24
 236 prop tor  21  22  23  61
 237 ben  21  22  29
 238 prop tor  21  22  29  28
 239 ben  21  30  31
 240 prop tor  21  30  31  18
 241 prop tor  21  30  31  65
 242 ben  21  30  64
 243 ben  22  21  30
 244 prop tor  22  21  30  31
 245 prop tor  22  21  30  64
 246 ben  22  23  24
 247 prop tor  22  23  24  25
 248 prop tor  22  23  24  28
 249 ben  22  23  61
 250 ben  22  29  28
 251 ben  23  22  29
 252 prop tor  23  22  29  28
 253 ben  23  24  25
 254 prop tor  23  24  25  26
 255 ben  23  24  28
 256 prop tor  23  24  28  27
 257 prop tor  23  24  28  29
 258 ben  24  23  61
 259 ben  24  25  26
 260 prop tor  24  25  26  27
 261 prop tor  24  25  26  62
 262 ben  24  28  27
 263 ben  24  28  29
 264 prop tor  24  28  29  22
 265 ben  25  24  28
 266 prop tor  25  24  28  27
 267 prop tor  25  24  28  29
 268 ben  25  26  27
 269 prop tor  25  26  27  28
 270 prop tor  25  26  27  63
 271 ben  25  26  62
 272 ben  26  27  28
 273 prop tor  26  27  28  24
 274 prop tor  26  27  28  29
 275 ben  26  27  63
 276 ben  27  26  62
 277 ben  27  28  29
 278 prop tor  27  28  29  22
 279 prop tor  28  24  25  26
 280 ben  28  27  63
 281 prop tor  29  22  23  24
 282 prop tor  29  22  23  61
 283 prop tor  30  21  22  23
 284 prop tor  30  21  22  29
 285 ben  30  31  65
 286 prop tor  31  18  19  20
 287 prop tor  31  18  19  59
 288 ben  31  30  64
 289 prop tor  32  17  18  19
 290 prop tor  32  17  18  31
 291 ben  32  34  35
 292 prop tor  32  34  35  36
 293 prop tor  32  34  35  66
 294 ben  32  34  47
 295 prop tor  32  34  47  14
 296 prop tor  32  34  47  46
 297 ben  33  32  34
 298 prop tor  33  32  34  35
 299 prop tor  33  32  34  47
 300 ben  34  35  36
 301 prop tor  34  35  36  37
 302 prop tor  34  35  36  67
 303 ben  34  35  66
 304 ben  34  47  46
 305 ben  35  34  47
 306 prop tor  35  34  47  14
 307 prop tor  35  34  47  46
 308 ben  35  36  37
 309 prop tor  35  36  37  38
 310 prop tor  35  36  37  46
 311 ben  35  36  67
 312 ben  36  35  66
 313 ben  36  37  38
 314 prop tor  36  37  38  39
 315 prop tor  36  37  38  45
 316 ben  36  37  46
 317 prop tor  36  37  46  11
 318 prop tor  36  37  46  47
 319 ben  37  36  67
 320 ben  37  38  39
 321 prop tor  37  38  39  40
 322 prop tor  37  38  39  68
 323 ben  37  38  45
 324 prop tor  37  38  45  10
 325 prop tor  37  38  45  44
 326 ben  37  46  47
 327 prop tor  37  46  47  14
 328 prop tor  37  46  47  34
 329 ben  38  37  46
 330 prop tor  38  37  46  11
 331 prop tor  38  37  46  47
 332 ben  38  39  40
 333 prop tor  38  39  40  41
 334 prop tor  38  39  40  69
 335 ben  38  39  68
 336 ben  38  45  44
 337 ben  39  38  45
 338 prop tor  39  38  45  10
 339 prop tor  39  38  45  44
 340 ben  39  40  41
 341 prop tor  39  40  41  42
 342 prop tor  39  40  41  44
 343 ben  39  40  69
 344 ben  40  39  68
 345 ben  40  41  42
 346 prop tor  40  41  42   4
 347 prop tor  40  41  42  43
 348 ben  40  41  44
 349 prop tor  40  41  44   7
 350 prop tor  40  41  44  45
 351 ben  41  40  69
 352 ben  41  42  43
 353 ben  41  44  45
 354 prop tor  41  44  45  10
 355 prop tor  41  44  45  38
 356 prop tor  42   4   5   6
 357 prop tor  42   4   5   7
 358 ben  42  41  44
 359 prop tor  42  41  44   7
 360 prop tor  42  41  44  45
 361 prop tor  44   7   8   9
 362 prop tor  44   7   8  55
 363 prop tor  44  41  42   4
 364 prop tor  44  41  42  43
 365 prop tor  45  10  11  12
 366 prop tor  45  10  11  46
 367 prop tor  45  38  39  40
 368 prop tor  45  38  39  68
 369 prop tor  46  11  12  13
 370 prop tor  46  11  12  57
 371 prop tor  46  37  38  39
 372 prop tor  46  37  38  45
 373 prop tor  47  14  15  16
 374 prop tor  47  14  15  17
 375 prop tor  47  34  35  36
 376 prop tor  47  34  35  66
 377 prop tor  48   1   2   3
 378 prop tor  48   1   2   4
 379 prop tor  48   1   2  51
 380 ben  48   1  49
 381 ben  48   1  50
 382 prop tor  49   1   2   3
 383 prop tor  49   1   2   4
 384 prop tor  49   1   2  51
 385 ben  49   1  50
 386 prop tor  50   1   2   3
 387 prop tor  50   1   2   4
 388 prop tor  50   1   2  51
 389 prop tor  51   2   3  52
 390 prop tor  51   2   3  53
 391 prop tor  51   2   3  54
 392 prop tor  51   2   4   5
 393 prop tor  51   2   4  42
 394 ben  52   3  53
 395 ben  52   3  54
 396 ben  53   3  54
 397 prop tor  55   8   9  10
 398 prop tor  55   8   9  56
 399 prop tor  56   9  10  11
 400 prop tor  56   9  10  45
 401 prop tor  57  12  13  14
 402 prop tor  57  12  13  58
 403 prop tor  58  13  14  15
 404 prop tor  58  13  14  47
 405 prop tor  59  19  20  21
 406 prop tor  59  19  20  60
 407 prop tor  60  20  21  22
 408 prop tor  60  20  21  30
 409 prop tor  61  23  24  25
 410 prop tor  61  23  24  28
 411 prop tor  62  26  27  28
 412 prop tor  62  26  27  63
 413 prop tor  63  27  28  24
 414 prop tor  63  27  28  29
 415 prop tor  64  30  31  18
 416 prop tor  64  30  31  65
 417 prop tor  66  35  36  37
 418 prop tor  66  35  36  67
 419 prop tor  67  36  37  38
 420 prop tor  67  36  37  46
 421 prop tor  68  39  40  41
 422 prop tor  68  39  40  69
 423 prop tor  69  40  41  42
 424 prop tor  69  40  41  44
 nber bend=             134
 nber lin bend=           0
 nber prop tor=         212
 nber impr tor=           0
 nber tot redund int=         424
 Reading file: 
 ./TT-PDI_3_C0S1.log                                                            
                                          
  Entering Gaussian System, Link 0=g16                                          
  
 Gaussian format, type: g94, g98, g03= F F F
  #P Geom=AllCheck Guess=TCheck SCRF=Check GenChk RB3LYP TD(FC,Read)/6-3    
 energy type= TD      
 Original G94 input coords:
  6  1.355836  0.435270  0.472638
  6  2.841544  0.153637  0.221202
  6  3.629844 -0.127767  1.505450
  7  3.040081 -0.916087 -0.799286
  6  2.591536 -2.217815 -0.521780
  8  2.043265 -2.479205  0.543472
  6  2.809643 -3.236500 -1.558660
  6  2.382012 -4.545279 -1.331151
  6  2.571665 -5.526708 -2.285413
  6  3.199945 -5.253253 -3.521405
  6  3.404279 -6.271696 -4.528599
  6  2.984517 -7.611819 -4.337496
  6  3.182438 -8.573700 -5.297875
  6  3.813701 -8.260649 -6.513656
  6  4.001718 -9.312224 -7.487068
  8  3.645139-10.474032 -7.351629
  7  4.648115 -8.918198 -8.718976
  6  4.848015 -9.911787 -9.700448
  6  4.535100 -9.657447-11.050793
  6  4.729908-10.625801-12.008116
  6  5.252426-11.899541-11.665628
  6  5.455640-12.899722-12.667145
  6  5.318660-12.754168-14.064451
  6  5.600200-13.929537-14.742494
 16  5.623871-14.407326-16.425629
  6  6.100146-16.011318-15.963815
  6  6.241768-16.196939-14.603944
  6  5.959572-15.012924-13.908248
 16  5.938373-14.548620-12.233479
  6  5.563248-12.140866-10.304676
  6  5.365186-11.175321 -9.345803
  6  5.105068 -7.578636 -9.015980
  8  5.651023 -7.363707-10.088735
  6  4.885729 -6.597139 -7.977880
  6  5.314707 -5.277251 -8.197979
  6  5.124816 -4.305595 -7.245855
  6  4.493206 -4.588799 -6.009101
  6  4.288874 -3.570605 -5.001767
  6  4.703429 -2.231822 -5.184173
  6  4.502687 -1.267914 -4.214640
  6  3.876417 -1.587668 -3.008811
  6  3.679244 -0.537853 -2.000828
  8  4.047381  0.616623 -2.181628
  6  3.443290 -2.911583 -2.777695
  6  3.645898 -3.920834 -3.775911
  6  4.047935 -5.924573 -5.757739
  6  4.251241 -6.937512 -6.759650
  1  1.260622  1.316939  1.113451
  1  0.866364 -0.407337  0.959199
  1  0.841564  0.648768 -0.468202
  1  3.274768  1.031033 -0.254237
  1  3.234781 -0.993690  2.035008
  1  3.570149  0.745178  2.162304
  1  4.684596 -0.302817  1.277211
  1  1.898997 -4.768189 -0.388208
  1  2.224219 -6.526304 -2.065530
  1  2.494754 -7.896205 -3.417509
  1  2.856064 -9.593479 -5.138232
  1  4.137974 -8.694943-11.328630
  1  4.452121-10.406209-13.030441
  1  5.041753-11.822168-14.532227
  1  6.255013-16.750906-16.735051
  1  6.533161-17.136764-14.158755
  1  5.987443-13.092015-10.004909
  1  5.607783-11.377106 -8.315471
  1  5.799198 -5.046464 -9.138171
  1  5.470679 -3.304032 -7.456485
  1  5.192539 -1.938074 -6.102170
  1  4.825535 -0.245993 -4.367844
 nber atoms=          69
  Total Energy, E(TD-HF/TD-DFT) =  -2706.75850899                               
  
          32          49 "  -2706.75850899"
After scan for Atom:   Atom  AN      X      Y      Z        X      Y      Z        X      Y      Z   
After scan for Atom:   Atom  AN      X      Y      Z        X      Y      Z        X      Y      Z   
After scan for Atom:   Atom  AN      X      Y      Z        X      Y      Z        X      Y      Z   
After scan for Atom:   Atom  AN      X      Y      Z        X      Y      Z        X      Y      Z   
After scan for Atom:   Atom  AN      X      Y      Z        X      Y      Z        X      Y      Z   
After scan for Atom:   Atom  AN      X      Y      Z        X      Y      Z        X      Y      Z   
After scan for Atom:   Atom  AN      X      Y      Z        X      Y      Z        X      Y      Z   
After scan for Atom:   Atom  AN      X      Y      Z        X      Y      Z        X      Y      Z   
After scan for Atom:   Atom  AN      X      Y      Z        X      Y      Z        X      Y      Z   
After scan for Atom:   Atom  AN      X      Y      Z        X      Y      Z        X      Y      Z   
After scan for Atom:   Atom  AN      X      Y      Z        X      Y      Z        X      Y      Z   
After scan for Atom:   Atom  AN      X      Y      Z        X      Y      Z        X      Y      Z   
After scan for Atom:   Atom  AN      X      Y      Z        X      Y      Z        X      Y      Z   
After scan for Atom:   Atom  AN      X      Y      Z        X      Y      Z        X      Y      Z   
After scan for Atom:   Atom  AN      X      Y      Z        X      Y      Z        X      Y      Z   
After scan for Atom:   Atom  AN      X      Y      Z        X      Y      Z        X      Y      Z   
After scan for Atom:   Atom  AN      X      Y      Z        X      Y      Z        X      Y      Z   
After scan for Atom:   Atom  AN      X      Y      Z        X      Y      Z        X      Y      Z   
After scan for Atom:   Atom  AN      X      Y      Z        X      Y      Z        X      Y      Z   
After scan for Atom:   Atom  AN      X      Y      Z        X      Y      Z        X      Y      Z   
After scan for Atom:   Atom  AN      X      Y      Z        X      Y      Z        X      Y      Z   
After scan for Atom:   Atom  AN      X      Y      Z        X      Y      Z        X      Y      Z   
After scan for Atom:   Atom  AN      X      Y      Z        X      Y      Z        X      Y      Z   
After scan for Atom:   Atom  AN      X      Y      Z        X      Y      Z        X      Y      Z   
After scan for Atom:   Atom  AN      X      Y      Z        X      Y      Z        X      Y      Z   
After scan for Atom:   Atom  AN      X      Y      Z        X      Y      Z        X      Y      Z   
After scan for Atom:   Atom  AN      X      Y      Z        X      Y      Z        X      Y      Z   
After scan for Atom:   Atom  AN      X      Y      Z        X      Y      Z        X      Y      Z   
After scan for Atom:   Atom  AN      X      Y      Z        X      Y      Z        X      Y      Z   
After scan for Atom:   Atom  AN      X      Y      Z        X      Y      Z        X      Y      Z   
After scan for Atom:   Atom  AN      X      Y      Z        X      Y      Z        X      Y      Z   
After scan for Atom:   Atom  AN      X      Y      Z        X      Y      Z        X      Y      Z   
After scan for Atom:   Atom  AN      X      Y      Z        X      Y      Z        X      Y      Z   
After scan for Atom:   Atom  AN      X      Y      Z        X      Y      Z        X      Y      Z   
After scan for Atom:   Atom  AN      X      Y      Z        X      Y      Z        X      Y      Z   
After scan for Atom:   Atom  AN      X      Y      Z        X      Y      Z        X      Y      Z   
After scan for Atom:   Atom  AN      X      Y      Z        X      Y      Z        X      Y      Z   
After scan for Atom:   Atom  AN      X      Y      Z        X      Y      Z        X      Y      Z   
After scan for Atom:   Atom  AN      X      Y      Z        X      Y      Z        X      Y      Z   
After scan for Atom:   Atom  AN      X      Y      Z        X      Y      Z        X      Y      Z   
After scan for Atom:   Atom  AN      X      Y      Z        X      Y      Z        X      Y      Z   
After scan for Atom:   Atom  AN      X      Y      Z        X      Y      Z        X      Y      Z   
After scan for Atom:   Atom  AN      X      Y      Z        X      Y      Z        X      Y      Z   
After scan for Atom:   Atom  AN      X      Y      Z        X      Y      Z        X      Y      Z   
After scan for Atom:   Atom  AN      X      Y      Z        X      Y      Z        X      Y      Z   
After scan for Atom:   Atom  AN      X      Y      Z        X      Y      Z        X      Y      Z   
After scan for Atom:   Atom  AN      X      Y      Z        X      Y      Z        X      Y      Z   
After scan for Atom:   Atom  AN      X      Y      Z        X      Y      Z        X      Y      Z   
After scan for Atom:   Atom  AN      X      Y      Z        X      Y      Z        X      Y      Z   
After scan for Atom:   Atom  AN      X      Y      Z        X      Y      Z        X      Y      Z   
After scan for Atom:   Atom  AN      X      Y      Z        X      Y      Z        X      Y      Z   
After scan for Atom:   Atom  AN      X      Y      Z        X      Y      Z        X      Y      Z   
After scan for Atom:   Atom  AN      X      Y      Z        X      Y      Z        X      Y      Z   
After scan for Atom:   Atom  AN      X      Y      Z        X      Y      Z        X      Y      Z   
After scan for Atom:   Atom  AN      X      Y      Z        X      Y      Z        X      Y      Z   
After scan for Atom:   Atom  AN      X      Y      Z        X      Y      Z        X      Y      Z   
After scan for Atom:   Atom  AN      X      Y      Z        X      Y      Z        X      Y      Z   
After scan for Atom:   Atom  AN      X      Y      Z        X      Y      Z        X      Y      Z   
After scan for Atom:   Atom  AN      X      Y      Z        X      Y      Z        X      Y      Z   
After scan for Atom:   Atom  AN      X      Y      Z        X      Y      Z        X      Y      Z   
After scan for Atom:   Atom  AN      X      Y      Z        X      Y      Z        X      Y      Z   
After scan for Atom:   Atom  AN      X      Y      Z        X      Y      Z        X      Y      Z   
After scan for Atom:   Atom  AN      X      Y      Z        X      Y      Z        X      Y      Z   
After scan for Atom:   Atom  AN      X      Y      Z        X      Y      Z        X      Y      Z   
After scan for Atom:   Atom  AN      X      Y      Z        X      Y      Z        X      Y      Z   
After scan for Atom:   Atom  AN      X      Y      Z        X      Y      Z        X      Y      Z   
After scan for Atom:   Atom  AN      X      Y      Z        X      Y      Z        X      Y      Z   
 g94    frequencies=
     0.0    0.0    0.0    0.0    0.0    0.0    8.3   15.0   17.6   25.8
    29.4   51.9   56.1   63.6   68.2   82.5   87.8   96.6  101.1  110.6
   120.9  148.8  164.3  169.7  196.1  196.8  204.7  207.1  216.4  219.2
   234.8  235.1  262.5  262.7  287.9  288.8  298.7  305.0  337.8  345.9
   359.8  368.5  390.6  394.4  406.0  410.7  417.9  435.2  439.4  443.1
   448.5  453.8  454.4  461.8  465.2  472.3  498.7  502.8  508.5  509.6
   516.8  524.4  542.4  573.8  579.4  581.2  592.0  599.4  623.8  624.7
   627.1  629.5  647.9  659.3  667.2  685.4  711.1  713.2  729.2  738.6
   746.9  747.8  757.3  759.4  761.6  769.5  785.7  799.5  801.8  806.9
   810.4  815.4  817.0  822.4  825.6  831.8  836.9  838.7  844.3  849.9
   859.8  897.5  900.4  905.9  930.0  943.3  955.5  964.9  970.8  973.1
   973.9  975.1  976.6  983.8  986.8  987.0 1021.4 1050.6 1068.9 1081.3
  1093.9 1103.1 1145.1 1149.1 1154.9 1155.1 1163.7 1174.5 1183.9 1188.5
  1192.8 1199.7 1204.7 1226.4 1226.8 1235.8 1240.6 1247.1 1263.5 1283.9
  1296.7 1300.6 1317.2 1329.0 1340.4 1345.4 1359.0 1362.0 1363.7 1371.2
  1384.3 1392.6 1394.1 1397.4 1410.7 1424.2 1427.2 1432.4 1437.4 1438.2
  1462.4 1470.2 1472.0 1477.6 1483.4 1483.8 1495.7 1505.8 1506.8 1523.8
  1536.0 1539.7 1543.8 1559.8 1574.2 1580.9 1592.5 1613.4 1619.0 1625.5
  1632.2 1681.0 1704.3 1716.5 1741.5 3028.6 3033.3 3085.8 3088.9 3108.6
  3131.4 3141.0 3179.6 3190.8 3191.0 3197.2 3197.4 3200.3 3207.0 3207.2
  3221.0 3221.2 3230.6 3244.3 3248.8 3256.1 3257.0
 g94    symmetries=
                                                 A      A      A      A
       A      A      A      A      A      A      A      A      A      A
       A      A      A      A      A      A      A      A      A      A
       A      A      A      A      A      A      A      A      A      A
       A      A      A      A      A      A      A      A      A      A
       A      A      A      A      A      A      A      A      A      A
       A      A      A      A      A      A      A      A      A      A
       A      A      A      A      A      A      A      A      A      A
       A      A      A      A      A      A      A      A      A      A
       A      A      A      A      A      A      A      A      A      A
       A      A      A      A      A      A      A      A      A      A
       A      A      A      A      A      A      A      A      A      A
       A      A      A      A      A      A      A      A      A      A
       A      A      A      A      A      A      A      A      A      A
       A      A      A      A      A      A      A      A      A      A
       A      A      A      A      A      A      A      A      A      A
       A      A      A      A      A      A      A      A      A      A
       A      A      A      A      A      A      A      A      A      A
       A      A      A      A      A      A      A      A      A      A
       A      A      A      A      A      A      A      A      A      A
       A      A      A      A      A      A      A
 atomic masses:
 12.0000 12.0000 12.0000 14.0031 12.0000 15.9949 12.0000 12.0000 12.0000 12.0000
 12.0000 12.0000 12.0000 12.0000 12.0000 15.9949 14.0031 12.0000 12.0000 12.0000
 12.0000 12.0000 12.0000 12.0000 31.9721 12.0000 12.0000 12.0000 31.9721 12.0000
 12.0000 12.0000 15.9949 12.0000 12.0000 12.0000 12.0000 12.0000 12.0000 12.0000
 12.0000 12.0000 15.9949 12.0000 12.0000 12.0000 12.0000  1.0078  1.0078  1.0078
  1.0078  1.0078  1.0078  1.0078  1.0078  1.0078  1.0078  1.0078  1.0078  1.0078
  1.0078  1.0078  1.0078  1.0078  1.0078  1.0078  1.0078  1.0078  1.0078
 looking for force constants in 
 ./TT-PDI_3_C0S1.fchk                                                           
  
 Cartesian Force Constants                  R   N=       21528                  
  
 n3=         207       21528
 g94-fc frequencies=
    -1.1    0.0    0.0    0.0    0.7    2.7    8.3   15.1   17.6   25.8
    29.4   51.9   56.1   63.6   68.2   82.5   87.8   96.6  101.1  110.6
   120.9  148.9  164.3  169.7  196.1  196.8  204.7  207.1  216.4  219.2
   234.8  235.1  262.5  262.7  287.9  288.8  298.7  305.0  337.8  345.9
   359.8  368.5  390.6  394.4  406.0  410.8  417.9  435.2  439.4  443.2
   448.5  453.8  454.4  461.8  465.2  472.3  498.7  502.9  508.5  509.6
   516.8  524.5  542.4  573.8  579.4  581.2  592.0  599.4  623.9  624.7
   627.1  629.5  647.9  659.3  667.2  685.4  711.1  713.3  729.2  738.6
   747.0  747.8  757.3  759.5  761.7  769.6  785.7  799.5  801.8  806.9
   810.4  815.4  817.0  822.4  825.6  831.8  837.0  838.7  844.3  849.9
   859.8  897.6  900.4  905.9  930.0  943.3  955.6  964.9  970.8  973.2
   973.9  975.1  976.7  983.8  986.8  987.0 1021.4 1050.6 1068.9 1081.3
  1094.0 1103.1 1145.1 1149.1 1154.9 1155.1 1163.8 1174.5 1184.0 1188.5
  1192.9 1199.7 1204.7 1226.4 1226.9 1235.9 1240.6 1247.1 1263.5 1283.9
  1296.7 1300.7 1317.2 1329.1 1340.4 1345.5 1359.0 1362.0 1363.7 1371.3
  1384.3 1392.7 1394.1 1397.4 1410.7 1424.2 1427.2 1432.5 1437.4 1438.2
  1462.4 1470.2 1472.0 1477.6 1483.5 1483.9 1495.7 1505.8 1506.9 1523.8
  1536.0 1539.7 1543.8 1559.9 1574.3 1581.0 1592.5 1613.4 1619.0 1625.5
  1632.2 1681.1 1704.4 1716.5 1741.5 3028.6 3033.3 3085.9 3089.0 3108.6
  3131.4 3141.1 3179.7 3190.8 3191.0 3197.2 3197.5 3200.4 3207.0 3207.3
  3221.1 3221.3 3230.7 3244.4 3248.8 3256.1 3257.0
 at 99999: n3=         207
 symm operator            1 :  F  nop=           0
 symm operator            2 :  F  nop=           0
 symm operator            3 :  F  nop=           0
 symm operator            4 :  F  nop=           0
 symm operator            5 :  F  nop=           0
 symm operator            6 :  F  nop=           0
 symm operator            7 :  F  nop=           0
 The point group of the molecule is  C1
 Symmetry rotation matrix:
   1.00000   0.00000   0.00000
   0.00000   1.00000   0.00000
   0.00000   0.00000   1.00000

 Projecting out zero-frequency components
 generating redundant internal coords
         300        3600          69
 search for int coords
   1 str   2   1   1.533
   2 str   3   2   1.533
   3 str   4   2   1.492
   4 str   5   4   1.405
   5 str   6   5   1.226
   6 str   7   5   1.470
   7 str   8   7   1.396
[...]
    0.   -1.   -3.   -0.   -1.   -1.    2.    4.    1.    0.    0.   -0.    2.   -0.    1.   -0.   -1.    0.   -0.    0.
   -0.   -1.    0.    0.    0.    0.    2.   -0.    1.    1.   -1.   -3.    0.    0.    0.   -1.   -1.    2.    2.   -1.
   -4.   -0.   -2.   -1.   -1.   -0.   -0.   -0.   -0.    1.    0.   -0.    0.   -1.    0.    0.    1.   -0.   -1.   -0.
   -1.   -0.    0.   -0.   -1.    0.    1.   -0.    1.   -0.    0.    0.   -1.   -1.   -1.   -0.   -0.    1.   -0.   -0.
    1.   -0.   -1.   -0.    0.    1.   -1.    3.    0.   -1.   -3.    0.    1.    0.   -0.    0.    1.    0.   -1.    0.
    3.    1.    0.   -0.   -0.    0.    0.   -1.    0.   -0.    2.    0.   -1.   -2.   -0.   -0.   -0.   -1.    0.    0.
   -2.    0.    0.   -1.   -1.    0.   -0.    0.   -0.    0.   -0.   -0.    0.   -0.   -0.    0.    0.   -0.   -0.    0.
   -0.   -0.   -0.    0.   -0.   -0.   -0.
 p2=
    0.   -0.    0.    0.   -0.   -0.  274. 1211. -736.  339.   35.  -34. -173.  -19. -455.  -30. -188. -264.  -10.   26.
 -309.   -7.   -0.   -1.   -1.  -14.   23.   16.   16.  -38.   -7.    3.   -5.   -8.    7.   -0.    3.   16.    3.   13.
   50.  -11.    3.    4.  -16.   67.    5.   12.    3.   -3.    2.    1.   -6.    1.  -15.  -12.   -7.    0.    0.   -3.
   -1.    0.    3.    0.   -0.   -2.   -0.    2.    0.   -0.   -1.   -0.    1.   -0.   -0.    1.   -1.   -1.    2.    0.
    0.    0.    2.   -0.    1.    1.   -0.    5.   -5.   -2.   -1.    0.   -0.    1.    0.   -0.   -1.   -1.   -0.    0.
   -1.    1.   -0.   -0.    1.    0.    0.    0.   -0.    0.   -0.    0.   -0.   -0.    0.    0.    8.   -0.    0.   -0.
    0.    1.    1.   -2.    3.    0.    0.    0.   -1.   -1.   -9.   -0.    0.    4.   -8.    0.   -4.   -0.   -0.   -1.
    4.   -7.    0.   -3.   -1.    0.    0.   -2.   -2.    2.    0.   -0.   -0.   -0.   -0.   -1.    0.   -1.   -1.    1.
   -1.    0.   -0.   -0.   -0.   -0.    0.   -3.   -0.   -0.    0.   -0.    0.    2.   -1.    0.    0.   -0.    1.   -4.
   -0.    0.   -0.   -1.   -5.   -0.    0.    0.    0.    0.    0.    0.   -0.    0.    0.   -0.   -0.   -0.    0.    0.
    0.   -0.    0.   -0.    0.    2.   -1.

 Displacement: in terms of nc of 1 THEN of nc of 2

   1     freq=    -0. Q= -0.000 lam=    -0.0     freq=    -0. Q= -0.000 lam=    -0.0
   2     freq=    -0. Q= -0.000 lam=    -0.0     freq=    -0. Q= -0.000 lam=    -0.0
   3     freq=    -0. Q= -0.000 lam=    -0.0     freq=    -0. Q= -0.000 lam=    -0.0
   4     freq=    -0. Q=  0.000 lam=    -0.0     freq=    -0. Q=  0.000 lam=    -0.0
   5     freq=     0. Q= -0.000 lam=     0.0     freq=     0. Q= -0.000 lam=     0.0
   6     freq=     0. Q= -0.000 lam=     0.0     freq=     0. Q= -0.000 lam=     0.0
   7     freq=     6. Q= 15.516 lam=   690.7     freq=     8. Q=  3.180 lam=    41.9
   8     freq=     9. Q=  0.386 lam=     0.7     freq=    15. Q= 18.953 lam=  2701.6
   9     freq=    14. Q= -1.283 lam=    11.7     freq=    18. Q=-12.478 lam=  1373.5
  10     freq=    28. Q= -0.413 lam=     2.4     freq=    26. Q= -6.956 lam=   624.5
  11     freq=    29. Q=  0.520 lam=     4.0     freq=    29. Q=  0.761 lam=     8.5
  12     freq=    44. Q=  1.877 lam=    77.2     freq=    52. Q=  0.978 lam=    24.8
  13     freq=    53. Q= -0.054 lam=     0.1     freq=    56. Q= -5.228 lam=   767.2
  14     freq=    56. Q= -0.164 lam=     0.7     freq=    64. Q= -0.617 lam=    12.1
  15     freq=    61. Q=  0.474 lam=     6.8     freq=    68. Q= 15.159 lam=  7838.1
  16     freq=    71. Q= -0.158 lam=     0.9     freq=    83. Q= -1.100 lam=    49.9
  17     freq=    77. Q=  0.218 lam=     1.8     freq=    88. Q=  7.095 lam=  2208.7
  18     freq=    90. Q=  0.111 lam=     0.6     freq=    97. Q= 10.451 lam=  5278.0
  19     freq=   102. Q=  0.113 lam=     0.6     freq=   101. Q=  0.392 lam=     7.8
  20     freq=   106. Q=  1.633 lam=   141.9     freq=   111. Q=  1.096 lam=    66.4
  21     freq=   110. Q= -1.140 lam=    71.2     freq=   121. Q=-13.709 lam= 11357.9
  22     freq=   133. Q= -0.044 lam=     0.1     freq=   149. Q= -0.331 lam=     8.1
  23     freq=   162. Q= -0.163 lam=     2.1     freq=   164. Q= -0.003 lam=     0.0
  24     freq=   168. Q= -0.012 lam=     0.0     freq=   170. Q= -0.029 lam=     0.1
  25     freq=   184. Q=  0.022 lam=     0.0     freq=   196. Q=  0.074 lam=     0.5
  26     freq=   194. Q= -0.182 lam=     3.2     freq=   197. Q= -0.819 lam=    66.0
  27     freq=   199. Q= -0.361 lam=    13.0     freq=   205. Q= -1.312 lam=   176.2
  28     freq=   204. Q= -0.274 lam=     7.7     freq=   207. Q= -0.919 lam=    87.5
  29     freq=   212. Q= -0.099 lam=     1.0     freq=   216. Q= -0.968 lam=   101.3
  30     freq=   216. Q=  0.676 lam=    49.4     freq=   219. Q=  2.242 lam=   551.0
  31     freq=   234. Q=  0.026 lam=     0.1     freq=   235. Q=  0.430 lam=    21.7
  32     freq=   235. Q=  0.146 lam=     2.5     freq=   235. Q=  0.172 lam=     3.5
  33     freq=   245. Q= -0.150 lam=     2.8     freq=   263. Q= -0.333 lam=    14.6
  34     freq=   257. Q=  0.026 lam=     0.1     freq=   263. Q=  0.508 lam=    33.9
  35     freq=   283. Q=  0.234 lam=     7.8     freq=   288. Q=  0.478 lam=    32.9
  36     freq=   288. Q=  0.304 lam=    13.3     freq=   289. Q=  0.009 lam=     0.0
  37     freq=   302. Q=  0.060 lam=     0.5     freq=   299. Q=  0.226 lam=     7.6
  38     freq=   307. Q= -0.375 lam=    21.6     freq=   305. Q= -1.110 lam=   187.8
  39     freq=   326. Q=  0.211 lam=     7.3     freq=   338. Q=  0.237 lam=     9.5
  40     freq=   343. Q=  0.566 lam=    54.9     freq=   346. Q=  1.012 lam=   177.1
  41     freq=   352. Q=  0.112 lam=     2.2     freq=   360. Q=  3.854 lam=  2672.3
  42     freq=   371. Q=  0.072 lam=     1.0     freq=   368. Q=  0.865 lam=   137.7
  43     freq=   390. Q=  0.172 lam=     5.8     freq=   391. Q=  0.213 lam=     8.8
  44     freq=   393. Q=  0.423 lam=    35.2     freq=   394. Q=  0.283 lam=    15.8
  45     freq=   413. Q= -0.213 lam=     9.4     freq=   406. Q= -1.298 lam=   341.8
  46     freq=   417. Q= -0.158 lam=     5.2     freq=   411. Q= -5.471 lam=  6146.8
  47     freq=   419. Q= -0.339 lam=    24.1     freq=   418. Q= -0.448 lam=    42.0
  48     freq=   432. Q= -0.328 lam=    23.2     freq=   435. Q= -1.011 lam=   222.5
  49     freq=   437. Q=  0.135 lam=     4.0     freq=   439. Q=  0.220 lam=    10.6
  50     freq=   439. Q=  0.058 lam=     0.7     freq=   443. Q=  0.295 lam=    19.3
  51     freq=   447. Q= -0.030 lam=     0.2     freq=   448. Q= -0.171 lam=     6.5
  52     freq=   454. Q=  0.119 lam=     3.2     freq=   454. Q=  0.080 lam=     1.5
  53     freq=   459. Q=  0.123 lam=     3.5     freq=   454. Q=  0.555 lam=    69.9
  54     freq=   467. Q= -0.464 lam=    50.2     freq=   462. Q= -0.070 lam=     1.1
  55     freq=   473. Q=  0.072 lam=     1.2     freq=   465. Q=  1.268 lam=   373.7
  56     freq=   479. Q=  0.125 lam=     3.7     freq=   472. Q=  1.045 lam=   257.7
  57     freq=   487. Q= -0.026 lam=     0.2     freq=   499. Q= -0.646 lam=   104.0
  58     freq=   502. Q=  0.166 lam=     6.9     freq=   503. Q=  0.001 lam=     0.0
  59     freq=   504. Q=  0.407 lam=    41.7     freq=   508. Q=  0.019 lam=     0.1
  60     freq=   506. Q=  0.067 lam=     1.1     freq=   510. Q=  0.232 lam=    13.7
  61     freq=   516. Q=  0.031 lam=     0.3     freq=   517. Q=  0.072 lam=     1.3
  62     freq=   526. Q= -0.127 lam=     4.2     freq=   524. Q= -0.008 lam=     0.0
  63     freq=   546. Q= -0.313 lam=    26.7     freq=   542. Q= -0.267 lam=    19.3
  64     freq=   572. Q= -0.026 lam=     0.2     freq=   574. Q= -0.003 lam=     0.0
  65     freq=   573. Q= -0.053 lam=     0.8     freq=   579. Q= -0.007 lam=     0.0
  66     freq=   576. Q= -0.055 lam=     0.9     freq=   581. Q= -0.222 lam=    14.3
  67     freq=   578. Q=  0.241 lam=    16.8     freq=   592. Q=  0.005 lam=     0.0
  68     freq=   597. Q=  0.391 lam=    45.8     freq=   599. Q=  0.212 lam=    13.5
  69     freq=   605. Q=  0.063 lam=     1.2     freq=   624. Q=  0.033 lam=     0.3
  70     freq=   615. Q=  0.004 lam=     0.0     freq=   625. Q=  0.025 lam=     0.2
  71     freq=   623. Q=  0.031 lam=     0.3     freq=   627. Q=  0.082 lam=     2.1
  72     freq=   635. Q= -0.039 lam=     0.5     freq=   629. Q= -0.046 lam=     0.7
  73     freq=   640. Q=  0.170 lam=     9.2     freq=   648. Q=  0.061 lam=     1.2
  74     freq=   653. Q= -0.034 lam=     0.4     freq=   659. Q= -0.000 lam=     0.0
  75     freq=   655. Q=  0.092 lam=     2.8     freq=   667. Q=  0.038 lam=     0.5
  76     freq=   678. Q= -0.003 lam=     0.0     freq=   685. Q= -0.076 lam=     2.0
  77     freq=   691. Q= -0.054 lam=     1.0     freq=   711. Q= -0.149 lam=     7.9
  78     freq=   701. Q=  0.024 lam=     0.2     freq=   713. Q=  0.088 lam=     2.7
  79     freq=   706. Q= -0.003 lam=     0.0     freq=   729. Q= -0.271 lam=    26.7
  80     freq=   708. Q=  0.022 lam=     0.2     freq=   739. Q=  0.018 lam=     0.1
  81     freq=   712. Q= -0.020 lam=     0.1     freq=   747. Q= -0.036 lam=     0.5
  82     freq=   726. Q= -0.137 lam=     6.9     freq=   748. Q= -0.000 lam=     0.0
  83     freq=   746. Q=  0.029 lam=     0.3     freq=   757. Q=  0.176 lam=    11.8
  84     freq=   753. Q=  0.032 lam=     0.4     freq=   759. Q=  0.014 lam=     0.1
  85     freq=   760. Q=  0.038 lam=     0.5     freq=   762. Q=  0.125 lam=     5.9
  86     freq=   761. Q=  0.028 lam=     0.3     freq=   770. Q=  0.111 lam=     4.8
  87     freq=   762. Q=  0.197 lam=    14.9     freq=   786. Q=  0.004 lam=     0.0
  88     freq=   771. Q= -0.007 lam=     0.0     freq=   800. Q= -0.615 lam=   151.1
  89     freq=   799. Q=  0.108 lam=     4.7     freq=   802. Q=  0.626 lam=   156.9
  90     freq=   807. Q=  0.121 lam=     5.9     freq=   807. Q=  0.234 lam=    22.1
  91     freq=   813. Q= -0.058 lam=     1.4     freq=   810. Q= -0.153 lam=     9.5
  92     freq=   815. Q= -0.306 lam=    38.2     freq=   815. Q= -0.046 lam=     0.9
  93     freq=   815. Q=  0.046 lam=     0.9     freq=   817. Q=  0.002 lam=     0.0
  94     freq=   823. Q=  0.011 lam=     0.1     freq=   822. Q=  0.058 lam=     1.4
  95     freq=   829. Q=  0.014 lam=     0.1     freq=   826. Q=  0.015 lam=     0.1
  96     freq=   832. Q= -0.135 lam=     7.6     freq=   832. Q= -0.049 lam=     1.0
  97     freq=   833. Q= -0.061 lam=     1.5     freq=   837. Q= -0.101 lam=     4.3
  98     freq=   836. Q=  0.207 lam=    17.9     freq=   839. Q=  0.060 lam=     1.5
  99     freq=   838. Q=  0.186 lam=    14.5     freq=   844. Q=  0.019 lam=     0.2
 100     freq=   852. Q= -0.116 lam=     5.7     freq=   850. Q= -0.025 lam=     0.3
 101     freq=   859. Q= -0.437 lam=    82.1     freq=   860. Q= -0.102 lam=     4.4
 102     freq=   876. Q= -0.000 lam=     0.0     freq=   898. Q= -0.136 lam=     8.3
 103     freq=   901. Q= -0.228 lam=    23.4     freq=   900. Q= -0.013 lam=     0.1
 104     freq=   905. Q= -0.143 lam=     9.2     freq=   906. Q= -0.031 lam=     0.4
 105     freq=   924. Q= -0.152 lam=    10.7     freq=   930. Q= -0.114 lam=     6.0
 106     freq=   934. Q= -0.053 lam=     1.3     freq=   943. Q= -0.003 lam=     0.0
 107     freq=   945. Q= -0.002 lam=     0.0     freq=   956. Q= -0.004 lam=     0.0
 108     freq=   957. Q= -0.001 lam=     0.0     freq=   965. Q= -0.011 lam=     0.1
 109     freq=   966. Q= -0.014 lam=     0.1     freq=   971. Q= -0.045 lam=     1.0
 110     freq=   971. Q=  0.172 lam=    14.3     freq=   973. Q=  0.022 lam=     0.2
 111     freq=   974. Q=  0.004 lam=     0.0     freq=   974. Q=  0.006 lam=     0.0
 112     freq=   976. Q= -0.002 lam=     0.0     freq=   975. Q= -0.029 lam=     0.4
 113     freq=   978. Q=  0.058 lam=     1.6     freq=   977. Q=  0.015 lam=     0.1
 114     freq=   982. Q= -0.082 lam=     3.3     freq=   984. Q= -0.031 lam=     0.5
 115     freq=   988. Q=  0.002 lam=     0.0     freq=   987. Q=  0.004 lam=     0.0
 116     freq=   988. Q=  0.002 lam=     0.0     freq=   987. Q=  0.003 lam=     0.0
 117     freq=  1035. Q=  0.087 lam=     3.9     freq=  1021. Q=  1.002 lam=   512.4
 118     freq=  1061. Q= -0.021 lam=     0.2     freq=  1051. Q= -0.006 lam=     0.0
 119     freq=  1083. Q= -0.126 lam=     8.5     freq=  1069. Q= -0.018 lam=     0.2
 120     freq=  1095. Q= -0.019 lam=     0.2     freq=  1081. Q= -0.043 lam=     1.0
 121     freq=  1109. Q= -0.090 lam=     4.5     freq=  1094. Q= -0.006 lam=     0.0
 122     freq=  1134. Q= -0.057 lam=     1.8     freq=  1103. Q= -0.154 lam=    13.1
 123     freq=  1136. Q=  0.015 lam=     0.1     freq=  1145. Q=  0.182 lam=    18.9
 124     freq=  1155. Q= -0.002 lam=     0.0     freq=  1149. Q= -0.243 lam=    33.8
 125     freq=  1157. Q= -0.160 lam=    14.9     freq=  1155. Q= -0.450 lam=   116.7
 126     freq=  1164. Q=  0.027 lam=     0.4     freq=  1155. Q=  0.007 lam=     0.0
 127     freq=  1165. Q=  0.107 lam=     6.7     freq=  1164. Q=  0.025 lam=     0.4
 128     freq=  1176. Q= -0.002 lam=     0.0     freq=  1174. Q= -0.046 lam=     1.2
 129     freq=  1179. Q=  0.083 lam=     4.1     freq=  1184. Q=  0.109 lam=     7.0
 130     freq=  1186. Q= -0.010 lam=     0.1     freq=  1189. Q= -0.174 lam=    18.0
 131     freq=  1196. Q=  0.007 lam=     0.0     freq=  1193. Q=  1.263 lam=   951.0
 132     freq=  1204. Q=  0.014 lam=     0.1     freq=  1200. Q=  0.037 lam=     0.8
 133     freq=  1205. Q= -0.170 lam=    17.3     freq=  1205. Q= -0.044 lam=     1.2
 134     freq=  1210. Q= -0.133 lam=    10.7     freq=  1226. Q= -0.530 lam=   172.1
 135     freq=  1224. Q= -0.091 lam=     5.1     freq=  1227. Q= -1.166 lam=   833.9
 136     freq=  1233. Q= -0.028 lam=     0.5     freq=  1236. Q= -0.037 lam=     0.8
 137     freq=  1242. Q= -0.008 lam=     0.0     freq=  1241. Q= -0.636 lam=   250.7
 138     freq=  1244. Q=  0.124 lam=     9.5     freq=  1247. Q=  0.015 lam=     0.1
 139     freq=  1252. Q= -0.008 lam=     0.0     freq=  1263. Q= -0.004 lam=     0.0
 140     freq=  1263. Q= -0.045 lam=     1.3     freq=  1284. Q= -0.108 lam=     7.5
 141     freq=  1300. Q=  0.216 lam=    30.4     freq=  1297. Q=  0.604 lam=   236.6
 142     freq=  1313. Q= -0.017 lam=     0.2     freq=  1301. Q= -1.055 lam=   724.2
 143     freq=  1317. Q= -0.127 lam=    10.6     freq=  1317. Q= -0.022 lam=     0.3
 144     freq=  1319. Q= -0.016 lam=     0.2     freq=  1329. Q= -0.411 lam=   112.3
 145     freq=  1333. Q=  0.036 lam=     0.8     freq=  1340. Q=  0.147 lam=    14.5
 146     freq=  1350. Q=  0.199 lam=    26.8     freq=  1345. Q=  0.046 lam=     1.5
 147     freq=  1357. Q= -0.099 lam=     6.6     freq=  1359. Q= -0.050 lam=     1.7
 148     freq=  1363. Q=  0.375 lam=    95.7     freq=  1362. Q=  0.299 lam=    60.9
 149     freq=  1366. Q=  0.031 lam=     0.6     freq=  1364. Q=  0.245 lam=    40.8
 150     freq=  1379. Q= -0.197 lam=    26.6     freq=  1371. Q= -0.313 lam=    67.1
 151     freq=  1380. Q= -0.518 lam=   185.5     freq=  1384. Q= -0.002 lam=     0.0
 152     freq=  1382. Q=  0.001 lam=     0.0     freq=  1393. Q=  0.070 lam=     3.4
 153     freq=  1392. Q=  0.095 lam=     6.3     freq=  1394. Q=  0.001 lam=     0.0
 154     freq=  1400. Q=  0.000 lam=     0.0     freq=  1397. Q=  0.000 lam=     0.0
 155     freq=  1404. Q= -0.005 lam=     0.0     freq=  1411. Q= -0.010 lam=     0.1
 156     freq=  1416. Q=  0.039 lam=     1.1     freq=  1424. Q=  0.215 lam=    32.9
 157     freq=  1431. Q=  0.092 lam=     6.0     freq=  1427. Q=  0.073 lam=     3.8
 158     freq=  1439. Q=  0.057 lam=     2.4     freq=  1432. Q=  0.228 lam=    37.3
 159     freq=  1440. Q= -0.187 lam=    25.1     freq=  1437. Q= -0.174 lam=    21.7
 160     freq=  1444. Q=  0.018 lam=     0.2     freq=  1438. Q=  0.151 lam=    16.4
 161     freq=  1458. Q=  0.415 lam=   125.6     freq=  1462. Q=  0.196 lam=    28.1
 162     freq=  1461. Q=  0.092 lam=     6.1     freq=  1470. Q=  0.033 lam=     0.8
 163     freq=  1466. Q=  0.007 lam=     0.0     freq=  1472. Q=  0.052 lam=     2.0
 164     freq=  1485. Q= -0.000 lam=     0.0     freq=  1478. Q= -0.001 lam=     0.0
 165     freq=  1492. Q= -0.068 lam=     3.4     freq=  1483. Q= -0.075 lam=     4.2
 166     freq=  1497. Q=  0.029 lam=     0.6     freq=  1484. Q=  0.001 lam=     0.0
 167     freq=  1505. Q=  0.000 lam=     0.0     freq=  1496. Q=  0.013 lam=     0.1
 168     freq=  1505. Q= -0.212 lam=    33.9     freq=  1506. Q= -0.510 lam=   196.1
 169     freq=  1511. Q=  0.000 lam=     0.0     freq=  1507. Q=  0.001 lam=     0.0
 170     freq=  1522. Q= -0.013 lam=     0.1     freq=  1524. Q= -0.002 lam=     0.0
 171     freq=  1532. Q=  0.344 lam=    90.8     freq=  1536. Q=  0.001 lam=     0.0
 172     freq=  1547. Q=  0.031 lam=     0.7     freq=  1540. Q=  0.075 lam=     4.3
 173     freq=  1555. Q= -0.175 lam=    23.9     freq=  1544. Q= -0.057 lam=     2.5
 174     freq=  1561. Q= -0.356 lam=    98.9     freq=  1560. Q= -0.291 lam=    66.1
 175     freq=  1570. Q= -0.005 lam=     0.0     freq=  1574. Q= -0.170 lam=    22.7
 176     freq=  1581. Q= -0.004 lam=     0.0     freq=  1581. Q= -0.002 lam=     0.0
 177     freq=  1599. Q= -0.004 lam=     0.0     freq=  1593. Q= -0.001 lam=     0.0
 178     freq=  1600. Q= -0.085 lam=     5.8     freq=  1613. Q= -0.001 lam=     0.0
 179     freq=  1610. Q=  0.038 lam=     1.2     freq=  1619. Q=  0.146 lam=    17.3
 180     freq=  1623. Q=  0.020 lam=     0.3     freq=  1626. Q=  0.703 lam=   401.7
 181     freq=  1648. Q= -0.305 lam=    76.5     freq=  1632. Q= -0.068 lam=     3.8
 182     freq=  1685. Q=  0.003 lam=     0.0     freq=  1681. Q=  0.002 lam=     0.0
 183     freq=  1706. Q=  0.007 lam=     0.0     freq=  1704. Q=  0.014 lam=     0.2
 184     freq=  1725. Q= -0.102 lam=     8.9     freq=  1716. Q= -0.089 lam=     6.9
 185     freq=  1742. Q= -0.158 lam=    21.6     freq=  1741. Q= -0.799 lam=   555.6
 186     freq=  3034. Q=  0.000 lam=     0.0     freq=  3029. Q=  0.000 lam=     0.0
 187     freq=  3038. Q= -0.008 lam=     0.1     freq=  3033. Q= -0.005 lam=     0.0
 188     freq=  3092. Q=  0.000 lam=     0.0     freq=  3086. Q=  0.000 lam=     0.0
 189     freq=  3095. Q= -0.007 lam=     0.1     freq=  3089. Q= -0.004 lam=     0.0
 190     freq=  3112. Q=  0.004 lam=     0.0     freq=  3109. Q=  0.002 lam=     0.0
 191     freq=  3132. Q= -0.000 lam=     0.0     freq=  3131. Q= -0.001 lam=     0.0
 192     freq=  3143. Q= -0.005 lam=     0.0     freq=  3141. Q= -0.003 lam=     0.0
 193     freq=  3177. Q=  0.012 lam=     0.2     freq=  3180. Q=  0.033 lam=     1.8
 194     freq=  3181. Q= -0.011 lam=     0.2     freq=  3191. Q= -0.004 lam=     0.0
 195     freq=  3195. Q= -0.010 lam=     0.1     freq=  3191. Q= -0.002 lam=     0.0
 196     freq=  3197. Q=  0.031 lam=     1.5     freq=  3197. Q=  0.002 lam=     0.0
 197     freq=  3198. Q=  0.002 lam=     0.0     freq=  3197. Q=  0.004 lam=     0.0
 198     freq=  3198. Q= -0.000 lam=     0.0     freq=  3200. Q= -0.043 lam=     3.0
 199     freq=  3205. Q= -0.001 lam=     0.0     freq=  3207. Q= -0.003 lam=     0.0
 200     freq=  3205. Q=  0.004 lam=     0.0     freq=  3207. Q=  0.004 lam=     0.0
 201     freq=  3213. Q= -0.002 lam=     0.0     freq=  3221. Q= -0.000 lam=     0.0
 202     freq=  3213. Q= -0.002 lam=     0.0     freq=  3221. Q= -0.001 lam=     0.0
 203     freq=  3213. Q= -0.012 lam=     0.2     freq=  3231. Q= -0.006 lam=     0.1
 204     freq=  3214. Q=  0.021 lam=     0.7     freq=  3244. Q=  0.014 lam=     0.3
 205     freq=  3224. Q= -0.001 lam=     0.0     freq=  3249. Q= -0.004 lam=     0.0
 206     freq=  3224. Q= -0.005 lam=     0.0     freq=  3256. Q= -0.370 lam=   222.9
 207     freq=  3245. Q= -0.000 lam=     0.0     freq=  3257. Q= -0.281 lam=   128.6

 total reorg energy (cm**-1, kcal/mol)=     2818.    50759.      8.06    145.12
 Nber of molecules processed=           2
