 Enter ifcurve (0=recti, 1=orth curvi, 2=apprx curvi, -1 = skip
 And atom ordering flag, 0= never changes, 1= use the first order thenceforth,
  2= deduce it (does read on fail), 3= always read it
 Reading file: 
 ./conjugated_carbonyls_1_C-1S0.log                                             
                                          
  Entering Gaussian System, Link 0=g16                                          
  
 Gaussian format, type: g94, g98, g03= F F F
  #P Geom=AllCheck Guess=TCheck SCRF=Check Test GenChk UB3LYP/6-311G(d,p    
 energy type= B3LYP   
 Original G94 input coords:
  8 -1.405673 -3.048804  0.000000
  6 -0.740048 -1.993423  0.000000
  6  0.740048 -1.993423  0.000000
  8  1.405673 -3.048804  0.000000
  6  1.412959 -0.679107  0.000000
  6  2.819689 -0.645577 -0.000001
  6  3.479823  0.565307  0.000000
  6  2.708224  1.740367  0.000000
  7  1.384224  1.752072  0.000000
  6  0.730987  0.570239  0.000000
  6 -0.730987  0.570239  0.000000
  7 -1.384224  1.752072  0.000001
  6 -2.708224  1.740367 -0.000001
  6 -3.479823  0.565307  0.000000
  6 -2.819689 -0.645577  0.000001
  6 -1.412959 -0.679107  0.000000
  1  3.337560 -1.597932 -0.000001
  1  4.564085  0.621937  0.000000
  1  3.195879  2.714923  0.000001
  1 -3.195879  2.714923 -0.000001
  1 -4.564085  0.621937  0.000000
  1 -3.337560 -1.597932  0.000001
 nber atoms=          22
  SCF Done:  E(UB3LYP) =  -721.073399987     A.U. after    1 cycles             
  
          23          40 "  -721.073399987"
After scan for Atom:   Atom  AN      X      Y      Z        X      Y      Z        X      Y      Z   
After scan for Atom:   Atom  AN      X      Y      Z        X      Y      Z        X      Y      Z   
After scan for Atom:   Atom  AN      X      Y      Z        X      Y      Z        X      Y      Z   
After scan for Atom:   Atom  AN      X      Y      Z        X      Y      Z        X      Y      Z   
After scan for Atom:   Atom  AN      X      Y      Z        X      Y      Z        X      Y      Z   
After scan for Atom:   Atom  AN      X      Y      Z        X      Y      Z        X      Y      Z   
After scan for Atom:   Atom  AN      X      Y      Z        X      Y      Z        X      Y      Z   
After scan for Atom:   Atom  AN      X      Y      Z        X      Y      Z        X      Y      Z   
After scan for Atom:   Atom  AN      X      Y      Z        X      Y      Z        X      Y      Z   
After scan for Atom:   Atom  AN      X      Y      Z        X      Y      Z        X      Y      Z   
After scan for Atom:   Atom  AN      X      Y      Z        X      Y      Z        X      Y      Z   
After scan for Atom:   Atom  AN      X      Y      Z        X      Y      Z        X      Y      Z   
After scan for Atom:   Atom  AN      X      Y      Z        X      Y      Z        X      Y      Z   
After scan for Atom:   Atom  AN      X      Y      Z        X      Y      Z        X      Y      Z   
After scan for Atom:   Atom  AN      X      Y      Z        X      Y      Z        X      Y      Z   
After scan for Atom:   Atom  AN      X      Y      Z        X      Y      Z        X      Y      Z   
After scan for Atom:   Atom  AN      X      Y      Z        X      Y      Z        X      Y      Z   
After scan for Atom:   Atom  AN      X      Y      Z        X      Y      Z        X      Y      Z   
After scan for Atom:   Atom  AN      X      Y      Z        X      Y      Z        X      Y      Z   
After scan for Atom:   Atom  AN      X      Y      Z        X      Y      Z        X      Y      Z   
 g94    frequencies=
     0.0    0.0    0.0    0.0    0.0    0.0   61.7   89.9  131.7  161.5
   236.1  278.5  320.6  361.3  383.4  406.0  415.0  455.0  456.2  462.6
   579.0  591.3  615.5  634.5  678.2  709.6  741.8  754.5  812.3  814.7
   832.4  835.1  932.4  935.7  935.9  997.6  999.4 1040.9 1042.2 1074.8
  1087.2 1096.5 1118.7 1190.1 1224.8 1237.4 1271.6 1308.1 1317.4 1359.8
  1418.2 1423.3 1459.1 1485.5 1535.3 1538.9 1578.2 1593.3 1607.2 1616.9
  3097.0 3097.8 3149.5 3149.9 3184.6 3184.8
 g94    symmetries=
                                                 A      A      A      A
       A      A      A      A      A      A      A      A      A      A
       A      A      A      A      A      A      A      A      A      A
       A      A      A      A      A      A      A      A      A      A
       A      A      A      A      A      A      A      A      A      A
       A      A      A      A      A      A      A      A      A      A
       A      A      A      A      A      A
 atomic masses:
 15.9949 12.0000 12.0000 15.9949 12.0000 12.0000 12.0000 12.0000 14.0031 12.0000
 12.0000 14.0031 12.0000 12.0000 12.0000 12.0000  1.0078  1.0078  1.0078  1.0078
  1.0078  1.0078
 looking for force constants in 
 ./conjugated_carbonyls_1_C-1S0.fchk                                            
  
 Cartesian Force Constants                  R   N=        2211                  
  
 n3=          66        2211
 g94-fc frequencies=
    -2.9   -2.8   -1.8   -0.0    0.0    0.0   61.7   89.9  131.7  161.5
   236.1  278.5  320.6  361.3  383.4  406.0  415.0  455.0  456.2  462.6
   579.0  591.3  615.5  634.5  678.2  709.6  741.8  754.5  812.3  814.7
   832.4  835.1  932.4  935.7  935.9  997.7  999.4 1040.9 1042.2 1074.8
  1087.3 1096.5 1118.7 1190.1 1224.8 1237.5 1271.6 1308.2 1317.4 1359.8
  1418.3 1423.4 1459.1 1485.6 1535.3 1538.9 1578.3 1593.4 1607.2 1616.9
  3097.1 3097.9 3149.6 3150.0 3184.7 3184.9
 at 99999: n3=          66
 symm operator            1 :  F  nop=           0
 symm operator            2 :  T  nop=           1
 symm operator            3 :  F  nop=           1
 symm operator            4 :  F  nop=           1
 symm operator            5 :  T  nop=           2
 symm operator            6 :  F  nop=           2
 symm operator            7 :  T  nop=           3
 swap           2           3
   1  -1.40567   0.00000  -3.04880
   2  -0.74005   0.00000  -1.99342
   3   0.74005   0.00000  -1.99342
   4   1.40567   0.00000  -3.04880
   5   1.41296   0.00000  -0.67911
   6   2.81969  -0.00000  -0.64558
   7   3.47982   0.00000   0.56531
   8   2.70822   0.00000   1.74037
   9   1.38422   0.00000   1.75207
  10   0.73099   0.00000   0.57024
  11  -0.73099   0.00000   0.57024
  12  -1.38422   0.00000   1.75207
  13  -2.70822  -0.00000   1.74037
  14  -3.47982   0.00000   0.56531
  15  -2.81969   0.00000  -0.64558
  16  -1.41296   0.00000  -0.67911
  17   3.33756  -0.00000  -1.59793
  18   4.56409   0.00000   0.62194
  19   3.19588   0.00000   2.71492
  20  -3.19588  -0.00000   2.71492
  21  -4.56409   0.00000   0.62194
  22  -3.33756   0.00000  -1.59793
 swap           1           2
   1   0.00000  -1.40567  -3.04880
   2   0.00000  -0.74005  -1.99342
   3   0.00000   0.74005  -1.99342
   4   0.00000   1.40567  -3.04880
   5   0.00000   1.41296  -0.67911
   6  -0.00000   2.81969  -0.64558
   7   0.00000   3.47982   0.56531
   8   0.00000   2.70822   1.74037
   9   0.00000   1.38422   1.75207
  10   0.00000   0.73099   0.57024
  11   0.00000  -0.73099   0.57024
  12   0.00000  -1.38422   1.75207
  13  -0.00000  -2.70822   1.74037
  14   0.00000  -3.47982   0.56531
  15   0.00000  -2.81969  -0.64558
  16   0.00000  -1.41296  -0.67911
  17  -0.00000   3.33756  -1.59793
  18   0.00000   4.56409   0.62194
  19   0.00000   3.19588   2.71492
  20  -0.00000  -3.19588   2.71492
  21   0.00000  -4.56409   0.62194
  22   0.00000  -3.33756  -1.59793
 The point group of the molecule is C2V
 enforcing symm op           1  jsymt=          -1          -1           1
 enforcing symm op           6  jsymt=           1          -1           1
 enforcing symm op           7  jsymt=          -1           1           1
 cartesian coord symmetries:
 A1 :   22 A2 :   11 B1 :   11 B2 :   22
 Symmetry rotation matrix:
   0.00000   0.00000   1.00000
  -1.00000   0.00000   0.00000
   0.00000  -1.00000   0.00000

 Projecting out zero-frequency components
 generating redundant internal coords
         300        3600          22
 search for int coords
   1 str   2   1   1.248
   2 str   3   2   1.480
   3 str   4   3   1.248
   4 str   5   3   1.477
   5 str   6   5   1.407
   6 str   7   6   1.379
   7 str   8   7   1.406
   8 str   9   8   1.324
   9 str  10   5   1.423
  10 str  10   9   1.350
  11 str  11  10   1.462
  12 str  12  11   1.350
  13 str  13  12   1.324
  14 str  14  13   1.406
  15 str  15  14   1.379
  16 str  16   2   1.477
  17 str  16  11   1.423
  18 str  16  15   1.407
  19 str  17   6   1.084
  20 str  18   7   1.086
  21 str  19   8   1.090
  22 str  20  13   1.090
  23 str  21  14   1.086
  24 str  22  15   1.084
 nber stretches=          24
  25 ben   1   2   3
  26 prop tor   1   2   3   4
  27 prop tor   1   2   3   5
  28 ben   1   2  16
  29 prop tor   1   2  16  11
  30 prop tor   1   2  16  15
  31 ben   2   3   4
  32 ben   2   3   5
  33 prop tor   2   3   5   6
  34 prop tor   2   3   5  10
  35 ben   2  16  11
  36 ben   2  16  15
  37 ben   3   2  16
  38 prop tor   3   2  16  11
  39 prop tor   3   2  16  15
  40 ben   3   5   6
  41 prop tor   3   5   6   7
  42 prop tor   3   5   6  17
  43 ben   3   5  10
  44 prop tor   3   5  10   9
  45 prop tor   3   5  10  11
  46 ben   4   3   5
  47 prop tor   4   3   5   6
  48 prop tor   4   3   5  10
  49 ben   5   6   7
  50 prop tor   5   6   7   8
  51 prop tor   5   6   7  18
  52 ben   5   6  17
  53 ben   5  10   9
  54 ben   5  10  11
  55 prop tor   5  10  11  12
  56 prop tor   5  10  11  16
  57 ben   6   5  10
  58 prop tor   6   5  10   9
  59 prop tor   6   5  10  11
  60 ben   6   7   8
  61 prop tor   6   7   8   9
  62 prop tor   6   7   8  19
  63 ben   6   7  18
  64 ben   7   6  17
  65 ben   7   8   9
  66 prop tor   7   8   9  10
  67 ben   7   8  19
  68 ben   8   7  18
  69 ben   8   9  10
  70 prop tor   8   9  10   5
  71 prop tor   8   9  10  11
  72 ben   9   8  19
  73 ben   9  10  11
  74 prop tor   9  10  11  12
  75 prop tor   9  10  11  16
  76 prop tor  10   5   6   7
  77 prop tor  10   5   6  17
  78 ben  10  11  12
  79 prop tor  10  11  12  13
  80 ben  10  11  16
  81 prop tor  10  11  16   2
  82 prop tor  10  11  16  15
  83 ben  11  12  13
  84 prop tor  11  12  13  14
  85 prop tor  11  12  13  20
  86 ben  11  16  15
  87 ben  12  11  16
  88 prop tor  12  11  16   2
  89 prop tor  12  11  16  15
  90 ben  12  13  14
  91 prop tor  12  13  14  15
  92 prop tor  12  13  14  21
  93 ben  12  13  20
  94 ben  13  14  15
  95 prop tor  13  14  15  16
  96 prop tor  13  14  15  22
  97 ben  13  14  21
  98 ben  14  13  20
  99 ben  14  15  16
 100 prop tor  14  15  16   2
 101 prop tor  14  15  16  11
 102 ben  14  15  22
 103 ben  15  14  21
 104 prop tor  16   2   3   4
 105 prop tor  16   2   3   5
 106 prop tor  16  11  12  13
 107 ben  16  15  22
 108 prop tor  17   6   7   8
 109 prop tor  17   6   7  18
 110 prop tor  18   7   8   9
 111 prop tor  18   7   8  19
 112 prop tor  19   8   9  10
 113 prop tor  20  13  14  15
 114 prop tor  20  13  14  21
 115 prop tor  21  14  15  16
 116 prop tor  21  14  15  22
 117 prop tor  22  15  16   2
 118 prop tor  22  15  16  11
 nber bend=              38
 nber lin bend=           0
 nber prop tor=          56
 nber impr tor=           0
 nber tot redund int=         118
 Eigenvalues of G in red int coords
    Gval -0.00000000 -0.00000000 -0.00000000 -0.00000000 -0.00000000 -0.00000000 -0.00000000 -0.00000000
    Gval -0.00000000 -0.00000000 -0.00000000 -0.00000000 -0.00000000 -0.00000000 -0.00000000 -0.00000000
    Gval -0.00000000 -0.00000000 -0.00000000 -0.00000000 -0.00000000 -0.00000000 -0.00000000 -0.00000000
    Gval -0.00000000 -0.00000000 -0.00000000 -0.00000000 -0.00000000 -0.00000000  0.00000000  0.00000000
    Gval  0.00000000  0.00000000  0.00000000  0.00000000  0.00000000  0.00000000  0.00000000  0.00000000
    Gval  0.00000000  0.00000000  0.00000000  0.00000000  0.00000000  0.00000000  0.00000000  0.00000000
    Gval  0.00000000  0.00000000  0.00000000  0.00000000  0.00000000  0.00000000  0.00000000  0.00000000
    Gval  0.00000000  0.00000000  0.00000708  0.00001105  0.00001172  0.00002011  0.00002120  0.00002570
    Gval  0.00003442  0.00004271  0.00004666  0.00004911  0.00005403  0.00005857  0.00006023  0.00007427
    Gval  0.00007803  0.00010048  0.00010085  0.00011017  0.00011539  0.00012562  0.00013142  0.00013258
    Gval  0.00015123  0.00019638  0.00024108  0.00024916  0.00026817  0.00028456  0.00032434  0.00036887
    Gval  0.00037699  0.00039647  0.00043047  0.00044218  0.00044579  0.00059387  0.00059388  0.00060634
    Gval  0.00060702  0.00061135  0.00064592  0.00064606  0.00070046  0.00089911  0.00090484  0.00105965
    Gval  0.00105998  0.00113014  0.00113015  0.00117002  0.00117007  0.00123278  0.00154657  0.00162093
    Gval  0.00173682  0.00213655  0.00272020  0.00274054  0.00388442  0.00388526
  7.084947252524561E-006  7.084947252524561E-006
  1.104824537910772E-005  7.084947252524561E-006
  1.171518227570502E-005  7.084947252524561E-006
  2.010801256192263E-005  7.084947252524561E-006
  2.119671146469966E-005  7.084947252524561E-006
  2.570138434997856E-005  7.084947252524561E-006
  3.442219192730778E-005  7.084947252524561E-006
  4.271245063922070E-005  7.084947252524561E-006
  4.666023670201890E-005  7.084947252524561E-006
  4.910926870671342E-005  7.084947252524561E-006
  5.403144442139102E-005  7.084947252524561E-006
  5.856933857965899E-005  7.084947252524561E-006
  6.022976550255889E-005  7.084947252524561E-006
  7.426852236907307E-005  7.084947252524561E-006
  7.803464789604243E-005  7.084947252524561E-006
  1.004812894794716E-004  7.084947252524561E-006
  1.008511529830053E-004  7.084947252524561E-006
  1.101694920868516E-004  7.084947252524561E-006
  1.153907401212658E-004  7.084947252524561E-006
  1.256197687160409E-004  7.084947252524561E-006
  1.314168110618398E-004  7.084947252524561E-006
  1.325793957052912E-004  7.084947252524561E-006
  1.512336194515824E-004  7.084947252524561E-006
  1.963803224811825E-004  7.084947252524561E-006
  2.410818274363774E-004  7.084947252524561E-006
  2.491582953545142E-004  7.084947252524561E-006
  2.681746721395606E-004  7.084947252524561E-006
  2.845600162514441E-004  7.084947252524561E-006
  3.243360260325664E-004  7.084947252524561E-006
  3.688674200872007E-004  7.084947252524561E-006
  3.769890161399145E-004  7.084947252524561E-006
  3.964720753782458E-004  7.084947252524561E-006
  4.304736893874833E-004  7.084947252524561E-006
  4.421831000891303E-004  7.084947252524561E-006
  4.457945195222232E-004  7.084947252524561E-006
  5.938676673208715E-004  7.084947252524561E-006
  5.938768284068272E-004  7.084947252524561E-006
  6.063446561318140E-004  7.084947252524561E-006
  6.070247157371663E-004  7.084947252524561E-006
  6.113481204052089E-004  7.084947252524561E-006
  6.459210131880347E-004  7.084947252524561E-006
  6.460624322759359E-004  7.084947252524561E-006
  7.004623586432026E-004  7.084947252524561E-006
  8.991085677734429E-004  7.084947252524561E-006
  9.048447827211767E-004  7.084947252524561E-006
  1.059651575757851E-003  7.084947252524561E-006
  1.059979030218217E-003  7.084947252524561E-006
  1.130142735639247E-003  7.084947252524561E-006
  1.130147004992455E-003  7.084947252524561E-006
  1.170020178598519E-003  7.084947252524561E-006
  1.170071566732330E-003  7.084947252524561E-006
  1.232779609171209E-003  7.084947252524561E-006
  1.546574575256272E-003  7.084947252524561E-006
  1.620933744257902E-003  7.084947252524561E-006
  1.736816817180442E-003  7.084947252524561E-006
  2.136548193698988E-003  7.084947252524561E-006
  2.720196007289321E-003  7.084947252524561E-006
  2.740539407861804E-003  7.084947252524561E-006
  3.884419758113097E-003  7.084947252524561E-006
  3.885264942049786E-003  7.084947252524561E-006
 cut=1d-8, nber non-redundant internal coords=          60
 Check on Eigenvals of non-red overlap matrix:
  0.00000708  0.00001105  0.00001172  0.00002011  0.00002120  0.00002570  0.00003442  0.00004271
  0.00004666  0.00004911  0.00005403  0.00005857  0.00006023  0.00007427  0.00007803  0.00010048
  0.00010085  0.00011017  0.00011539  0.00012562  0.00013142  0.00013258  0.00015123  0.00019638
  0.00024108  0.00024916  0.00026817  0.00028456  0.00032434  0.00036887  0.00037699  0.00039647
  0.00043047  0.00044218  0.00044579  0.00059387  0.00059388  0.00060634  0.00060702  0.00061135
  0.00064592  0.00064606  0.00070046  0.00089911  0.00090484  0.00105965  0.00105998  0.00113014
  0.00113015  0.00117002  0.00117007  0.00123278  0.00154657  0.00162093  0.00173682  0.00213655
  0.00272020  0.00274054  0.00388442  0.00388526
 Checking for correct frequencies
 recalc frequencies=
    -0.0   -0.0   -0.0    0.0    0.0    0.0   61.7   89.9  131.7  161.5
   236.1  278.5  320.6  361.3  383.4  406.0  415.0  455.0  456.2  462.6
   579.0  591.3  615.5  634.5  678.2  709.6  741.8  754.5  812.3  814.7
   832.4  835.1  932.4  935.7  935.9  997.7  999.4 1040.9 1042.2 1074.8
  1087.3 1096.5 1118.7 1190.1 1224.8 1237.5 1271.6 1308.2 1317.4 1359.8
  1418.3 1423.4 1459.1 1485.6 1535.3 1538.9 1578.3 1593.4 1607.2 1616.9
  3097.1 3097.9 3149.6 3150.0 3184.7 3184.9
 recalc symmetries=
     A1     B2     B1     B2     A2     B1     A2     B1     A2     B1 
     A1     A2     B2     A1     B1     B2     A1     A2     B1     A1 
     B1     A2     B2     B2     A1     B2     A2     B1     A2     B1 
     A2     A1     B1     B2     A2     B1     A2     A1     B2     A1 
     B2     A1     B2     A1     B2     A1     B2     A1     B2     A1 
     A1     B2     B2     A1     A1     B2     B2     A1     A1     B2 
     B2     A1     B2     A1     B2     A1 
 recalc freqs check OK
 Zero-point lengths:
 10.0000 10.0000 10.0000 10.0000 10.0000 10.0000 31.5618 26.1494 21.6039 19.5069
 16.1353 14.8544 13.8453 13.0421 12.6607 12.3033 12.1691 11.6220 11.6072 11.5258
 10.3025 10.1951  9.9929  9.8416  9.5197  9.3067  9.1022  9.0254  8.6984  8.6856
  8.5924  8.5788  8.1189  8.1043  8.1037  7.8488  7.8420  7.6839  7.6793  7.5618
  7.5185  7.4867  7.4121  7.1862  7.0838  7.0474  6.9521  6.8543  6.8302  6.7228
  6.5829  6.5711  6.4901  6.4320  6.3270  6.3196  6.2403  6.2107  6.1839  6.1653
  4.4547  4.4541  4.4174  4.4172  4.3930  4.3929
 highest evec of mol 1
  0.0000  0.0020  0.0006
  0.0000 -0.0019 -0.0028
  0.0000  0.0019 -0.0028
  0.0000 -0.0020  0.0006
  0.0000 -0.0037 -0.0010
  0.0000  0.0936 -0.1746
  0.0000  0.0535  0.0107
  0.0000 -0.0002  0.0091
  0.0000  0.0006  0.0002
  0.0000 -0.0012  0.0006
  0.0000  0.0012  0.0006
  0.0000 -0.0006  0.0002
  0.0000  0.0002  0.0091
  0.0000 -0.0535  0.0107
  0.0000 -0.0936 -0.1746
  0.0000  0.0037 -0.0010
  0.0000 -0.3223  0.5716
  0.0000 -0.1630 -0.0104
  0.0000 -0.0080 -0.0193
  0.0000  0.0080 -0.0193
  0.0000  0.1630 -0.0104
  0.0000  0.3223  0.5716
 generating redundant internal coords
         300        3600          22
 Adding extra bonds for z output only
           8           6           6           8           6           6
           6           6           7           6           6           7
           6           6           6           6           1           1
           1           1           1           1
 search for int coords
   1 str   2   1   1.248
   2 str   3   2   1.480
   3 str   4   3   1.248
   4 str   5   3   1.477
   5 str   6   5   1.407
   6 str   7   6   1.379
   7 str   8   7   1.406
   8 str   9   8   1.324
   9 str  10   5   1.423
  10 str  10   9   1.350
  11 str  11  10   1.462
  12 str  12  11   1.350
  13 str  13  12   1.324
  14 str  14  13   1.406
  15 str  15  14   1.379
  16 str  16   2   1.477
  17 str  16  11   1.423
  18 str  16  15   1.407
  19 str  17   6   1.084
  20 str  18   7   1.086
  21 str  19   8   1.090
  22 str  20  13   1.090
  23 str  21  14   1.086
  24 str  22  15   1.084
 nber stretches=          24
  25 ben   1   2   3
  26 prop tor   1   2   3   4
  27 prop tor   1   2   3   5
  28 ben   1   2  16
  29 prop tor   1   2  16  11
  30 prop tor   1   2  16  15
  31 ben   2   3   4
  32 ben   2   3   5
  33 prop tor   2   3   5   6
  34 prop tor   2   3   5  10
  35 ben   2  16  11
  36 ben   2  16  15
  37 ben   3   2  16
  38 prop tor   3   2  16  11
  39 prop tor   3   2  16  15
  40 ben   3   5   6
  41 prop tor   3   5   6   7
  42 prop tor   3   5   6  17
  43 ben   3   5  10
  44 prop tor   3   5  10   9
  45 prop tor   3   5  10  11
  46 ben   4   3   5
  47 prop tor   4   3   5   6
  48 prop tor   4   3   5  10
  49 ben   5   6   7
  50 prop tor   5   6   7   8
  51 prop tor   5   6   7  18
  52 ben   5   6  17
  53 ben   5  10   9
  54 ben   5  10  11
  55 prop tor   5  10  11  12
  56 prop tor   5  10  11  16
  57 ben   6   5  10
  58 prop tor   6   5  10   9
  59 prop tor   6   5  10  11
  60 ben   6   7   8
  61 prop tor   6   7   8   9
  62 prop tor   6   7   8  19
  63 ben   6   7  18
  64 ben   7   6  17
  65 ben   7   8   9
  66 prop tor   7   8   9  10
  67 ben   7   8  19
  68 ben   8   7  18
  69 ben   8   9  10
  70 prop tor   8   9  10   5
  71 prop tor   8   9  10  11
  72 ben   9   8  19
  73 ben   9  10  11
  74 prop tor   9  10  11  12
  75 prop tor   9  10  11  16
  76 prop tor  10   5   6   7
  77 prop tor  10   5   6  17
  78 ben  10  11  12
  79 prop tor  10  11  12  13
  80 ben  10  11  16
  81 prop tor  10  11  16   2
  82 prop tor  10  11  16  15
  83 ben  11  12  13
  84 prop tor  11  12  13  14
  85 prop tor  11  12  13  20
  86 ben  11  16  15
  87 ben  12  11  16
  88 prop tor  12  11  16   2
  89 prop tor  12  11  16  15
  90 ben  12  13  14
  91 prop tor  12  13  14  15
  92 prop tor  12  13  14  21
  93 ben  12  13  20
  94 ben  13  14  15
  95 prop tor  13  14  15  16
  96 prop tor  13  14  15  22
  97 ben  13  14  21
  98 ben  14  13  20
  99 ben  14  15  16
 100 prop tor  14  15  16   2
 101 prop tor  14  15  16  11
 102 ben  14  15  22
 103 ben  15  14  21
 104 prop tor  16   2   3   4
 105 prop tor  16   2   3   5
 106 prop tor  16  11  12  13
 107 ben  16  15  22
 108 prop tor  17   6   7   8
 109 prop tor  17   6   7  18
 110 prop tor  18   7   8   9
 111 prop tor  18   7   8  19
 112 prop tor  19   8   9  10
 113 prop tor  20  13  14  15
 114 prop tor  20  13  14  21
 115 prop tor  21  14  15  16
 116 prop tor  21  14  15  22
 117 prop tor  22  15  16   2
 118 prop tor  22  15  16  11
 nber bend=              38
 nber lin bend=           0
 nber prop tor=          56
 nber impr tor=           0
 nber tot redund int=         118
 Reading file: 
 ./conjugated_carbonyls_1_C-2S0.log                                             
                                          
  Entering Gaussian System, Link 0=g16                                          
  
 Gaussian format, type: g94, g98, g03= F F F
  #P Geom=AllCheck Guess=TCheck SCRF=Check Test GenChk UB3LYP/6-311G(d,p    
 energy type= B3LYP   
 Original G94 input coords:
  8 -1.398813 -3.065683  0.000000
  6 -0.735600 -1.993798  0.000000
  6  0.735600 -1.993798  0.000000
  8  1.398813 -3.065683  0.000000
  6  1.427507 -0.681263  0.000000
  6  2.819396 -0.659401  0.000000
  6  3.505112  0.578764  0.000000
  6  2.727592  1.735341  0.000000
  7  1.397017  1.779749  0.000000
  6  0.715715  0.571793  0.000000
  6 -0.715715  0.571793  0.000000
  7 -1.397017  1.779749  0.000000
  6 -2.727592  1.735341  0.000000
  6 -3.505112  0.578764  0.000000
  6 -2.819396 -0.659401  0.000000
  6 -1.427507 -0.681263  0.000000
  1  3.332199 -1.615661  0.000000
  1  4.592653  0.637592  0.000000
  1  3.227367  2.712567  0.000000
  1 -3.227367  2.712567  0.000000
  1 -4.592653  0.637592  0.000000
  1 -3.332199 -1.615661  0.000000
 nber atoms=          22
  SCF Done:  E(UB3LYP) =  -720.950447262     A.U. after    1 cycles             
  
          23          40 "  -720.950447262"
After scan for Atom:   Atom  AN      X      Y      Z        X      Y      Z        X      Y      Z   
After scan for Atom:   Atom  AN      X      Y      Z        X      Y      Z        X      Y      Z   
After scan for Atom:   Atom  AN      X      Y      Z        X      Y      Z        X      Y      Z   
After scan for Atom:   Atom  AN      X      Y      Z        X      Y      Z        X      Y      Z   
After scan for Atom:   Atom  AN      X      Y      Z        X      Y      Z        X      Y      Z   
After scan for Atom:   Atom  AN      X      Y      Z        X      Y      Z        X      Y      Z   
After scan for Atom:   Atom  AN      X      Y      Z        X      Y      Z        X      Y      Z   
After scan for Atom:   Atom  AN      X      Y      Z        X      Y      Z        X      Y      Z   
After scan for Atom:   Atom  AN      X      Y      Z        X      Y      Z        X      Y      Z   
After scan for Atom:   Atom  AN      X      Y      Z        X      Y      Z        X      Y      Z   
After scan for Atom:   Atom  AN      X      Y      Z        X      Y      Z        X      Y      Z   
After scan for Atom:   Atom  AN      X      Y      Z        X      Y      Z        X      Y      Z   
After scan for Atom:   Atom  AN      X      Y      Z        X      Y      Z        X      Y      Z   
After scan for Atom:   Atom  AN      X      Y      Z        X      Y      Z        X      Y      Z   
After scan for Atom:   Atom  AN      X      Y      Z        X      Y      Z        X      Y      Z   
After scan for Atom:   Atom  AN      X      Y      Z        X      Y      Z        X      Y      Z   
After scan for Atom:   Atom  AN      X      Y      Z        X      Y      Z        X      Y      Z   
After scan for Atom:   Atom  AN      X      Y      Z        X      Y      Z        X      Y      Z   
After scan for Atom:   Atom  AN      X      Y      Z        X      Y      Z        X      Y      Z   
After scan for Atom:   Atom  AN      X      Y      Z        X      Y      Z        X      Y      Z   
 g94    frequencies=
     0.0    0.0    0.0    0.0    0.0    0.0   66.3   81.2  130.1  162.1
   235.5  257.6  321.2  369.6  384.4  393.3  416.2  417.9  454.5  464.8
   540.7  582.3  586.9  622.5  650.6  661.4  675.3  705.6  721.0  740.2
   777.3  830.5  846.5  850.3  889.9  892.4  922.8 1026.9 1027.5 1041.6
  1062.7 1082.3 1082.4 1160.2 1171.5 1235.8 1270.8 1275.8 1320.8 1341.3
  1377.5 1428.9 1437.7 1454.9 1466.6 1483.0 1509.8 1539.5 1554.2 1565.0
  2989.5 2992.1 3094.9 3096.3 3158.6 3160.0
 g94    symmetries=
                                                 A      A      A      A
       A      A      A      A      A      A      A      A      A      A
       A      A      A      A      A      A      A      A      A      A
       A      A      A      A      A      A      A      A      A      A
       A      A      A      A      A      A      A      A      A      A
       A      A      A      A      A      A      A      A      A      A
       A      A      A      A      A      A
 atomic masses:
 15.9949 12.0000 12.0000 15.9949 12.0000 12.0000 12.0000 12.0000 14.0031 12.0000
 12.0000 14.0031 12.0000 12.0000 12.0000 12.0000  1.0078  1.0078  1.0078  1.0078
  1.0078  1.0078
 looking for force constants in 
 ./conjugated_carbonyls_1_C-2S0.fchk                                            
  
 Cartesian Force Constants                  R   N=        2211                  
  
 n3=          66        2211
 g94-fc frequencies=
    -5.9   -4.5   -0.8   -0.0   -0.0   -0.0   66.3   81.2  130.1  162.1
   235.5  257.6  321.3  369.6  384.4  393.3  416.2  417.9  454.5  464.8
   540.7  582.3  586.9  622.5  650.6  661.5  675.3  705.6  721.0  740.3
   777.3  830.6  846.5  850.3  889.9  892.4  922.8 1026.9 1027.5 1041.6
  1062.7 1082.4 1082.4 1160.2 1171.5 1235.9 1270.8 1275.9 1320.9 1341.3
  1377.5 1428.9 1437.7 1454.9 1466.7 1483.0 1509.9 1539.5 1554.3 1565.1
  2989.6 2992.1 3095.0 3096.4 3158.6 3160.1
 at 99999: n3=          66
 symm operator            1 :  F  nop=           0
 symm operator            2 :  T  nop=           1
 symm operator            3 :  F  nop=           1
 symm operator            4 :  F  nop=           1
 symm operator            5 :  T  nop=           2
 symm operator            6 :  F  nop=           2
 symm operator            7 :  T  nop=           3
 swap           2           3
   1  -1.39881   0.00000  -3.06568
   2  -0.73560   0.00000  -1.99380
   3   0.73560   0.00000  -1.99380
   4   1.39881   0.00000  -3.06568
   5   1.42751   0.00000  -0.68126
   6   2.81940   0.00000  -0.65940
   7   3.50511   0.00000   0.57876
   8   2.72759   0.00000   1.73534
   9   1.39702   0.00000   1.77975
  10   0.71571   0.00000   0.57179
  11  -0.71571   0.00000   0.57179
  12  -1.39702   0.00000   1.77975
  13  -2.72759   0.00000   1.73534
  14  -3.50511   0.00000   0.57876
  15  -2.81940   0.00000  -0.65940
  16  -1.42751   0.00000  -0.68126
  17   3.33220   0.00000  -1.61566
  18   4.59265   0.00000   0.63759
  19   3.22737   0.00000   2.71257
  20  -3.22737   0.00000   2.71257
  21  -4.59265   0.00000   0.63759
  22  -3.33220   0.00000  -1.61566
 swap           1           2
   1   0.00000  -1.39881  -3.06568
   2   0.00000  -0.73560  -1.99380
   3   0.00000   0.73560  -1.99380
   4   0.00000   1.39881  -3.06568
   5   0.00000   1.42751  -0.68126
   6   0.00000   2.81940  -0.65940
   7   0.00000   3.50511   0.57876
   8   0.00000   2.72759   1.73534
   9   0.00000   1.39702   1.77975
  10   0.00000   0.71571   0.57179
  11   0.00000  -0.71571   0.57179
  12   0.00000  -1.39702   1.77975
  13   0.00000  -2.72759   1.73534
  14   0.00000  -3.50511   0.57876
  15   0.00000  -2.81940  -0.65940
  16   0.00000  -1.42751  -0.68126
  17   0.00000   3.33220  -1.61566
  18   0.00000   4.59265   0.63759
  19   0.00000   3.22737   2.71257
  20   0.00000  -3.22737   2.71257
  21   0.00000  -4.59265   0.63759
  22   0.00000  -3.33220  -1.61566
 The point group of the molecule is C2V
 enforcing symm op           1  jsymt=          -1          -1           1
 enforcing symm op           6  jsymt=           1          -1           1
 enforcing symm op           7  jsymt=          -1           1           1
 cartesian coord symmetries:
 A1 :   22 A2 :   11 B1 :   11 B2 :   22
 Symmetry rotation matrix:
   0.00000   0.00000   1.00000
  -1.00000   0.00000   0.00000
   0.00000  -1.00000   0.00000

 Projecting out zero-frequency components
 generating redundant internal coords
         300        3600          22
 search for int coords
   1 str   2   1   1.260
   2 str   3   2   1.471
   3 str   4   3   1.260
   4 str   5   3   1.484
   5 str   6   5   1.392
   6 str   7   6   1.415
   7 str   8   7   1.394
   8 str   9   8   1.331
   9 str  10   5   1.441
  10 str  10   9   1.387
  11 str  11  10   1.431
  12 str  12  11   1.387
  13 str  13  12   1.331
  14 str  14  13   1.394
  15 str  15  14   1.415
  16 str  16   2   1.484
  17 str  16  11   1.441
  18 str  16  15   1.392
  19 str  17   6   1.085
  20 str  18   7   1.089
  21 str  19   8   1.098
  22 str  20  13   1.098
  23 str  21  14   1.089
  24 str  22  15   1.085
 nber stretches=          24
  25 ben   1   2   3
  26 prop tor   1   2   3   4
  27 prop tor   1   2   3   5
  28 ben   1   2  16
  29 prop tor   1   2  16  11
  30 prop tor   1   2  16  15
  31 ben   2   3   4
  32 ben   2   3   5
  33 prop tor   2   3   5   6
  34 prop tor   2   3   5  10
  35 ben   2  16  11
  36 ben   2  16  15
  37 ben   3   2  16
  38 prop tor   3   2  16  11
  39 prop tor   3   2  16  15
  40 ben   3   5   6
  41 prop tor   3   5   6   7
  42 prop tor   3   5   6  17
  43 ben   3   5  10
  44 prop tor   3   5  10   9
  45 prop tor   3   5  10  11
  46 ben   4   3   5
  47 prop tor   4   3   5   6
  48 prop tor   4   3   5  10
  49 ben   5   6   7
  50 prop tor   5   6   7   8
  51 prop tor   5   6   7  18
  52 ben   5   6  17
  53 ben   5  10   9
  54 ben   5  10  11
  55 prop tor   5  10  11  12
  56 prop tor   5  10  11  16
  57 ben   6   5  10
  58 prop tor   6   5  10   9
  59 prop tor   6   5  10  11
  60 ben   6   7   8
  61 prop tor   6   7   8   9
  62 prop tor   6   7   8  19
  63 ben   6   7  18
  64 ben   7   6  17
  65 ben   7   8   9
  66 prop tor   7   8   9  10
  67 ben   7   8  19
  68 ben   8   7  18
  69 ben   8   9  10
  70 prop tor   8   9  10   5
  71 prop tor   8   9  10  11
  72 ben   9   8  19
  73 ben   9  10  11
  74 prop tor   9  10  11  12
  75 prop tor   9  10  11  16
  76 prop tor  10   5   6   7
  77 prop tor  10   5   6  17
  78 ben  10  11  12
  79 prop tor  10  11  12  13
  80 ben  10  11  16
  81 prop tor  10  11  16   2
  82 prop tor  10  11  16  15
  83 ben  11  12  13
  84 prop tor  11  12  13  14
  85 prop tor  11  12  13  20
  86 ben  11  16  15
  87 ben  12  11  16
  88 prop tor  12  11  16   2
  89 prop tor  12  11  16  15
  90 ben  12  13  14
  91 prop tor  12  13  14  15
  92 prop tor  12  13  14  21
  93 ben  12  13  20
  94 ben  13  14  15
  95 prop tor  13  14  15  16
  96 prop tor  13  14  15  22
  97 ben  13  14  21
  98 ben  14  13  20
  99 ben  14  15  16
 100 prop tor  14  15  16   2
 101 prop tor  14  15  16  11
 102 ben  14  15  22
 103 ben  15  14  21
 104 prop tor  16   2   3   4
 105 prop tor  16   2   3   5
 106 prop tor  16  11  12  13
 107 ben  16  15  22
 108 prop tor  17   6   7   8
 109 prop tor  17   6   7  18
 110 prop tor  18   7   8   9
 111 prop tor  18   7   8  19
 112 prop tor  19   8   9  10
 113 prop tor  20  13  14  15
 114 prop tor  20  13  14  21
 115 prop tor  21  14  15  16
 116 prop tor  21  14  15  22
 117 prop tor  22  15  16   2
 118 prop tor  22  15  16  11
 nber bend=              38
 nber lin bend=           0
 nber prop tor=          56
 nber impr tor=           0
 nber tot redund int=         118
 Eigenvalues of G in red int coords
    Gval -0.00000000 -0.00000000 -0.00000000 -0.00000000 -0.00000000 -0.00000000 -0.00000000 -0.00000000
    Gval -0.00000000 -0.00000000 -0.00000000 -0.00000000 -0.00000000 -0.00000000 -0.00000000 -0.00000000
    Gval -0.00000000 -0.00000000 -0.00000000 -0.00000000 -0.00000000 -0.00000000 -0.00000000 -0.00000000
    Gval -0.00000000 -0.00000000 -0.00000000 -0.00000000 -0.00000000 -0.00000000 -0.00000000  0.00000000
    Gval  0.00000000  0.00000000  0.00000000  0.00000000  0.00000000  0.00000000  0.00000000  0.00000000
    Gval  0.00000000  0.00000000  0.00000000  0.00000000  0.00000000  0.00000000  0.00000000  0.00000000
    Gval  0.00000000  0.00000000  0.00000000  0.00000000  0.00000000  0.00000000  0.00000000  0.00000000
    Gval  0.00000000  0.00000000  0.00000701  0.00001102  0.00001168  0.00002014  0.00002115  0.00002559
    Gval  0.00003454  0.00004274  0.00004642  0.00004936  0.00005375  0.00005835  0.00006001  0.00007395
    Gval  0.00007763  0.00009723  0.00010051  0.00011018  0.00011436  0.00012538  0.00013098  0.00013103
    Gval  0.00014980  0.00019421  0.00024095  0.00024391  0.00026272  0.00028545  0.00032207  0.00036225
    Gval  0.00037580  0.00039585  0.00043031  0.00043525  0.00044592  0.00058189  0.00059381  0.00059382
    Gval  0.00060641  0.00060717  0.00064498  0.00064517  0.00070154  0.00090148  0.00090506  0.00105066
    Gval  0.00105099  0.00112017  0.00112019  0.00116234  0.00116240  0.00122346  0.00150868  0.00159421
    Gval  0.00171464  0.00211549  0.00269231  0.00271259  0.00387350  0.00387435
  7.005512873098918E-006  7.005512873098918E-006
  1.102430661032516E-005  7.005512873098918E-006
  1.167534606094165E-005  7.005512873098918E-006
  2.014099237107914E-005  7.005512873098918E-006
  2.115314782130332E-005  7.005512873098918E-006
  2.558595670696809E-005  7.005512873098918E-006
  3.454015336006251E-005  7.005512873098918E-006
  4.273896136223377E-005  7.005512873098918E-006
  4.642047896343946E-005  7.005512873098918E-006
  4.935693528167893E-005  7.005512873098918E-006
  5.375239571926986E-005  7.005512873098918E-006
  5.834895248076794E-005  7.005512873098918E-006
  6.001080018541233E-005  7.005512873098918E-006
  7.395343842189925E-005  7.005512873098918E-006
  7.763040998485294E-005  7.005512873098918E-006
  9.723216688756587E-005  7.005512873098918E-006
  1.005070901999942E-004  7.005512873098918E-006
  1.101772174145498E-004  7.005512873098918E-006
  1.143598592760690E-004  7.005512873098918E-006
  1.253808697916730E-004  7.005512873098918E-006
  1.309765750968475E-004  7.005512873098918E-006
  1.310278844047397E-004  7.005512873098918E-006
  1.497983501440995E-004  7.005512873098918E-006
  1.942114395727075E-004  7.005512873098918E-006
  2.409462235159071E-004  7.005512873098918E-006
  2.439119551524603E-004  7.005512873098918E-006
  2.627161710339894E-004  7.005512873098918E-006
  2.854526235658980E-004  7.005512873098918E-006
  3.220705108004846E-004  7.005512873098918E-006
  3.622530146300785E-004  7.005512873098918E-006
  3.757995201411917E-004  7.005512873098918E-006
  3.958541751916390E-004  7.005512873098918E-006
  4.303125332079654E-004  7.005512873098918E-006
  4.352511314811405E-004  7.005512873098918E-006
  4.459214261724981E-004  7.005512873098918E-006
  5.818930747893565E-004  7.005512873098918E-006
  5.938131890170068E-004  7.005512873098918E-006
  5.938201478569206E-004  7.005512873098918E-006
  6.064140611433080E-004  7.005512873098918E-006
  6.071692857471079E-004  7.005512873098918E-006
  6.449833299442004E-004  7.005512873098918E-006
  6.451727802385045E-004  7.005512873098918E-006
  7.015378229560016E-004  7.005512873098918E-006
  9.014823700755945E-004  7.005512873098918E-006
  9.050583627599989E-004  7.005512873098918E-006
  1.050656340748695E-003  7.005512873098918E-006
  1.050989178971142E-003  7.005512873098918E-006
  1.120171205236836E-003  7.005512873098918E-006
  1.120194959798409E-003  7.005512873098918E-006
  1.162342823712284E-003  7.005512873098918E-006
  1.162400500066863E-003  7.005512873098918E-006
  1.223457840171921E-003  7.005512873098918E-006
  1.508681427291029E-003  7.005512873098918E-006
  1.594213165396157E-003  7.005512873098918E-006
  1.714638248423542E-003  7.005512873098918E-006
  2.115492418544702E-003  7.005512873098918E-006
  2.692311066556064E-003  7.005512873098918E-006
  2.712590681390801E-003  7.005512873098918E-006
  3.873504073879261E-003  7.005512873098918E-006
  3.874345622582697E-003  7.005512873098918E-006
 cut=1d-8, nber non-redundant internal coords=          60
 Check on Eigenvals of non-red overlap matrix:
  0.00000701  0.00001102  0.00001168  0.00002014  0.00002115  0.00002559  0.00003454  0.00004274
  0.00004642  0.00004936  0.00005375  0.00005835  0.00006001  0.00007395  0.00007763  0.00009723
  0.00010051  0.00011018  0.00011436  0.00012538  0.00013098  0.00013103  0.00014980  0.00019421
  0.00024095  0.00024391  0.00026272  0.00028545  0.00032207  0.00036225  0.00037580  0.00039585
  0.00043031  0.00043525  0.00044592  0.00058189  0.00059381  0.00059382  0.00060641  0.00060717
  0.00064498  0.00064517  0.00070154  0.00090148  0.00090506  0.00105066  0.00105099  0.00112017
  0.00112019  0.00116234  0.00116240  0.00122346  0.00150868  0.00159421  0.00171464  0.00211549
  0.00269231  0.00271259  0.00387350  0.00387435
 Checking for correct frequencies
 recalc frequencies=
    -0.0   -0.0   -0.0    0.0    0.0    0.0   66.3   81.2  130.1  162.1
   235.5  257.6  321.3  369.6  384.4  393.3  416.2  417.9  454.5  464.8
   540.7  582.3  586.9  622.5  650.6  661.5  675.3  705.6  721.0  740.3
   777.3  830.6  846.5  850.3  889.9  892.4  922.8 1026.9 1027.5 1041.6
  1062.7 1082.4 1082.4 1160.2 1171.5 1235.9 1270.8 1275.9 1320.9 1341.3
  1377.5 1428.9 1437.7 1454.9 1466.7 1483.0 1509.9 1539.5 1554.3 1565.1
  2989.6 2992.1 3095.0 3096.4 3158.6 3160.1
 recalc symmetries=
     B2     B1     A2     B1     A1     B2     A2     B1     A2     B1 
     A1     A2     B2     A1     B1     B2     A1     B1     A1     A2 
     A2     B1     B2     B2     B1     A1     A2     B2     A2     B1 
     A2     A1     B1     A2     B1     A2     B2     A1     B2     A1 
     B2     A1     B2     A1     B2     B2     A1     B2     A1     A1 
     B2     A1     B2     B2     B2     A1     A1     A1     B2     A1 
     B2     A1     B2     A1     B2     A1 
 recalc freqs check OK
 Zero-point lengths:
 10.0000 10.0000 10.0000 10.0000 10.0000 10.0000 30.4374 27.5069 21.7317 19.4736
 16.1531 15.4460 13.8316 12.8953 12.6451 12.5008 12.1515 12.1275 11.6287 11.4993
 10.6617 10.2737 10.2334  9.9365  9.7191  9.6393  9.5396  9.3330  9.2327  9.1118
  8.8920  8.6022  8.5209  8.5017  8.3105  8.2986  8.1609  7.7363  7.7339  7.6815
  7.6047  7.5355  7.5353  7.2783  7.2431  7.0519  6.9543  6.9406  6.8213  6.7691
  6.6796  6.5583  6.5381  6.4994  6.4733  6.4376  6.3801  6.3183  6.2883  6.2665
  4.5341  4.5322  4.4562  4.4552  4.4111  4.4101
 highest evec of mol 2
  0.0000 -0.0023 -0.0009
  0.0000  0.0010  0.0035
  0.0000 -0.0010  0.0035
  0.0000  0.0023 -0.0009
  0.0000  0.0022  0.0025
  0.0000 -0.0946  0.1740
  0.0000 -0.0373 -0.0076
  0.0000  0.0004 -0.0070
  0.0000 -0.0005  0.0000
  0.0000  0.0021 -0.0014
  0.0000 -0.0021 -0.0014
  0.0000  0.0005  0.0000
  0.0000 -0.0004 -0.0070
  0.0000  0.0373 -0.0076
  0.0000  0.0946  0.1740
  0.0000 -0.0022  0.0025
  0.0000  0.3232 -0.5848
  0.0000  0.1120  0.0082
  0.0000  0.0054  0.0140
  0.0000 -0.0054  0.0140
  0.0000 -0.1120  0.0082
  0.0000 -0.3232 -0.5848
 Enter nber and list of atoms to keep of mol #2
 keep list:          22           1           2           3           4
           5           6           7           8           9          10
          11          12          13          14          15          16
          17          18          19          20          21          22
 reordering atoms
           1  -1.39881300000000     
           2 -0.735600000000000     
           3  0.735600000000000     
           4   1.39881300000000     
           5   1.42750700000000     
           6   2.81939600000000     
           7   3.50511200000000     
           8   2.72759200000000     
           9   1.39701700000000     
          10  0.715715000000000     
          11 -0.715715000000000     
          12  -1.39701700000000     
          13  -2.72759200000000     
          14  -3.50511200000000     
          15  -2.81939600000000     
          16  -1.42750700000000     
          17   3.33219900000000     
          18   4.59265300000000     
          19   3.22736700000000     
          20  -3.22736700000000     
          21  -4.59265300000000     
          22  -3.33219900000000     
           1           1
           2           2
           3           3
           4           4
           5           5
           6           6
           7           7
           8           8
           9           9
          10          10
          11          11
          12          12
          13          13
          14          14
          15          15
          16          16
          17          17
          18          18
          19          19
          20          20
          21          21
          22          22
 initial cartes coords mol 1
   8  -0.00000   2.75922   1.40567
   6  -0.00000   1.70384   0.74005
   6   0.00000   1.70384  -0.74005
   8   0.00000   2.75922  -1.40567
   6   0.00000   0.38952  -1.41296
   6  -0.00000   0.35599  -2.81969
   6   0.00000  -0.85489  -3.47982
   6   0.00000  -2.02995  -2.70822
   7   0.00000  -2.04166  -1.38422
   6   0.00000  -0.85983  -0.73099
   6  -0.00000  -0.85983   0.73099
   7   0.00000  -2.04166   1.38422
   6  -0.00000  -2.02995   2.70822
   6  -0.00000  -0.85489   3.47982
   6   0.00000   0.35599   2.81969
   6  -0.00000   0.38952   1.41296
   1  -0.00000   1.30835  -3.33756
   1   0.00000  -0.91152  -4.56408
   1   0.00000  -3.00451  -3.19588
   1  -0.00000  -3.00451   3.19588
   1  -0.00000  -0.91152   4.56408
   1   0.00000   1.30835   3.33756
 initial cartes coords mol 2
   8   0.00000   2.77650  -1.39881
   6   0.00000   1.70461  -0.73560
   6   0.00000   1.70461   0.73560
   8   0.00000   2.77650   1.39881
   6   0.00000   0.39208   1.42751
   6   0.00000   0.37022   2.81940
   6   0.00000  -0.86795   3.50511
   6   0.00000  -2.02452   2.72759
   7   0.00000  -2.06893   1.39702
   6   0.00000  -0.86098   0.71571
   6   0.00000  -0.86098  -0.71571
   7   0.00000  -2.06893  -1.39702
   6   0.00000  -2.02452  -2.72759
   6   0.00000  -0.86795  -3.50511
   6   0.00000   0.37022  -2.81940
   6   0.00000   0.39208  -1.42751
   1   0.00000   1.32648   3.33220
   1   0.00000  -0.92678   4.59265
   1   0.00000  -3.00175   3.22737
   1   0.00000  -3.00175  -3.22737
   1   0.00000  -0.92678  -4.59265
   1   0.00000   1.32648  -3.33220
 loop 1 0
 mod cartes coords mol 2
   8   0.00000   2.77650  -1.39881
   6   0.00000   1.70461  -0.73560
   6   0.00000   1.70461   0.73560
   8   0.00000   2.77650   1.39881
   6   0.00000   0.39208   1.42751
   6   0.00000   0.37022   2.81940
   6   0.00000  -0.86795   3.50511
   6   0.00000  -2.02452   2.72759
   7   0.00000  -2.06893   1.39702
   6   0.00000  -0.86098   0.71571
   6   0.00000  -0.86098  -0.71571
   7   0.00000  -2.06893  -1.39702
   6   0.00000  -2.02452  -2.72759
   6   0.00000  -0.86795  -3.50511
   6   0.00000   0.37022  -2.81940
   6   0.00000   0.39208  -1.42751
   1   0.00000   1.32648   3.33220
   1   0.00000  -0.92678   4.59265
   1   0.00000  -3.00175   3.22737
   1   0.00000  -3.00175  -3.22737
   1   0.00000  -0.92678  -4.59265
   1   0.00000   1.32648  -3.33220
 read in order, maxerr=  9.16 for atom  21
 loop 1 1
 mod cartes coords mol 2
   8   0.00000   2.77650  -1.39881
   6   0.00000   1.70461  -0.73560
   6   0.00000   1.70461   0.73560
   8   0.00000   2.77650   1.39881
   6   0.00000   0.39208   1.42751
   6   0.00000   0.37022   2.81940
   6   0.00000  -0.86795   3.50511
   6   0.00000  -2.02452   2.72759
   7   0.00000  -2.06893   1.39702
   6   0.00000  -0.86098   0.71571
   6   0.00000  -0.86098  -0.71571
   7   0.00000  -2.06893  -1.39702
   6   0.00000  -2.02452  -2.72759
   6   0.00000  -0.86795  -3.50511
   6   0.00000   0.37022  -2.81940
   6   0.00000   0.39208  -1.42751
   1   0.00000   1.32648   3.33220
   1   0.00000  -0.92678   4.59265
   1   0.00000  -3.00175   3.22737
   1   0.00000  -3.00175  -3.22737
   1   0.00000  -0.92678  -4.59265
   1   0.00000   1.32648  -3.33220
 read in order, maxerr=  9.16 for atom  21
 loop 1 2
 mod cartes coords mol 2
   8   0.00000  -2.77650  -1.39881
   6   0.00000  -1.70461  -0.73560
   6   0.00000  -1.70461   0.73560
   8   0.00000  -2.77650   1.39881
   6   0.00000  -0.39208   1.42751
   6   0.00000  -0.37022   2.81940
   6   0.00000   0.86795   3.50511
   6   0.00000   2.02452   2.72759
   7   0.00000   2.06893   1.39702
   6   0.00000   0.86098   0.71571
   6   0.00000   0.86098  -0.71571
   7   0.00000   2.06893  -1.39702
   6   0.00000   2.02452  -2.72759
   6   0.00000   0.86795  -3.50511
   6   0.00000  -0.37022  -2.81940
   6   0.00000  -0.39208  -1.42751
   1   0.00000  -1.32648   3.33220
   1   0.00000   0.92678   4.59265
   1   0.00000   3.00175   3.22737
   1   0.00000   3.00175  -3.22737
   1   0.00000   0.92678  -4.59265
   1   0.00000  -1.32648  -3.33220
 read in order, maxerr=  9.34 for atom  18
 loop 1 3
 mod cartes coords mol 2
   8   0.00000  -2.77650  -1.39881
   6   0.00000  -1.70461  -0.73560
   6   0.00000  -1.70461   0.73560
   8   0.00000  -2.77650   1.39881
   6   0.00000  -0.39208   1.42751
   6   0.00000  -0.37022   2.81940
   6   0.00000   0.86795   3.50511
   6   0.00000   2.02452   2.72759
   7   0.00000   2.06893   1.39702
   6   0.00000   0.86098   0.71571
   6   0.00000   0.86098  -0.71571
   7   0.00000   2.06893  -1.39702
   6   0.00000   2.02452  -2.72759
   6   0.00000   0.86795  -3.50511
   6   0.00000  -0.37022  -2.81940
   6   0.00000  -0.39208  -1.42751
   1   0.00000  -1.32648   3.33220
   1   0.00000   0.92678   4.59265
   1   0.00000   3.00175   3.22737
   1   0.00000   3.00175  -3.22737
   1   0.00000   0.92678  -4.59265
   1   0.00000  -1.32648  -3.33220
 read in order, maxerr=  9.34 for atom  18
 loop 1 4
 mod cartes coords mol 2
   8   0.00000   2.77650   1.39881
   6   0.00000   1.70461   0.73560
   6   0.00000   1.70461  -0.73560
   8   0.00000   2.77650  -1.39881
   6   0.00000   0.39208  -1.42751
   6   0.00000   0.37022  -2.81940
   6   0.00000  -0.86795  -3.50511
   6   0.00000  -2.02452  -2.72759
   7   0.00000  -2.06893  -1.39702
   6   0.00000  -0.86098  -0.71571
   6   0.00000  -0.86098   0.71571
   7   0.00000  -2.06893   1.39702
   6   0.00000  -2.02452   2.72759
   6   0.00000  -0.86795   3.50511
   6   0.00000   0.37022   2.81940
   6   0.00000   0.39208   1.42751
   1   0.00000   1.32648  -3.33220
   1   0.00000  -0.92678  -4.59265
   1   0.00000  -3.00175  -3.22737
   1   0.00000  -3.00175   3.22737
   1   0.00000  -0.92678   4.59265
   1   0.00000   1.32648   3.33220
 read in order, maxerr=  0.03 for atom  21
 final axis swaps:           1           1          -1
 final xyz swap pattern=           1
 reorder list:
   1   2   3   4   5   6   7   8   9  10  11  12  13  14  15  16  17  18  19  20
  21  22
 axis signs=           1           1          -1
  8     0.000000  2.776499  1.398813    -0.000000  2.759217  1.405673
  6     0.000000  1.704614  0.735600    -0.000000  1.703836  0.740048
  6     0.000000  1.704614 -0.735600     0.000000  1.703836 -0.740048
  8     0.000000  2.776499 -1.398813     0.000000  2.759217 -1.405673
  6     0.000000  0.392079 -1.427507     0.000000  0.389520 -1.412959
  6     0.000000  0.370217 -2.819396    -0.000001  0.355990 -2.819689
  6     0.000000 -0.867948 -3.505112     0.000000 -0.854894 -3.479823
  6     0.000000 -2.024525 -2.727592     0.000000 -2.029954 -2.708224
  7     0.000000 -2.068933 -1.397017     0.000000 -2.041659 -1.384224
  6     0.000000 -0.860977 -0.715715     0.000000 -0.859826 -0.730987
  6     0.000000 -0.860977  0.715715    -0.000000 -0.859826  0.730987
  7     0.000000 -2.068933  1.397017     0.000001 -2.041659  1.384224
  6     0.000000 -2.024525  2.727592    -0.000001 -2.029954  2.708224
  6     0.000000 -0.867948  3.505112    -0.000000 -0.854894  3.479823
  6     0.000000  0.370217  2.819396     0.000001  0.355990  2.819689
  6     0.000000  0.392079  1.427507    -0.000000  0.389520  1.412959
  1     0.000000  1.326477 -3.332199    -0.000001  1.308345 -3.337560
  1     0.000000 -0.926776 -4.592653     0.000000 -0.911524 -4.564085
  1     0.000000 -3.001751 -3.227367     0.000001 -3.004510 -3.195879
  1     0.000000 -3.001751  3.227367    -0.000001 -3.004510  3.195879
  1     0.000000 -0.926776  4.592653    -0.000000 -0.911524  4.564085
  1     0.000000  1.326477  3.332199     0.000001  1.308345  3.337560
 generating redundant internal coords
         300        3600          22
 Adding extra bonds for z output only
           8           6           6           8           6           6
           6           6           7           6           6           7
           6           6           6           6           1           1
           1           1           1           1
 search for int coords
   1 str   2   1   1.260
   2 str   3   2   1.471
   3 str   4   3   1.260
   4 str   5   3   1.484
   5 str   6   5   1.392
   6 str   7   6   1.415
   7 str   8   7   1.394
   8 str   9   8   1.331
   9 str  10   5   1.441
  10 str  10   9   1.387
  11 str  11  10   1.431
  12 str  12  11   1.387
  13 str  13  12   1.331
  14 str  14  13   1.394
  15 str  15  14   1.415
  16 str  16   2   1.484
  17 str  16  11   1.441
  18 str  16  15   1.392
  19 str  17   6   1.085
  20 str  18   7   1.089
  21 str  19   8   1.098
  22 str  20  13   1.098
  23 str  21  14   1.089
  24 str  22  15   1.085
 nber stretches=          24
  25 ben   1   2   3
  26 prop tor   1   2   3   4
  27 prop tor   1   2   3   5
  28 ben   1   2  16
  29 prop tor   1   2  16  11
  30 prop tor   1   2  16  15
  31 ben   2   3   4
  32 ben   2   3   5
  33 prop tor   2   3   5   6
  34 prop tor   2   3   5  10
  35 ben   2  16  11
  36 ben   2  16  15
  37 ben   3   2  16
  38 prop tor   3   2  16  11
  39 prop tor   3   2  16  15
  40 ben   3   5   6
  41 prop tor   3   5   6   7
  42 prop tor   3   5   6  17
  43 ben   3   5  10
  44 prop tor   3   5  10   9
  45 prop tor   3   5  10  11
  46 ben   4   3   5
  47 prop tor   4   3   5   6
  48 prop tor   4   3   5  10
  49 ben   5   6   7
  50 prop tor   5   6   7   8
  51 prop tor   5   6   7  18
  52 ben   5   6  17
  53 ben   5  10   9
  54 ben   5  10  11
  55 prop tor   5  10  11  12
  56 prop tor   5  10  11  16
  57 ben   6   5  10
  58 prop tor   6   5  10   9
  59 prop tor   6   5  10  11
  60 ben   6   7   8
  61 prop tor   6   7   8   9
  62 prop tor   6   7   8  19
  63 ben   6   7  18
  64 ben   7   6  17
  65 ben   7   8   9
  66 prop tor   7   8   9  10
  67 ben   7   8  19
  68 ben   8   7  18
  69 ben   8   9  10
  70 prop tor   8   9  10   5
  71 prop tor   8   9  10  11
  72 ben   9   8  19
  73 ben   9  10  11
  74 prop tor   9  10  11  12
  75 prop tor   9  10  11  16
  76 prop tor  10   5   6   7
  77 prop tor  10   5   6  17
  78 ben  10  11  12
  79 prop tor  10  11  12  13
  80 ben  10  11  16
  81 prop tor  10  11  16   2
  82 prop tor  10  11  16  15
  83 ben  11  12  13
  84 prop tor  11  12  13  14
  85 prop tor  11  12  13  20
  86 ben  11  16  15
  87 ben  12  11  16
  88 prop tor  12  11  16   2
  89 prop tor  12  11  16  15
  90 ben  12  13  14
  91 prop tor  12  13  14  15
  92 prop tor  12  13  14  21
  93 ben  12  13  20
  94 ben  13  14  15
  95 prop tor  13  14  15  16
  96 prop tor  13  14  15  22
  97 ben  13  14  21
  98 ben  14  13  20
  99 ben  14  15  16
 100 prop tor  14  15  16   2
 101 prop tor  14  15  16  11
 102 ben  14  15  22
 103 ben  15  14  21
 104 prop tor  16   2   3   4
 105 prop tor  16   2   3   5
 106 prop tor  16  11  12  13
 107 ben  16  15  22
 108 prop tor  17   6   7   8
 109 prop tor  17   6   7  18
 110 prop tor  18   7   8   9
 111 prop tor  18   7   8  19
 112 prop tor  19   8   9  10
 113 prop tor  20  13  14  15
 114 prop tor  20  13  14  21
 115 prop tor  21  14  15  16
 116 prop tor  21  14  15  22
 117 prop tor  22  15  16   2
 118 prop tor  22  15  16  11
 nber bend=              38
 nber lin bend=           0
 nber prop tor=          56
 nber impr tor=           0
 nber tot redund int=         118
 generating redundant internal coords
         300        3600          22
 search for int coords
   1 str   2   1   1.248
   2 str   3   2   1.480
   3 str   4   3   1.248
   4 str   5   3   1.477
   5 str   6   5   1.407
   6 str   7   6   1.379
   7 str   8   7   1.406
   8 str   9   8   1.324
   9 str  10   5   1.423
  10 str  10   9   1.350
  11 str  11  10   1.462
  12 str  12  11   1.350
  13 str  13  12   1.324
  14 str  14  13   1.406
  15 str  15  14   1.379
  16 str  16   2   1.477
  17 str  16  11   1.423
  18 str  16  15   1.407
  19 str  17   6   1.084
  20 str  18   7   1.086
  21 str  19   8   1.090
  22 str  20  13   1.090
  23 str  21  14   1.086
  24 str  22  15   1.084
 nber stretches=          24
  25 ben   1   2   3
  26 prop tor   1   2   3   4
  27 prop tor   1   2   3   5
  28 ben   1   2  16
  29 prop tor   1   2  16  11
  30 prop tor   1   2  16  15
  31 ben   2   3   4
  32 ben   2   3   5
  33 prop tor   2   3   5   6
  34 prop tor   2   3   5  10
  35 ben   2  16  11
  36 ben   2  16  15
  37 ben   3   2  16
  38 prop tor   3   2  16  11
  39 prop tor   3   2  16  15
  40 ben   3   5   6
  41 prop tor   3   5   6   7
  42 prop tor   3   5   6  17
  43 ben   3   5  10
  44 prop tor   3   5  10   9
  45 prop tor   3   5  10  11
  46 ben   4   3   5
  47 prop tor   4   3   5   6
  48 prop tor   4   3   5  10
  49 ben   5   6   7
  50 prop tor   5   6   7   8
  51 prop tor   5   6   7  18
  52 ben   5   6  17
  53 ben   5  10   9
  54 ben   5  10  11
  55 prop tor   5  10  11  12
  56 prop tor   5  10  11  16
  57 ben   6   5  10
  58 prop tor   6   5  10   9
  59 prop tor   6   5  10  11
  60 ben   6   7   8
  61 prop tor   6   7   8   9
  62 prop tor   6   7   8  19
  63 ben   6   7  18
  64 ben   7   6  17
  65 ben   7   8   9
  66 prop tor   7   8   9  10
  67 ben   7   8  19
  68 ben   8   7  18
  69 ben   8   9  10
  70 prop tor   8   9  10   5
  71 prop tor   8   9  10  11
  72 ben   9   8  19
  73 ben   9  10  11
  74 prop tor   9  10  11  12
  75 prop tor   9  10  11  16
  76 prop tor  10   5   6   7
  77 prop tor  10   5   6  17
  78 ben  10  11  12
  79 prop tor  10  11  12  13
  80 ben  10  11  16
  81 prop tor  10  11  16   2
  82 prop tor  10  11  16  15
  83 ben  11  12  13
  84 prop tor  11  12  13  14
  85 prop tor  11  12  13  20
  86 ben  11  16  15
  87 ben  12  11  16
  88 prop tor  12  11  16   2
  89 prop tor  12  11  16  15
  90 ben  12  13  14
  91 prop tor  12  13  14  15
  92 prop tor  12  13  14  21
  93 ben  12  13  20
  94 ben  13  14  15
  95 prop tor  13  14  15  16
  96 prop tor  13  14  15  22
  97 ben  13  14  21
  98 ben  14  13  20
  99 ben  14  15  16
 100 prop tor  14  15  16   2
 101 prop tor  14  15  16  11
 102 ben  14  15  22
 103 ben  15  14  21
 104 prop tor  16   2   3   4
 105 prop tor  16   2   3   5
 106 prop tor  16  11  12  13
 107 ben  16  15  22
 108 prop tor  17   6   7   8
 109 prop tor  17   6   7  18
 110 prop tor  18   7   8   9
 111 prop tor  18   7   8  19
 112 prop tor  19   8   9  10
 113 prop tor  20  13  14  15
 114 prop tor  20  13  14  21
 115 prop tor  21  14  15  16
 116 prop tor  21  14  15  22
 117 prop tor  22  15  16   2
 118 prop tor  22  15  16  11
 nber bend=              38
 nber lin bend=           0
 nber prop tor=          56
 nber impr tor=           0
 nber tot redund int=         118
 Eigenvalues of G in red int coords
    Gval -0.00000000 -0.00000000 -0.00000000 -0.00000000 -0.00000000 -0.00000000 -0.00000000 -0.00000000
    Gval -0.00000000 -0.00000000 -0.00000000 -0.00000000 -0.00000000 -0.00000000 -0.00000000 -0.00000000
    Gval -0.00000000 -0.00000000 -0.00000000 -0.00000000 -0.00000000 -0.00000000 -0.00000000 -0.00000000
    Gval -0.00000000 -0.00000000 -0.00000000 -0.00000000 -0.00000000 -0.00000000 -0.00000000  0.00000000
    Gval  0.00000000  0.00000000  0.00000000  0.00000000  0.00000000  0.00000000  0.00000000  0.00000000
    Gval  0.00000000  0.00000000  0.00000000  0.00000000  0.00000000  0.00000000  0.00000000  0.00000000
    Gval  0.00000000  0.00000000  0.00000000  0.00000000  0.00000000  0.00000000  0.00000000  0.00000000
    Gval  0.00000000  0.00000000  0.00000708  0.00001105  0.00001172  0.00002011  0.00002120  0.00002570
    Gval  0.00003442  0.00004271  0.00004666  0.00004911  0.00005403  0.00005857  0.00006023  0.00007427
    Gval  0.00007803  0.00010048  0.00010085  0.00011017  0.00011539  0.00012562  0.00013142  0.00013258
    Gval  0.00015123  0.00019638  0.00024108  0.00024916  0.00026817  0.00028456  0.00032434  0.00036887
    Gval  0.00037699  0.00039647  0.00043047  0.00044218  0.00044579  0.00059387  0.00059388  0.00060634
    Gval  0.00060702  0.00061135  0.00064592  0.00064606  0.00070046  0.00089911  0.00090484  0.00105965
    Gval  0.00105998  0.00113014  0.00113015  0.00117002  0.00117007  0.00123278  0.00154657  0.00162093
    Gval  0.00173682  0.00213655  0.00272020  0.00274054  0.00388442  0.00388526
  7.084947252524611E-006  7.084947252524611E-006
  1.104824537910770E-005  7.084947252524611E-006
  1.171518227570502E-005  7.084947252524611E-006
  2.010801256192263E-005  7.084947252524611E-006
  2.119671146469972E-005  7.084947252524611E-006
  2.570138434997850E-005  7.084947252524611E-006
  3.442219192730780E-005  7.084947252524611E-006
  4.271245063922129E-005  7.084947252524611E-006
  4.666023670201890E-005  7.084947252524611E-006
  4.910926870671364E-005  7.084947252524611E-006
  5.403144442139105E-005  7.084947252524611E-006
  5.856933857965897E-005  7.084947252524611E-006
  6.022976550255895E-005  7.084947252524611E-006
  7.426852236907301E-005  7.084947252524611E-006
  7.803464789604268E-005  7.084947252524611E-006
  1.004812894794716E-004  7.084947252524611E-006
  1.008511529830053E-004  7.084947252524611E-006
  1.101694920868517E-004  7.084947252524611E-006
  1.153907401212658E-004  7.084947252524611E-006
  1.256197687160409E-004  7.084947252524611E-006
  1.314168110618405E-004  7.084947252524611E-006
  1.325793957052912E-004  7.084947252524611E-006
  1.512336194515825E-004  7.084947252524611E-006
  1.963803224811826E-004  7.084947252524611E-006
  2.410818274363772E-004  7.084947252524611E-006
  2.491582953545144E-004  7.084947252524611E-006
  2.681746721395610E-004  7.084947252524611E-006
  2.845600162514446E-004  7.084947252524611E-006
  3.243360260325662E-004  7.084947252524611E-006
  3.688674200872017E-004  7.084947252524611E-006
  3.769890161399154E-004  7.084947252524611E-006
  3.964720753782457E-004  7.084947252524611E-006
  4.304736893874836E-004  7.084947252524611E-006
  4.421831000891311E-004  7.084947252524611E-006
  4.457945195222237E-004  7.084947252524611E-006
  5.938676673208726E-004  7.084947252524611E-006
  5.938768284068290E-004  7.084947252524611E-006
  6.063446561318143E-004  7.084947252524611E-006
  6.070247157371665E-004  7.084947252524611E-006
  6.113481204052096E-004  7.084947252524611E-006
  6.459210131880356E-004  7.084947252524611E-006
  6.460624322759367E-004  7.084947252524611E-006
  7.004623586432041E-004  7.084947252524611E-006
  8.991085677734436E-004  7.084947252524611E-006
  9.048447827211753E-004  7.084947252524611E-006
  1.059651575757853E-003  7.084947252524611E-006
  1.059979030218219E-003  7.084947252524611E-006
  1.130142735639250E-003  7.084947252524611E-006
  1.130147004992458E-003  7.084947252524611E-006
  1.170020178598521E-003  7.084947252524611E-006
  1.170071566732332E-003  7.084947252524611E-006
  1.232779609171208E-003  7.084947252524611E-006
  1.546574575256273E-003  7.084947252524611E-006
  1.620933744257904E-003  7.084947252524611E-006
  1.736816817180443E-003  7.084947252524611E-006
  2.136548193698983E-003  7.084947252524611E-006
  2.720196007289320E-003  7.084947252524611E-006
  2.740539407861804E-003  7.084947252524611E-006
  3.884419758113101E-003  7.084947252524611E-006
  3.885264942049790E-003  7.084947252524611E-006
 cut=1d-8, nber non-redundant internal coords=          60
 Check on Eigenvals of non-red overlap matrix:
  0.00000708  0.00001105  0.00001172  0.00002011  0.00002120  0.00002570  0.00003442  0.00004271
  0.00004666  0.00004911  0.00005403  0.00005857  0.00006023  0.00007427  0.00007803  0.00010048
  0.00010085  0.00011017  0.00011539  0.00012562  0.00013142  0.00013258  0.00015123  0.00019638
  0.00024108  0.00024916  0.00026817  0.00028456  0.00032434  0.00036887  0.00037699  0.00039647
  0.00043047  0.00044218  0.00044579  0.00059387  0.00059388  0.00060634  0.00060702  0.00061135
  0.00064592  0.00064606  0.00070046  0.00089911  0.00090484  0.00105965  0.00105998  0.00113014
  0.00113015  0.00117002  0.00117007  0.00123278  0.00154657  0.00162093  0.00173682  0.00213655
  0.00272020  0.00274054  0.00388442  0.00388526
 generating redundant internal coords
         300        3600          22
 search for int coords
   1 str   2   1   1.260
   2 str   3   2   1.471
   3 str   4   3   1.260
   4 str   5   3   1.484
   5 str   6   5   1.392
   6 str   7   6   1.415
   7 str   8   7   1.394
   8 str   9   8   1.331
   9 str  10   5   1.441
  10 str  10   9   1.387
  11 str  11  10   1.431
  12 str  12  11   1.387
  13 str  13  12   1.331
  14 str  14  13   1.394
  15 str  15  14   1.415
  16 str  16   2   1.484
  17 str  16  11   1.441
  18 str  16  15   1.392
  19 str  17   6   1.085
  20 str  18   7   1.089
  21 str  19   8   1.098
  22 str  20  13   1.098
  23 str  21  14   1.089
  24 str  22  15   1.085
 nber stretches=          24
  25 ben   1   2   3
  26 prop tor   1   2   3   4
  27 prop tor   1   2   3   5
  28 ben   1   2  16
  29 prop tor   1   2  16  11
  30 prop tor   1   2  16  15
  31 ben   2   3   4
  32 ben   2   3   5
  33 prop tor   2   3   5   6
  34 prop tor   2   3   5  10
  35 ben   2  16  11
  36 ben   2  16  15
  37 ben   3   2  16
  38 prop tor   3   2  16  11
  39 prop tor   3   2  16  15
  40 ben   3   5   6
  41 prop tor   3   5   6   7
  42 prop tor   3   5   6  17
  43 ben   3   5  10
  44 prop tor   3   5  10   9
  45 prop tor   3   5  10  11
  46 ben   4   3   5
  47 prop tor   4   3   5   6
  48 prop tor   4   3   5  10
  49 ben   5   6   7
  50 prop tor   5   6   7   8
  51 prop tor   5   6   7  18
  52 ben   5   6  17
  53 ben   5  10   9
  54 ben   5  10  11
  55 prop tor   5  10  11  12
  56 prop tor   5  10  11  16
  57 ben   6   5  10
  58 prop tor   6   5  10   9
  59 prop tor   6   5  10  11
  60 ben   6   7   8
  61 prop tor   6   7   8   9
  62 prop tor   6   7   8  19
  63 ben   6   7  18
  64 ben   7   6  17
  65 ben   7   8   9
  66 prop tor   7   8   9  10
  67 ben   7   8  19
  68 ben   8   7  18
  69 ben   8   9  10
  70 prop tor   8   9  10   5
  71 prop tor   8   9  10  11
  72 ben   9   8  19
  73 ben   9  10  11
  74 prop tor   9  10  11  12
  75 prop tor   9  10  11  16
  76 prop tor  10   5   6   7
  77 prop tor  10   5   6  17
  78 ben  10  11  12
  79 prop tor  10  11  12  13
  80 ben  10  11  16
  81 prop tor  10  11  16   2
  82 prop tor  10  11  16  15
  83 ben  11  12  13
  84 prop tor  11  12  13  14
  85 prop tor  11  12  13  20
  86 ben  11  16  15
  87 ben  12  11  16
  88 prop tor  12  11  16   2
  89 prop tor  12  11  16  15
  90 ben  12  13  14
  91 prop tor  12  13  14  15
  92 prop tor  12  13  14  21
  93 ben  12  13  20
  94 ben  13  14  15
  95 prop tor  13  14  15  16
  96 prop tor  13  14  15  22
  97 ben  13  14  21
  98 ben  14  13  20
  99 ben  14  15  16
 100 prop tor  14  15  16   2
 101 prop tor  14  15  16  11
 102 ben  14  15  22
 103 ben  15  14  21
 104 prop tor  16   2   3   4
 105 prop tor  16   2   3   5
 106 prop tor  16  11  12  13
 107 ben  16  15  22
 108 prop tor  17   6   7   8
 109 prop tor  17   6   7  18
 110 prop tor  18   7   8   9
 111 prop tor  18   7   8  19
 112 prop tor  19   8   9  10
 113 prop tor  20  13  14  15
 114 prop tor  20  13  14  21
 115 prop tor  21  14  15  16
 116 prop tor  21  14  15  22
 117 prop tor  22  15  16   2
 118 prop tor  22  15  16  11
 nber bend=              38
 nber lin bend=           0
 nber prop tor=          56
 nber impr tor=           0
 nber tot redund int=         118
 Eigenvalues of G in red int coords
    Gval -0.00000000 -0.00000000 -0.00000000 -0.00000000 -0.00000000 -0.00000000 -0.00000000 -0.00000000
    Gval -0.00000000 -0.00000000 -0.00000000 -0.00000000 -0.00000000 -0.00000000 -0.00000000 -0.00000000
    Gval -0.00000000 -0.00000000 -0.00000000 -0.00000000 -0.00000000 -0.00000000 -0.00000000 -0.00000000
    Gval -0.00000000 -0.00000000 -0.00000000 -0.00000000 -0.00000000 -0.00000000 -0.00000000  0.00000000
    Gval  0.00000000  0.00000000  0.00000000  0.00000000  0.00000000  0.00000000  0.00000000  0.00000000
    Gval  0.00000000  0.00000000  0.00000000  0.00000000  0.00000000  0.00000000  0.00000000  0.00000000
    Gval  0.00000000  0.00000000  0.00000000  0.00000000  0.00000000  0.00000000  0.00000000  0.00000000
    Gval  0.00000000  0.00000000  0.00000701  0.00001102  0.00001168  0.00002014  0.00002115  0.00002559
    Gval  0.00003454  0.00004274  0.00004642  0.00004936  0.00005375  0.00005835  0.00006001  0.00007395
    Gval  0.00007763  0.00009723  0.00010051  0.00011018  0.00011436  0.00012538  0.00013098  0.00013103
    Gval  0.00014980  0.00019421  0.00024095  0.00024391  0.00026272  0.00028545  0.00032207  0.00036225
    Gval  0.00037580  0.00039585  0.00043031  0.00043525  0.00044592  0.00058189  0.00059381  0.00059382
    Gval  0.00060641  0.00060717  0.00064498  0.00064517  0.00070154  0.00090148  0.00090506  0.00105066
    Gval  0.00105099  0.00112017  0.00112019  0.00116234  0.00116240  0.00122346  0.00150868  0.00159421
    Gval  0.00171464  0.00211549  0.00269231  0.00271259  0.00387350  0.00387435
  7.005512873098932E-006  7.005512873098932E-006
  1.102430661032519E-005  7.005512873098932E-006
  1.167534606094168E-005  7.005512873098932E-006
  2.014099237107931E-005  7.005512873098932E-006
  2.115314782130341E-005  7.005512873098932E-006
  2.558595670696812E-005  7.005512873098932E-006
  3.454015336006251E-005  7.005512873098932E-006
  4.273896136223374E-005  7.005512873098932E-006
  4.642047896343942E-005  7.005512873098932E-006
  4.935693528167910E-005  7.005512873098932E-006
  5.375239571926981E-005  7.005512873098932E-006
  5.834895248076797E-005  7.005512873098932E-006
  6.001080018541227E-005  7.005512873098932E-006
  7.395343842189928E-005  7.005512873098932E-006
  7.763040998485294E-005  7.005512873098932E-006
  9.723216688756579E-005  7.005512873098932E-006
  1.005070901999943E-004  7.005512873098932E-006
  1.101772174145499E-004  7.005512873098932E-006
  1.143598592760690E-004  7.005512873098932E-006
  1.253808697916730E-004  7.005512873098932E-006
  1.309765750968478E-004  7.005512873098932E-006
  1.310278844047396E-004  7.005512873098932E-006
  1.497983501440996E-004  7.005512873098932E-006
  1.942114395727079E-004  7.005512873098932E-006
  2.409462235159071E-004  7.005512873098932E-006
  2.439119551524605E-004  7.005512873098932E-006
  2.627161710339893E-004  7.005512873098932E-006
  2.854526235658980E-004  7.005512873098932E-006
  3.220705108004844E-004  7.005512873098932E-006
  3.622530146300788E-004  7.005512873098932E-006
  3.757995201411916E-004  7.005512873098932E-006
  3.958541751916381E-004  7.005512873098932E-006
  4.303125332079658E-004  7.005512873098932E-006
  4.352511314811406E-004  7.005512873098932E-006
  4.459214261724984E-004  7.005512873098932E-006
  5.818930747893570E-004  7.005512873098932E-006
  5.938131890170069E-004  7.005512873098932E-006
  5.938201478569207E-004  7.005512873098932E-006
  6.064140611433078E-004  7.005512873098932E-006
  6.071692857471074E-004  7.005512873098932E-006
  6.449833299442004E-004  7.005512873098932E-006
  6.451727802385045E-004  7.005512873098932E-006
  7.015378229560047E-004  7.005512873098932E-006
  9.014823700755943E-004  7.005512873098932E-006
  9.050583627599987E-004  7.005512873098932E-006
  1.050656340748698E-003  7.005512873098932E-006
  1.050989178971145E-003  7.005512873098932E-006
  1.120171205236838E-003  7.005512873098932E-006
  1.120194959798411E-003  7.005512873098932E-006
  1.162342823712287E-003  7.005512873098932E-006
  1.162400500066866E-003  7.005512873098932E-006
  1.223457840171918E-003  7.005512873098932E-006
  1.508681427291031E-003  7.005512873098932E-006
  1.594213165396160E-003  7.005512873098932E-006
  1.714638248423549E-003  7.005512873098932E-006
  2.115492418544698E-003  7.005512873098932E-006
  2.692311066556064E-003  7.005512873098932E-006
  2.712590681390800E-003  7.005512873098932E-006
  3.873504073879253E-003  7.005512873098932E-006
  3.874345622582689E-003  7.005512873098932E-006
 cut=1d-8, nber non-redundant internal coords=          60
 Check on Eigenvals of non-red overlap matrix:
  0.00000701  0.00001102  0.00001168  0.00002014  0.00002115  0.00002559  0.00003454  0.00004274
  0.00004642  0.00004936  0.00005375  0.00005835  0.00006001  0.00007395  0.00007763  0.00009723
  0.00010051  0.00011018  0.00011436  0.00012538  0.00013098  0.00013103  0.00014980  0.00019421
  0.00024095  0.00024391  0.00026272  0.00028545  0.00032207  0.00036225  0.00037580  0.00039585
  0.00043031  0.00043525  0.00044592  0.00058189  0.00059381  0.00059382  0.00060641  0.00060717
  0.00064498  0.00064517  0.00070154  0.00090148  0.00090506  0.00105066  0.00105099  0.00112017
  0.00112019  0.00116234  0.00116240  0.00122346  0.00150868  0.00159421  0.00171464  0.00211549
  0.00269231  0.00271259  0.00387350  0.00387435
 d1=
  -4.8  -6.3   0.0   0.0  -5.0  -0.0   0.0  -0.0   0.0  -0.0   1.8  -0.0   2.1  -0.0  -2.0   0.9   0.0   0.0  -0.0   1.3
  -0.0   0.4   3.8   0.0   0.0   0.0   0.9  -5.2  -0.0  -0.0   0.4   0.0  -0.0  -0.0  -3.5   0.0   0.3   0.7   0.0  -0.0
  -0.8   0.0   0.0  -0.0  -0.0  -0.4  -0.0   0.4  -0.0   0.0  -0.0   0.0   0.0   0.0  -0.0  -0.0  -0.0  -0.0  -0.0   0.0
 d2=
   4.9  -6.2  -0.0  -0.0  -4.9   0.0   0.0   0.0   0.0  -0.0   1.6   0.0  -2.2  -0.0  -1.9  -0.0  -0.9  -0.0  -0.0   1.3
   0.0   0.3  -3.8  -0.0  -0.0  -0.0  -0.9  -5.2   0.0   0.0  -0.2   0.0   0.0   3.5   0.0  -0.0   0.0   0.3   0.7   0.0
   0.8   0.0  -0.0  -0.0   0.0   0.4  -0.0   0.5  -0.0   0.0  -0.0  -0.0  -0.0  -0.0   0.0   0.0   0.0   0.0   0.0  -0.0
 curvilinear- renormalizn of Dush matrix done
  mol 1 sym            1  -> mol 2 sym            1
  mol 1 sym            2  -> mol 2 sym            2
  mol 1 sym            3  -> mol 2 sym            3
  mol 1 sym            4  -> mol 2 sym            4

 Dushinsky matrix, ncs 2 in terms of ncs 1

   mode   freq    coeff     %      %tot     of    at

   1 B2     -0. -0.0000     0.0     0.0  13 B2    321.
   2 B1     -0. -0.0000     0.0     0.0   8 B1     90.
   3 A2     -0.  0.0000     0.0     0.0   7 A2     62.
   4 B1      0.  0.0000     0.0     0.0  10 B1    162.
   5 A1      0. -0.0000     0.0     0.0  20 A1    463.
   6 B2      0. -0.0000     0.0     0.0  16 B2    406.
   7 A2     66.  0.9987    99.7   100.6   7 A2     62.
   8 B1     81. -0.9981    99.6    99.0   8 B1     90.
   9 A2    130. -0.9895    97.9    99.1   9 A2    132.
  10 B1    162.  0.9977    99.5    96.7  10 B1    162.
  11 A1    236.  0.9998   100.0    98.6  11 A1    236.
  12 A2    258.  0.9795    95.9    97.3  12 A2    279.
  13 B2    321.  0.9989    99.8    99.4  13 B2    321.
  14 A1    370. -0.9976    99.5    98.1  14 A1    361.
  15 B1    384. -0.8719    76.0    98.8  15 B1    383.
                 0.4732    22.4          19 B1    456.
  16 B2    393.  0.9974    99.5   101.7  16 B2    406.
  17 A1    416. -0.9972    99.4    98.3  17 A1    415.
  18 B1    418. -0.4945    24.5    97.0  15 B1    383.
                -0.8570    73.4          19 B1    456.
  19 A1    454. -0.9992    99.8    99.0  20 A1    463.
  20 A2    465.  0.9771    95.5   101.2  18 A2    455.
  21 A2    541. -0.9650    93.1   100.3  22 A2    591.
  22 B1    582.  0.9328    87.0    99.4  21 B1    579.
  23 B2    587. -0.9295    86.4    97.8  23 B2    615.
                -0.3593    12.9          24 B2    635.
  24 B2    622.  0.3763    14.2    99.4  23 B2    615.
                -0.9246    85.5          24 B2    635.
  25 B1    651.  0.3358    11.3    99.4  21 B1    579.
                -0.7492    56.1          28 B1    754.
                -0.4499    20.2          30 B1    815.
  26 A1    661.  0.9956    99.1    99.1  25 A1    678.
  27 A2    675.  0.4362    19.0   100.7  27 A2    742.
                -0.8016    64.3          29 A2    812.
  28 B2    706.  0.9971    99.4   100.0  26 B2    710.
  29 A2    721.  0.8800    77.4    99.9  27 A2    742.
                 0.4242    18.0          29 A2    812.
  30 B1    740.  0.5408    29.2    99.2  28 B1    754.
                -0.8116    65.9          30 B1    815.
  31 A2    777.  0.9726    94.6    99.2  31 A2    832.
  32 A1    831.  0.9893    97.9    99.6  32 A1    835.
  33 B1    846. -0.9398    88.3    99.8  36 B1    998.
  34 A2    850. -0.9257    85.7    99.8  37 A2    999.
  35 B1    890. -0.9720    94.5    97.7  33 B1    932.
  36 A2    892. -0.9714    94.4    97.7  35 A2    936.
  37 B2    923. -0.9855    97.1    99.8  34 B2    936.
  38 A1   1027. -0.9822    96.5    99.2  38 A1   1041.
  39 B2   1028. -0.9573    91.6    99.4  39 B2   1042.
  40 A1   1042.  0.4712    22.2    99.9  40 A1   1075.
                -0.8586    73.7          42 A1   1096.
  41 B2   1063. -0.6180    38.2    99.3  41 B2   1087.
                -0.7507    56.4          43 B2   1119.
  42 A1   1082.  0.8649    74.8    99.6  40 A1   1075.
                 0.4522    20.4          42 A1   1096.
  43 B2   1082. -0.7744    60.0    98.6  41 B2   1087.
                 0.5990    35.9          43 B2   1119.
  44 A1   1160.  0.9246    85.5    99.4  44 A1   1190.
  45 B2   1171. -0.9331    87.1   100.1  45 B2   1225.
  46 B2   1236. -0.4052    16.4    99.5  47 B2   1272.
                 0.7498    56.2          49 B2   1317.
                -0.3772    14.2          52 B2   1423.
  47 A1   1271. -0.6832    46.7    99.9  46 A1   1237.
                -0.6443    41.5          48 A1   1308.
  48 B2   1276.  0.8067    65.1    99.8  47 B2   1272.
                -0.4718    22.3          52 B2   1423.
  49 A1   1321.  0.5822    33.9   100.2  48 A1   1308.
                 0.5009    25.1          50 A1   1360.
                -0.4515    20.4          51 A1   1418.
  50 A1   1341.  0.3748    14.0    99.4  46 A1   1237.
                 0.8344    69.6          50 A1   1360.
  51 B2   1377. -0.3403    11.6   100.2  47 B2   1272.
                -0.5485    30.1          49 B2   1317.
                -0.5815    33.8          52 B2   1423.
                -0.3428    11.7          57 B2   1578.
  52 A1   1429. -0.3779    14.3    99.2  46 A1   1237.
                 0.7876    62.0          51 A1   1418.
                 0.3374    11.4          54 A1   1486.
  53 B2   1438.  0.3414    11.7    99.7  52 B2   1423.
                -0.6620    43.8          53 B2   1459.
                -0.5763    33.2          57 B2   1578.
  54 B2   1455. -0.6758    45.7    99.1  53 B2   1459.
                 0.6590    43.4          57 B2   1578.
  55 B2   1467.  0.8794    77.3    99.7  56 B2   1539.
  56 A1   1483. -0.8628    74.4    99.6  54 A1   1486.
  57 A1   1510.  0.8718    76.0    99.4  55 A1   1535.
                -0.3915    15.3          59 A1   1607.
  58 A1   1539.  0.9572    91.6    99.8  58 A1   1593.
  59 B2   1554.  0.3588    12.9    99.8  56 B2   1539.
                 0.8979    80.6          60 B2   1617.
  60 A1   1565. -0.4375    19.1    99.8  55 A1   1535.
                -0.8497    72.2          59 A1   1607.
  61 B2   2990.  0.9977    99.5   100.0  61 B2   3097.
  62 A1   2992.  0.9980    99.6   100.0  62 A1   3098.
  63 B2   3095. -0.9953    99.1   100.0  63 B2   3150.
  64 A1   3096. -0.9950    99.0   100.0  64 A1   3150.
  65 B2   3159. -0.9974    99.5   100.0  65 B2   3185.
  66 A1   3160. -0.9969    99.4   100.0  66 A1   3185.
 nber times 1st assigned=           1           0
 nber times 1st assigned=           2           0
 nber times 1st assigned=           3           0
 nber times 1st assigned=           4           0
 nber times 1st assigned=           5           0
 nber times 1st assigned=           6           0
 nber times 1st assigned=           9           0
 nber times 1st assigned=          11           0
 nber times 1st assigned=          12           0
 nber times 1st assigned=          14           0
 nber times 1st assigned=          15           0
 nber times 1st assigned=          17           0
 nber times 1st assigned=          18           0
 nber times 1st assigned=          19           0
 nber times 1st assigned=          21           0
 nber times 1st assigned=          22           0
 nber times 1st assigned=          23           0
 nber times 1st assigned=          24           0
 nber times 1st assigned=          25           0
 nber times 1st assigned=          26           0
 nber times 1st assigned=          27           0
 nber times 1st assigned=          28           0
 nber times 1st assigned=          29           0
 nber times 1st assigned=          30           0
 nber times 1st assigned=          31           0
 nber times 1st assigned=          32           0
 nber times 1st assigned=          33           0
 nber times 1st assigned=          34           0
 nber times 1st assigned=          35           0
 nber times 1st assigned=          36           0
 nber times 1st assigned=          37           0
 nber times 1st assigned=          38           0
 nber times 1st assigned=          39           0
 nber times 1st assigned=          40           0
 nber times 1st assigned=          41           0
 nber times 1st assigned=          42           0
 nber times 1st assigned=          43           0
 nber times 1st assigned=          44           0
 nber times 1st assigned=          45           0
 nber times 1st assigned=          46           0
 nber times 1st assigned=          47           0
 nber times 1st assigned=          48           0
 nber times 1st assigned=          49           0
 nber times 1st assigned=          50           0
 nber times 1st assigned=          51           0
 nber times 1st assigned=          52           0
 nber times 1st assigned=          53           0
 nber times 1st assigned=          54           0
 nber times 1st assigned=          55           0
 nber times 1st assigned=          56           0
 nber times 1st assigned=          57           0
 nber times 1st assigned=          58           0
 nber times 1st assigned=          59           0
 nber times 1st assigned=          60           0
 nber times 1st assigned=          61           0
 nber times 1st assigned=          62           0
 nber times 1st assigned=          63           0
 nber times 1st assigned=          64           0
 nber times 1st assigned=          65           0
 nber times 1st assigned=          66           0
 Dushinsky matrix written to .out file
 modes represented=   59.6390375004865     

 Dushinsky matrix, ncs 1 in terms of ncs 2

   mode   freq    coeff     %      %tot     of    at

   7 A2     62.  0.9987    99.7   101.0   7 A2     66.
   8 B1     90. -0.9981    99.6   100.3   8 B1     81.
   9 A2    132. -0.9895    97.9    99.5   9 A2    130.
  10 B1    162.  0.9977    99.5    96.6  10 B1    162.
  11 A1    236.  0.9998   100.0    98.9  11 A1    236.
  12 A2    279.  0.9795    95.9    98.2  12 A2    258.
  13 B2    321.  0.9989    99.8    99.6  13 B2    321.
  14 A1    361. -0.9976    99.5    98.2  14 A1    370.
  15 B1    383. -0.8719    76.0   100.2  15 B1    384.
                -0.4945    24.5          18 B1    418.
  16 B2    406.  0.9974    99.5   101.9  16 B2    393.
  17 A1    415. -0.9972    99.4    98.7  17 A1    416.
  18 A2    455.  0.9771    95.5    99.9  20 A2    465.
  19 B1    456.  0.4732    22.4    95.3  15 B1    384.
                -0.8570    73.4          18 B1    418.
  20 A1    463. -0.9992    99.8    99.0  19 A1    454.
  21 B1    579.  0.9328    87.0    99.3  22 B1    582.
                 0.3358    11.3          25 B1    651.
  22 A2    591. -0.9650    93.1   100.9  21 A2    541.
  23 B2    615. -0.9295    86.4    99.4  23 B2    587.
                 0.3763    14.2          24 B2    622.
  24 B2    635. -0.3593    12.9    98.3  23 B2    587.
                -0.9246    85.5          24 B2    622.
  25 A1    678.  0.9956    99.1    99.2  26 A1    661.
  26 B2    710.  0.9971    99.4    99.8  28 B2    706.
  27 A2    742.  0.4362    19.0    99.5  27 A2    675.
                 0.8800    77.4          29 A2    721.
  28 B1    754. -0.7492    56.1    97.6  25 B1    651.
                 0.5408    29.2          30 B1    740.
  29 A2    812. -0.8016    64.3    99.6  27 A2    675.
                 0.4242    18.0          29 A2    721.
  30 B1    815. -0.4499    20.2    99.9  25 B1    651.
                -0.8116    65.9          30 B1    740.
  31 A2    832.  0.9726    94.6    99.1  31 A2    777.
  32 A1    835.  0.9893    97.9    99.4  32 A1    831.
  33 B1    932. -0.9720    94.5    98.2  35 B1    890.
  34 B2    936. -0.9855    97.1    99.7  37 B2    923.
  35 A2    936. -0.9714    94.4    98.2  36 A2    892.
  36 B1    998. -0.9398    88.3    99.7  33 B1    846.
  37 A2    999. -0.9257    85.7    99.7  34 A2    850.
  38 A1   1041. -0.9822    96.5    99.2  38 A1   1027.
  39 B2   1042. -0.9573    91.6    99.2  39 B2   1028.
  40 A1   1075.  0.4712    22.2   100.0  40 A1   1042.
                 0.8649    74.8          42 A1   1082.
  41 B2   1087. -0.6180    38.2    98.4  41 B2   1063.
                -0.7744    60.0          43 B2   1082.
  42 A1   1096. -0.8586    73.7    99.6  40 A1   1042.
                 0.4522    20.4          42 A1   1082.
  43 B2   1119. -0.7507    56.4    99.5  41 B2   1063.
                 0.5990    35.9          43 B2   1082.
  44 A1   1190.  0.9246    85.5    99.3  44 A1   1160.
  45 B2   1225. -0.9331    87.1    99.8  45 B2   1171.
  46 A1   1237. -0.6832    46.7    99.8  47 A1   1271.
                 0.3748    14.0          50 A1   1341.
                -0.3779    14.3          52 A1   1429.
  47 B2   1272. -0.4052    16.4    99.4  46 B2   1236.
                 0.8067    65.1          48 B2   1276.
                -0.3403    11.6          51 B2   1377.
  48 A1   1308. -0.6443    41.5    99.6  47 A1   1271.
                 0.5822    33.9          49 A1   1321.
  49 B2   1317.  0.7498    56.2    99.9  46 B2   1236.
                -0.5485    30.1          51 B2   1377.
  50 A1   1360.  0.5009    25.1    99.3  49 A1   1321.
                 0.8344    69.6          50 A1   1341.
  51 A1   1418. -0.4515    20.4    99.4  49 A1   1321.
                 0.7876    62.0          52 A1   1429.
  52 B2   1423. -0.3772    14.2    99.1  46 B2   1236.
                -0.4718    22.3          48 B2   1276.
                -0.5815    33.8          51 B2   1377.
                 0.3414    11.7          53 B2   1438.
  53 B2   1459. -0.6620    43.8    99.6  53 B2   1438.
                -0.6758    45.7          54 B2   1455.
  54 A1   1486.  0.3374    11.4    99.3  52 A1   1429.
                -0.8628    74.4          56 A1   1483.
  55 A1   1535.  0.8718    76.0    99.7  57 A1   1510.
                -0.4375    19.1          60 A1   1565.
  56 B2   1539.  0.8794    77.3   100.0  55 B2   1467.
                 0.3588    12.9          59 B2   1554.
  57 B2   1578. -0.3428    11.7    99.9  51 B2   1377.
                -0.5763    33.2          53 B2   1438.
                 0.6590    43.4          54 B2   1455.
  58 A1   1593.  0.9572    91.6    99.8  58 A1   1539.
  59 A1   1607. -0.3915    15.3    99.8  57 A1   1510.
                -0.8497    72.2          60 A1   1565.
  60 B2   1617.  0.8979    80.6    99.9  59 B2   1554.
  61 B2   3097.  0.9977    99.5   100.0  61 B2   2990.
  62 A1   3098.  0.9980    99.6   100.0  62 A1   2992.
  63 B2   3150. -0.9953    99.1   100.0  63 B2   3095.
  64 A1   3150. -0.9950    99.0   100.0  64 A1   3096.
  65 B2   3185. -0.9974    99.5   100.0  65 B2   3159.
  66 A1   3185. -0.9969    99.4   100.0  66 A1   3160.
 nber times 1st assigned=           1           0
 nber times 1st assigned=           2           0
 nber times 1st assigned=           3           0
 nber times 1st assigned=           4           0
 nber times 1st assigned=           5           0
 nber times 1st assigned=           6           0
 nber times 1st assigned=           7           0
 nber times 1st assigned=           8           0
 nber times 1st assigned=           9           0
 nber times 1st assigned=          10           0
 nber times 1st assigned=          11           0
 nber times 1st assigned=          12           0
 nber times 1st assigned=          13           0
 nber times 1st assigned=          14           0
 nber times 1st assigned=          15           0
 nber times 1st assigned=          16           0
 nber times 1st assigned=          17           0
 nber times 1st assigned=          18           0
 nber times 1st assigned=          19           0
 nber times 1st assigned=          20           0
 nber times 1st assigned=          21           0
 nber times 1st assigned=          22           0
 nber times 1st assigned=          23           0
 nber times 1st assigned=          24           0
 nber times 1st assigned=          25           0
 nber times 1st assigned=          26           0
 nber times 1st assigned=          27           0
 nber times 1st assigned=          28           0
 nber times 1st assigned=          29           0
 nber times 1st assigned=          30           0
 nber times 1st assigned=          31           0
 nber times 1st assigned=          32           0
 nber times 1st assigned=          33           0
 nber times 1st assigned=          34           0
 nber times 1st assigned=          35           0
 nber times 1st assigned=          36           0
 nber times 1st assigned=          37           0
 nber times 1st assigned=          38           0
 nber times 1st assigned=          39           0
 nber times 1st assigned=          40           0
 nber times 1st assigned=          41           0
 nber times 1st assigned=          42           0
 nber times 1st assigned=          43           0
 nber times 1st assigned=          44           0
 nber times 1st assigned=          45           0
 nber times 1st assigned=          46           0
 nber times 1st assigned=          47           0
 nber times 1st assigned=          48           0
 nber times 1st assigned=          49           0
 nber times 1st assigned=          50           0
 nber times 1st assigned=          51           0
 nber times 1st assigned=          52           0
 nber times 1st assigned=          53           0
 nber times 1st assigned=          54           0
 nber times 1st assigned=          55           0
 nber times 1st assigned=          56           0
 nber times 1st assigned=          57           0
 nber times 1st assigned=          58           0
 nber times 1st assigned=          59           0
 nber times 1st assigned=          60           0
 nber times 1st assigned=          61           0
 nber times 1st assigned=          62           0
 nber times 1st assigned=          63           0
 nber times 1st assigned=          64           0
 nber times 1st assigned=          65           0
 nber times 1st assigned=          66           0
 modes represented=   59.6390375004865     
 p1=
    0.    0.    0.    0.   -0.   -0.   -0.    0.    0.   -0.    4.    0.    0.    5.   -0.   -0.    1.   -0.    0.    5.
    0.    0.    0.   -0.   -4.    0.   -0.    0.   -0.   -0.    0.   -2.    0.    0.   -0.    0.   -0.    3.   -0.   -1.
    0.   -1.   -0.    3.   -0.    2.    0.    1.    0.   -1.   -1.   -0.   -0.    4.    3.   -0.   -0.    4.   -3.    0.
   -0.   -0.    0.    0.    0.    0.
 p2=
   -0.    0.    0.    0.    0.   -0.    0.    0.    0.    0.   -4.   -0.    0.    4.   -0.   -0.    0.   -0.    6.    0.
    0.   -0.   -0.    0.    0.    4.    0.    0.    0.   -0.   -0.    2.   -0.   -0.    0.   -0.   -0.    3.    0.   -1.
    0.    1.   -0.   -3.    0.    0.    1.    0.   -0.    1.    0.   -0.    0.    0.   -0.    2.   -4.   -5.    0.   -1.
   -0.    0.   -0.    0.    0.    0.

 Displacement: in terms of nc of 1 THEN of nc of 2

   1 A1  freq=    -0. Q=  0.000 lam=    -0.0 B2  freq=    -0. Q=  0.000 lam=    -0.0
   2 B2  freq=    -0. Q=  0.000 lam=    -0.0 B1  freq=    -0. Q=  0.000 lam=    -0.0
   3 B1  freq=    -0. Q=  0.000 lam=    -0.0 A2  freq=    -0. Q=  0.000 lam=    -0.0
   4 B2  freq=     0. Q=  0.000 lam=     0.0 B1  freq=     0. Q=  0.000 lam=     0.0
   5 A2  freq=     0. Q= -0.000 lam=     0.0 A1  freq=     0. Q= -0.000 lam=     0.0
   6 B1  freq=     0. Q= -0.000 lam=     0.0 B2  freq=     0. Q= -0.000 lam=     0.0
   7 A2  freq=    62. Q= -0.000 lam=     0.0 A2  freq=    66. Q= -0.000 lam=     0.0
   8 B1  freq=    90. Q=  0.000 lam=     0.0 B1  freq=    81. Q=  0.000 lam=     0.0
   9 A2  freq=   132. Q=  0.000 lam=     0.0 A2  freq=   130. Q=  0.000 lam=     0.0
  10 B1  freq=   162. Q= -0.000 lam=     0.0 B1  freq=   162. Q= -0.000 lam=     0.0
  11 A1  freq=   236. Q=  0.221 lam=     5.8 A1  freq=   236. Q=  0.229 lam=     6.1
  12 A2  freq=   279. Q=  0.000 lam=     0.0 A2  freq=   258. Q=  0.000 lam=     0.0
  13 B2  freq=   321. Q=  0.000 lam=     0.0 B2  freq=   321. Q=  0.000 lam=     0.0
  14 A1  freq=   361. Q=  0.353 lam=    22.6 A1  freq=   370. Q=  0.347 lam=    22.2
  15 B1  freq=   383. Q= -0.000 lam=     0.0 B1  freq=   384. Q= -0.000 lam=     0.0
  16 B2  freq=   406. Q= -0.000 lam=     0.0 B2  freq=   393. Q= -0.000 lam=     0.0
  17 A1  freq=   415. Q=  0.060 lam=     0.7 A1  freq=   416. Q=  0.040 lam=     0.3
  18 A2  freq=   455. Q= -0.000 lam=     0.0 B1  freq=   418. Q= -0.000 lam=     0.0
  19 B1  freq=   456. Q=  0.000 lam=     0.0 A1  freq=   454. Q=  0.478 lam=    52.0
  20 A1  freq=   463. Q=  0.470 lam=    51.0 A2  freq=   465. Q=  0.000 lam=     0.0
  21 B1  freq=   579. Q=  0.000 lam=     0.0 A2  freq=   541. Q=  0.000 lam=     0.0
  22 A2  freq=   591. Q=  0.000 lam=     0.0 B1  freq=   582. Q=  0.000 lam=     0.0
  23 B2  freq=   615. Q=  0.000 lam=     0.0 B2  freq=   587. Q=  0.000 lam=     0.0
  24 B2  freq=   635. Q= -0.000 lam=     0.0 B2  freq=   622. Q= -0.000 lam=     0.0
  25 A1  freq=   678. Q= -0.466 lam=    73.6 B1  freq=   651. Q= -0.000 lam=     0.0
  26 B2  freq=   710. Q=  0.000 lam=     0.0 A1  freq=   661. Q=  0.455 lam=    68.5
  27 A2  freq=   742. Q= -0.000 lam=     0.0 A2  freq=   675. Q= -0.000 lam=     0.0
  28 B1  freq=   754. Q=  0.000 lam=     0.0 B2  freq=   706. Q=  0.000 lam=     0.0
  29 A2  freq=   812. Q= -0.000 lam=     0.0 A2  freq=   721. Q= -0.000 lam=     0.0
  30 B1  freq=   815. Q= -0.000 lam=     0.0 B1  freq=   740. Q= -0.000 lam=     0.0
  31 A2  freq=   832. Q=  0.000 lam=     0.0 A2  freq=   777. Q=  0.000 lam=     0.0
  32 A1  freq=   835. Q= -0.193 lam=    15.5 A1  freq=   831. Q= -0.180 lam=    13.4
  33 B1  freq=   932. Q=  0.000 lam=     0.0 B1  freq=   846. Q=  0.000 lam=     0.0
  34 B2  freq=   936. Q=  0.000 lam=     0.0 A2  freq=   850. Q=  0.000 lam=     0.0
  35 A2  freq=   936. Q= -0.000 lam=     0.0 B1  freq=   890. Q= -0.000 lam=     0.0
  36 B1  freq=   998. Q=  0.000 lam=     0.0 A2  freq=   892. Q=  0.000 lam=     0.0
  37 A2  freq=   999. Q= -0.000 lam=     0.0 B2  freq=   923. Q= -0.000 lam=     0.0
  38 A1  freq=  1041. Q=  0.355 lam=    65.6 A1  freq=  1027. Q=  0.449 lam=   103.4
  39 B2  freq=  1042. Q= -0.000 lam=     0.0 B2  freq=  1028. Q= -0.000 lam=     0.0
  40 A1  freq=  1075. Q= -0.119 lam=     7.6 A1  freq=  1042. Q= -0.082 lam=     3.5
  41 B2  freq=  1087. Q=  0.000 lam=     0.0 B2  freq=  1063. Q=  0.000 lam=     0.0
  42 A1  freq=  1096. Q= -0.114 lam=     7.1 A1  freq=  1082. Q= -0.173 lam=    16.3
  43 B2  freq=  1119. Q= -0.000 lam=     0.0 B2  freq=  1082. Q= -0.000 lam=     0.0
  44 A1  freq=  1190. Q=  0.390 lam=    90.3 A1  freq=  1160. Q=  0.388 lam=    87.5
  45 B2  freq=  1225. Q= -0.000 lam=     0.0 B2  freq=  1171. Q= -0.000 lam=     0.0
  46 A1  freq=  1237. Q=  0.281 lam=    48.8 B2  freq=  1236. Q=  0.000 lam=     0.0
  47 B2  freq=  1272. Q=  0.000 lam=     0.0 A1  freq=  1271. Q=  0.194 lam=    23.8
  48 A1  freq=  1308. Q=  0.170 lam=    18.9 B2  freq=  1276. Q=  0.000 lam=     0.0
  49 B2  freq=  1317. Q=  0.000 lam=     0.0 A1  freq=  1321. Q=  0.062 lam=     2.5
  50 A1  freq=  1360. Q= -0.174 lam=    20.5 A1  freq=  1341. Q= -0.090 lam=     5.5
  51 A1  freq=  1418. Q= -0.205 lam=    29.7 B2  freq=  1377. Q= -0.000 lam=     0.0
  52 B2  freq=  1423. Q= -0.000 lam=     0.0 A1  freq=  1429. Q= -0.000 lam=     0.0
  53 B2  freq=  1459. Q= -0.000 lam=     0.0 B2  freq=  1438. Q= -0.000 lam=     0.0
  54 A1  freq=  1486. Q=  0.580 lam=   250.0 B2  freq=  1455. Q=  0.000 lam=     0.0
  55 A1  freq=  1535. Q=  0.461 lam=   162.9 B2  freq=  1467. Q=  0.000 lam=     0.0
  56 B2  freq=  1539. Q= -0.000 lam=     0.0 A1  freq=  1483. Q= -0.285 lam=    60.3
  57 B2  freq=  1578. Q= -0.000 lam=     0.0 A1  freq=  1510. Q= -0.600 lam=   271.4
  58 A1  freq=  1593. Q=  0.652 lam=   338.4 A1  freq=  1539. Q=  0.804 lam=   497.3
  59 A1  freq=  1607. Q= -0.470 lam=   177.4 B2  freq=  1554. Q= -0.000 lam=     0.0
  60 B2  freq=  1617. Q=  0.000 lam=     0.0 A1  freq=  1565. Q=  0.231 lam=    41.9
  61 B2  freq=  3097. Q= -0.000 lam=     0.0 B2  freq=  2990. Q= -0.000 lam=     0.0
  62 A1  freq=  3098. Q= -0.086 lam=    11.4 A1  freq=  2992. Q= -0.086 lam=    11.0
  63 B2  freq=  3150. Q=  0.000 lam=     0.0 B2  freq=  3095. Q=  0.000 lam=     0.0
  64 A1  freq=  3150. Q=  0.054 lam=     4.6 A1  freq=  3096. Q=  0.055 lam=     4.7
  65 B2  freq=  3185. Q=  0.000 lam=     0.0 B2  freq=  3159. Q=  0.000 lam=     0.0
  66 A1  freq=  3185. Q=  0.006 lam=     0.0 A1  freq=  3160. Q=  0.008 lam=     0.1

 total reorg energy (cm**-1, kcal/mol)=     1402.     1292.      4.01      3.69
 Nber of molecules processed=           2
