 Enter ifcurve (0=recti, 1=orth curvi, 2=apprx curvi, -1 = skip
 And atom ordering flag, 0= never changes, 1= use the first order thenceforth,
  2= deduce it (does read on fail), 3= always read it
 Reading file: 
 ./Benzene_Conj_4_C0S0.log                                                      
                                          
  Entering Gaussian System, Link 0=g16                                          
  
 Gaussian format, type: g94, g98, g03= F F F
  #P Geom=AllCheck Guess=TCheck SCRF=Check GenChk RB3LYP/6-311G(d,p) Fre    
 energy type= B3LYP   
 Original G94 input coords:
  6  4.935313 -1.408448  0.000000
  6  3.672792 -0.726839  0.000000
  6  2.464310 -1.406247  0.000000
  6  1.224548 -0.727625  0.000000
  6  0.000000 -1.406748  0.000000
  6 -1.224548 -0.727625  0.000000
  6 -2.464310 -1.406247  0.000000
  6 -3.672792 -0.726839  0.000000
  6 -4.935313 -1.408448  0.000000
  6 -6.107765 -0.715894  0.000000
  6 -6.107765  0.715894  0.000000
  6 -4.935313  1.408448  0.000000
  6 -3.672792  0.726839  0.000000
  6 -2.464310  1.406247  0.000000
  6 -1.224548  0.727625  0.000000
  6  0.000000  1.406748  0.000000
  6  1.224548  0.727625  0.000000
  6  2.464310  1.406247  0.000000
  6  3.672792  0.726839  0.000000
  6  4.935313  1.408448  0.000000
  6  6.107765  0.715894  0.000000
  6  6.107765 -0.715894  0.000000
  1  4.935281 -2.493748  0.000000
  1  2.464929 -2.491878  0.000000
  1  0.000000 -2.492321  0.000000
  1 -2.464929 -2.491878  0.000000
  1 -4.935281 -2.493748  0.000000
  1 -7.053673 -1.245430  0.000000
  1 -7.053673  1.245430  0.000000
  1 -4.935281  2.493748  0.000000
  1 -2.464929  2.491878  0.000000
  1  0.000000  2.492321  0.000000
  1  2.464929  2.491878  0.000000
  1  4.935281  2.493748  0.000000
  1  7.053673  1.245430  0.000000
  1  7.053673 -1.245430  0.000000
 nber atoms=          36
 Original standard coords:
  6  0.000000  4.935313  1.408448
  6  0.000000  3.672792  0.726839
  6  0.000000  2.464310  1.406247
  6  0.000000  1.224548  0.727625
  6  0.000000  0.000000  1.406748
  6  0.000000 -1.224548  0.727625
  6  0.000000 -2.464310  1.406247
  6  0.000000 -3.672792  0.726839
  6  0.000000 -4.935313  1.408448
  6  0.000000 -6.107765  0.715894
  6  0.000000 -6.107765 -0.715894
  6  0.000000 -4.935313 -1.408448
  6  0.000000 -3.672792 -0.726839
  6  0.000000 -2.464310 -1.406247
  6  0.000000 -1.224548 -0.727625
  6  0.000000  0.000000 -1.406748
  6  0.000000  1.224548 -0.727625
  6  0.000000  2.464310 -1.406247
  6  0.000000  3.672792 -0.726839
  6  0.000000  4.935313 -1.408448
  6  0.000000  6.107765 -0.715894
  6  0.000000  6.107765  0.715894
  1  0.000000  4.935281  2.493748
  1  0.000000  2.464929  2.491878
  1  0.000000  0.000000  2.492321
  1  0.000000 -2.464929  2.491878
  1  0.000000 -4.935281  2.493748
  1  0.000000 -7.053673  1.245430
  1  0.000000 -7.053673 -1.245430
  1  0.000000 -4.935281 -2.493748
  1  0.000000 -2.464929 -2.491878
  1  0.000000  0.000000 -2.492321
  1  0.000000  2.464929 -2.491878
  1  0.000000  4.935281 -2.493748
  1  0.000000  7.053673 -1.245430
  1  0.000000  7.053673  1.245430
  SCF Done:  E(RB3LYP) =  -846.989449393     A.U. after    1 cycles             
  
          23          40 "  -846.989449393"
After scan for Atom:   Atom  AN      X      Y      Z        X      Y      Z        X      Y      Z   
After scan for Atom:   Atom  AN      X      Y      Z        X      Y      Z        X      Y      Z   
After scan for Atom:   Atom  AN      X      Y      Z        X      Y      Z        X      Y      Z   
After scan for Atom:   Atom  AN      X      Y      Z        X      Y      Z        X      Y      Z   
After scan for Atom:   Atom  AN      X      Y      Z        X      Y      Z        X      Y      Z   
After scan for Atom:   Atom  AN      X      Y      Z        X      Y      Z        X      Y      Z   
After scan for Atom:   Atom  AN      X      Y      Z        X      Y      Z        X      Y      Z   
After scan for Atom:   Atom  AN      X      Y      Z        X      Y      Z        X      Y      Z   
After scan for Atom:   Atom  AN      X      Y      Z        X      Y      Z        X      Y      Z   
After scan for Atom:   Atom  AN      X      Y      Z        X      Y      Z        X      Y      Z   
After scan for Atom:   Atom  AN      X      Y      Z        X      Y      Z        X      Y      Z   
After scan for Atom:   Atom  AN      X      Y      Z        X      Y      Z        X      Y      Z   
After scan for Atom:   Atom  AN      X      Y      Z        X      Y      Z        X      Y      Z   
After scan for Atom:   Atom  AN      X      Y      Z        X      Y      Z        X      Y      Z   
After scan for Atom:   Atom  AN      X      Y      Z        X      Y      Z        X      Y      Z   
After scan for Atom:   Atom  AN      X      Y      Z        X      Y      Z        X      Y      Z   
After scan for Atom:   Atom  AN      X      Y      Z        X      Y      Z        X      Y      Z   
After scan for Atom:   Atom  AN      X      Y      Z        X      Y      Z        X      Y      Z   
After scan for Atom:   Atom  AN      X      Y      Z        X      Y      Z        X      Y      Z   
After scan for Atom:   Atom  AN      X      Y      Z        X      Y      Z        X      Y      Z   
After scan for Atom:   Atom  AN      X      Y      Z        X      Y      Z        X      Y      Z   
After scan for Atom:   Atom  AN      X      Y      Z        X      Y      Z        X      Y      Z   
After scan for Atom:   Atom  AN      X      Y      Z        X      Y      Z        X      Y      Z   
After scan for Atom:   Atom  AN      X      Y      Z        X      Y      Z        X      Y      Z   
After scan for Atom:   Atom  AN      X      Y      Z        X      Y      Z        X      Y      Z   
After scan for Atom:   Atom  AN      X      Y      Z        X      Y      Z        X      Y      Z   
After scan for Atom:   Atom  AN      X      Y      Z        X      Y      Z        X      Y      Z   
After scan for Atom:   Atom  AN      X      Y      Z        X      Y      Z        X      Y      Z   
After scan for Atom:   Atom  AN      X      Y      Z        X      Y      Z        X      Y      Z   
After scan for Atom:   Atom  AN      X      Y      Z        X      Y      Z        X      Y      Z   
After scan for Atom:   Atom  AN      X      Y      Z        X      Y      Z        X      Y      Z   
After scan for Atom:   Atom  AN      X      Y      Z        X      Y      Z        X      Y      Z   
After scan for Atom:   Atom  AN      X      Y      Z        X      Y      Z        X      Y      Z   
After scan for Atom:   Atom  AN      X      Y      Z        X      Y      Z        X      Y      Z   
 g94    frequencies=
     0.0    0.0    0.0    0.0    0.0    0.0   36.4   71.3  100.8  118.8
   148.9  192.2  238.2  240.5  263.5  292.9  348.9  362.0  379.0  453.9
   469.4  471.4  476.7  478.3  490.9  512.6  525.9  553.5  579.1  616.3
   639.2  647.1  715.8  724.9  744.0  745.7  751.7  752.5  761.6  770.7
   774.3  795.2  837.4  839.6  840.4  847.4  874.1  887.4  888.8  900.5
   915.5  920.9  922.1  936.3  972.9  973.3  995.4  995.4 1016.2 1019.0
  1134.3 1143.8 1158.3 1184.7 1188.2 1200.2 1207.2 1210.5 1242.4 1251.1
  1294.4 1295.2 1312.2 1318.6 1333.5 1358.7 1376.2 1410.3 1416.4 1419.0
  1426.6 1434.2 1477.6 1477.9 1493.4 1542.2 1557.2 1576.9 1579.1 1593.8
  1633.2 1642.0 1673.4 1674.1 3153.9 3154.7 3155.8 3156.2 3157.2 3157.7
  3159.4 3159.9 3161.0 3163.1 3175.1 3175.1 3187.8 3188.0
 g94    symmetries=
                                                B3     AU     B1     B1
      B2     B3     B3     AU     AG     B1     B2     B1     B3     B3
      B3     B1     B3     B1     B2     B3     AU     B2     B1     AG
      B2     AG     AU     B3     B2     B3     B1     B2     AG     AU
      B2     AG     B1     B3     B2     AU     B2     B1     B2     AU
      B2     B3     B1     B3     B1     B3     AU     B2     B2     AG
      B2     B1     B3     AG     B2     B3     AG     B1     B3     B2
      B1     B3     B3     B1     AG     B2     B1     AG     B2     B3
      B2     AG     B2     B1     AG     B2     AG     AG     B2     B3
      B3     B1     B3     B1     B1     B3     AG     B1     B2     B3
      AG     B1     B2     AG     B3     B1     B2     AG
 atomic masses:
 12.0000 12.0000 12.0000 12.0000 12.0000 12.0000 12.0000 12.0000 12.0000 12.0000
 12.0000 12.0000 12.0000 12.0000 12.0000 12.0000 12.0000 12.0000 12.0000 12.0000
 12.0000 12.0000  1.0078  1.0078  1.0078  1.0078  1.0078  1.0078  1.0078  1.0078
  1.0078  1.0078  1.0078  1.0078  1.0078  1.0078
 looking for force constants in 
 ./Benzene_Conj_4_C0S0.fchk                                                     
  
 Cartesian Force Constants                  R   N=        5886                  
  
 n3=         108        5886
 g94-fc frequencies=
    -2.8   -2.7   -0.0    0.0    0.0    6.4   36.4   71.3  100.8  118.8
   148.9  192.2  238.2  240.5  263.5  292.9  348.9  362.0  379.0  454.0
   469.4  471.4  476.7  478.4  490.9  512.6  525.9  553.5  579.1  616.4
   639.3  647.1  715.8  724.9  744.0  745.7  751.7  752.5  761.7  770.7
   774.3  795.2  837.5  839.6  840.4  847.4  874.1  887.5  888.8  900.5
   915.5  920.9  922.1  936.4  972.9  973.3  995.4  995.5 1016.3 1019.0
  1134.3 1143.8 1158.3 1184.8 1188.2 1200.2 1207.3 1210.5 1242.4 1251.1
  1294.5 1295.3 1312.3 1318.6 1333.6 1358.8 1376.2 1410.3 1416.4 1419.1
  1426.7 1434.2 1477.6 1477.9 1493.4 1542.3 1557.2 1576.9 1579.1 1593.8
  1633.2 1642.0 1673.5 1674.1 3154.0 3154.8 3155.8 3156.2 3157.2 3157.8
  3159.5 3160.0 3161.1 3163.2 3175.2 3175.2 3187.9 3188.0
 at 99999: n3=         108
 symm operator            1 :  T  nop=           1
 symm operator            2 :  T  nop=           2
 symm operator            3 :  T  nop=           3
 symm operator            4 :  T  nop=           4
 symm operator            5 :  T  nop=           5
 symm operator            6 :  T  nop=           6
 symm operator            7 :  T  nop=           7
 The point group of the molecule is D2H
 enforcing symm op           1  jsymt=          -1          -1           1
 enforcing symm op           2  jsymt=          -1           1          -1
 enforcing symm op           3  jsymt=           1          -1          -1
 enforcing symm op           4  jsymt=          -1          -1          -1
 enforcing symm op           5  jsymt=           1           1          -1
 enforcing symm op           6  jsymt=           1          -1           1
 enforcing symm op           7  jsymt=          -1           1           1
 cartesian coord symmetries:
 Ag :   18 Au :    8 B1g:    8 B1u:   18 B2g:   10 B2u:   18 B3g:   18 B3u:   10
 Symmetry rotation matrix:
   1.00000   0.00000   0.00000
   0.00000   1.00000   0.00000
   0.00000   0.00000   1.00000

 Projecting out zero-frequency components
 generating redundant internal coords
         300        3600          36
 search for int coords
   1 str   2   1   1.435
   2 str   3   2   1.386
   3 str   4   3   1.413
   4 str   5   4   1.400
   5 str   6   5   1.400
   6 str   7   6   1.413
   7 str   8   7   1.386
   8 str   9   8   1.435
   9 str  10   9   1.362
  10 str  11  10   1.432
  11 str  12  11   1.362
  12 str  13   8   1.454
  13 str  13  12   1.435
  14 str  14  13   1.386
  15 str  15   6   1.455
  16 str  15  14   1.413
  17 str  16  15   1.400
  18 str  17   4   1.455
  19 str  17  16   1.400
  20 str  18  17   1.413
  21 str  19   2   1.454
  22 str  19  18   1.386
  23 str  20  19   1.435
  24 str  21  20   1.362
  25 str  22   1   1.362
  26 str  22  21   1.432
  27 str  23   1   1.085
  28 str  24   3   1.086
  29 str  25   5   1.086
  30 str  26   7   1.086
  31 str  27   9   1.085
  32 str  28  10   1.084
  33 str  29  11   1.084
  34 str  30  12   1.085
  35 str  31  14   1.086
  36 str  32  16   1.086
  37 str  33  18   1.086
  38 str  34  20   1.085
  39 str  35  21   1.084
  40 str  36  22   1.084
 nber stretches=          40
  41 ben   1   2   3
  42 prop tor   1   2   3   4
  43 prop tor   1   2   3  24
  44 ben   1   2  19
  45 prop tor   1   2  19  18
  46 prop tor   1   2  19  20
  47 ben   1  22  21
  48 ben   1  22  36
  49 ben   2   1  22
  50 prop tor   2   1  22  21
  51 prop tor   2   1  22  36
  52 ben   2   1  23
  53 ben   2   3   4
  54 prop tor   2   3   4   5
  55 prop tor   2   3   4  17
  56 ben   2   3  24
  57 ben   2  19  18
  58 ben   2  19  20
  59 prop tor   2  19  20  21
  60 prop tor   2  19  20  34
  61 ben   3   2  19
  62 prop tor   3   2  19  18
  63 prop tor   3   2  19  20
  64 ben   3   4   5
  65 prop tor   3   4   5   6
  66 prop tor   3   4   5  25
  67 ben   3   4  17
  68 prop tor   3   4  17  16
  69 prop tor   3   4  17  18
  70 ben   4   3  24
  71 ben   4   5   6
  72 prop tor   4   5   6   7
  73 prop tor   4   5   6  15
  74 ben   4   5  25
  75 ben   4  17  16
  76 ben   4  17  18
  77 prop tor   4  17  18  19
  78 prop tor   4  17  18  33
  79 ben   5   4  17
  80 prop tor   5   4  17  16
  81 prop tor   5   4  17  18
  82 ben   5   6   7
  83 prop tor   5   6   7   8
  84 prop tor   5   6   7  26
  85 ben   5   6  15
  86 prop tor   5   6  15  14
  87 prop tor   5   6  15  16
  88 ben   6   5  25
  89 ben   6   7   8
  90 prop tor   6   7   8   9
  91 prop tor   6   7   8  13
  92 ben   6   7  26
  93 ben   6  15  14
  94 ben   6  15  16
  95 prop tor   6  15  16  17
  96 prop tor   6  15  16  32
  97 ben   7   6  15
  98 prop tor   7   6  15  14
  99 prop tor   7   6  15  16
 100 ben   7   8   9
 101 prop tor   7   8   9  10
 102 prop tor   7   8   9  27
 103 ben   7   8  13
 104 prop tor   7   8  13  12
 105 prop tor   7   8  13  14
 106 ben   8   7  26
 107 ben   8   9  10
 108 prop tor   8   9  10  11
 109 prop tor   8   9  10  28
 110 ben   8   9  27
 111 ben   8  13  12
 112 ben   8  13  14
 113 prop tor   8  13  14  15
 114 prop tor   8  13  14  31
 115 ben   9   8  13
 116 prop tor   9   8  13  12
 117 prop tor   9   8  13  14
 118 ben   9  10  11
 119 prop tor   9  10  11  12
 120 prop tor   9  10  11  29
 121 ben   9  10  28
 122 ben  10   9  27
 123 ben  10  11  12
 124 prop tor  10  11  12  13
 125 prop tor  10  11  12  30
 126 ben  10  11  29
 127 ben  11  10  28
 128 ben  11  12  13
 129 prop tor  11  12  13   8
 130 prop tor  11  12  13  14
 131 ben  11  12  30
 132 ben  12  11  29
 133 ben  12  13  14
 134 prop tor  12  13  14  15
 135 prop tor  12  13  14  31
 136 prop tor  13   8   9  10
 137 prop tor  13   8   9  27
 138 ben  13  12  30
 139 ben  13  14  15
 140 prop tor  13  14  15   6
 141 prop tor  13  14  15  16
 142 ben  13  14  31
 143 ben  14  15  16
 144 prop tor  14  15  16  17
 145 prop tor  14  15  16  32
 146 prop tor  15   6   7   8
 147 prop tor  15   6   7  26
 148 ben  15  14  31
 149 ben  15  16  17
 150 prop tor  15  16  17   4
 151 prop tor  15  16  17  18
 152 ben  15  16  32
 153 ben  16  17  18
 154 prop tor  16  17  18  19
 155 prop tor  16  17  18  33
 156 prop tor  17   4   5   6
 157 prop tor  17   4   5  25
 158 ben  17  16  32
 159 ben  17  18  19
 160 prop tor  17  18  19   2
 161 prop tor  17  18  19  20
 162 ben  17  18  33
 163 ben  18  19  20
 164 prop tor  18  19  20  21
 165 prop tor  18  19  20  34
 166 prop tor  19   2   3   4
 167 prop tor  19   2   3  24
 168 ben  19  18  33
 169 ben  19  20  21
 170 prop tor  19  20  21  22
 171 prop tor  19  20  21  35
 172 ben  19  20  34
 173 ben  20  21  22
 174 prop tor  20  21  22   1
 175 prop tor  20  21  22  36
 176 ben  20  21  35
 177 ben  21  20  34
 178 ben  21  22  36
 179 prop tor  22   1   2   3
 180 prop tor  22   1   2  19
 181 ben  22   1  23
 182 ben  22  21  35
 183 prop tor  23   1   2   3
 184 prop tor  23   1   2  19
 185 prop tor  23   1  22  21
 186 prop tor  23   1  22  36
 187 prop tor  24   3   4   5
 188 prop tor  24   3   4  17
 189 prop tor  25   5   6   7
 190 prop tor  25   5   6  15
 191 prop tor  26   7   8   9
 192 prop tor  26   7   8  13
 193 prop tor  27   9  10  11
 194 prop tor  27   9  10  28
 195 prop tor  28  10  11  12
 196 prop tor  28  10  11  29
 197 prop tor  29  11  12  13
 198 prop tor  29  11  12  30
 199 prop tor  30  12  13   8
 200 prop tor  30  12  13  14
 201 prop tor  31  14  15   6
 202 prop tor  31  14  15  16
 203 prop tor  32  16  17   4
 204 prop tor  32  16  17  18
 205 prop tor  33  18  19   2
 206 prop tor  33  18  19  20
 207 prop tor  34  20  21  22
 208 prop tor  34  20  21  35
 209 prop tor  35  21  22   1
 210 prop tor  35  21  22  36
 nber bend=              66
 nber lin bend=           0
 nber prop tor=         104
 nber impr tor=           0
 nber tot redund int=         210
 Eigenvalues of G in red int coords
    Gval -0.00000000 -0.00000000 -0.00000000 -0.00000000 -0.00000000 -0.00000000 -0.00000000 -0.00000000
    Gval -0.00000000 -0.00000000 -0.00000000 -0.00000000 -0.00000000 -0.00000000 -0.00000000 -0.00000000
    Gval -0.00000000 -0.00000000 -0.00000000 -0.00000000 -0.00000000 -0.00000000 -0.00000000 -0.00000000
    Gval -0.00000000 -0.00000000 -0.00000000 -0.00000000 -0.00000000 -0.00000000 -0.00000000 -0.00000000
    Gval -0.00000000 -0.00000000 -0.00000000 -0.00000000 -0.00000000 -0.00000000 -0.00000000 -0.00000000
    Gval -0.00000000 -0.00000000 -0.00000000 -0.00000000 -0.00000000 -0.00000000 -0.00000000 -0.00000000
    Gval -0.00000000 -0.00000000 -0.00000000  0.00000000  0.00000000  0.00000000  0.00000000  0.00000000
    Gval  0.00000000  0.00000000  0.00000000  0.00000000  0.00000000  0.00000000  0.00000000  0.00000000
    Gval  0.00000000  0.00000000  0.00000000  0.00000000  0.00000000  0.00000000  0.00000000  0.00000000
    Gval  0.00000000  0.00000000  0.00000000  0.00000000  0.00000000  0.00000000  0.00000000  0.00000000
    Gval  0.00000000  0.00000000  0.00000000  0.00000000  0.00000000  0.00000000  0.00000000  0.00000000
    Gval  0.00000000  0.00000000  0.00000000  0.00000000  0.00000000  0.00000000  0.00000000  0.00000000
    Gval  0.00000000  0.00000000  0.00000000  0.00000000  0.00000000  0.00000000  0.00000000  0.00000000
    Gval  0.00000000  0.00000000  0.00000000  0.00000000  0.00000190  0.00000410  0.00000605  0.00001000
    Gval  0.00001573  0.00002689  0.00002816  0.00003139  0.00003281  0.00004093  0.00004326  0.00004469
    Gval  0.00004591  0.00005009  0.00005336  0.00005710  0.00006880  0.00006929  0.00007632  0.00007693
    Gval  0.00008354  0.00009929  0.00010277  0.00010992  0.00011267  0.00011707  0.00012683  0.00013721
    Gval  0.00014031  0.00014780  0.00016339  0.00016457  0.00019924  0.00021442  0.00025756  0.00026082
    Gval  0.00027568  0.00030229  0.00033464  0.00033951  0.00034486  0.00038205  0.00038513  0.00040308
    Gval  0.00041143  0.00041494  0.00041511  0.00043977  0.00046922  0.00048115  0.00059310  0.00059310
    Gval  0.00059684  0.00059685  0.00060815  0.00061144  0.00061946  0.00061998  0.00062897  0.00063496
    Gval  0.00064147  0.00065230  0.00065666  0.00065773  0.00072480  0.00073886  0.00080622  0.00081723
    Gval  0.00091687  0.00098122  0.00105046  0.00105056  0.00110820  0.00111167  0.00111203  0.00111901
    Gval  0.00111972  0.00112397  0.00112763  0.00112935  0.00116180  0.00116180  0.00117005  0.00117005
    Gval  0.00158898  0.00176955  0.00177064  0.00180348  0.00193641  0.00201581  0.00256455  0.00257819
    Gval  0.00278391  0.00286211  0.00304501  0.00313002  0.00331842  0.00335287  0.00356246  0.00358409
    Gval  0.00400142  0.00400179
  1.903076857727943E-006  1.903076857727943E-006
  4.099311292814575E-006  1.903076857727943E-006
  6.045824902603491E-006  1.903076857727943E-006
  9.996892858469858E-006  1.903076857727943E-006
  1.572516989190469E-005  1.903076857727943E-006
  2.689324161748647E-005  1.903076857727943E-006
  2.816270892880401E-005  1.903076857727943E-006
  3.138580256682814E-005  1.903076857727943E-006
  3.280616931988445E-005  1.903076857727943E-006
  4.093168535974941E-005  1.903076857727943E-006
  4.326413092610033E-005  1.903076857727943E-006
  4.468564142678838E-005  1.903076857727943E-006
  4.590565969537275E-005  1.903076857727943E-006
  5.008941072719332E-005  1.903076857727943E-006
  5.336496900669337E-005  1.903076857727943E-006
  5.709864423225551E-005  1.903076857727943E-006
  6.880310805415636E-005  1.903076857727943E-006
  6.929247357569645E-005  1.903076857727943E-006
  7.632332717992589E-005  1.903076857727943E-006
  7.692877143480778E-005  1.903076857727943E-006
  8.353783474409859E-005  1.903076857727943E-006
  9.928733064886475E-005  1.903076857727943E-006
  1.027669661905765E-004  1.903076857727943E-006
  1.099215830212338E-004  1.903076857727943E-006
  1.126682745476876E-004  1.903076857727943E-006
  1.170706351430755E-004  1.903076857727943E-006
  1.268317152539007E-004  1.903076857727943E-006
  1.372113660867725E-004  1.903076857727943E-006
  1.403141421611121E-004  1.903076857727943E-006
  1.478043430848590E-004  1.903076857727943E-006
  1.633854498852286E-004  1.903076857727943E-006
  1.645667671932820E-004  1.903076857727943E-006
  1.992407655250861E-004  1.903076857727943E-006
  2.144220588902692E-004  1.903076857727943E-006
  2.575608836566120E-004  1.903076857727943E-006
  2.608244660643913E-004  1.903076857727943E-006
  2.756761032516456E-004  1.903076857727943E-006
  3.022949550472380E-004  1.903076857727943E-006
  3.346371043323688E-004  1.903076857727943E-006
  3.395073344149568E-004  1.903076857727943E-006
  3.448621306339978E-004  1.903076857727943E-006
  3.820451280059156E-004  1.903076857727943E-006
  3.851322193235266E-004  1.903076857727943E-006
  4.030776894762677E-004  1.903076857727943E-006
  4.114303449398209E-004  1.903076857727943E-006
  4.149411437633428E-004  1.903076857727943E-006
  4.151097668049027E-004  1.903076857727943E-006
  4.397679104503893E-004  1.903076857727943E-006
  4.692187617282741E-004  1.903076857727943E-006
  4.811506570563618E-004  1.903076857727943E-006
  5.930958930449434E-004  1.903076857727943E-006
  5.930980519289615E-004  1.903076857727943E-006
  5.968417132103950E-004  1.903076857727943E-006
  5.968523658199073E-004  1.903076857727943E-006
  6.081467067878023E-004  1.903076857727943E-006
  6.114360787961178E-004  1.903076857727943E-006
  6.194590687801486E-004  1.903076857727943E-006
  6.199831129456734E-004  1.903076857727943E-006
  6.289748527194566E-004  1.903076857727943E-006
  6.349597093470034E-004  1.903076857727943E-006
  6.414732828472175E-004  1.903076857727943E-006
  6.522978958545971E-004  1.903076857727943E-006
  6.566641060898764E-004  1.903076857727943E-006
  6.577329911801343E-004  1.903076857727943E-006
  7.248035938666141E-004  1.903076857727943E-006
  7.388636031105867E-004  1.903076857727943E-006
  8.062195558796834E-004  1.903076857727943E-006
  8.172256802338477E-004  1.903076857727943E-006
  9.168716894790622E-004  1.903076857727943E-006
  9.812155791752749E-004  1.903076857727943E-006
  1.050461234491920E-003  1.903076857727943E-006
  1.050562947243557E-003  1.903076857727943E-006
  1.108202769127809E-003  1.903076857727943E-006
  1.111669430267970E-003  1.903076857727943E-006
  1.112027147214048E-003  1.903076857727943E-006
  1.119005553103314E-003  1.903076857727943E-006
  1.119721682786851E-003  1.903076857727943E-006
  1.123968068001657E-003  1.903076857727943E-006
  1.127631267450999E-003  1.903076857727943E-006
  1.129354895978042E-003  1.903076857727943E-006
  1.161797946529238E-003  1.903076857727943E-006
  1.161803970110272E-003  1.903076857727943E-006
  1.170050739981172E-003  1.903076857727943E-006
  1.170050741073605E-003  1.903076857727943E-006
  1.588981976432682E-003  1.903076857727943E-006
  1.769553896603537E-003  1.903076857727943E-006
  1.770640867686238E-003  1.903076857727943E-006
  1.803479877638737E-003  1.903076857727943E-006
  1.936412974891832E-003  1.903076857727943E-006
  2.015808652584563E-003  1.903076857727943E-006
  2.564549119532833E-003  1.903076857727943E-006
  2.578188213084208E-003  1.903076857727943E-006
  2.783907292501938E-003  1.903076857727943E-006
  2.862108954988906E-003  1.903076857727943E-006
  3.045007687826323E-003  1.903076857727943E-006
  3.130019807772690E-003  1.903076857727943E-006
  3.318418371538805E-003  1.903076857727943E-006
  3.352871153815655E-003  1.903076857727943E-006
  3.562456788005295E-003  1.903076857727943E-006
  3.584087495050813E-003  1.903076857727943E-006
  4.001419423892792E-003  1.903076857727943E-006
  4.001787736094492E-003  1.903076857727943E-006
 cut=1d-8, nber non-redundant internal coords=         102
 Check on Eigenvals of non-red overlap matrix:
  0.00000190  0.00000410  0.00000605  0.00001000  0.00001573  0.00002689  0.00002816  0.00003139
  0.00003281  0.00004093  0.00004326  0.00004469  0.00004591  0.00005009  0.00005336  0.00005710
  0.00006880  0.00006929  0.00007632  0.00007693  0.00008354  0.00009929  0.00010277  0.00010992
  0.00011267  0.00011707  0.00012683  0.00013721  0.00014031  0.00014780  0.00016339  0.00016457
  0.00019924  0.00021442  0.00025756  0.00026082  0.00027568  0.00030229  0.00033464  0.00033951
  0.00034486  0.00038205  0.00038513  0.00040308  0.00041143  0.00041494  0.00041511  0.00043977
  0.00046922  0.00048115  0.00059310  0.00059310  0.00059684  0.00059685  0.00060815  0.00061144
  0.00061946  0.00061998  0.00062897  0.00063496  0.00064147  0.00065230  0.00065666  0.00065773
  0.00072480  0.00073886  0.00080622  0.00081723  0.00091687  0.00098122  0.00105046  0.00105056
  0.00110820  0.00111167  0.00111203  0.00111901  0.00111972  0.00112397  0.00112763  0.00112935
  0.00116180  0.00116180  0.00117005  0.00117005  0.00158898  0.00176955  0.00177064  0.00180348
  0.00193641  0.00201581  0.00256455  0.00257819  0.00278391  0.00286211  0.00304501  0.00313002
  0.00331842  0.00335287  0.00356246  0.00358409  0.00400142  0.00400179
 Checking for correct frequencies
 recalc frequencies=
    -0.0   -0.0   -0.0    0.0    0.0    0.0   36.4   71.3  100.8  118.8
   148.9  192.2  238.2  240.5  263.5  292.9  348.9  362.0  379.0  454.0
   469.4  471.4  476.7  478.4  490.9  512.6  525.9  553.5  579.1  616.4
   639.3  647.1  715.8  724.9  744.0  745.7  751.7  752.5  761.7  770.7
   774.3  795.2  837.5  839.6  840.4  847.4  874.1  887.5  888.8  900.5
   915.5  920.9  922.1  936.4  972.9  973.3  995.4  995.5 1016.3 1019.0
  1134.3 1143.8 1158.3 1184.8 1188.2 1200.2 1207.3 1210.5 1242.4 1251.1
  1294.5 1295.3 1312.3 1318.6 1333.6 1358.8 1376.2 1410.3 1416.4 1419.1
  1426.7 1434.2 1477.6 1477.9 1493.4 1542.3 1557.2 1576.9 1579.1 1593.8
  1633.2 1642.0 1673.5 1674.1 3154.0 3154.8 3155.8 3156.2 3157.2 3157.8
  3159.5 3160.0 3161.1 3163.2 3175.2 3175.2 3187.9 3188.0
 recalc symmetries=
     B3g    B1u    B2g    B1g    B3u    B2u    B3u    Au     B1g    B1u
     B2g    B3u    B3g    Au     Ag     B1g    B2g    B1u    B3u    B3g
     B3u    B1g    B3u    B1g    B2u    B3g    Au     B2g    B1u    Ag 
     B2u    Ag     Au     B3g    B2u    B3u    B1g    B2g    Ag     Au 
     B2g    Ag     B1u    B3u    B2g    Au     B2g    B1g    B2u    Au 
     B2g    B3u    B1u    B3g    B1g    B3u    Au     B2g    B2u    Ag 
     B2u    B1u    B3g    Ag     B2u    B3g    Ag     B1u    B3g    B2u
     B1u    B3g    B3g    B1u    Ag     B2u    B1u    Ag     B2u    B3g
     B2u    Ag     B2u    B1u    Ag     B2u    Ag     Ag     B2u    B3g
     B3g    B1u    B3g    B1u    B1u    B3g    Ag     B1u    B2u    B3g
     Ag     B1u    B2u    Ag     B3g    B1u    B2u    Ag 
 recalc freqs check OK
 Zero-point lengths:
 10.0000 10.0000 10.0000 10.0000 10.0000 10.0000 41.1010 29.3641 24.6892 22.7411
 20.3184 17.8822 16.0625 15.9863 15.2716 14.4846 13.2718 13.0291 12.7337 11.6356
 11.4426 11.4184 11.3541 11.3350 11.1893 10.9500 10.8100 10.5370 10.3020  9.9858
  9.8052  9.7454  9.2659  9.2078  9.0887  9.0784  9.0419  9.0374  8.9828  8.9298
  8.9094  8.7914  8.5667  8.5559  8.5516  8.5162  8.3852  8.3219  8.3154  8.2614
  8.1935  8.1693  8.1640  8.1017  7.9480  7.9463  7.8576  7.8575  7.7767  7.7660
  7.3610  7.3302  7.2842  7.2025  7.1920  7.1559  7.1350  7.1255  7.0334  7.0088
  6.8905  6.8884  6.8436  6.8271  6.7887  6.7255  6.6827  6.6014  6.5872  6.5810
  6.5635  6.5462  6.4493  6.4486  6.4151  6.3127  6.2824  6.2429  6.2387  6.2097
  6.1344  6.1179  6.0602  6.0590  4.4143  4.4138  4.4130  4.4128  4.4121  4.4117
  4.4105  4.4101  4.4094  4.4079  4.3996  4.3996  4.3908  4.3907
 highest evec of mol 1
  0.0000  0.0068 -0.0573
  0.0000  0.0024  0.0004
  0.0000 -0.0001 -0.0051
  0.0000 -0.0001  0.0001
  0.0000  0.0000 -0.0029
  0.0000  0.0001  0.0001
  0.0000  0.0001 -0.0051
  0.0000 -0.0024  0.0004
  0.0000 -0.0068 -0.0573
  0.0000  0.1202 -0.0664
  0.0000  0.1202  0.0664
  0.0000 -0.0068  0.0573
  0.0000 -0.0024 -0.0004
  0.0000  0.0001  0.0051
  0.0000  0.0001 -0.0001
  0.0000  0.0000  0.0029
  0.0000 -0.0001 -0.0001
  0.0000 -0.0001  0.0051
  0.0000  0.0024 -0.0004
  0.0000  0.0068  0.0573
  0.0000 -0.1202  0.0664
  0.0000 -0.1202 -0.0664
  0.0000 -0.0017  0.1769
  0.0000 -0.0005  0.0170
  0.0000  0.0000  0.0092
  0.0000  0.0005  0.0170
  0.0000  0.0017  0.1769
  0.0000 -0.3859  0.2173
  0.0000 -0.3859 -0.2173
  0.0000  0.0017 -0.1769
  0.0000  0.0005 -0.0170
  0.0000  0.0000 -0.0092
  0.0000 -0.0005 -0.0170
  0.0000 -0.0017 -0.1769
  0.0000  0.3859 -0.2173
  0.0000  0.3859  0.2173
 generating redundant internal coords
         300        3600          36
 Adding extra bonds for z output only
           6           6           6           6           6           6
           6           6           6           6           6           6
           6           6           6           6           6           6
           6           6           6           6           1           1
           1           1           1           1           1           1
           1           1           1           1           1           1
 search for int coords
   1 str   2   1   1.435
   2 str   3   2   1.386
   3 str   4   3   1.413
   4 str   5   4   1.400
   5 str   6   5   1.400
   6 str   7   6   1.413
   7 str   8   7   1.386
   8 str   9   8   1.435
   9 str  10   9   1.362
  10 str  11  10   1.432
  11 str  12  11   1.362
  12 str  13   8   1.454
  13 str  13  12   1.435
  14 str  14  13   1.386
  15 str  15   6   1.455
  16 str  15  14   1.413
  17 str  16  15   1.400
  18 str  17   4   1.455
  19 str  17  16   1.400
  20 str  18  17   1.413
  21 str  19   2   1.454
  22 str  19  18   1.386
  23 str  20  19   1.435
  24 str  21  20   1.362
  25 str  22   1   1.362
  26 str  22  21   1.432
  27 str  23   1   1.085
  28 str  24   3   1.086
  29 str  25   5   1.086
  30 str  26   7   1.086
  31 str  27   9   1.085
  32 str  28  10   1.084
  33 str  29  11   1.084
  34 str  30  12   1.085
  35 str  31  14   1.086
  36 str  32  16   1.086
  37 str  33  18   1.086
  38 str  34  20   1.085
  39 str  35  21   1.084
  40 str  36  22   1.084
 nber stretches=          40
  41 ben   1   2   3
  42 prop tor   1   2   3   4
  43 prop tor   1   2   3  24
  44 ben   1   2  19
  45 prop tor   1   2  19  18
  46 prop tor   1   2  19  20
  47 ben   1  22  21
  48 ben   1  22  36
  49 ben   2   1  22
  50 prop tor   2   1  22  21
  51 prop tor   2   1  22  36
  52 ben   2   1  23
  53 ben   2   3   4
  54 prop tor   2   3   4   5
  55 prop tor   2   3   4  17
  56 ben   2   3  24
  57 ben   2  19  18
  58 ben   2  19  20
  59 prop tor   2  19  20  21
  60 prop tor   2  19  20  34
  61 ben   3   2  19
  62 prop tor   3   2  19  18
  63 prop tor   3   2  19  20
  64 ben   3   4   5
  65 prop tor   3   4   5   6
  66 prop tor   3   4   5  25
  67 ben   3   4  17
  68 prop tor   3   4  17  16
  69 prop tor   3   4  17  18
  70 ben   4   3  24
  71 ben   4   5   6
  72 prop tor   4   5   6   7
  73 prop tor   4   5   6  15
  74 ben   4   5  25
  75 ben   4  17  16
  76 ben   4  17  18
  77 prop tor   4  17  18  19
  78 prop tor   4  17  18  33
  79 ben   5   4  17
  80 prop tor   5   4  17  16
  81 prop tor   5   4  17  18
  82 ben   5   6   7
  83 prop tor   5   6   7   8
  84 prop tor   5   6   7  26
  85 ben   5   6  15
  86 prop tor   5   6  15  14
  87 prop tor   5   6  15  16
  88 ben   6   5  25
  89 ben   6   7   8
  90 prop tor   6   7   8   9
  91 prop tor   6   7   8  13
  92 ben   6   7  26
  93 ben   6  15  14
  94 ben   6  15  16
  95 prop tor   6  15  16  17
  96 prop tor   6  15  16  32
  97 ben   7   6  15
  98 prop tor   7   6  15  14
  99 prop tor   7   6  15  16
 100 ben   7   8   9
 101 prop tor   7   8   9  10
 102 prop tor   7   8   9  27
 103 ben   7   8  13
 104 prop tor   7   8  13  12
 105 prop tor   7   8  13  14
 106 ben   8   7  26
 107 ben   8   9  10
 108 prop tor   8   9  10  11
 109 prop tor   8   9  10  28
 110 ben   8   9  27
 111 ben   8  13  12
 112 ben   8  13  14
 113 prop tor   8  13  14  15
 114 prop tor   8  13  14  31
 115 ben   9   8  13
 116 prop tor   9   8  13  12
 117 prop tor   9   8  13  14
 118 ben   9  10  11
 119 prop tor   9  10  11  12
 120 prop tor   9  10  11  29
 121 ben   9  10  28
 122 ben  10   9  27
 123 ben  10  11  12
 124 prop tor  10  11  12  13
 125 prop tor  10  11  12  30
 126 ben  10  11  29
 127 ben  11  10  28
 128 ben  11  12  13
 129 prop tor  11  12  13   8
 130 prop tor  11  12  13  14
 131 ben  11  12  30
 132 ben  12  11  29
 133 ben  12  13  14
 134 prop tor  12  13  14  15
 135 prop tor  12  13  14  31
 136 prop tor  13   8   9  10
 137 prop tor  13   8   9  27
 138 ben  13  12  30
 139 ben  13  14  15
 140 prop tor  13  14  15   6
 141 prop tor  13  14  15  16
 142 ben  13  14  31
 143 ben  14  15  16
 144 prop tor  14  15  16  17
 145 prop tor  14  15  16  32
 146 prop tor  15   6   7   8
 147 prop tor  15   6   7  26
 148 ben  15  14  31
 149 ben  15  16  17
 150 prop tor  15  16  17   4
 151 prop tor  15  16  17  18
 152 ben  15  16  32
 153 ben  16  17  18
 154 prop tor  16  17  18  19
 155 prop tor  16  17  18  33
 156 prop tor  17   4   5   6
 157 prop tor  17   4   5  25
 158 ben  17  16  32
 159 ben  17  18  19
 160 prop tor  17  18  19   2
 161 prop tor  17  18  19  20
 162 ben  17  18  33
 163 ben  18  19  20
 164 prop tor  18  19  20  21
 165 prop tor  18  19  20  34
 166 prop tor  19   2   3   4
 167 prop tor  19   2   3  24
 168 ben  19  18  33
 169 ben  19  20  21
 170 prop tor  19  20  21  22
 171 prop tor  19  20  21  35
 172 ben  19  20  34
 173 ben  20  21  22
 174 prop tor  20  21  22   1
 175 prop tor  20  21  22  36
 176 ben  20  21  35
 177 ben  21  20  34
 178 ben  21  22  36
 179 prop tor  22   1   2   3
 180 prop tor  22   1   2  19
 181 ben  22   1  23
 182 ben  22  21  35
 183 prop tor  23   1   2   3
 184 prop tor  23   1   2  19
 185 prop tor  23   1  22  21
 186 prop tor  23   1  22  36
 187 prop tor  24   3   4   5
 188 prop tor  24   3   4  17
 189 prop tor  25   5   6   7
 190 prop tor  25   5   6  15
 191 prop tor  26   7   8   9
 192 prop tor  26   7   8  13
 193 prop tor  27   9  10  11
 194 prop tor  27   9  10  28
 195 prop tor  28  10  11  12
 196 prop tor  28  10  11  29
 197 prop tor  29  11  12  13
 198 prop tor  29  11  12  30
 199 prop tor  30  12  13   8
 200 prop tor  30  12  13  14
 201 prop tor  31  14  15   6
 202 prop tor  31  14  15  16
 203 prop tor  32  16  17   4
 204 prop tor  32  16  17  18
 205 prop tor  33  18  19   2
 206 prop tor  33  18  19  20
 207 prop tor  34  20  21  22
 208 prop tor  34  20  21  35
 209 prop tor  35  21  22   1
 210 prop tor  35  21  22  36
 nber bend=              66
 nber lin bend=           0
 nber prop tor=         104
 nber impr tor=           0
 nber tot redund int=         210
 Reading file: 
 ./Benzene_Conj_4_C1S0.log                                                      
                                          
  Entering Gaussian System, Link 0=g16                                          
  
 Gaussian format, type: g94, g98, g03= F F F
  #P Geom=AllCheck Guess=TCheck SCRF=Check GenChk UB3LYP/6-311G(d,p) Fre    
 energy type= B3LYP   
 Original G94 input coords:
  6  4.921111 -1.408604  0.000000
  6  3.676486 -0.722919  0.000000
  6  2.453987 -1.407603  0.000000
  6  1.227065 -0.726681  0.000000
  6  0.000000 -1.409037  0.000000
  6 -1.227065 -0.726681  0.000000
  6 -2.453987 -1.407603  0.000000
  6 -3.676486 -0.722919  0.000000
  6 -4.921111 -1.408604  0.000000
  6 -6.102872 -0.708810  0.000000
  6 -6.102872  0.708810  0.000000
  6 -4.921111  1.408604  0.000000
  6 -3.676486  0.722919  0.000000
  6 -2.453987  1.407603  0.000000
  6 -1.227065  0.726681  0.000000
  6  0.000000  1.409037  0.000000
  6  1.227065  0.726681  0.000000
  6  2.453987  1.407603  0.000000
  6  3.676486  0.722919  0.000000
  6  4.921111  1.408604  0.000000
  6  6.102872  0.708810  0.000000
  6  6.102872 -0.708810  0.000000
  1  4.924417 -2.492600  0.000000
  1  2.456469 -2.492550  0.000000
  1  0.000000 -2.494122  0.000000
  1 -2.456469 -2.492550  0.000000
  1 -4.924417 -2.492600  0.000000
  1 -7.046737 -1.240280  0.000000
  1 -7.046737  1.240280  0.000000
  1 -4.924417  2.492600  0.000000
  1 -2.456469  2.492550  0.000000
  1  0.000000  2.494122  0.000000
  1  2.456469  2.492550  0.000000
  1  4.924417  2.492600  0.000000
  1  7.046737  1.240280  0.000000
  1  7.046737 -1.240280  0.000000
 nber atoms=          36
 Original standard coords:
  6  0.000000  4.921111  1.408604
  6  0.000000  3.676486  0.722919
  6  0.000000  2.453987  1.407603
  6  0.000000  1.227065  0.726681
  6  0.000000  0.000000  1.409037
  6  0.000000 -1.227065  0.726681
  6  0.000000 -2.453987  1.407603
  6  0.000000 -3.676486  0.722919
  6  0.000000 -4.921111  1.408604
  6  0.000000 -6.102872  0.708810
  6  0.000000 -6.102872 -0.708810
  6  0.000000 -4.921111 -1.408604
  6  0.000000 -3.676486 -0.722919
  6  0.000000 -2.453987 -1.407603
  6  0.000000 -1.227065 -0.726681
  6  0.000000  0.000000 -1.409037
  6  0.000000  1.227065 -0.726681
  6  0.000000  2.453987 -1.407603
  6  0.000000  3.676486 -0.722919
  6  0.000000  4.921111 -1.408604
  6  0.000000  6.102872 -0.708810
  6  0.000000  6.102872  0.708810
  1  0.000000  4.924417  2.492600
  1  0.000000  2.456469  2.492550
  1  0.000000  0.000000  2.494122
  1  0.000000 -2.456469  2.492550
  1  0.000000 -4.924417  2.492600
  1  0.000000 -7.046737  1.240280
  1  0.000000 -7.046737 -1.240280
  1  0.000000 -4.924417 -2.492600
  1  0.000000 -2.456469 -2.492550
  1  0.000000  0.000000 -2.494122
  1  0.000000  2.456469 -2.492550
  1  0.000000  4.924417 -2.492600
  1  0.000000  7.046737 -1.240280
  1  0.000000  7.046737  1.240280
  SCF Done:  E(UB3LYP) =  -846.764292654     A.U. after    1 cycles             
  
          23          40 "  -846.764292654"
After scan for Atom:   Atom  AN      X      Y      Z        X      Y      Z        X      Y      Z   
After scan for Atom:   Atom  AN      X      Y      Z        X      Y      Z        X      Y      Z   
After scan for Atom:   Atom  AN      X      Y      Z        X      Y      Z        X      Y      Z   
After scan for Atom:   Atom  AN      X      Y      Z        X      Y      Z        X      Y      Z   
After scan for Atom:   Atom  AN      X      Y      Z        X      Y      Z        X      Y      Z   
After scan for Atom:   Atom  AN      X      Y      Z        X      Y      Z        X      Y      Z   
After scan for Atom:   Atom  AN      X      Y      Z        X      Y      Z        X      Y      Z   
After scan for Atom:   Atom  AN      X      Y      Z        X      Y      Z        X      Y      Z   
After scan for Atom:   Atom  AN      X      Y      Z        X      Y      Z        X      Y      Z   
After scan for Atom:   Atom  AN      X      Y      Z        X      Y      Z        X      Y      Z   
After scan for Atom:   Atom  AN      X      Y      Z        X      Y      Z        X      Y      Z   
After scan for Atom:   Atom  AN      X      Y      Z        X      Y      Z        X      Y      Z   
After scan for Atom:   Atom  AN      X      Y      Z        X      Y      Z        X      Y      Z   
After scan for Atom:   Atom  AN      X      Y      Z        X      Y      Z        X      Y      Z   
After scan for Atom:   Atom  AN      X      Y      Z        X      Y      Z        X      Y      Z   
After scan for Atom:   Atom  AN      X      Y      Z        X      Y      Z        X      Y      Z   
After scan for Atom:   Atom  AN      X      Y      Z        X      Y      Z        X      Y      Z   
After scan for Atom:   Atom  AN      X      Y      Z        X      Y      Z        X      Y      Z   
After scan for Atom:   Atom  AN      X      Y      Z        X      Y      Z        X      Y      Z   
After scan for Atom:   Atom  AN      X      Y      Z        X      Y      Z        X      Y      Z   
After scan for Atom:   Atom  AN      X      Y      Z        X      Y      Z        X      Y      Z   
After scan for Atom:   Atom  AN      X      Y      Z        X      Y      Z        X      Y      Z   
After scan for Atom:   Atom  AN      X      Y      Z        X      Y      Z        X      Y      Z   
After scan for Atom:   Atom  AN      X      Y      Z        X      Y      Z        X      Y      Z   
After scan for Atom:   Atom  AN      X      Y      Z        X      Y      Z        X      Y      Z   
After scan for Atom:   Atom  AN      X      Y      Z        X      Y      Z        X      Y      Z   
After scan for Atom:   Atom  AN      X      Y      Z        X      Y      Z        X      Y      Z   
After scan for Atom:   Atom  AN      X      Y      Z        X      Y      Z        X      Y      Z   
After scan for Atom:   Atom  AN      X      Y      Z        X      Y      Z        X      Y      Z   
After scan for Atom:   Atom  AN      X      Y      Z        X      Y      Z        X      Y      Z   
After scan for Atom:   Atom  AN      X      Y      Z        X      Y      Z        X      Y      Z   
After scan for Atom:   Atom  AN      X      Y      Z        X      Y      Z        X      Y      Z   
After scan for Atom:   Atom  AN      X      Y      Z        X      Y      Z        X      Y      Z   
After scan for Atom:   Atom  AN      X      Y      Z        X      Y      Z        X      Y      Z   
 g94    frequencies=
     0.0    0.0    0.0    0.0    0.0    0.0   35.3   70.6   97.4  117.8
   149.2  185.3  238.6  242.8  262.7  282.7  357.1  363.4  385.4  445.7
   448.3  457.1  470.3  481.4  488.8  505.1  513.1  542.8  580.5  613.5
   635.4  637.4  701.3  728.0  741.2  751.9  761.6  765.7  766.4  767.5
   768.1  803.1  843.4  861.9  871.8  878.1  895.7  897.8  918.5  919.3
   923.6  935.2  943.9  952.9  994.0  994.6 1023.7 1023.8 1038.2 1039.4
  1147.0 1158.6 1176.6 1196.2 1197.5 1200.1 1214.7 1218.6 1259.4 1260.6
  1300.8 1301.4 1311.5 1324.4 1329.0 1371.1 1397.4 1410.7 1415.4 1426.5
  1426.6 1432.3 1478.4 1481.8 1505.0 1527.4 1548.8 1556.0 1567.7 1567.8
  1577.6 1617.7 1638.1 1648.2 3172.1 3174.0 3174.0 3175.7 3176.0 3177.9
  3179.1 3179.2 3182.5 3182.7 3194.4 3194.4 3204.5 3204.6
 g94    symmetries=
                                                B3     AU     B1     B1
      B2     B3     B3     AU     AG     B1     B2     B1     B3     B3
      B3     B1     B1     B3     B2     B3     AU     B2     B1     AG
      B2     AG     AU     B3     B2     B2     AG     AU     B3     B1
      B2     AG     B1     B2     AU     B3     B2     B2     B1     B1
      AU     B3     B2     B3     B1     B3     AU     B2     B2     AG
      B1     B3     B2     AG     B3     B2     B1     AG     B2     B3
      B1     B3     B3     B1     AG     B1     B2     AG     B2     AG
      B2     B3     B2     B1     AG     B2     AG     B3     B3     B2
      AG     B1     B1     B3     B1     B3     AG     B2     B1     AG
      B1     B3     B2     AG     B3     B1     B2     AG
 atomic masses:
 12.0000 12.0000 12.0000 12.0000 12.0000 12.0000 12.0000 12.0000 12.0000 12.0000
 12.0000 12.0000 12.0000 12.0000 12.0000 12.0000 12.0000 12.0000 12.0000 12.0000
 12.0000 12.0000  1.0078  1.0078  1.0078  1.0078  1.0078  1.0078  1.0078  1.0078
  1.0078  1.0078  1.0078  1.0078  1.0078  1.0078
 looking for force constants in 
 ./Benzene_Conj_4_C1S0.fchk                                                     
  
 Cartesian Force Constants                  R   N=        5886                  
  
 n3=         108        5886
 g94-fc frequencies=
    -3.0   -2.6    0.0    0.0    0.0    3.6   35.3   70.6   97.4  117.8
   149.3  185.3  238.6  242.8  262.7  282.7  357.1  363.4  385.4  445.7
   448.4  457.2  470.3  481.4  488.8  505.1  513.1  542.8  580.5  613.6
   635.4  637.4  701.4  728.0  741.2  751.9  761.6  765.8  766.5  767.5
   768.1  803.2  843.4  861.9  871.8  878.1  895.7  897.8  918.5  919.3
   923.7  935.3  943.9  953.0  994.1  994.7 1023.7 1023.8 1038.3 1039.4
  1147.1 1158.6 1176.7 1196.3 1197.5 1200.1 1214.7 1218.7 1259.4 1260.6
  1300.9 1301.4 1311.5 1324.4 1329.1 1371.1 1397.4 1410.7 1415.4 1426.6
  1426.7 1432.3 1478.5 1481.8 1505.0 1527.5 1548.8 1556.1 1567.8 1567.9
  1577.6 1617.7 1638.2 1648.2 3172.2 3174.0 3174.1 3175.7 3176.0 3177.9
  3179.2 3179.2 3182.5 3182.7 3194.4 3194.4 3204.6 3204.6
 at 99999: n3=         108
 symm operator            1 :  T  nop=           1
 symm operator            2 :  T  nop=           2
 symm operator            3 :  T  nop=           3
 symm operator            4 :  T  nop=           4
 symm operator            5 :  T  nop=           5
 symm operator            6 :  T  nop=           6
 symm operator            7 :  T  nop=           7
 The point group of the molecule is D2H
 enforcing symm op           1  jsymt=          -1          -1           1
 enforcing symm op           2  jsymt=          -1           1          -1
 enforcing symm op           3  jsymt=           1          -1          -1
 enforcing symm op           4  jsymt=          -1          -1          -1
 enforcing symm op           5  jsymt=           1           1          -1
 enforcing symm op           6  jsymt=           1          -1           1
 enforcing symm op           7  jsymt=          -1           1           1
 cartesian coord symmetries:
 Ag :   18 Au :    8 B1g:    8 B1u:   18 B2g:   10 B2u:   18 B3g:   18 B3u:   10
 Symmetry rotation matrix:
   1.00000   0.00000   0.00000
   0.00000   1.00000   0.00000
   0.00000   0.00000   1.00000

 Projecting out zero-frequency components
 generating redundant internal coords
         300        3600          36
 search for int coords
   1 str   2   1   1.421
   2 str   3   2   1.401
   3 str   4   3   1.403
   4 str   5   4   1.404
   5 str   6   5   1.404
   6 str   7   6   1.403
   7 str   8   7   1.401
   8 str   9   8   1.421
   9 str  10   9   1.373
  10 str  11  10   1.418
  11 str  12  11   1.373
  12 str  13   8   1.446
  13 str  13  12   1.421
  14 str  14  13   1.401
  15 str  15   6   1.453
  16 str  15  14   1.403
  17 str  16  15   1.404
  18 str  17   4   1.453
  19 str  17  16   1.404
  20 str  18  17   1.403
  21 str  19   2   1.446
  22 str  19  18   1.401
  23 str  20  19   1.421
  24 str  21  20   1.373
  25 str  22   1   1.373
  26 str  22  21   1.418
  27 str  23   1   1.084
  28 str  24   3   1.085
  29 str  25   5   1.085
  30 str  26   7   1.085
  31 str  27   9   1.084
  32 str  28  10   1.083
  33 str  29  11   1.083
  34 str  30  12   1.084
  35 str  31  14   1.085
  36 str  32  16   1.085
  37 str  33  18   1.085
  38 str  34  20   1.084
  39 str  35  21   1.083
  40 str  36  22   1.083
 nber stretches=          40
  41 ben   1   2   3
  42 prop tor   1   2   3   4
  43 prop tor   1   2   3  24
  44 ben   1   2  19
  45 prop tor   1   2  19  18
  46 prop tor   1   2  19  20
  47 ben   1  22  21
  48 ben   1  22  36
  49 ben   2   1  22
  50 prop tor   2   1  22  21
  51 prop tor   2   1  22  36
  52 ben   2   1  23
  53 ben   2   3   4
  54 prop tor   2   3   4   5
  55 prop tor   2   3   4  17
  56 ben   2   3  24
  57 ben   2  19  18
  58 ben   2  19  20
  59 prop tor   2  19  20  21
  60 prop tor   2  19  20  34
  61 ben   3   2  19
  62 prop tor   3   2  19  18
  63 prop tor   3   2  19  20
  64 ben   3   4   5
  65 prop tor   3   4   5   6
  66 prop tor   3   4   5  25
  67 ben   3   4  17
  68 prop tor   3   4  17  16
  69 prop tor   3   4  17  18
  70 ben   4   3  24
  71 ben   4   5   6
  72 prop tor   4   5   6   7
  73 prop tor   4   5   6  15
  74 ben   4   5  25
  75 ben   4  17  16
  76 ben   4  17  18
  77 prop tor   4  17  18  19
  78 prop tor   4  17  18  33
  79 ben   5   4  17
  80 prop tor   5   4  17  16
  81 prop tor   5   4  17  18
  82 ben   5   6   7
  83 prop tor   5   6   7   8
  84 prop tor   5   6   7  26
  85 ben   5   6  15
  86 prop tor   5   6  15  14
  87 prop tor   5   6  15  16
  88 ben   6   5  25
  89 ben   6   7   8
  90 prop tor   6   7   8   9
  91 prop tor   6   7   8  13
  92 ben   6   7  26
  93 ben   6  15  14
  94 ben   6  15  16
  95 prop tor   6  15  16  17
  96 prop tor   6  15  16  32
  97 ben   7   6  15
  98 prop tor   7   6  15  14
  99 prop tor   7   6  15  16
 100 ben   7   8   9
 101 prop tor   7   8   9  10
 102 prop tor   7   8   9  27
 103 ben   7   8  13
 104 prop tor   7   8  13  12
 105 prop tor   7   8  13  14
 106 ben   8   7  26
 107 ben   8   9  10
 108 prop tor   8   9  10  11
 109 prop tor   8   9  10  28
 110 ben   8   9  27
 111 ben   8  13  12
 112 ben   8  13  14
 113 prop tor   8  13  14  15
 114 prop tor   8  13  14  31
 115 ben   9   8  13
 116 prop tor   9   8  13  12
 117 prop tor   9   8  13  14
 118 ben   9  10  11
 119 prop tor   9  10  11  12
 120 prop tor   9  10  11  29
 121 ben   9  10  28
 122 ben  10   9  27
 123 ben  10  11  12
 124 prop tor  10  11  12  13
 125 prop tor  10  11  12  30
 126 ben  10  11  29
 127 ben  11  10  28
 128 ben  11  12  13
 129 prop tor  11  12  13   8
 130 prop tor  11  12  13  14
 131 ben  11  12  30
 132 ben  12  11  29
 133 ben  12  13  14
 134 prop tor  12  13  14  15
 135 prop tor  12  13  14  31
 136 prop tor  13   8   9  10
 137 prop tor  13   8   9  27
 138 ben  13  12  30
 139 ben  13  14  15
 140 prop tor  13  14  15   6
 141 prop tor  13  14  15  16
 142 ben  13  14  31
 143 ben  14  15  16
 144 prop tor  14  15  16  17
 145 prop tor  14  15  16  32
 146 prop tor  15   6   7   8
 147 prop tor  15   6   7  26
 148 ben  15  14  31
 149 ben  15  16  17
 150 prop tor  15  16  17   4
 151 prop tor  15  16  17  18
 152 ben  15  16  32
 153 ben  16  17  18
 154 prop tor  16  17  18  19
 155 prop tor  16  17  18  33
 156 prop tor  17   4   5   6
 157 prop tor  17   4   5  25
 158 ben  17  16  32
 159 ben  17  18  19
 160 prop tor  17  18  19   2
 161 prop tor  17  18  19  20
 162 ben  17  18  33
 163 ben  18  19  20
 164 prop tor  18  19  20  21
 165 prop tor  18  19  20  34
 166 prop tor  19   2   3   4
 167 prop tor  19   2   3  24
 168 ben  19  18  33
 169 ben  19  20  21
 170 prop tor  19  20  21  22
 171 prop tor  19  20  21  35
 172 ben  19  20  34
 173 ben  20  21  22
 174 prop tor  20  21  22   1
 175 prop tor  20  21  22  36
 176 ben  20  21  35
 177 ben  21  20  34
 178 ben  21  22  36
 179 prop tor  22   1   2   3
 180 prop tor  22   1   2  19
 181 ben  22   1  23
 182 ben  22  21  35
 183 prop tor  23   1   2   3
 184 prop tor  23   1   2  19
 185 prop tor  23   1  22  21
 186 prop tor  23   1  22  36
 187 prop tor  24   3   4   5
 188 prop tor  24   3   4  17
 189 prop tor  25   5   6   7
 190 prop tor  25   5   6  15
 191 prop tor  26   7   8   9
 192 prop tor  26   7   8  13
 193 prop tor  27   9  10  11
 194 prop tor  27   9  10  28
 195 prop tor  28  10  11  12
 196 prop tor  28  10  11  29
 197 prop tor  29  11  12  13
 198 prop tor  29  11  12  30
 199 prop tor  30  12  13   8
 200 prop tor  30  12  13  14
 201 prop tor  31  14  15   6
 202 prop tor  31  14  15  16
 203 prop tor  32  16  17   4
 204 prop tor  32  16  17  18
 205 prop tor  33  18  19   2
 206 prop tor  33  18  19  20
 207 prop tor  34  20  21  22
 208 prop tor  34  20  21  35
 209 prop tor  35  21  22   1
 210 prop tor  35  21  22  36
 nber bend=              66
 nber lin bend=           0
 nber prop tor=         104
 nber impr tor=           0
 nber tot redund int=         210
 Eigenvalues of G in red int coords
    Gval -0.00000000 -0.00000000 -0.00000000 -0.00000000 -0.00000000 -0.00000000 -0.00000000 -0.00000000
    Gval -0.00000000 -0.00000000 -0.00000000 -0.00000000 -0.00000000 -0.00000000 -0.00000000 -0.00000000
    Gval -0.00000000 -0.00000000 -0.00000000 -0.00000000 -0.00000000 -0.00000000 -0.00000000 -0.00000000
    Gval -0.00000000 -0.00000000 -0.00000000 -0.00000000 -0.00000000 -0.00000000 -0.00000000 -0.00000000
    Gval -0.00000000 -0.00000000 -0.00000000 -0.00000000 -0.00000000 -0.00000000 -0.00000000 -0.00000000
    Gval -0.00000000 -0.00000000 -0.00000000 -0.00000000 -0.00000000 -0.00000000 -0.00000000 -0.00000000
    Gval -0.00000000 -0.00000000 -0.00000000 -0.00000000 -0.00000000 -0.00000000 -0.00000000  0.00000000
    Gval  0.00000000  0.00000000  0.00000000  0.00000000  0.00000000  0.00000000  0.00000000  0.00000000
    Gval  0.00000000  0.00000000  0.00000000  0.00000000  0.00000000  0.00000000  0.00000000  0.00000000
    Gval  0.00000000  0.00000000  0.00000000  0.00000000  0.00000000  0.00000000  0.00000000  0.00000000
    Gval  0.00000000  0.00000000  0.00000000  0.00000000  0.00000000  0.00000000  0.00000000  0.00000000
    Gval  0.00000000  0.00000000  0.00000000  0.00000000  0.00000000  0.00000000  0.00000000  0.00000000
    Gval  0.00000000  0.00000000  0.00000000  0.00000000  0.00000000  0.00000000  0.00000000  0.00000000
    Gval  0.00000000  0.00000000  0.00000000  0.00000000  0.00000191  0.00000411  0.00000601  0.00001001
    Gval  0.00001575  0.00002690  0.00002839  0.00003138  0.00003285  0.00004086  0.00004292  0.00004475
    Gval  0.00004597  0.00005004  0.00005334  0.00005722  0.00006867  0.00006932  0.00007625  0.00007726
    Gval  0.00008344  0.00009894  0.00010281  0.00010980  0.00011337  0.00011705  0.00012650  0.00013715
    Gval  0.00014008  0.00014639  0.00016358  0.00016437  0.00019811  0.00021482  0.00025921  0.00026145
    Gval  0.00027650  0.00030275  0.00032621  0.00033882  0.00034448  0.00038459  0.00038815  0.00040235
    Gval  0.00041219  0.00041403  0.00041544  0.00043904  0.00047372  0.00047570  0.00059311  0.00059311
    Gval  0.00059695  0.00059696  0.00060806  0.00061145  0.00061922  0.00061988  0.00062876  0.00063466
    Gval  0.00064107  0.00065173  0.00065686  0.00065781  0.00072342  0.00073623  0.00080551  0.00081413
    Gval  0.00090995  0.00097294  0.00105308  0.00105318  0.00110900  0.00111535  0.00111611  0.00112055
    Gval  0.00112094  0.00112556  0.00112871  0.00113038  0.00116262  0.00116263  0.00117182  0.00117182
    Gval  0.00160055  0.00177643  0.00177744  0.00181257  0.00194758  0.00202591  0.00258286  0.00259794
    Gval  0.00278664  0.00286551  0.00304938  0.00313271  0.00332159  0.00335304  0.00357064  0.00359143
    Gval  0.00400927  0.00400962
  1.910857746247127E-006  1.910857746247127E-006
  4.106934348074697E-006  1.910857746247127E-006
  6.009457061837823E-006  1.910857746247127E-006
  1.001452433007895E-005  1.910857746247127E-006
  1.575372492358018E-005  1.910857746247127E-006
  2.690073729859931E-005  1.910857746247127E-006
  2.839039029744921E-005  1.910857746247127E-006
  3.137667030848229E-005  1.910857746247127E-006
  3.284920598070052E-005  1.910857746247127E-006
  4.085956482814473E-005  1.910857746247127E-006
  4.291978748789023E-005  1.910857746247127E-006
  4.475268436052805E-005  1.910857746247127E-006
  4.596679777621373E-005  1.910857746247127E-006
  5.003835952495250E-005  1.910857746247127E-006
  5.334367687800352E-005  1.910857746247127E-006
  5.721943371437174E-005  1.910857746247127E-006
  6.867191227771531E-005  1.910857746247127E-006
  6.931971339474965E-005  1.910857746247127E-006
  7.625235734784617E-005  1.910857746247127E-006
  7.726351600217303E-005  1.910857746247127E-006
  8.343745493978675E-005  1.910857746247127E-006
  9.893794431170882E-005  1.910857746247127E-006
  1.028122678113982E-004  1.910857746247127E-006
  1.097965149456435E-004  1.910857746247127E-006
  1.133653058099719E-004  1.910857746247127E-006
  1.170461853400539E-004  1.910857746247127E-006
  1.264977757646326E-004  1.910857746247127E-006
  1.371511295425108E-004  1.910857746247127E-006
  1.400787547253960E-004  1.910857746247127E-006
  1.463892139616152E-004  1.910857746247127E-006
  1.635783468915491E-004  1.910857746247127E-006
  1.643705011200659E-004  1.910857746247127E-006
  1.981098709117273E-004  1.910857746247127E-006
  2.148237178375228E-004  1.910857746247127E-006
  2.592128682934520E-004  1.910857746247127E-006
  2.614467589427980E-004  1.910857746247127E-006
  2.764962567211985E-004  1.910857746247127E-006
  3.027540315584333E-004  1.910857746247127E-006
  3.262128537896409E-004  1.910857746247127E-006
  3.388230406488591E-004  1.910857746247127E-006
  3.444777258470551E-004  1.910857746247127E-006
  3.845936598333106E-004  1.910857746247127E-006
  3.881526338805306E-004  1.910857746247127E-006
  4.023542918090304E-004  1.910857746247127E-006
  4.121861802542483E-004  1.910857746247127E-006
  4.140286338025028E-004  1.910857746247127E-006
  4.154358961046868E-004  1.910857746247127E-006
  4.390415936999082E-004  1.910857746247127E-006
  4.737155119341423E-004  1.910857746247127E-006
  4.757042782653044E-004  1.910857746247127E-006
  5.931052765531943E-004  1.910857746247127E-006
  5.931074430231659E-004  1.910857746247127E-006
  5.969459490407647E-004  1.910857746247127E-006
  5.969567615879643E-004  1.910857746247127E-006
  6.080577084224933E-004  1.910857746247127E-006
  6.114510698704178E-004  1.910857746247127E-006
  6.192209400195284E-004  1.910857746247127E-006
  6.198776039260448E-004  1.910857746247127E-006
  6.287563262352274E-004  1.910857746247127E-006
  6.346569577032882E-004  1.910857746247127E-006
  6.410696829804390E-004  1.910857746247127E-006
  6.517253111512127E-004  1.910857746247127E-006
  6.568579717678168E-004  1.910857746247127E-006
  6.578052761103734E-004  1.910857746247127E-006
  7.234244809198347E-004  1.910857746247127E-006
  7.362311935302685E-004  1.910857746247127E-006
  8.055103340503916E-004  1.910857746247127E-006
  8.141266821429251E-004  1.910857746247127E-006
  9.099546987705524E-004  1.910857746247127E-006
  9.729361657847814E-004  1.910857746247127E-006
  1.053081781051471E-003  1.910857746247127E-006
  1.053183797259817E-003  1.910857746247127E-006
  1.109002399154067E-003  1.910857746247127E-006
  1.115347852099553E-003  1.910857746247127E-006
  1.116108591757541E-003  1.910857746247127E-006
  1.120550200726967E-003  1.910857746247127E-006
  1.120940085252135E-003  1.910857746247127E-006
  1.125559795671168E-003  1.910857746247127E-006
  1.128714388181101E-003  1.910857746247127E-006
  1.130381393464620E-003  1.910857746247127E-006
  1.162620751548374E-003  1.910857746247127E-006
  1.162627455203899E-003  1.910857746247127E-006
  1.171820678197846E-003  1.910857746247127E-006
  1.171820679653720E-003  1.910857746247127E-006
  1.600554026254469E-003  1.910857746247127E-006
  1.776429716523181E-003  1.910857746247127E-006
  1.777444550330015E-003  1.910857746247127E-006
  1.812570785818562E-003  1.910857746247127E-006
  1.947583914302761E-003  1.910857746247127E-006
  2.025912122913349E-003  1.910857746247127E-006
  2.582855499292677E-003  1.910857746247127E-006
  2.597944874537635E-003  1.910857746247127E-006
  2.786640634935606E-003  1.910857746247127E-006
  2.865512958621593E-003  1.910857746247127E-006
  3.049379566492932E-003  1.910857746247127E-006
  3.132708924217967E-003  1.910857746247127E-006
  3.321591411496462E-003  1.910857746247127E-006
  3.353039497057419E-003  1.910857746247127E-006
  3.570642740192823E-003  1.910857746247127E-006
  3.591434480998418E-003  1.910857746247127E-006
  4.009266601899103E-003  1.910857746247127E-006
  4.009623260830729E-003  1.910857746247127E-006
 cut=1d-8, nber non-redundant internal coords=         102
 Check on Eigenvals of non-red overlap matrix:
  0.00000191  0.00000411  0.00000601  0.00001001  0.00001575  0.00002690  0.00002839  0.00003138
  0.00003285  0.00004086  0.00004292  0.00004475  0.00004597  0.00005004  0.00005334  0.00005722
  0.00006867  0.00006932  0.00007625  0.00007726  0.00008344  0.00009894  0.00010281  0.00010980
  0.00011337  0.00011705  0.00012650  0.00013715  0.00014008  0.00014639  0.00016358  0.00016437
  0.00019811  0.00021482  0.00025921  0.00026145  0.00027650  0.00030275  0.00032621  0.00033882
  0.00034448  0.00038459  0.00038815  0.00040235  0.00041219  0.00041403  0.00041544  0.00043904
  0.00047372  0.00047570  0.00059311  0.00059311  0.00059695  0.00059696  0.00060806  0.00061145
  0.00061922  0.00061988  0.00062876  0.00063466  0.00064107  0.00065173  0.00065686  0.00065781
  0.00072342  0.00073623  0.00080551  0.00081413  0.00090995  0.00097294  0.00105308  0.00105318
  0.00110900  0.00111535  0.00111611  0.00112055  0.00112094  0.00112556  0.00112871  0.00113038
  0.00116262  0.00116263  0.00117182  0.00117182  0.00160055  0.00177643  0.00177744  0.00181257
  0.00194758  0.00202591  0.00258286  0.00259794  0.00278664  0.00286551  0.00304938  0.00313271
  0.00332159  0.00335304  0.00357064  0.00359143  0.00400927  0.00400962
 Checking for correct frequencies
 recalc frequencies=
    -0.0   -0.0   -0.0   -0.0    0.0    0.0   35.3   70.6   97.4  117.8
   149.3  185.3  238.6  242.8  262.7  282.7  357.1  363.4  385.4  445.7
   448.4  457.2  470.3  481.4  488.8  505.1  513.1  542.8  580.5  613.6
   635.4  637.4  701.4  728.0  741.2  751.9  761.6  765.8  766.5  767.5
   768.1  803.2  843.4  861.9  871.8  878.1  895.7  897.8  918.5  919.3
   923.7  935.3  943.9  953.0  994.1  994.7 1023.7 1023.8 1038.3 1039.4
  1147.1 1158.6 1176.7 1196.3 1197.5 1200.1 1214.7 1218.7 1259.4 1260.6
  1300.9 1301.4 1311.5 1324.4 1329.1 1371.1 1397.4 1410.7 1415.4 1426.6
  1426.7 1432.3 1478.5 1481.8 1505.0 1527.5 1548.8 1556.1 1567.8 1567.9
  1577.6 1617.7 1638.2 1648.2 3172.2 3174.0 3174.1 3175.7 3176.0 3177.9
  3179.2 3179.2 3182.5 3182.7 3194.4 3194.4 3204.6 3204.6
 recalc symmetries=
     B3g    B1u    B2u    B3u    B1g    B2g    B3u    Au     B1g    B1u
     B2g    B3u    B3g    Au     Ag     B1g    B2g    B1u    B3u    B3u
     B3g    B1g    B1g    B3u    B2u    B3g    Au     B2g    B1u    Ag 
     B2u    Ag     Au     B3g    B2g    B2u    Ag     Au     B3u    B1g
     B2g    Ag     B1u    B2g    Au     B3u    B2u    B2g    B1g    B1u
     Au     B3g    B2g    B3u    B1g    B3u    Au     B2g    B2u    Ag 
     B1u    B3g    B2u    Ag     B3g    B2u    B1u    Ag     B2u    B3g
     B1u    B3g    B3g    B1u    Ag     B1u    B2u    Ag     B2u    Ag 
     B2u    B3g    B2u    B1u    Ag     B2u    Ag     B3g    B3g    B2u
     Ag     B1u    B1u    B3g    B1u    B3g    Ag     B2u    B1u    Ag 
     B1u    B3g    B2u    Ag     B3g    B1u    B2u    Ag 
 recalc freqs check OK
 Zero-point lengths:
 10.0000 10.0000 10.0000 10.0000 10.0000 10.0000 41.7024 29.5065 25.1158 22.8452
 20.2924 18.2102 16.0501 15.9094 15.2956 14.7440 13.1196 13.0055 12.6288 11.7427
 11.7081 11.5948 11.4311 11.2994 11.2134 11.0305 10.9448 10.6408 10.2893 10.0084
  9.8350  9.8192  9.3611  9.1879  9.1060  9.0408  8.9831  8.9588  8.9547  8.9484
  8.9451  8.7477  8.5362  8.4442  8.3961  8.3659  8.2835  8.2736  8.1799  8.1763
  8.1571  8.1064  8.0691  8.0308  7.8630  7.8607  7.7482  7.7480  7.6938  7.6897
  7.3199  7.2833  7.2272  7.1677  7.1640  7.1563  7.1131  7.1015  6.9857  6.9824
  6.8735  6.8720  6.8456  6.8121  6.8003  6.6951  6.6318  6.6005  6.5895  6.5637
  6.5635  6.5505  6.4475  6.4402  6.3903  6.3432  6.2993  6.2846  6.2612  6.2610
  6.2416  6.1638  6.1251  6.1065  4.4017  4.4004  4.4004  4.3992  4.3990  4.3977
  4.3968  4.3968  4.3945  4.3944  4.3863  4.3863  4.3794  4.3793
 highest evec of mol 2
  0.0000  0.0062 -0.0543
  0.0000  0.0025  0.0005
  0.0000  0.0000 -0.0026
  0.0000 -0.0002  0.0001
  0.0000  0.0000 -0.0012
  0.0000  0.0002  0.0001
  0.0000 -0.0000 -0.0026
  0.0000 -0.0025  0.0005
  0.0000 -0.0062 -0.0543
  0.0000  0.1207 -0.0689
  0.0000  0.1207  0.0689
  0.0000 -0.0062  0.0543
  0.0000 -0.0025 -0.0005
  0.0000 -0.0000  0.0026
  0.0000  0.0002 -0.0001
  0.0000  0.0000  0.0012
  0.0000 -0.0002 -0.0001
  0.0000  0.0000  0.0026
  0.0000  0.0025 -0.0005
  0.0000  0.0062  0.0543
  0.0000 -0.1207  0.0689
  0.0000 -0.1207 -0.0689
  0.0000 -0.0012  0.1675
  0.0000 -0.0004  0.0085
  0.0000  0.0000  0.0035
  0.0000  0.0004  0.0085
  0.0000  0.0012  0.1675
  0.0000 -0.3888  0.2200
  0.0000 -0.3888 -0.2200
  0.0000  0.0012 -0.1675
  0.0000  0.0004 -0.0085
  0.0000  0.0000 -0.0035
  0.0000 -0.0004 -0.0085
  0.0000 -0.0012 -0.1675
  0.0000  0.3888 -0.2200
  0.0000  0.3888  0.2200
 Enter nber and list of atoms to keep of mol #2
 keep list:          36           1           2           3           4
           5           6           7           8           9          10
          11          12          13          14          15          16
          17          18          19          20          21          22
          23          24          25          26          27          28
          29          30          31          32          33          34
          35          36
 reordering atoms
           1  -4.92111100000000     
           2  -3.67648600000000     
           3  -2.45398700000000     
           4  -1.22706500000000     
           5  0.000000000000000E+000
           6   1.22706500000000     
           7   2.45398700000000     
           8   3.67648600000000     
           9   4.92111100000000     
          10   6.10287200000000     
          11   6.10287200000000     
          12   4.92111100000000     
          13   3.67648600000000     
          14   2.45398700000000     
          15   1.22706500000000     
          16  0.000000000000000E+000
          17  -1.22706500000000     
          18  -2.45398700000000     
          19  -3.67648600000000     
          20  -4.92111100000000     
          21  -6.10287200000000     
          22  -6.10287200000000     
          23  -4.92441700000000     
          24  -2.45646900000000     
          25  0.000000000000000E+000
          26   2.45646900000000     
          27   4.92441700000000     
          28   7.04673700000000     
          29   7.04673700000000     
          30   4.92441700000000     
          31   2.45646900000000     
          32  0.000000000000000E+000
          33  -2.45646900000000     
          34  -4.92441700000000     
          35  -7.04673700000000     
          36  -7.04673700000000     
           1           1
           2           2
           3           3
           4           4
           5           5
           6           6
           7           7
           8           8
           9           9
          10          10
          11          11
          12          12
          13          13
          14          14
          15          15
          16          16
          17          17
          18          18
          19          19
          20          20
          21          21
          22          22
          23          23
          24          24
          25          25
          26          26
          27          27
          28          28
          29          29
          30          30
          31          31
          32          32
          33          33
          34          34
          35          35
          36          36
 initial cartes coords mol 1
   6   0.00000   1.40845   4.93531
   6   0.00000   0.72684   3.67279
   6   0.00000   1.40625   2.46431
   6   0.00000   0.72762   1.22455
   6   0.00000   1.40675   0.00000
   6   0.00000   0.72762  -1.22455
   6   0.00000   1.40625  -2.46431
   6   0.00000   0.72684  -3.67279
   6   0.00000   1.40845  -4.93531
   6   0.00000   0.71589  -6.10776
   6   0.00000  -0.71589  -6.10776
   6   0.00000  -1.40845  -4.93531
   6   0.00000  -0.72684  -3.67279
   6   0.00000  -1.40625  -2.46431
   6   0.00000  -0.72762  -1.22455
   6   0.00000  -1.40675   0.00000
   6   0.00000  -0.72762   1.22455
   6   0.00000  -1.40625   2.46431
   6   0.00000  -0.72684   3.67279
   6   0.00000  -1.40845   4.93531
   6   0.00000  -0.71589   6.10776
   6   0.00000   0.71589   6.10776
   1   0.00000   2.49375   4.93528
   1   0.00000   2.49188   2.46493
   1   0.00000   2.49232   0.00000
   1   0.00000   2.49188  -2.46493
   1   0.00000   2.49375  -4.93528
   1   0.00000   1.24543  -7.05367
   1   0.00000  -1.24543  -7.05367
   1   0.00000  -2.49375  -4.93528
   1   0.00000  -2.49188  -2.46493
   1   0.00000  -2.49232   0.00000
   1   0.00000  -2.49188   2.46493
   1   0.00000  -2.49375   4.93528
   1   0.00000  -1.24543   7.05367
   1   0.00000   1.24543   7.05367
 initial cartes coords mol 2
   6   0.00000   1.40860  -4.92111
   6   0.00000   0.72292  -3.67649
   6   0.00000   1.40760  -2.45399
   6   0.00000   0.72668  -1.22707
   6   0.00000   1.40904   0.00000
   6   0.00000   0.72668   1.22707
   6   0.00000   1.40760   2.45399
   6   0.00000   0.72292   3.67649
   6   0.00000   1.40860   4.92111
   6   0.00000   0.70881   6.10287
   6   0.00000  -0.70881   6.10287
   6   0.00000  -1.40860   4.92111
   6   0.00000  -0.72292   3.67649
   6   0.00000  -1.40760   2.45399
   6   0.00000  -0.72668   1.22707
   6   0.00000  -1.40904   0.00000
   6   0.00000  -0.72668  -1.22707
   6   0.00000  -1.40760  -2.45399
   6   0.00000  -0.72292  -3.67649
   6   0.00000  -1.40860  -4.92111
   6   0.00000  -0.70881  -6.10287
   6   0.00000   0.70881  -6.10287
   1   0.00000   2.49260  -4.92442
   1   0.00000   2.49255  -2.45647
   1   0.00000   2.49412   0.00000
   1   0.00000   2.49255   2.45647
   1   0.00000   2.49260   4.92442
   1   0.00000   1.24028   7.04674
   1   0.00000  -1.24028   7.04674
   1   0.00000  -2.49260   4.92442
   1   0.00000  -2.49255   2.45647
   1   0.00000  -2.49412   0.00000
   1   0.00000  -2.49255  -2.45647
   1   0.00000  -2.49260  -4.92442
   1   0.00000  -1.24028  -7.04674
   1   0.00000   1.24028  -7.04674
 loop 1 0
 mod cartes coords mol 2
   6   0.00000   1.40860  -4.92111
   6   0.00000   0.72292  -3.67649
   6   0.00000   1.40760  -2.45399
   6   0.00000   0.72668  -1.22707
   6   0.00000   1.40904   0.00000
   6   0.00000   0.72668   1.22707
   6   0.00000   1.40760   2.45399
   6   0.00000   0.72292   3.67649
   6   0.00000   1.40860   4.92111
   6   0.00000   0.70881   6.10287
   6   0.00000  -0.70881   6.10287
   6   0.00000  -1.40860   4.92111
   6   0.00000  -0.72292   3.67649
   6   0.00000  -1.40760   2.45399
   6   0.00000  -0.72668   1.22707
   6   0.00000  -1.40904   0.00000
   6   0.00000  -0.72668  -1.22707
   6   0.00000  -1.40760  -2.45399
   6   0.00000  -0.72292  -3.67649
   6   0.00000  -1.40860  -4.92111
   6   0.00000  -0.70881  -6.10287
   6   0.00000   0.70881  -6.10287
   1   0.00000   2.49260  -4.92442
   1   0.00000   2.49255  -2.45647
   1   0.00000   2.49412   0.00000
   1   0.00000   2.49255   2.45647
   1   0.00000   2.49260   4.92442
   1   0.00000   1.24028   7.04674
   1   0.00000  -1.24028   7.04674
   1   0.00000  -2.49260   4.92442
   1   0.00000  -2.49255   2.45647
   1   0.00000  -2.49412   0.00000
   1   0.00000  -2.49255  -2.45647
   1   0.00000  -2.49260  -4.92442
   1   0.00000  -1.24028  -7.04674
   1   0.00000   1.24028  -7.04674
 read in order, maxerr= 14.10 for atom  28
 loop 1 1
 mod cartes coords mol 2
   6   0.00000   1.40860  -4.92111
   6   0.00000   0.72292  -3.67649
   6   0.00000   1.40760  -2.45399
   6   0.00000   0.72668  -1.22707
   6   0.00000   1.40904   0.00000
   6   0.00000   0.72668   1.22707
   6   0.00000   1.40760   2.45399
   6   0.00000   0.72292   3.67649
   6   0.00000   1.40860   4.92111
   6   0.00000   0.70881   6.10287
   6   0.00000  -0.70881   6.10287
   6   0.00000  -1.40860   4.92111
   6   0.00000  -0.72292   3.67649
   6   0.00000  -1.40760   2.45399
   6   0.00000  -0.72668   1.22707
   6   0.00000  -1.40904   0.00000
   6   0.00000  -0.72668  -1.22707
   6   0.00000  -1.40760  -2.45399
   6   0.00000  -0.72292  -3.67649
   6   0.00000  -1.40860  -4.92111
   6   0.00000  -0.70881  -6.10287
   6   0.00000   0.70881  -6.10287
   1   0.00000   2.49260  -4.92442
   1   0.00000   2.49255  -2.45647
   1   0.00000   2.49412   0.00000
   1   0.00000   2.49255   2.45647
   1   0.00000   2.49260   4.92442
   1   0.00000   1.24028   7.04674
   1   0.00000  -1.24028   7.04674
   1   0.00000  -2.49260   4.92442
   1   0.00000  -2.49255   2.45647
   1   0.00000  -2.49412   0.00000
   1   0.00000  -2.49255  -2.45647
   1   0.00000  -2.49260  -4.92442
   1   0.00000  -1.24028  -7.04674
   1   0.00000   1.24028  -7.04674
 read in order, maxerr= 14.10 for atom  28
 loop 1 2
 mod cartes coords mol 2
   6   0.00000  -1.40860  -4.92111
   6   0.00000  -0.72292  -3.67649
   6   0.00000  -1.40760  -2.45399
   6   0.00000  -0.72668  -1.22707
   6   0.00000  -1.40904   0.00000
   6   0.00000  -0.72668   1.22707
   6   0.00000  -1.40760   2.45399
   6   0.00000  -0.72292   3.67649
   6   0.00000  -1.40860   4.92111
   6   0.00000  -0.70881   6.10287
   6   0.00000   0.70881   6.10287
   6   0.00000   1.40860   4.92111
   6   0.00000   0.72292   3.67649
   6   0.00000   1.40760   2.45399
   6   0.00000   0.72668   1.22707
   6   0.00000   1.40904   0.00000
   6   0.00000   0.72668  -1.22707
   6   0.00000   1.40760  -2.45399
   6   0.00000   0.72292  -3.67649
   6   0.00000   1.40860  -4.92111
   6   0.00000   0.70881  -6.10287
   6   0.00000  -0.70881  -6.10287
   1   0.00000  -2.49260  -4.92442
   1   0.00000  -2.49255  -2.45647
   1   0.00000  -2.49412   0.00000
   1   0.00000  -2.49255   2.45647
   1   0.00000  -2.49260   4.92442
   1   0.00000  -1.24028   7.04674
   1   0.00000   1.24028   7.04674
   1   0.00000   2.49260   4.92442
   1   0.00000   2.49255   2.45647
   1   0.00000   2.49412   0.00000
   1   0.00000   2.49255  -2.45647
   1   0.00000   2.49260  -4.92442
   1   0.00000   1.24028  -7.04674
   1   0.00000  -1.24028  -7.04674
 read in order, maxerr= 14.32 for atom  28
 loop 1 3
 mod cartes coords mol 2
   6   0.00000  -1.40860  -4.92111
   6   0.00000  -0.72292  -3.67649
   6   0.00000  -1.40760  -2.45399
   6   0.00000  -0.72668  -1.22707
   6   0.00000  -1.40904   0.00000
   6   0.00000  -0.72668   1.22707
   6   0.00000  -1.40760   2.45399
   6   0.00000  -0.72292   3.67649
   6   0.00000  -1.40860   4.92111
   6   0.00000  -0.70881   6.10287
   6   0.00000   0.70881   6.10287
   6   0.00000   1.40860   4.92111
   6   0.00000   0.72292   3.67649
   6   0.00000   1.40760   2.45399
   6   0.00000   0.72668   1.22707
   6   0.00000   1.40904   0.00000
   6   0.00000   0.72668  -1.22707
   6   0.00000   1.40760  -2.45399
   6   0.00000   0.72292  -3.67649
   6   0.00000   1.40860  -4.92111
   6   0.00000   0.70881  -6.10287
   6   0.00000  -0.70881  -6.10287
   1   0.00000  -2.49260  -4.92442
   1   0.00000  -2.49255  -2.45647
   1   0.00000  -2.49412   0.00000
   1   0.00000  -2.49255   2.45647
   1   0.00000  -2.49260   4.92442
   1   0.00000  -1.24028   7.04674
   1   0.00000   1.24028   7.04674
   1   0.00000   2.49260   4.92442
   1   0.00000   2.49255   2.45647
   1   0.00000   2.49412   0.00000
   1   0.00000   2.49255  -2.45647
   1   0.00000   2.49260  -4.92442
   1   0.00000   1.24028  -7.04674
   1   0.00000  -1.24028  -7.04674
 read in order, maxerr= 14.32 for atom  28
 loop 1 4
 mod cartes coords mol 2
   6   0.00000   1.40860   4.92111
   6   0.00000   0.72292   3.67649
   6   0.00000   1.40760   2.45399
   6   0.00000   0.72668   1.22707
   6   0.00000   1.40904   0.00000
   6   0.00000   0.72668  -1.22707
   6   0.00000   1.40760  -2.45399
   6   0.00000   0.72292  -3.67649
   6   0.00000   1.40860  -4.92111
   6   0.00000   0.70881  -6.10287
   6   0.00000  -0.70881  -6.10287
   6   0.00000  -1.40860  -4.92111
   6   0.00000  -0.72292  -3.67649
   6   0.00000  -1.40760  -2.45399
   6   0.00000  -0.72668  -1.22707
   6   0.00000  -1.40904   0.00000
   6   0.00000  -0.72668   1.22707
   6   0.00000  -1.40760   2.45399
   6   0.00000  -0.72292   3.67649
   6   0.00000  -1.40860   4.92111
   6   0.00000  -0.70881   6.10287
   6   0.00000   0.70881   6.10287
   1   0.00000   2.49260   4.92442
   1   0.00000   2.49255   2.45647
   1   0.00000   2.49412   0.00000
   1   0.00000   2.49255  -2.45647
   1   0.00000   2.49260  -4.92442
   1   0.00000   1.24028  -7.04674
   1   0.00000  -1.24028  -7.04674
   1   0.00000  -2.49260  -4.92442
   1   0.00000  -2.49255  -2.45647
   1   0.00000  -2.49412   0.00000
   1   0.00000  -2.49255   2.45647
   1   0.00000  -2.49260   4.92442
   1   0.00000  -1.24028   7.04674
   1   0.00000   1.24028   7.04674
 read in order, maxerr=  0.01 for atom   1
 final axis swaps:           1           1          -1
 final xyz swap pattern=           1
 reorder list:
   1   2   3   4   5   6   7   8   9  10  11  12  13  14  15  16  17  18  19  20
  21  22  23  24  25  26  27  28  29  30  31  32  33  34  35  36
 axis signs=           1           1          -1
  6     0.000000  1.408604  4.921111     0.000000  1.408448  4.935313
  6     0.000000  0.722919  3.676486     0.000000  0.726839  3.672792
  6     0.000000  1.407603  2.453987     0.000000  1.406247  2.464310
  6     0.000000  0.726681  1.227065     0.000000  0.727625  1.224548
  6     0.000000  1.409037  0.000000     0.000000  1.406748  0.000000
  6     0.000000  0.726681 -1.227065     0.000000  0.727625 -1.224548
  6     0.000000  1.407603 -2.453987     0.000000  1.406247 -2.464310
  6     0.000000  0.722919 -3.676486     0.000000  0.726839 -3.672792
  6     0.000000  1.408604 -4.921111     0.000000  1.408448 -4.935313
  6     0.000000  0.708810 -6.102872     0.000000  0.715894 -6.107765
  6     0.000000 -0.708810 -6.102872     0.000000 -0.715894 -6.107765
  6     0.000000 -1.408604 -4.921111     0.000000 -1.408448 -4.935313
  6     0.000000 -0.722919 -3.676486     0.000000 -0.726839 -3.672792
  6     0.000000 -1.407603 -2.453987     0.000000 -1.406247 -2.464310
  6     0.000000 -0.726681 -1.227065     0.000000 -0.727625 -1.224548
  6     0.000000 -1.409037  0.000000     0.000000 -1.406748  0.000000
  6     0.000000 -0.726681  1.227065     0.000000 -0.727625  1.224548
  6     0.000000 -1.407603  2.453987     0.000000 -1.406247  2.464310
  6     0.000000 -0.722919  3.676486     0.000000 -0.726839  3.672792
  6     0.000000 -1.408604  4.921111     0.000000 -1.408448  4.935313
  6     0.000000 -0.708810  6.102872     0.000000 -0.715894  6.107765
  6     0.000000  0.708810  6.102872     0.000000  0.715894  6.107765
  1     0.000000  2.492600  4.924417     0.000000  2.493748  4.935281
  1     0.000000  2.492550  2.456469     0.000000  2.491878  2.464929
  1     0.000000  2.494122  0.000000     0.000000  2.492321  0.000000
  1     0.000000  2.492550 -2.456469     0.000000  2.491878 -2.464929
  1     0.000000  2.492600 -4.924417     0.000000  2.493748 -4.935281
  1     0.000000  1.240280 -7.046737     0.000000  1.245430 -7.053673
  1     0.000000 -1.240280 -7.046737     0.000000 -1.245430 -7.053673
  1     0.000000 -2.492600 -4.924417     0.000000 -2.493748 -4.935281
  1     0.000000 -2.492550 -2.456469     0.000000 -2.491878 -2.464929
  1     0.000000 -2.494122  0.000000     0.000000 -2.492321  0.000000
  1     0.000000 -2.492550  2.456469     0.000000 -2.491878  2.464929
  1     0.000000 -2.492600  4.924417     0.000000 -2.493748  4.935281
  1     0.000000 -1.240280  7.046737     0.000000 -1.245430  7.053673
  1     0.000000  1.240280  7.046737     0.000000  1.245430  7.053673
 generating redundant internal coords
         300        3600          36
 Adding extra bonds for z output only
           6           6           6           6           6           6
           6           6           6           6           6           6
           6           6           6           6           6           6
           6           6           6           6           1           1
           1           1           1           1           1           1
           1           1           1           1           1           1
 search for int coords
   1 str   2   1   1.421
[...]
  61 B2u  1134.  0.9443    89.2    99.9  63 B2u  1177.
  62 B1u  1144.  0.9916    98.3   100.1  61 B1u  1147.
  63 B3g  1158.  0.9923    98.5   100.1  62 B3g  1159.
  64 Ag   1185. -0.9921    98.4   100.2  64 Ag   1196.
  65 B2u  1188. -0.9624    92.6   100.2  66 B2u  1200.
  66 B3g  1200.  0.9873    97.5   100.0  65 B3g  1197.
  67 Ag   1207.  0.9930    98.6   100.1  68 Ag   1219.
  68 B1u  1210. -0.9877    97.6   100.0  67 B1u  1215.
  69 B3g  1242. -0.9873    97.5   100.2  70 B3g  1261.
  70 B2u  1251. -0.9764    95.3   100.1  69 B2u  1259.
  71 B1u  1294. -0.9761    95.3   100.1  71 B1u  1301.
  72 B3g  1295.  0.9200    84.6   100.1  72 B3g  1301.
                 0.3747    14.0          73 B3g  1311.
  73 B3g  1312. -0.3603    13.0   100.0  72 B3g  1301.
                 0.9197    84.6          73 B3g  1311.
  74 B1u  1319. -0.9841    96.8   100.0  74 B1u  1324.
  75 Ag   1334. -0.9648    93.1   100.0  75 Ag   1329.
  76 B2u  1359. -0.7817    61.1   100.3  79 B2u  1415.
                -0.5121    26.2          81 B2u  1427.
  77 B1u  1376. -0.9805    96.1   100.0  76 B1u  1371.
  78 Ag   1410. -0.9477    89.8   100.1  80 Ag   1427.
  79 B2u  1416. -0.4601    21.2   100.2  77 B2u  1397.
                -0.3198    10.2          79 B2u  1415.
                 0.7893    62.3          81 B2u  1427.
  80 B3g  1419.  0.9964    99.3   100.0  82 B3g  1432.
  81 B2u  1427.  0.7516    56.5    99.8  77 B2u  1397.
                -0.4303    18.5          79 B2u  1415.
                 0.3456    11.9          83 B2u  1478.
  82 Ag   1434.  0.9218    85.0    99.8  78 Ag   1411.
  83 B2u  1478.  0.8933    79.8   100.0  83 B2u  1478.
  84 B1u  1478.  0.9853    97.1   100.2  84 B1u  1482.
  85 Ag   1493. -0.9516    90.6    99.9  85 Ag   1505.
  86 B2u  1542. -0.8876    78.8   100.0  86 B2u  1527.
  87 Ag   1557. -0.9054    82.0   100.4  87 Ag   1549.
                -0.4013    16.1          91 Ag   1578.
  88 Ag   1577.  0.3432    11.8   100.1  87 Ag   1549.
                -0.8800    77.4          91 Ag   1578.
  89 B2u  1579.  0.3320    11.0   100.2  86 B2u  1527.
                 0.8871    78.7          90 B2u  1568.
  90 B3g  1594.  0.9953    99.1   100.2  89 B3g  1568.
  91 B3g  1633.  0.9899    98.0   100.0  88 B3g  1556.
  92 B1u  1642. -0.9372    87.8   100.1  92 B1u  1618.
                -0.3281    10.8          93 B1u  1638.
  93 B3g  1673.  0.9934    98.7   100.2  94 B3g  1648.
  94 B1u  1674.  0.3261    10.6   100.2  92 B1u  1618.
                -0.9400    88.4          93 B1u  1638.
  95 B1u  3154. -0.9085    82.5   100.0  95 B1u  3172.
                -0.3371    11.4         101 B1u  3179.
  96 B3g  3155. -0.7950    63.2   100.0  96 B3g  3174.
                -0.6066    36.8         102 B3g  3179.
  97 Ag   3156. -0.9698    94.0   100.0  97 Ag   3174.
  98 B1u  3156. -0.4149    17.2   100.0  95 B1u  3172.
                -0.4367    19.1          99 B1u  3176.
                 0.7981    63.7         101 B1u  3179.
  99 B2u  3157.  0.9202    84.7   100.0  98 B2u  3176.
                -0.3913    15.3         103 B2u  3182.
 100 B3g  3158. -0.6065    36.8   100.0  96 B3g  3174.
                 0.7948    63.2         102 B3g  3179.
 101 Ag   3159. -0.6607    43.7   100.0 100 Ag   3178.
                 0.7098    50.4         104 Ag   3183.
 102 B1u  3160.  0.8649    74.8   100.0  99 B1u  3176.
                 0.4990    24.9         101 B1u  3179.
 103 B2u  3161.  0.3913    15.3   100.0  98 B2u  3176.
                 0.9200    84.6         103 B2u  3182.
 104 Ag   3163.  0.7312    53.5   100.0 100 Ag   3178.
                 0.6816    46.5         104 Ag   3183.
 105 B3g  3175.  0.9998   100.0   100.0 105 B3g  3194.
 106 B1u  3175.  0.9997    99.9   100.0 106 B1u  3194.
 107 B2u  3188.  0.9998   100.0   100.0 107 B2u  3205.
 108 Ag   3188.  0.9996    99.9   100.0 108 Ag   3205.
 nber times 1st assigned=           1           0
 nber times 1st assigned=           2           0
 nber times 1st assigned=           3           0
 nber times 1st assigned=           4           0
 nber times 1st assigned=           5           0
 nber times 1st assigned=           6           0
 nber times 1st assigned=           7           0
 nber times 1st assigned=           8           0
 nber times 1st assigned=           9           0
 nber times 1st assigned=          10           0
 nber times 1st assigned=          11           0
 nber times 1st assigned=          12           0
 nber times 1st assigned=          13           0
 nber times 1st assigned=          14           0
 nber times 1st assigned=          15           0
 nber times 1st assigned=          16           0
 nber times 1st assigned=          17           0
 nber times 1st assigned=          18           0
 nber times 1st assigned=          19           0
 nber times 1st assigned=          20           0
 nber times 1st assigned=          21           0
 nber times 1st assigned=          22           0
 nber times 1st assigned=          23           0
 nber times 1st assigned=          24           0
 nber times 1st assigned=          25           0
 nber times 1st assigned=          26           0
 nber times 1st assigned=          27           0
 nber times 1st assigned=          28           0
 nber times 1st assigned=          29           0
 nber times 1st assigned=          30           0
 nber times 1st assigned=          31           0
 nber times 1st assigned=          32           0
 nber times 1st assigned=          33           0
 nber times 1st assigned=          34           0
 nber times 1st assigned=          35           0
 nber times 1st assigned=          36           0
 nber times 1st assigned=          37           0
 nber times 1st assigned=          38           0
 nber times 1st assigned=          39           0
 nber times 1st assigned=          40           0
 nber times 1st assigned=          41           0
 nber times 1st assigned=          42           0
 nber times 1st assigned=          43           0
 nber times 1st assigned=          44           0
 nber times 1st assigned=          45           0
 nber times 1st assigned=          46           0
 nber times 1st assigned=          47           0
 nber times 1st assigned=          48           0
 nber times 1st assigned=          49           0
 nber times 1st assigned=          50           0
 nber times 1st assigned=          51           0
 nber times 1st assigned=          52           0
 nber times 1st assigned=          53           0
 nber times 1st assigned=          54           0
 nber times 1st assigned=          55           0
 nber times 1st assigned=          56           0
 nber times 1st assigned=          57           0
 nber times 1st assigned=          58           0
 nber times 1st assigned=          59           0
 nber times 1st assigned=          60           0
 nber times 1st assigned=          61           0
 nber times 1st assigned=          62           0
 nber times 1st assigned=          63           0
 nber times 1st assigned=          64           0
 nber times 1st assigned=          65           0
 nber times 1st assigned=          66           0
 nber times 1st assigned=          67           0
 nber times 1st assigned=          68           0
 nber times 1st assigned=          69           0
 nber times 1st assigned=          70           0
 nber times 1st assigned=          71           0
 nber times 1st assigned=          72           0
 nber times 1st assigned=          73           0
 nber times 1st assigned=          74           0
 nber times 1st assigned=          75           0
 nber times 1st assigned=          76           0
 nber times 1st assigned=          77           0
 nber times 1st assigned=          78           0
 nber times 1st assigned=          79           0
 nber times 1st assigned=          80           0
 nber times 1st assigned=          81           0
 nber times 1st assigned=          82           0
 nber times 1st assigned=          83           0
 nber times 1st assigned=          84           0
 nber times 1st assigned=          85           0
 nber times 1st assigned=          86           0
 nber times 1st assigned=          87           0
 nber times 1st assigned=          88           0
 nber times 1st assigned=          89           0
 nber times 1st assigned=          90           0
 nber times 1st assigned=          91           0
 nber times 1st assigned=          92           0
 nber times 1st assigned=          93           0
 nber times 1st assigned=          94           0
 nber times 1st assigned=          95           0
 nber times 1st assigned=          96           0
 nber times 1st assigned=          97           0
 nber times 1st assigned=          98           0
 nber times 1st assigned=          99           0
 nber times 1st assigned=         100           0
 nber times 1st assigned=         101           0
 nber times 1st assigned=         102           0
 nber times 1st assigned=         103           0
 nber times 1st assigned=         104           0
 nber times 1st assigned=         105           0
 nber times 1st assigned=         106           0
 nber times 1st assigned=         107           0
 nber times 1st assigned=         108           0
 modes represented=   102.049881248917     
 p1=
    0.    0.    0.    0.    0.    0.   -0.    0.    0.    0.    0.   -0.   -0.    0.   -4.   -0.   -0.    0.    0.    0.
   -0.    0.   -0.   -0.    0.   -0.   -0.   -0.   -0.   -0.    0.   -0.   -0.    0.    0.    0.    0.   -0.   -1.    0.
    0.   -1.   -0.   -0.   -0.    0.    0.   -0.    0.   -0.   -0.    0.   -0.    0.    0.    0.    0.    0.   -0.   -1.
    0.    0.   -0.   -1.    0.    0.    2.   -0.    0.    0.    0.    0.   -0.    0.    0.   -0.   -0.   -3.   -0.   -0.
    0.   -1.   -0.   -0.    0.    0.   -3.   -1.   -0.    0.   -0.    0.    0.    0.    0.   -0.    0.    0.   -0.   -0.
    0.    0.    0.    0.    0.    0.   -0.   -0.
 p2=
   -0.    0.   -0.   -0.    0.   -0.    0.    0.   -0.    0.    0.    0.   -0.   -0.    4.    0.   -0.    0.    0.   -0.
   -0.   -0.   -0.    0.    0.    0.    0.    0.   -0.   -0.    0.    0.   -0.   -0.    0.   -0.    0.   -0.   -0.    0.
   -0.    1.    0.   -0.    0.    0.   -0.    0.   -0.   -0.    0.    0.   -0.   -0.   -0.   -0.    0.   -0.   -0.    1.
    0.   -0.   -0.   -2.   -0.    0.   -0.   -2.    0.   -0.    0.   -0.   -0.    0.    1.   -0.    0.    1.   -0.   -3.
    0.    0.    0.    0.   -0.    0.   -2.   -0.    0.   -0.   -2.    0.    0.   -0.    0.    0.    0.    0.    0.   -0.
   -0.   -0.    0.   -0.    0.   -0.   -0.    0.

 Displacement: in terms of nc of 1 THEN of nc of 2

   1 B3g freq=    -0. Q=  0.000 lam=    -0.0 B3g freq=    -0. Q=  0.000 lam=    -0.0
   2 B1u freq=    -0. Q=  0.000 lam=    -0.0 B1u freq=    -0. Q=  0.000 lam=    -0.0
   3 B2g freq=    -0. Q=  0.000 lam=    -0.0 B2u freq=    -0. Q=  0.000 lam=    -0.0
   4 B1g freq=     0. Q=  0.000 lam=     0.0 B3u freq=    -0. Q=  0.000 lam=    -0.0
   5 B3u freq=     0. Q=  0.000 lam=     0.0 B1g freq=     0. Q=  0.000 lam=     0.0
   6 B2u freq=     0. Q=  0.000 lam=     0.0 B2g freq=     0. Q=  0.000 lam=     0.0
   7 B3u freq=    36. Q= -0.000 lam=     0.0 B3u freq=    35. Q= -0.000 lam=     0.0
   8 Au  freq=    71. Q=  0.000 lam=     0.0 Au  freq=    71. Q=  0.000 lam=     0.0
   9 B1g freq=   101. Q=  0.000 lam=     0.0 B1g freq=    97. Q=  0.000 lam=     0.0
  10 B1u freq=   119. Q=  0.000 lam=     0.0 B1u freq=   118. Q=  0.000 lam=     0.0
  11 B2g freq=   149. Q=  0.000 lam=     0.0 B2g freq=   149. Q=  0.000 lam=     0.0
  12 B3u freq=   192. Q= -0.000 lam=     0.0 B3u freq=   185. Q= -0.000 lam=     0.0
  13 B3g freq=   238. Q= -0.000 lam=     0.0 B3g freq=   239. Q= -0.000 lam=     0.0
  14 Au  freq=   240. Q=  0.000 lam=     0.0 Au  freq=   243. Q=  0.000 lam=     0.0
  15 Ag  freq=   264. Q= -0.252 lam=     8.3 Ag  freq=   263. Q= -0.248 lam=     8.1
  16 B1g freq=   293. Q= -0.000 lam=     0.0 B1g freq=   283. Q= -0.000 lam=     0.0
  17 B2g freq=   349. Q= -0.000 lam=     0.0 B2g freq=   357. Q= -0.000 lam=     0.0
  18 B1u freq=   362. Q=  0.000 lam=     0.0 B1u freq=   363. Q=  0.000 lam=     0.0
  19 B3u freq=   379. Q=  0.000 lam=     0.0 B3u freq=   385. Q=  0.000 lam=     0.0
  20 B3g freq=   454. Q=  0.000 lam=     0.0 B3u freq=   446. Q=  0.000 lam=     0.0
  21 B3u freq=   469. Q= -0.000 lam=     0.0 B3g freq=   448. Q= -0.000 lam=     0.0
  22 B1g freq=   471. Q=  0.000 lam=     0.0 B1g freq=   457. Q=  0.000 lam=     0.0
  23 B3u freq=   477. Q= -0.000 lam=     0.0 B1g freq=   470. Q= -0.000 lam=     0.0
  24 B1g freq=   478. Q= -0.000 lam=     0.0 B3u freq=   481. Q= -0.000 lam=     0.0
  25 B2u freq=   491. Q=  0.000 lam=     0.0 B2u freq=   489. Q=  0.000 lam=     0.0
  26 B3g freq=   513. Q= -0.000 lam=     0.0 B3g freq=   505. Q= -0.000 lam=     0.0
  27 Au  freq=   526. Q= -0.000 lam=     0.0 Au  freq=   513. Q= -0.000 lam=     0.0
  28 B2g freq=   554. Q= -0.000 lam=     0.0 B2g freq=   543. Q= -0.000 lam=     0.0
  29 B1u freq=   579. Q= -0.000 lam=     0.0 B1u freq=   581. Q= -0.000 lam=     0.0
  30 Ag  freq=   616. Q= -0.008 lam=     0.0 Ag  freq=   614. Q= -0.007 lam=     0.0
  31 B2u freq=   639. Q=  0.000 lam=     0.0 B2u freq=   635. Q=  0.000 lam=     0.0
  32 Ag  freq=   647. Q= -0.001 lam=     0.0 Ag  freq=   637. Q= -0.001 lam=     0.0
  33 Au  freq=   716. Q= -0.000 lam=     0.0 Au  freq=   701. Q= -0.000 lam=     0.0
  34 B3g freq=   725. Q=  0.000 lam=     0.0 B3g freq=   728. Q=  0.000 lam=     0.0
  35 B2u freq=   744. Q=  0.000 lam=     0.0 B2g freq=   741. Q=  0.000 lam=     0.0
  36 B3u freq=   746. Q=  0.000 lam=     0.0 B2u freq=   752. Q=  0.000 lam=     0.0
  37 B1g freq=   752. Q=  0.000 lam=     0.0 Ag  freq=   762. Q=  0.045 lam=     0.8
  38 B2g freq=   752. Q= -0.000 lam=     0.0 Au  freq=   766. Q= -0.000 lam=     0.0
  39 Ag  freq=   762. Q= -0.057 lam=     1.2 B3u freq=   766. Q= -0.000 lam=     0.0
  40 Au  freq=   771. Q=  0.000 lam=     0.0 B1g freq=   768. Q=  0.000 lam=     0.0
  41 B2g freq=   774. Q=  0.000 lam=     0.0 B2g freq=   768. Q=  0.000 lam=     0.0
  42 Ag  freq=   795. Q= -0.084 lam=     2.8 Ag  freq=   803. Q= -0.072 lam=     2.1
  43 B1u freq=   837. Q= -0.000 lam=     0.0 B1u freq=   843. Q= -0.000 lam=     0.0
  44 B3u freq=   840. Q= -0.000 lam=     0.0 B2g freq=   862. Q= -0.000 lam=     0.0
  45 B2g freq=   840. Q= -0.000 lam=     0.0 Au  freq=   872. Q= -0.000 lam=     0.0
  46 Au  freq=   847. Q=  0.000 lam=     0.0 B3u freq=   878. Q=  0.000 lam=     0.0
  47 B2g freq=   874. Q=  0.000 lam=     0.0 B2u freq=   896. Q=  0.000 lam=     0.0
  48 B1g freq=   887. Q= -0.000 lam=     0.0 B2g freq=   898. Q= -0.000 lam=     0.0
  49 B2u freq=   889. Q=  0.000 lam=     0.0 B1g freq=   919. Q=  0.000 lam=     0.0
  50 Au  freq=   900. Q= -0.000 lam=     0.0 B1u freq=   919. Q= -0.000 lam=     0.0
  51 B2g freq=   915. Q= -0.000 lam=     0.0 Au  freq=   924. Q= -0.000 lam=     0.0
  52 B3u freq=   921. Q=  0.000 lam=     0.0 B3g freq=   935. Q=  0.000 lam=     0.0
  53 B1u freq=   922. Q= -0.000 lam=     0.0 B2g freq=   944. Q= -0.000 lam=     0.0
  54 B3g freq=   936. Q=  0.000 lam=     0.0 B3u freq=   953. Q=  0.000 lam=     0.0
  55 B1g freq=   973. Q=  0.000 lam=     0.0 B1g freq=   994. Q=  0.000 lam=     0.0
  56 B3u freq=   973. Q=  0.000 lam=     0.0 B3u freq=   995. Q=  0.000 lam=     0.0
  57 Au  freq=   995. Q=  0.000 lam=     0.0 Au  freq=  1024. Q=  0.000 lam=     0.0
  58 B2g freq=   995. Q=  0.000 lam=     0.0 B2g freq=  1024. Q=  0.000 lam=     0.0
  59 B2u freq=  1016. Q= -0.000 lam=     0.0 B2u freq=  1038. Q= -0.000 lam=     0.0
  60 Ag  freq=  1019. Q= -0.110 lam=     6.2 Ag  freq=  1039. Q= -0.086 lam=     3.9
  61 B2u freq=  1134. Q=  0.000 lam=     0.0 B1u freq=  1147. Q=  0.000 lam=     0.0
  62 B1u freq=  1144. Q=  0.000 lam=     0.0 B3g freq=  1159. Q=  0.000 lam=     0.0
  63 B3g freq=  1158. Q= -0.000 lam=     0.0 B2u freq=  1177. Q= -0.000 lam=     0.0
  64 Ag  freq=  1185. Q= -0.161 lam=    15.4 Ag  freq=  1196. Q= -0.211 lam=    26.6
  65 B2u freq=  1188. Q=  0.000 lam=     0.0 B3g freq=  1197. Q=  0.000 lam=     0.0
  66 B3g freq=  1200. Q=  0.000 lam=     0.0 B2u freq=  1200. Q=  0.000 lam=     0.0
  67 Ag  freq=  1207. Q=  0.313 lam=    59.3 B1u freq=  1215. Q=  0.000 lam=     0.0
  68 B1u freq=  1210. Q= -0.000 lam=     0.0 Ag  freq=  1219. Q= -0.305 lam=    56.6
  69 B3g freq=  1242. Q=  0.000 lam=     0.0 B2u freq=  1259. Q=  0.000 lam=     0.0
  70 B2u freq=  1251. Q=  0.000 lam=     0.0 B3g freq=  1261. Q=  0.000 lam=     0.0
  71 B1u freq=  1294. Q=  0.000 lam=     0.0 B1u freq=  1301. Q=  0.000 lam=     0.0
  72 B3g freq=  1295. Q=  0.000 lam=     0.0 B3g freq=  1301. Q=  0.000 lam=     0.0
  73 B3g freq=  1312. Q= -0.000 lam=     0.0 B3g freq=  1311. Q= -0.000 lam=     0.0
  74 B1u freq=  1319. Q=  0.000 lam=     0.0 B1u freq=  1324. Q=  0.000 lam=     0.0
  75 Ag  freq=  1334. Q=  0.032 lam=     0.7 Ag  freq=  1329. Q=  0.097 lam=     6.2
  76 B2u freq=  1359. Q= -0.000 lam=     0.0 B1u freq=  1371. Q= -0.000 lam=     0.0
  77 B1u freq=  1376. Q= -0.000 lam=     0.0 B2u freq=  1397. Q= -0.000 lam=     0.0
  78 Ag  freq=  1410. Q= -0.399 lam=   112.4 Ag  freq=  1411. Q= -0.084 lam=     5.0
  79 B2u freq=  1416. Q= -0.000 lam=     0.0 B2u freq=  1415. Q= -0.000 lam=     0.0
  80 B3g freq=  1419. Q= -0.000 lam=     0.0 Ag  freq=  1427. Q= -0.450 lam=   144.3
  81 B2u freq=  1427. Q=  0.000 lam=     0.0 B2u freq=  1427. Q=  0.000 lam=     0.0
  82 Ag  freq=  1434. Q= -0.158 lam=    17.8 B3g freq=  1432. Q= -0.000 lam=     0.0
  83 B2u freq=  1478. Q= -0.000 lam=     0.0 B2u freq=  1478. Q= -0.000 lam=     0.0
  84 B1u freq=  1478. Q= -0.000 lam=     0.0 B1u freq=  1482. Q= -0.000 lam=     0.0
  85 Ag  freq=  1493. Q=  0.069 lam=     3.6 Ag  freq=  1505. Q=  0.012 lam=     0.1
  86 B2u freq=  1542. Q=  0.000 lam=     0.0 B2u freq=  1527. Q=  0.000 lam=     0.0
  87 Ag  freq=  1557. Q= -0.422 lam=   138.5 Ag  freq=  1549. Q= -0.332 lam=    85.5
  88 Ag  freq=  1577. Q= -0.166 lam=    21.7 B3g freq=  1556. Q= -0.000 lam=     0.0
  89 B2u freq=  1579. Q= -0.000 lam=     0.0 B3g freq=  1568. Q= -0.000 lam=     0.0
  90 B3g freq=  1594. Q=  0.000 lam=     0.0 B2u freq=  1568. Q=  0.000 lam=     0.0
  91 B3g freq=  1633. Q= -0.000 lam=     0.0 Ag  freq=  1578. Q= -0.262 lam=    54.3
  92 B1u freq=  1642. Q=  0.000 lam=     0.0 B1u freq=  1618. Q=  0.000 lam=     0.0
  93 B3g freq=  1673. Q=  0.000 lam=     0.0 B1u freq=  1638. Q=  0.000 lam=     0.0
  94 B1u freq=  1674. Q=  0.000 lam=     0.0 B3g freq=  1648. Q=  0.000 lam=     0.0
  95 B1u freq=  3154. Q=  0.000 lam=     0.0 B1u freq=  3172. Q=  0.000 lam=     0.0
  96 B3g freq=  3155. Q= -0.000 lam=     0.0 B3g freq=  3174. Q= -0.000 lam=     0.0
  97 Ag  freq=  3156. Q=  0.001 lam=     0.0 Ag  freq=  3174. Q=  0.002 lam=     0.0
  98 B1u freq=  3156. Q=  0.000 lam=     0.0 B2u freq=  3176. Q=  0.000 lam=     0.0
  99 B2u freq=  3157. Q= -0.000 lam=     0.0 B1u freq=  3176. Q= -0.000 lam=     0.0
 100 B3g freq=  3158. Q= -0.000 lam=     0.0 Ag  freq=  3178. Q= -0.011 lam=     0.2
 101 Ag  freq=  3159. Q=  0.007 lam=     0.1 B1u freq=  3179. Q=  0.000 lam=     0.0
 102 B1u freq=  3160. Q=  0.000 lam=     0.0 B3g freq=  3179. Q=  0.000 lam=     0.0
 103 B2u freq=  3161. Q=  0.000 lam=     0.0 B2u freq=  3182. Q=  0.000 lam=     0.0
 104 Ag  freq=  3163. Q=  0.020 lam=     0.6 Ag  freq=  3183. Q=  0.020 lam=     0.6
 105 B3g freq=  3175. Q=  0.000 lam=     0.0 B3g freq=  3194. Q=  0.000 lam=     0.0
 106 B1u freq=  3175. Q=  0.000 lam=     0.0 B1u freq=  3194. Q=  0.000 lam=     0.0
 107 B2u freq=  3188. Q= -0.000 lam=     0.0 B2u freq=  3205. Q= -0.000 lam=     0.0
 108 Ag  freq=  3188. Q= -0.026 lam=     1.1 Ag  freq=  3205. Q= -0.024 lam=     0.9

 total reorg energy (cm**-1, kcal/mol)=      390.      395.      1.11      1.13
 Nber of molecules processed=           2
