 Enter ifcurve (0=recti, 1=orth curvi, 2=apprx curvi, -1 = skip
 And atom ordering flag, 0= never changes, 1= use the first order thenceforth,
  2= deduce it (does read on fail), 3= always read it
 Reading file: 
 ./phenothiazine-pyrene_0_C0S2.log                                              
                                          
  Entering Gaussian System, Link 0=g16                                          
  
 Gaussian format, type: g94, g98, g03= F F F
  #P Geom=AllCheck Guess=TCheck SCRF=Check GenChk RB3LYP TD(FC,Read)/6-3    
 energy type= TD      
 Original G94 input coords:
  6 -4.053187  3.284987  1.881144
  6 -2.629586  3.191214  1.828690
  6 -2.019980  2.121241  1.216323
  6 -2.765557  1.075729  0.616761
  6 -4.216086  1.180872  0.676863
  6 -4.811302  2.291968  1.312627
 16 -5.265861 -0.001909  0.004345
  6 -4.216319 -1.180553 -0.675743
  6 -4.811735 -2.290876 -1.312650
  6 -4.053800 -3.283342 -1.882389
  6 -2.630180 -3.190330 -1.829067
  6 -2.020374 -2.120983 -1.215826
  6 -2.765768 -1.075425 -0.616067
  7 -2.133751  0.000139  0.000265
  6 -0.683351  0.000018  0.000177
  6 -0.003736 -0.604416  1.051136
  6  1.397436 -0.615831  1.070549
  6  2.142832 -1.228111  2.134885
  6  3.501812 -1.226907  2.132369
  6  4.249377 -0.616050  1.070106
  6  5.652223 -0.603350  1.047613
  6  6.340592 -0.000573 -0.000435
  6  5.652141  0.602358 -1.048352
  6  4.249297  0.615294 -1.070590
  6  3.501644  1.226269 -2.132731
  6  2.142665  1.227681 -2.135013
  6  1.397353  0.615567 -1.070531
  6 -0.003818  0.604373 -1.050874
  6  2.111652 -0.000193 -0.000053
  6  3.536115 -0.000312 -0.000177
  1 -4.531203  4.128234  2.363259
  1 -2.018201  3.966610  2.273449
  1 -0.940592  2.076795  1.191953
  1 -5.894898  2.348385  1.344620
  1 -5.895340 -2.347121 -1.344601
  1 -4.531973 -4.125713 -2.365877
  1 -2.018942 -3.965822 -2.273864
  1 -0.940975 -2.077103 -1.190792
  1 -0.564440 -1.066718  1.855105
  1  1.594991 -1.694708  2.946295
  1  4.049591 -1.693861  2.944123
  1  6.198571 -1.070648  1.859800
  1  7.424758 -0.000663 -0.000520
  1  6.198413  1.069568 -1.860640
  1  4.049351  1.693134 -2.944585
  1  1.594752  1.694358 -2.946328
  1 -0.564611  1.066722 -1.854752
 nber atoms=          47
  Total Energy, E(TD-HF/TD-DFT) =  -1530.36906759                               
  
          32          49 "  -1530.36906759"
After scan for Atom:   Atom  AN      X      Y      Z        X      Y      Z        X      Y      Z   
After scan for Atom:   Atom  AN      X      Y      Z        X      Y      Z        X      Y      Z   
After scan for Atom:   Atom  AN      X      Y      Z        X      Y      Z        X      Y      Z   
After scan for Atom:   Atom  AN      X      Y      Z        X      Y      Z        X      Y      Z   
After scan for Atom:   Atom  AN      X      Y      Z        X      Y      Z        X      Y      Z   
After scan for Atom:   Atom  AN      X      Y      Z        X      Y      Z        X      Y      Z   
After scan for Atom:   Atom  AN      X      Y      Z        X      Y      Z        X      Y      Z   
After scan for Atom:   Atom  AN      X      Y      Z        X      Y      Z        X      Y      Z   
After scan for Atom:   Atom  AN      X      Y      Z        X      Y      Z        X      Y      Z   
After scan for Atom:   Atom  AN      X      Y      Z        X      Y      Z        X      Y      Z   
After scan for Atom:   Atom  AN      X      Y      Z        X      Y      Z        X      Y      Z   
After scan for Atom:   Atom  AN      X      Y      Z        X      Y      Z        X      Y      Z   
After scan for Atom:   Atom  AN      X      Y      Z        X      Y      Z        X      Y      Z   
After scan for Atom:   Atom  AN      X      Y      Z        X      Y      Z        X      Y      Z   
After scan for Atom:   Atom  AN      X      Y      Z        X      Y      Z        X      Y      Z   
After scan for Atom:   Atom  AN      X      Y      Z        X      Y      Z        X      Y      Z   
After scan for Atom:   Atom  AN      X      Y      Z        X      Y      Z        X      Y      Z   
After scan for Atom:   Atom  AN      X      Y      Z        X      Y      Z        X      Y      Z   
After scan for Atom:   Atom  AN      X      Y      Z        X      Y      Z        X      Y      Z   
After scan for Atom:   Atom  AN      X      Y      Z        X      Y      Z        X      Y      Z   
After scan for Atom:   Atom  AN      X      Y      Z        X      Y      Z        X      Y      Z   
After scan for Atom:   Atom  AN      X      Y      Z        X      Y      Z        X      Y      Z   
After scan for Atom:   Atom  AN      X      Y      Z        X      Y      Z        X      Y      Z   
After scan for Atom:   Atom  AN      X      Y      Z        X      Y      Z        X      Y      Z   
After scan for Atom:   Atom  AN      X      Y      Z        X      Y      Z        X      Y      Z   
After scan for Atom:   Atom  AN      X      Y      Z        X      Y      Z        X      Y      Z   
After scan for Atom:   Atom  AN      X      Y      Z        X      Y      Z        X      Y      Z   
After scan for Atom:   Atom  AN      X      Y      Z        X      Y      Z        X      Y      Z   
After scan for Atom:   Atom  AN      X      Y      Z        X      Y      Z        X      Y      Z   
After scan for Atom:   Atom  AN      X      Y      Z        X      Y      Z        X      Y      Z   
After scan for Atom:   Atom  AN      X      Y      Z        X      Y      Z        X      Y      Z   
After scan for Atom:   Atom  AN      X      Y      Z        X      Y      Z        X      Y      Z   
After scan for Atom:   Atom  AN      X      Y      Z        X      Y      Z        X      Y      Z   
After scan for Atom:   Atom  AN      X      Y      Z        X      Y      Z        X      Y      Z   
After scan for Atom:   Atom  AN      X      Y      Z        X      Y      Z        X      Y      Z   
After scan for Atom:   Atom  AN      X      Y      Z        X      Y      Z        X      Y      Z   
After scan for Atom:   Atom  AN      X      Y      Z        X      Y      Z        X      Y      Z   
After scan for Atom:   Atom  AN      X      Y      Z        X      Y      Z        X      Y      Z   
After scan for Atom:   Atom  AN      X      Y      Z        X      Y      Z        X      Y      Z   
After scan for Atom:   Atom  AN      X      Y      Z        X      Y      Z        X      Y      Z   
After scan for Atom:   Atom  AN      X      Y      Z        X      Y      Z        X      Y      Z   
After scan for Atom:   Atom  AN      X      Y      Z        X      Y      Z        X      Y      Z   
After scan for Atom:   Atom  AN      X      Y      Z        X      Y      Z        X      Y      Z   
After scan for Atom:   Atom  AN      X      Y      Z        X      Y      Z        X      Y      Z   
After scan for Atom:   Atom  AN      X      Y      Z        X      Y      Z        X      Y      Z   
 g94    frequencies=
     0.0    0.0    0.0    0.0    0.0    0.0  -69.2   18.0   29.1   51.1
    66.1   91.5   91.6  152.4  157.0  199.3  200.9  209.5  226.5  252.1
   266.3  334.5  360.8  368.7  381.4  395.6  401.4  405.1  408.1  442.6
   445.8  448.0  476.5  500.5  508.7  512.7  518.8  535.0  539.9  545.3
   586.7  599.5  607.8  629.9  648.5  658.9  660.5  686.0  686.5  705.1
   712.0  721.4  755.2  756.2  771.1  779.0  789.2  793.4  814.0  825.4
   826.3  838.9  850.1  887.8  897.7  913.7  928.1  929.0  932.0  936.1
   937.2  978.1  981.7  990.8  997.3 1009.3 1011.3 1014.8 1023.5 1078.1
  1100.8 1107.4 1136.7 1144.7 1151.2 1171.3 1172.3 1181.6 1181.7 1194.5
  1205.2 1209.7 1222.6 1257.1 1259.1 1266.9 1279.5 1322.1 1323.0 1339.9
  1340.7 1351.0 1384.4 1407.9 1415.8 1431.5 1446.5 1450.1 1450.4 1465.3
  1477.7 1485.4 1492.4 1494.9 1525.5 1528.5 1562.8 1576.7 1594.5 1597.8
  1630.4 1634.6 1662.7 1674.2 3155.6 3155.8 3160.0 3160.7 3162.2 3169.9
  3178.8 3179.1 3179.1 3179.3 3185.5 3185.6 3186.5 3195.8 3196.3 3214.8
  3215.7
 g94    symmetries=
                                                 A      A      A      A
       A      A      A      A      A      A      A      A      A      A
       A      A      A      A      A      A      A      A      A      A
       A      A      A      A      A      A      A      A      A      A
       A      A      A      A      A      A      A      A      A      A
       A      A      A      A      A      A      A      A      A      A
       A      A      A      A      A      A      A      A      A      A
       A      A      A      A      A      A      A      A      A      A
       A      A      A      A      A      A      A      A      A      A
       A      A      A      A      A      A      A      A      A      A
       A      A      A      A      A      A      A      A      A      A
       A      A      A      A      A      A      A      A      A      A
       A      A      A      A      A      A      A      A      A      A
       A      A      A      A      A      A      A      A      A      A
       A
 atomic masses:
 12.0000 12.0000 12.0000 12.0000 12.0000 12.0000 31.9721 12.0000 12.0000 12.0000
 12.0000 12.0000 12.0000 14.0031 12.0000 12.0000 12.0000 12.0000 12.0000 12.0000
 12.0000 12.0000 12.0000 12.0000 12.0000 12.0000 12.0000 12.0000 12.0000 12.0000
  1.0078  1.0078  1.0078  1.0078  1.0078  1.0078  1.0078  1.0078  1.0078  1.0078
  1.0078  1.0078  1.0078  1.0078  1.0078  1.0078  1.0078
 looking for force constants in 
 ./phenothiazine-pyrene_0_C0S2.fchk                                             
  
 Cartesian Force Constants                  R   N=       10011                  
  
 n3=         141       10011
 g94-fc frequencies=
   -69.2   -0.0    0.0    0.0    2.5    2.8    4.6   18.1   29.1   51.1
    66.1   91.5   91.6  152.4  157.0  199.3  200.9  209.5  226.5  252.1
   266.3  334.5  360.8  368.7  381.4  395.6  401.4  405.1  408.1  442.6
   445.8  448.0  476.5  500.5  508.7  512.7  518.8  535.0  540.0  545.3
   586.7  599.5  607.8  629.9  648.5  658.9  660.5  686.0  686.5  705.1
   712.0  721.4  755.2  756.2  771.1  779.1  789.2  793.4  814.1  825.4
   826.3  838.9  850.1  887.9  897.7  913.7  928.1  929.0  932.0  936.1
   937.2  978.1  981.7  990.8  997.3 1009.3 1011.3 1014.9 1023.5 1078.1
  1100.8 1107.5 1136.7 1144.7 1151.2 1171.3 1172.3 1181.7 1181.8 1194.5
  1205.2 1209.8 1222.6 1257.1 1259.1 1266.9 1279.5 1322.1 1323.0 1339.9
  1340.7 1351.1 1384.5 1407.9 1415.8 1431.5 1446.5 1450.2 1450.4 1465.3
  1477.7 1485.5 1492.4 1495.0 1525.5 1528.5 1562.8 1576.7 1594.5 1597.9
  1630.5 1634.6 1662.8 1674.2 3155.7 3155.8 3160.1 3160.7 3162.2 3170.0
  3178.9 3179.1 3179.2 3179.4 3185.5 3185.7 3186.6 3195.9 3196.4 3214.9
  3215.7
 at 99999: n3=         141
 symm operator            1 :  F  nop=           0
 symm operator            2 :  F  nop=           0
 symm operator            3 :  F  nop=           0
 symm operator            4 :  F  nop=           0
 symm operator            5 :  F  nop=           0
 symm operator            6 :  F  nop=           0
 symm operator            7 :  F  nop=           0
 The point group of the molecule is  C1
 Symmetry rotation matrix:
   1.00000   0.00000   0.00000
   0.00000   1.00000   0.00000
   0.00000   0.00000   1.00000

 Projecting out zero-frequency components
 generating redundant internal coords
         300        3600          47
 search for int coords
   1 str   2   1   1.428
   2 str   3   2   1.375
   3 str   4   3   1.417
   4 str   5   4   1.456
   5 str   6   1   1.373
   6 str   6   5   1.412
   7 str   7   5   1.719
   8 str   8   7   1.719
   9 str   9   8   1.412
  10 str  10   9   1.373
  11 str  11  10   1.428
  12 str  12  11   1.375
  13 str  13   8   1.456
  14 str  13  12   1.417
  15 str  14   4   1.391
  16 str  14  13   1.391
  17 str  15  14   1.450
  18 str  16  15   1.390
  19 str  17  16   1.401
  20 str  18  17   1.436
  21 str  19  18   1.359
  22 str  20  19   1.435
  23 str  21  20   1.403
  24 str  22  21   1.391
  25 str  23  22   1.391
  26 str  24  23   1.403
  27 str  25  24   1.435
  28 str  26  25   1.359
  29 str  27  26   1.436
  30 str  28  15   1.390
  31 str  28  27   1.401
  32 str  29  17   1.427
  33 str  29  27   1.427
  34 str  30  20   1.426
  35 str  30  24   1.426
  36 str  30  29   1.424
  37 str  31   1   1.083
  38 str  32   2   1.083
  39 str  33   3   1.081
  40 str  34   6   1.086
  41 str  35   9   1.086
  42 str  36  10   1.083
  43 str  37  11   1.083
  44 str  38  12   1.081
  45 str  39  16   1.084
  46 str  40  18   1.085
  47 str  41  19   1.085
  48 str  42  21   1.085
  49 str  43  22   1.084
  50 str  44  23   1.085
  51 str  45  25   1.085
  52 str  46  26   1.085
  53 str  47  28   1.084
 nber stretches=          53
  54 ben   1   2   3
  55 prop tor   1   2   3   4
  56 prop tor   1   2   3  33
  57 ben   1   2  32
  58 ben   1   6   5
  59 ben   1   6  34
  60 ben   2   1   6
  61 prop tor   2   1   6   5
  62 prop tor   2   1   6  34
  63 ben   2   1  31
  64 ben   2   3   4
  65 prop tor   2   3   4   5
  66 prop tor   2   3   4  14
  67 ben   2   3  33
  68 ben   3   2  32
  69 ben   3   4   5
  70 prop tor   3   4   5   6
  71 prop tor   3   4   5   7
  72 ben   3   4  14
  73 prop tor   3   4  14  13
  74 prop tor   3   4  14  15
  75 ben   4   3  33
  76 ben   4   5   6
  77 prop tor   4   5   6   1
  78 prop tor   4   5   6  34
  79 ben   4   5   7
  80 prop tor   4   5   7   8
  81 ben   4  14  13
  82 ben   4  14  15
  83 prop tor   4  14  15  16
  84 prop tor   4  14  15  28
  85 ben   5   4  14
  86 prop tor   5   4  14  13
  87 prop tor   5   4  14  15
  88 ben   5   6  34
  89 ben   5   7   8
  90 prop tor   5   7   8   9
  91 prop tor   5   7   8  13
  92 prop tor   6   1   2   3
  93 prop tor   6   1   2  32
  94 ben   6   1  31
  95 ben   6   5   7
  96 prop tor   6   5   7   8
  97 prop tor   7   5   6   1
  98 prop tor   7   5   6  34
  99 ben   7   8   9
 100 prop tor   7   8   9  10
 101 prop tor   7   8   9  35
 102 ben   7   8  13
 103 prop tor   7   8  13  12
 104 prop tor   7   8  13  14
 105 ben   8   9  10
 106 prop tor   8   9  10  11
 107 prop tor   8   9  10  36
 108 ben   8   9  35
 109 ben   8  13  12
 110 ben   8  13  14
 111 prop tor   8  13  14   4
 112 prop tor   8  13  14  15
 113 ben   9   8  13
 114 prop tor   9   8  13  12
 115 prop tor   9   8  13  14
 116 ben   9  10  11
 117 prop tor   9  10  11  12
 118 prop tor   9  10  11  37
 119 ben   9  10  36
 120 ben  10   9  35
 121 ben  10  11  12
 122 prop tor  10  11  12  13
 123 prop tor  10  11  12  38
 124 ben  10  11  37
 125 ben  11  10  36
 126 ben  11  12  13
 127 prop tor  11  12  13   8
 128 prop tor  11  12  13  14
 129 ben  11  12  38
 130 ben  12  11  37
 131 ben  12  13  14
 132 prop tor  12  13  14   4
 133 prop tor  12  13  14  15
 134 prop tor  13   8   9  10
 135 prop tor  13   8   9  35
 136 ben  13  12  38
 137 ben  13  14  15
 138 prop tor  13  14  15  16
 139 prop tor  13  14  15  28
 140 prop tor  14   4   5   6
 141 prop tor  14   4   5   7
 142 ben  14  15  16
 143 prop tor  14  15  16  17
 144 prop tor  14  15  16  39
 145 ben  14  15  28
 146 prop tor  14  15  28  27
 147 prop tor  14  15  28  47
 148 ben  15  16  17
 149 prop tor  15  16  17  18
 150 prop tor  15  16  17  29
 151 ben  15  16  39
 152 ben  15  28  27
 153 ben  15  28  47
 154 ben  16  15  28
 155 prop tor  16  15  28  27
 156 prop tor  16  15  28  47
 157 ben  16  17  18
 158 prop tor  16  17  18  19
 159 prop tor  16  17  18  40
 160 ben  16  17  29
 161 prop tor  16  17  29  27
 162 prop tor  16  17  29  30
 163 ben  17  16  39
 164 ben  17  18  19
 165 prop tor  17  18  19  20
 166 prop tor  17  18  19  41
 167 ben  17  18  40
 168 ben  17  29  27
 169 ben  17  29  30
 170 prop tor  17  29  30  20
 171 prop tor  17  29  30  24
 172 ben  18  17  29
 173 prop tor  18  17  29  27
 174 prop tor  18  17  29  30
 175 ben  18  19  20
 176 prop tor  18  19  20  21
 177 prop tor  18  19  20  30
 178 ben  18  19  41
 179 ben  19  18  40
 180 ben  19  20  21
 181 prop tor  19  20  21  22
 182 prop tor  19  20  21  42
 183 ben  19  20  30
 184 prop tor  19  20  30  24
 185 prop tor  19  20  30  29
 186 ben  20  19  41
 187 ben  20  21  22
 188 prop tor  20  21  22  23
 189 prop tor  20  21  22  43
 190 ben  20  21  42
 191 ben  20  30  24
 192 ben  20  30  29
 193 ben  21  20  30
 194 prop tor  21  20  30  24
 195 prop tor  21  20  30  29
 196 ben  21  22  23
 197 prop tor  21  22  23  24
 198 prop tor  21  22  23  44
 199 ben  21  22  43
 200 ben  22  21  42
 201 ben  22  23  24
 202 prop tor  22  23  24  25
 203 prop tor  22  23  24  30
 204 ben  22  23  44
 205 ben  23  22  43
 206 ben  23  24  25
 207 prop tor  23  24  25  26
 208 prop tor  23  24  25  45
 209 ben  23  24  30
 210 prop tor  23  24  30  20
 211 prop tor  23  24  30  29
 212 ben  24  23  44
 213 ben  24  25  26
 214 prop tor  24  25  26  27
 215 prop tor  24  25  26  46
 216 ben  24  25  45
 217 ben  24  30  29
 218 ben  25  24  30
 219 prop tor  25  24  30  20
 220 prop tor  25  24  30  29
 221 ben  25  26  27
 222 prop tor  25  26  27  28
 223 prop tor  25  26  27  29
 224 ben  25  26  46
 225 ben  26  25  45
 226 ben  26  27  28
 227 prop tor  26  27  28  15
 228 prop tor  26  27  28  47
 229 ben  26  27  29
 230 prop tor  26  27  29  17
 231 prop tor  26  27  29  30
 232 ben  27  26  46
 233 ben  27  28  47
 234 ben  27  29  30
 235 prop tor  27  29  30  20
 236 prop tor  27  29  30  24
 237 prop tor  28  15  16  17
 238 prop tor  28  15  16  39
 239 ben  28  27  29
 240 prop tor  28  27  29  17
 241 prop tor  28  27  29  30
 242 prop tor  29  17  18  19
 243 prop tor  29  17  18  40
 244 prop tor  29  27  28  15
 245 prop tor  29  27  28  47
 246 prop tor  30  20  21  22
 247 prop tor  30  20  21  42
 248 prop tor  30  24  25  26
 249 prop tor  30  24  25  45
 250 prop tor  31   1   2   3
 251 prop tor  31   1   2  32
 252 prop tor  31   1   6   5
 253 prop tor  31   1   6  34
 254 prop tor  32   2   3   4
 255 prop tor  32   2   3  33
 256 prop tor  33   3   4   5
 257 prop tor  33   3   4  14
 258 prop tor  35   9  10  11
 259 prop tor  35   9  10  36
 260 prop tor  36  10  11  12
 261 prop tor  36  10  11  37
 262 prop tor  37  11  12  13
 263 prop tor  37  11  12  38
 264 prop tor  38  12  13   8
 265 prop tor  38  12  13  14
 266 prop tor  39  16  17  18
 267 prop tor  39  16  17  29
 268 prop tor  40  18  19  20
 269 prop tor  40  18  19  41
 270 prop tor  41  19  20  21
 271 prop tor  41  19  20  30
 272 prop tor  42  21  22  23
 273 prop tor  42  21  22  43
 274 prop tor  43  22  23  24
 275 prop tor  43  22  23  44
 276 prop tor  44  23  24  25
 277 prop tor  44  23  24  30
 278 prop tor  45  25  26  27
 279 prop tor  45  25  26  46
 280 prop tor  46  26  27  28
 281 prop tor  46  26  27  29
 nber bend=              88
 nber lin bend=           0
 nber prop tor=         140
 nber impr tor=           0
 nber tot redund int=         281
 Eigenvalues of G in red int coords
    Gval -0.00000000 -0.00000000 -0.00000000 -0.00000000 -0.00000000 -0.00000000 -0.00000000 -0.00000000
    Gval -0.00000000 -0.00000000 -0.00000000 -0.00000000 -0.00000000 -0.00000000 -0.00000000 -0.00000000
    Gval -0.00000000 -0.00000000 -0.00000000 -0.00000000 -0.00000000 -0.00000000 -0.00000000 -0.00000000
    Gval -0.00000000 -0.00000000 -0.00000000 -0.00000000 -0.00000000 -0.00000000 -0.00000000 -0.00000000
    Gval -0.00000000 -0.00000000 -0.00000000 -0.00000000 -0.00000000 -0.00000000 -0.00000000 -0.00000000
    Gval -0.00000000 -0.00000000 -0.00000000 -0.00000000 -0.00000000 -0.00000000 -0.00000000 -0.00000000
    Gval -0.00000000 -0.00000000 -0.00000000 -0.00000000 -0.00000000 -0.00000000 -0.00000000 -0.00000000
    Gval -0.00000000 -0.00000000 -0.00000000 -0.00000000 -0.00000000 -0.00000000 -0.00000000 -0.00000000
    Gval -0.00000000 -0.00000000 -0.00000000  0.00000000  0.00000000  0.00000000  0.00000000  0.00000000
    Gval  0.00000000  0.00000000  0.00000000  0.00000000  0.00000000  0.00000000  0.00000000  0.00000000
    Gval  0.00000000  0.00000000  0.00000000  0.00000000  0.00000000  0.00000000  0.00000000  0.00000000
    Gval  0.00000000  0.00000000  0.00000000  0.00000000  0.00000000  0.00000000  0.00000000  0.00000000
    Gval  0.00000000  0.00000000  0.00000000  0.00000000  0.00000000  0.00000000  0.00000000  0.00000000
    Gval  0.00000000  0.00000000  0.00000000  0.00000000  0.00000000  0.00000000  0.00000000  0.00000000
    Gval  0.00000000  0.00000000  0.00000000  0.00000000  0.00000000  0.00000000  0.00000000  0.00000000
    Gval  0.00000000  0.00000000  0.00000000  0.00000000  0.00000000  0.00000000  0.00000000  0.00000000
    Gval  0.00000000  0.00000000  0.00000000  0.00000000  0.00000000  0.00000000  0.00000000  0.00000000
    Gval  0.00000000  0.00000000  0.00000000  0.00000000  0.00000000  0.00000000  0.00000000  0.00000000
    Gval  0.00000000  0.00000000  0.00000085  0.00000163  0.00000198  0.00000452  0.00000836  0.00000993
    Gval  0.00001062  0.00001176  0.00001715  0.00002131  0.00002229  0.00002440  0.00002551  0.00002817
    Gval  0.00003017  0.00003660  0.00004185  0.00004919  0.00005151  0.00005545  0.00005614  0.00005854
    Gval  0.00006241  0.00006728  0.00006832  0.00007181  0.00007257  0.00007432  0.00007676  0.00007956
    Gval  0.00008308  0.00008613  0.00010365  0.00010452  0.00011229  0.00011705  0.00011826  0.00012227
    Gval  0.00012921  0.00013956  0.00014108  0.00014615  0.00016433  0.00017192  0.00017349  0.00018766
    Gval  0.00019210  0.00020322  0.00020465  0.00022638  0.00024578  0.00026035  0.00026529  0.00027115
    Gval  0.00027196  0.00031366  0.00032491  0.00033852  0.00035021  0.00037299  0.00038094  0.00038330
    Gval  0.00038942  0.00040399  0.00041963  0.00044503  0.00045352  0.00045960  0.00048482  0.00052792
    Gval  0.00059319  0.00059321  0.00059387  0.00059500  0.00059705  0.00059719  0.00059721  0.00059862
    Gval  0.00060802  0.00061805  0.00062021  0.00062070  0.00062834  0.00064334  0.00064508  0.00065400
    Gval  0.00065482  0.00065846  0.00069045  0.00076189  0.00078554  0.00081674  0.00092040  0.00097615
    Gval  0.00105486  0.00105533  0.00106504  0.00108525  0.00108572  0.00111218  0.00111775  0.00111792
    Gval  0.00113929  0.00114100  0.00116181  0.00116185  0.00116197  0.00116245  0.00116795  0.00117306
    Gval  0.00117306  0.00117779  0.00132290  0.00145599  0.00166930  0.00172996  0.00174684  0.00179613
    Gval  0.00192961  0.00215881  0.00229714  0.00238072  0.00257798  0.00263018  0.00270382  0.00307959
    Gval  0.00311183  0.00317188  0.00347516  0.00349003  0.00368714  0.00372580  0.00392386  0.00401546
    Gval  0.00401674
  8.492780436891907E-007  8.492780436891907E-007
  1.625694240544151E-006  8.492780436891907E-007
  1.978409636670838E-006  8.492780436891907E-007
  4.523819818341006E-006  8.492780436891907E-007
  8.362839992529432E-006  8.492780436891907E-007
  9.930720495099215E-006  8.492780436891907E-007
  1.061746461944469E-005  8.492780436891907E-007
  1.175542875576115E-005  8.492780436891907E-007
  1.714911396971388E-005  8.492780436891907E-007
  2.131216956510702E-005  8.492780436891907E-007
  2.228905638500264E-005  8.492780436891907E-007
  2.440486981353044E-005  8.492780436891907E-007
  2.550981314837891E-005  8.492780436891907E-007
  2.817118904320980E-005  8.492780436891907E-007
  3.017124365633793E-005  8.492780436891907E-007
  3.660470736298054E-005  8.492780436891907E-007
  4.184943678929065E-005  8.492780436891907E-007
  4.918797650780384E-005  8.492780436891907E-007
  5.150891112028010E-005  8.492780436891907E-007
  5.545109299765540E-005  8.492780436891907E-007
  5.613991610181381E-005  8.492780436891907E-007
  5.853599454695584E-005  8.492780436891907E-007
  6.240800712898867E-005  8.492780436891907E-007
  6.728178918167110E-005  8.492780436891907E-007
  6.832170582487480E-005  8.492780436891907E-007
  7.180842179710457E-005  8.492780436891907E-007
  7.256952084694789E-005  8.492780436891907E-007
  7.431787478489688E-005  8.492780436891907E-007
  7.676357990934789E-005  8.492780436891907E-007
  7.956076821846511E-005  8.492780436891907E-007
  8.308003544080628E-005  8.492780436891907E-007
  8.613045609813045E-005  8.492780436891907E-007
  1.036460707613926E-004  8.492780436891907E-007
  1.045156587923268E-004  8.492780436891907E-007
  1.122879937588122E-004  8.492780436891907E-007
  1.170479685145099E-004  8.492780436891907E-007
  1.182573662110236E-004  8.492780436891907E-007
  1.222687655525735E-004  8.492780436891907E-007
  1.292093521900456E-004  8.492780436891907E-007
  1.395593304992086E-004  8.492780436891907E-007
  1.410785282363456E-004  8.492780436891907E-007
  1.461464744143178E-004  8.492780436891907E-007
  1.643277072799700E-004  8.492780436891907E-007
  1.719216552004192E-004  8.492780436891907E-007
  1.734887421795106E-004  8.492780436891907E-007
  1.876643446282454E-004  8.492780436891907E-007
  1.920977098197734E-004  8.492780436891907E-007
  2.032206124697769E-004  8.492780436891907E-007
  2.046523327671788E-004  8.492780436891907E-007
  2.263827829181431E-004  8.492780436891907E-007
  2.457842123697441E-004  8.492780436891907E-007
  2.603531242266297E-004  8.492780436891907E-007
  2.652909085555705E-004  8.492780436891907E-007
  2.711476548109979E-004  8.492780436891907E-007
  2.719557226701720E-004  8.492780436891907E-007
  3.136621042429685E-004  8.492780436891907E-007
  3.249139852959280E-004  8.492780436891907E-007
  3.385194970162346E-004  8.492780436891907E-007
  3.502080512145114E-004  8.492780436891907E-007
  3.729879124730863E-004  8.492780436891907E-007
  3.809438977407393E-004  8.492780436891907E-007
  3.833003580023802E-004  8.492780436891907E-007
  3.894191474139275E-004  8.492780436891907E-007
  4.039859586225732E-004  8.492780436891907E-007
  4.196260810536210E-004  8.492780436891907E-007
  4.450256054440137E-004  8.492780436891907E-007
  4.535187040750415E-004  8.492780436891907E-007
  4.595980799359895E-004  8.492780436891907E-007
  4.848222096872678E-004  8.492780436891907E-007
  5.279188314377749E-004  8.492780436891907E-007
  5.931908050519265E-004  8.492780436891907E-007
  5.932074012574275E-004  8.492780436891907E-007
  5.938734041556601E-004  8.492780436891907E-007
  5.949987889144173E-004  8.492780436891907E-007
  5.970478169905250E-004  8.492780436891907E-007
  5.971929270108770E-004  8.492780436891907E-007
  5.972064614042001E-004  8.492780436891907E-007
  5.986247260110298E-004  8.492780436891907E-007
  6.080161736241869E-004  8.492780436891907E-007
  6.180510407270107E-004  8.492780436891907E-007
  6.202115277510862E-004  8.492780436891907E-007
  6.206961168937654E-004  8.492780436891907E-007
  6.283419127768043E-004  8.492780436891907E-007
  6.433446622309528E-004  8.492780436891907E-007
  6.450844545205358E-004  8.492780436891907E-007
  6.540027701431526E-004  8.492780436891907E-007
  6.548212326080399E-004  8.492780436891907E-007
  6.584591451117246E-004  8.492780436891907E-007
  6.904471634984180E-004  8.492780436891907E-007
  7.618861142545765E-004  8.492780436891907E-007
  7.855389432620725E-004  8.492780436891907E-007
  8.167399111710129E-004  8.492780436891907E-007
  9.204039362668095E-004  8.492780436891907E-007
  9.761542760359675E-004  8.492780436891907E-007
  1.054863201092723E-003  8.492780436891907E-007
  1.055329457604948E-003  8.492780436891907E-007
  1.065044839732904E-003  8.492780436891907E-007
  1.085252035229221E-003  8.492780436891907E-007
  1.085718818369276E-003  8.492780436891907E-007
  1.112182919578505E-003  8.492780436891907E-007
  1.117750567555889E-003  8.492780436891907E-007
  1.117917160907759E-003  8.492780436891907E-007
  1.139290559874694E-003  8.492780436891907E-007
  1.141004440162588E-003  8.492780436891907E-007
  1.161814121030925E-003  8.492780436891907E-007
  1.161849936971593E-003  8.492780436891907E-007
  1.161971654070480E-003  8.492780436891907E-007
  1.162454591112424E-003  8.492780436891907E-007
  1.167949724380219E-003  8.492780436891907E-007
  1.173060527726330E-003  8.492780436891907E-007
  1.173063142954155E-003  8.492780436891907E-007
  1.177790584928432E-003  8.492780436891907E-007
  1.322901425721691E-003  8.492780436891907E-007
  1.455991806641226E-003  8.492780436891907E-007
  1.669300985362587E-003  8.492780436891907E-007
  1.729957176777632E-003  8.492780436891907E-007
  1.746842183970527E-003  8.492780436891907E-007
  1.796129707993035E-003  8.492780436891907E-007
  1.929612951501178E-003  8.492780436891907E-007
  2.158806337186096E-003  8.492780436891907E-007
  2.297141309397168E-003  8.492780436891907E-007
  2.380718954667720E-003  8.492780436891907E-007
  2.577975696458833E-003  8.492780436891907E-007
  2.630176946044459E-003  8.492780436891907E-007
  2.703817141479641E-003  8.492780436891907E-007
  3.079586129392296E-003  8.492780436891907E-007
  3.111825375876074E-003  8.492780436891907E-007
  3.171884754084530E-003  8.492780436891907E-007
  3.475159629636216E-003  8.492780436891907E-007
  3.490028367335840E-003  8.492780436891907E-007
  3.687137760297807E-003  8.492780436891907E-007
  3.725798647153542E-003  8.492780436891907E-007
  3.923860592942767E-003  8.492780436891907E-007
  4.015459721640755E-003  8.492780436891907E-007
  4.016736632760959E-003  8.492780436891907E-007
 cut=1d-8, nber non-redundant internal coords=         135
 Check on Eigenvals of non-red overlap matrix:
  0.00000085  0.00000163  0.00000198  0.00000452  0.00000836  0.00000993  0.00001062  0.00001176
  0.00001715  0.00002131  0.00002229  0.00002440  0.00002551  0.00002817  0.00003017  0.00003660
  0.00004185  0.00004919  0.00005151  0.00005545  0.00005614  0.00005854  0.00006241  0.00006728
  0.00006832  0.00007181  0.00007257  0.00007432  0.00007676  0.00007956  0.00008308  0.00008613
  0.00010365  0.00010452  0.00011229  0.00011705  0.00011826  0.00012227  0.00012921  0.00013956
  0.00014108  0.00014615  0.00016433  0.00017192  0.00017349  0.00018766  0.00019210  0.00020322
  0.00020465  0.00022638  0.00024578  0.00026035  0.00026529  0.00027115  0.00027196  0.00031366
  0.00032491  0.00033852  0.00035021  0.00037299  0.00038094  0.00038330  0.00038942  0.00040399
  0.00041963  0.00044503  0.00045352  0.00045960  0.00048482  0.00052792  0.00059319  0.00059321
  0.00059387  0.00059500  0.00059705  0.00059719  0.00059721  0.00059862  0.00060802  0.00061805
  0.00062021  0.00062070  0.00062834  0.00064334  0.00064508  0.00065400  0.00065482  0.00065846
  0.00069045  0.00076189  0.00078554  0.00081674  0.00092040  0.00097615  0.00105486  0.00105533
  0.00106504  0.00108525  0.00108572  0.00111218  0.00111775  0.00111792  0.00113929  0.00114100
  0.00116181  0.00116185  0.00116197  0.00116245  0.00116795  0.00117306  0.00117306  0.00117779
  0.00132290  0.00145599  0.00166930  0.00172996  0.00174684  0.00179613  0.00192961  0.00215881
  0.00229714  0.00238072  0.00257798  0.00263018  0.00270382  0.00307959  0.00311183  0.00317188
  0.00347516  0.00349003  0.00368714  0.00372580  0.00392386  0.00401546  0.00401674
 Checking for correct frequencies
 recalc frequencies=
   -69.2   -0.0   -0.0   -0.0    0.0    0.0    0.0   18.0   29.1   51.1
    66.1   91.5   91.6  152.4  157.0  199.3  200.9  209.5  226.5  252.1
   266.3  334.5  360.8  368.7  381.4  395.6  401.4  405.1  408.1  442.6
   445.8  448.0  476.5  500.5  508.7  512.7  518.8  535.0  540.0  545.3
   586.7  599.5  607.8  629.9  648.5  658.9  660.5  686.0  686.5  705.1
   712.0  721.4  755.2  756.2  771.1  779.1  789.2  793.4  814.1  825.4
   826.3  838.9  850.1  887.9  897.7  913.7  928.1  929.0  932.0  936.1
   937.2  978.1  981.7  990.8  997.3 1009.3 1011.3 1014.9 1023.5 1078.1
  1100.8 1107.5 1136.7 1144.7 1151.2 1171.3 1172.3 1181.7 1181.8 1194.5
  1205.2 1209.8 1222.6 1257.1 1259.1 1266.9 1279.5 1322.1 1323.0 1339.9
  1340.7 1351.1 1384.5 1407.9 1415.8 1431.5 1446.5 1450.2 1450.4 1465.3
  1477.7 1485.5 1492.4 1495.0 1525.5 1528.5 1562.8 1576.7 1594.5 1597.9
  1630.5 1634.6 1662.8 1674.2 3155.7 3155.8 3160.1 3160.7 3162.2 3170.0
  3178.9 3179.1 3179.2 3179.4 3185.5 3185.7 3186.6 3195.9 3196.4 3214.9
  3215.7
 recalc symmetries=
                                                                       
                                                                       
                                                                       
                                                                       
                                                                       
                                                                       
                                                                       
                                                                       
                                                                       
                                                                       
                                                                       
                                                                       
                                                                       
                                                                       
        
 recalc freqs check OK
 Zero-point lengths:
 29.7932 10.0000 10.0000 10.0000 10.0000 10.0000 10.0000 58.4013 45.9349 34.6846
 30.5009 25.9110 25.8994 20.0820 19.7879 17.5594 17.4916 17.1261 16.4710 15.6132
 15.1930 13.5540 13.0509 12.9101 12.6937 12.4645 12.3732 12.3170 12.2715 11.7839
 11.7410 11.7127 11.3572 11.0812 10.9920 10.9486 10.8839 10.7178 10.6688 10.6164
 10.2351 10.1252 10.0560  9.8778  9.7350  9.6579  9.6464  9.4654  9.4620  9.3364
  9.2906  9.2302  9.0213  9.0153  8.9277  8.8819  8.8249  8.8014  8.6889  8.6290
  8.6241  8.5592  8.5028  8.3200  8.2742  8.2014  8.1375  8.1336  8.1206  8.1027
  8.0980  7.9270  7.9124  7.8760  7.8501  7.8035  7.7958  7.7820  7.7489  7.5504
  7.4719  7.4496  7.3531  7.3274  7.3066  7.2438  7.2406  7.2119  7.2116  7.1729
  7.1410  7.1277  7.0900  6.9921  6.9865  6.9650  6.9306  6.8180  6.8158  6.7727
  6.7705  6.7447  6.6628  6.6070  6.5887  6.5524  6.5183  6.5101  6.5096  6.4763
  6.4491  6.4323  6.4172  6.4118  6.3473  6.3411  6.2711  6.2434  6.2085  6.2019
  6.1396  6.1318  6.0797  6.0589  4.4131  4.4130  4.4101  4.4096  4.4086  4.4032
  4.3970  4.3969  4.3968  4.3967  4.3924  4.3923  4.3917  4.3853  4.3850  4.3723
  4.3718
 highest evec of mol 1
 -0.0125  0.0165  0.0094
  0.0308  0.0488  0.0280
  0.1963 -0.0100 -0.0055
 -0.0025 -0.0056 -0.0032
 -0.0009 -0.0003 -0.0002
 -0.0072 -0.0002 -0.0001
  0.0001 -0.0000 -0.0000
 -0.0009  0.0003  0.0002
 -0.0070  0.0002  0.0001
 -0.0121 -0.0160 -0.0092
  0.0299 -0.0473 -0.0271
  0.1906  0.0096  0.0055
 -0.0025  0.0055  0.0031
  0.0024  0.0000 -0.0000
  0.0008 -0.0000 -0.0000
 -0.0009 -0.0008  0.0013
 -0.0003 -0.0000  0.0001
 -0.0002 -0.0002  0.0003
  0.0000  0.0000 -0.0001
  0.0000 -0.0000  0.0000
 -0.0000  0.0000 -0.0001
 -0.0001 -0.0000  0.0000
 -0.0000 -0.0000  0.0001
  0.0000  0.0000 -0.0000
  0.0000 -0.0000  0.0001
 -0.0002  0.0002 -0.0003
 -0.0003  0.0000 -0.0001
 -0.0009  0.0007 -0.0014
  0.0003  0.0000  0.0000
 -0.0000  0.0000 -0.0000
  0.0317 -0.0536 -0.0306
 -0.1103 -0.1421 -0.0815
 -0.6526  0.0296  0.0163
  0.0206 -0.0007 -0.0004
  0.0201  0.0007  0.0004
  0.0308  0.0520  0.0298
 -0.1070  0.1379  0.0791
 -0.6337 -0.0284 -0.0162
  0.0038  0.0031 -0.0054
  0.0006  0.0006 -0.0010
  0.0001 -0.0001  0.0001
  0.0001 -0.0001  0.0002
  0.0004  0.0000 -0.0000
  0.0001  0.0001 -0.0002
  0.0001  0.0000 -0.0001
  0.0006 -0.0006  0.0010
  0.0038 -0.0031  0.0054
 generating redundant internal coords
         300        3600          47
 Adding extra bonds for z output only
           6           6           6           6           6           6
          16           6           6           6           6           6
           6           7           6           6           6           6
           6           6           6           6           6           6
           6           6           6           6           6           6
           1           1           1           1           1           1
           1           1           1           1           1           1
           1           1           1           1           1
 search for int coords
   1 str   2   1   1.428
   2 str   3   2   1.375
   3 str   4   3   1.417
   4 str   5   4   1.456
   5 str   6   1   1.373
   6 str   6   5   1.412
   7 str   7   5   1.719
   8 str   8   7   1.719
   9 str   9   8   1.412
  10 str  10   9   1.373
  11 str  11  10   1.428
  12 str  12  11   1.375
  13 str  13   8   1.456
  14 str  13  12   1.417
  15 str  14   4   1.391
  16 str  14  13   1.391
  17 str  15  14   1.450
  18 str  16  15   1.390
  19 str  17  16   1.401
  20 str  18  17   1.436
  21 str  19  18   1.359
  22 str  20  19   1.435
  23 str  21  20   1.403
  24 str  22  21   1.391
  25 str  23  22   1.391
  26 str  24  23   1.403
  27 str  25  24   1.435
  28 str  26  25   1.359
  29 str  27  26   1.436
  30 str  28  15   1.390
  31 str  28  27   1.401
  32 str  29  17   1.427
  33 str  29  27   1.427
  34 str  30  20   1.426
  35 str  30  24   1.426
  36 str  30  29   1.424
  37 str  31   1   1.083
  38 str  32   2   1.083
  39 str  33   3   1.081
  40 str  34   6   1.086
  41 str  35   9   1.086
  42 str  36  10   1.083
  43 str  37  11   1.083
  44 str  38  12   1.081
  45 str  39  16   1.084
  46 str  40  18   1.085
  47 str  41  19   1.085
  48 str  42  21   1.085
  49 str  43  22   1.084
  50 str  44  23   1.085
  51 str  45  25   1.085
  52 str  46  26   1.085
  53 str  47  28   1.084
 nber stretches=          53
  54 ben   1   2   3
  55 prop tor   1   2   3   4
  56 prop tor   1   2   3  33
  57 ben   1   2  32
  58 ben   1   6   5
  59 ben   1   6  34
  60 ben   2   1   6
  61 prop tor   2   1   6   5
  62 prop tor   2   1   6  34
  63 ben   2   1  31
  64 ben   2   3   4
  65 prop tor   2   3   4   5
  66 prop tor   2   3   4  14
  67 ben   2   3  33
  68 ben   3   2  32
  69 ben   3   4   5
  70 prop tor   3   4   5   6
  71 prop tor   3   4   5   7
  72 ben   3   4  14
  73 prop tor   3   4  14  13
  74 prop tor   3   4  14  15
  75 ben   4   3  33
  76 ben   4   5   6
  77 prop tor   4   5   6   1
  78 prop tor   4   5   6  34
  79 ben   4   5   7
  80 prop tor   4   5   7   8
  81 ben   4  14  13
  82 ben   4  14  15
  83 prop tor   4  14  15  16
  84 prop tor   4  14  15  28
  85 ben   5   4  14
  86 prop tor   5   4  14  13
  87 prop tor   5   4  14  15
  88 ben   5   6  34
  89 ben   5   7   8
  90 prop tor   5   7   8   9
  91 prop tor   5   7   8  13
  92 prop tor   6   1   2   3
  93 prop tor   6   1   2  32
  94 ben   6   1  31
  95 ben   6   5   7
  96 prop tor   6   5   7   8
  97 prop tor   7   5   6   1
  98 prop tor   7   5   6  34
  99 ben   7   8   9
 100 prop tor   7   8   9  10
 101 prop tor   7   8   9  35
 102 ben   7   8  13
 103 prop tor   7   8  13  12
 104 prop tor   7   8  13  14
 105 ben   8   9  10
 106 prop tor   8   9  10  11
 107 prop tor   8   9  10  36
 108 ben   8   9  35
 109 ben   8  13  12
 110 ben   8  13  14
 111 prop tor   8  13  14   4
 112 prop tor   8  13  14  15
 113 ben   9   8  13
 114 prop tor   9   8  13  12
 115 prop tor   9   8  13  14
 116 ben   9  10  11
 117 prop tor   9  10  11  12
 118 prop tor   9  10  11  37
 119 ben   9  10  36
 120 ben  10   9  35
 121 ben  10  11  12
 122 prop tor  10  11  12  13
 123 prop tor  10  11  12  38
 124 ben  10  11  37
 125 ben  11  10  36
 126 ben  11  12  13
 127 prop tor  11  12  13   8
 128 prop tor  11  12  13  14
 129 ben  11  12  38
 130 ben  12  11  37
 131 ben  12  13  14
 132 prop tor  12  13  14   4
 133 prop tor  12  13  14  15
 134 prop tor  13   8   9  10
 135 prop tor  13   8   9  35
 136 ben  13  12  38
 137 ben  13  14  15
 138 prop tor  13  14  15  16
 139 prop tor  13  14  15  28
 140 prop tor  14   4   5   6
 141 prop tor  14   4   5   7
 142 ben  14  15  16
 143 prop tor  14  15  16  17
 144 prop tor  14  15  16  39
 145 ben  14  15  28
 146 prop tor  14  15  28  27
 147 prop tor  14  15  28  47
 148 ben  15  16  17
 149 prop tor  15  16  17  18
 150 prop tor  15  16  17  29
 151 ben  15  16  39
 152 ben  15  28  27
 153 ben  15  28  47
 154 ben  16  15  28
 155 prop tor  16  15  28  27
 156 prop tor  16  15  28  47
 157 ben  16  17  18
 158 prop tor  16  17  18  19
 159 prop tor  16  17  18  40
 160 ben  16  17  29
 161 prop tor  16  17  29  27
 162 prop tor  16  17  29  30
 163 ben  17  16  39
 164 ben  17  18  19
 165 prop tor  17  18  19  20
 166 prop tor  17  18  19  41
 167 ben  17  18  40
 168 ben  17  29  27
 169 ben  17  29  30
 170 prop tor  17  29  30  20
 171 prop tor  17  29  30  24
 172 ben  18  17  29
 173 prop tor  18  17  29  27
 174 prop tor  18  17  29  30
 175 ben  18  19  20
 176 prop tor  18  19  20  21
 177 prop tor  18  19  20  30
 178 ben  18  19  41
 179 ben  19  18  40
 180 ben  19  20  21
 181 prop tor  19  20  21  22
 182 prop tor  19  20  21  42
 183 ben  19  20  30
 184 prop tor  19  20  30  24
 185 prop tor  19  20  30  29
 186 ben  20  19  41
 187 ben  20  21  22
 188 prop tor  20  21  22  23
 189 prop tor  20  21  22  43
 190 ben  20  21  42
 191 ben  20  30  24
 192 ben  20  30  29
 193 ben  21  20  30
 194 prop tor  21  20  30  24
 195 prop tor  21  20  30  29
 196 ben  21  22  23
 197 prop tor  21  22  23  24
 198 prop tor  21  22  23  44
 199 ben  21  22  43
 200 ben  22  21  42
 201 ben  22  23  24
 202 prop tor  22  23  24  25
 203 prop tor  22  23  24  30
 204 ben  22  23  44
 205 ben  23  22  43
 206 ben  23  24  25
 207 prop tor  23  24  25  26
 208 prop tor  23  24  25  45
 209 ben  23  24  30
 210 prop tor  23  24  30  20
 211 prop tor  23  24  30  29
 212 ben  24  23  44
 213 ben  24  25  26
 214 prop tor  24  25  26  27
 215 prop tor  24  25  26  46
 216 ben  24  25  45
 217 ben  24  30  29
 218 ben  25  24  30
 219 prop tor  25  24  30  20
 220 prop tor  25  24  30  29
 221 ben  25  26  27
 222 prop tor  25  26  27  28
 223 prop tor  25  26  27  29
 224 ben  25  26  46
 225 ben  26  25  45
 226 ben  26  27  28
 227 prop tor  26  27  28  15
 228 prop tor  26  27  28  47
 229 ben  26  27  29
 230 prop tor  26  27  29  17
 231 prop tor  26  27  29  30
 232 ben  27  26  46
 233 ben  27  28  47
 234 ben  27  29  30
 235 prop tor  27  29  30  20
 236 prop tor  27  29  30  24
 237 prop tor  28  15  16  17
 238 prop tor  28  15  16  39
 239 ben  28  27  29
 240 prop tor  28  27  29  17
 241 prop tor  28  27  29  30
 242 prop tor  29  17  18  19
 243 prop tor  29  17  18  40
 244 prop tor  29  27  28  15
 245 prop tor  29  27  28  47
 246 prop tor  30  20  21  22
 247 prop tor  30  20  21  42
 248 prop tor  30  24  25  26
 249 prop tor  30  24  25  45
 250 prop tor  31   1   2   3
 251 prop tor  31   1   2  32
 252 prop tor  31   1   6   5
 253 prop tor  31   1   6  34
 254 prop tor  32   2   3   4
 255 prop tor  32   2   3  33
 256 prop tor  33   3   4   5
 257 prop tor  33   3   4  14
 258 prop tor  35   9  10  11
 259 prop tor  35   9  10  36
 260 prop tor  36  10  11  12
 261 prop tor  36  10  11  37
 262 prop tor  37  11  12  13
 263 prop tor  37  11  12  38
 264 prop tor  38  12  13   8
 265 prop tor  38  12  13  14
 266 prop tor  39  16  17  18
 267 prop tor  39  16  17  29
 268 prop tor  40  18  19  20
 269 prop tor  40  18  19  41
 270 prop tor  41  19  20  21
 271 prop tor  41  19  20  30
 272 prop tor  42  21  22  23
 273 prop tor  42  21  22  43
 274 prop tor  43  22  23  24
 275 prop tor  43  22  23  44
 276 prop tor  44  23  24  25
 277 prop tor  44  23  24  30
 278 prop tor  45  25  26  27
 279 prop tor  45  25  26  46
 280 prop tor  46  26  27  28
 281 prop tor  46  26  27  29
 nber bend=              88
 nber lin bend=           0
 nber prop tor=         140
 nber impr tor=           0
 nber tot redund int=         281
 Reading file: 
 ./phenothiazine-pyrene_0_C0S1.log                                              
                                          
  Entering Gaussian System, Link 0=g16                                          
  
 Gaussian format, type: g94, g98, g03= F F F
  #P Geom=AllCheck Guess=TCheck SCRF=Check GenChk RB3LYP TD(FC,Read)/6-3    
 energy type= TD      
 Original G94 input coords:
  6 -4.037074  3.259711  1.902155
  6 -2.636540  3.157327  1.840000
  6 -2.027178  2.091092  1.219191
  6 -2.794602  1.060869  0.621966
  6 -4.208194  1.178554  0.693050
  6 -4.811983  2.274005  1.330806
 16 -5.294960  0.000135  0.010330
  6 -4.211057 -1.178345 -0.676840
  6 -4.817511 -2.273602 -1.312393
  6 -4.044999 -3.259351 -1.886910
  6 -2.644217 -3.157212 -1.830200
  6 -2.032260 -2.091167 -1.211616
  6 -2.797179 -1.060930 -0.611210
  7 -2.154016 -0.000082  0.004127
  6 -0.675249 -0.000185  0.001231
  6 -0.029522 -0.615822  1.058476
  6  1.401629 -0.627211  1.075307
  6  2.141086 -1.232187  2.114058
  6  3.522550 -1.231610  2.110374
  6  4.260988 -0.624560  1.065437
  6  5.680299 -0.609439  1.036904
  6  6.357326  0.000095 -0.011939
  6  5.676334  0.609511 -1.058281
  6  4.256926  0.624438 -1.081555
  6  3.514537  1.231427 -2.123725
  6  2.133069  1.231951 -2.122207
  6  1.397548  0.626863 -1.080727
  6 -0.033534  0.615422 -1.058493
  6  2.111707 -0.000184 -0.004066
  6  3.541146 -0.000105 -0.006726
  1 -4.505498  4.103032  2.393139
  1 -2.019534  3.927038  2.286262
  1 -0.952471  2.020269  1.175986
  1 -5.893681  2.332610  1.366929
  1 -5.899351 -2.331966 -1.344399
  1 -4.515475 -4.102469 -2.376281
  1 -2.029086 -3.927002 -2.278906
  1 -0.957380 -2.020543 -1.172568
  1 -0.586139 -1.082312  1.861473
  1  1.602616 -1.705717  2.929192
  1  4.065925 -1.704436  2.922220
  1  6.227781 -1.080591  1.845773
  1  7.443311  0.000177 -0.013947
  1  6.220751  1.080747 -1.869168
  1  4.054832  1.704300 -2.937596
  1  1.591518  1.705467 -2.935306
  1 -0.593191  1.081986 -1.859331
 nber atoms=          47
  Total Energy, E(TD-HF/TD-DFT) =  -1530.40749521                               
  
          32          49 "  -1530.40749521"
After scan for Atom:   Atom  AN      X      Y      Z        X      Y      Z        X      Y      Z   
After scan for Atom:   Atom  AN      X      Y      Z        X      Y      Z        X      Y      Z   
After scan for Atom:   Atom  AN      X      Y      Z        X      Y      Z        X      Y      Z   
After scan for Atom:   Atom  AN      X      Y      Z        X      Y      Z        X      Y      Z   
After scan for Atom:   Atom  AN      X      Y      Z        X      Y      Z        X      Y      Z   
After scan for Atom:   Atom  AN      X      Y      Z        X      Y      Z        X      Y      Z   
After scan for Atom:   Atom  AN      X      Y      Z        X      Y      Z        X      Y      Z   
After scan for Atom:   Atom  AN      X      Y      Z        X      Y      Z        X      Y      Z   
After scan for Atom:   Atom  AN      X      Y      Z        X      Y      Z        X      Y      Z   
After scan for Atom:   Atom  AN      X      Y      Z        X      Y      Z        X      Y      Z   
After scan for Atom:   Atom  AN      X      Y      Z        X      Y      Z        X      Y      Z   
After scan for Atom:   Atom  AN      X      Y      Z        X      Y      Z        X      Y      Z   
After scan for Atom:   Atom  AN      X      Y      Z        X      Y      Z        X      Y      Z   
After scan for Atom:   Atom  AN      X      Y      Z        X      Y      Z        X      Y      Z   
After scan for Atom:   Atom  AN      X      Y      Z        X      Y      Z        X      Y      Z   
After scan for Atom:   Atom  AN      X      Y      Z        X      Y      Z        X      Y      Z   
After scan for Atom:   Atom  AN      X      Y      Z        X      Y      Z        X      Y      Z   
After scan for Atom:   Atom  AN      X      Y      Z        X      Y      Z        X      Y      Z   
After scan for Atom:   Atom  AN      X      Y      Z        X      Y      Z        X      Y      Z   
After scan for Atom:   Atom  AN      X      Y      Z        X      Y      Z        X      Y      Z   
After scan for Atom:   Atom  AN      X      Y      Z        X      Y      Z        X      Y      Z   
After scan for Atom:   Atom  AN      X      Y      Z        X      Y      Z        X      Y      Z   
After scan for Atom:   Atom  AN      X      Y      Z        X      Y      Z        X      Y      Z   
After scan for Atom:   Atom  AN      X      Y      Z        X      Y      Z        X      Y      Z   
After scan for Atom:   Atom  AN      X      Y      Z        X      Y      Z        X      Y      Z   
After scan for Atom:   Atom  AN      X      Y      Z        X      Y      Z        X      Y      Z   
After scan for Atom:   Atom  AN      X      Y      Z        X      Y      Z        X      Y      Z   
After scan for Atom:   Atom  AN      X      Y      Z        X      Y      Z        X      Y      Z   
After scan for Atom:   Atom  AN      X      Y      Z        X      Y      Z        X      Y      Z   
After scan for Atom:   Atom  AN      X      Y      Z        X      Y      Z        X      Y      Z   
After scan for Atom:   Atom  AN      X      Y      Z        X      Y      Z        X      Y      Z   
After scan for Atom:   Atom  AN      X      Y      Z        X      Y      Z        X      Y      Z   
After scan for Atom:   Atom  AN      X      Y      Z        X      Y      Z        X      Y      Z   
After scan for Atom:   Atom  AN      X      Y      Z        X      Y      Z        X      Y      Z   
After scan for Atom:   Atom  AN      X      Y      Z        X      Y      Z        X      Y      Z   
After scan for Atom:   Atom  AN      X      Y      Z        X      Y      Z        X      Y      Z   
After scan for Atom:   Atom  AN      X      Y      Z        X      Y      Z        X      Y      Z   
After scan for Atom:   Atom  AN      X      Y      Z        X      Y      Z        X      Y      Z   
After scan for Atom:   Atom  AN      X      Y      Z        X      Y      Z        X      Y      Z   
After scan for Atom:   Atom  AN      X      Y      Z        X      Y      Z        X      Y      Z   
After scan for Atom:   Atom  AN      X      Y      Z        X      Y      Z        X      Y      Z   
After scan for Atom:   Atom  AN      X      Y      Z        X      Y      Z        X      Y      Z   
After scan for Atom:   Atom  AN      X      Y      Z        X      Y      Z        X      Y      Z   
After scan for Atom:   Atom  AN      X      Y      Z        X      Y      Z        X      Y      Z   
After scan for Atom:   Atom  AN      X      Y      Z        X      Y      Z        X      Y      Z   
 g94    frequencies=
     0.0    0.0    0.0    0.0    0.0    0.0   29.1   30.4   32.1   57.8
    93.3  101.3  148.0  151.3  156.8  205.7  209.7  223.9  235.6  237.4
   267.5  343.1  366.2  381.6  381.8  416.2  424.4  445.7  449.2  455.2
   455.7  473.2  493.0  508.0  510.5  512.3  519.5  531.9  544.0  550.6
   599.1  605.1  611.1  650.4  663.2  668.1  694.2  698.4  705.8  715.5
   716.4  721.9  734.8  754.5  766.6  767.6  773.1  778.0  780.5  816.6
   818.9  820.2  844.4  855.2  862.0  865.2  905.8  913.4  935.6  954.8
   969.2  969.6  988.1  989.9 1004.8 1012.8 1013.2 1050.6 1059.9 1077.0
  1096.7 1110.9 1137.4 1140.0 1146.5 1156.0 1172.3 1184.7 1187.3 1193.3
  1204.9 1212.3 1232.5 1253.0 1265.1 1265.2 1278.6 1300.2 1311.8 1316.4
  1339.3 1346.0 1357.0 1368.9 1376.1 1383.1 1424.7 1438.6 1447.2 1452.9
  1473.1 1477.6 1501.2 1513.4 1515.2 1551.3 1552.2 1568.7 1573.9 1598.2
  1603.5 1624.2 1639.7 1645.8 3141.4 3142.7 3143.3 3160.7 3162.9 3164.4
  3173.6 3177.7 3177.7 3181.2 3185.0 3194.1 3194.1 3207.5 3207.5 3254.8
  3254.8
 g94    symmetries=
                                                 A      A      A      A
       A      A      A      A      A      A      A      A      A      A
       A      A      A      A      A      A      A      A      A      A
       A      A      A      A      A      A      A      A      A      A
       A      A      A      A      A      A      A      A      A      A
       A      A      A      A      A      A      A      A      A      A
       A      A      A      A      A      A      A      A      A      A
       A      A      A      A      A      A      A      A      A      A
       A      A      A      A      A      A      A      A      A      A
       A      A      A      A      A      A      A      A      A      A
       A      A      A      A      A      A      A      A      A      A
       A      A      A      A      A      A      A      A      A      A
       A      A      A      A      A      A      A      A      A      A
       A      A      A      A      A      A      A      A      A      A
       A
 atomic masses:
 12.0000 12.0000 12.0000 12.0000 12.0000 12.0000 31.9721 12.0000 12.0000 12.0000
 12.0000 12.0000 12.0000 14.0031 12.0000 12.0000 12.0000 12.0000 12.0000 12.0000
 12.0000 12.0000 12.0000 12.0000 12.0000 12.0000 12.0000 12.0000 12.0000 12.0000
  1.0078  1.0078  1.0078  1.0078  1.0078  1.0078  1.0078  1.0078  1.0078  1.0078
  1.0078  1.0078  1.0078  1.0078  1.0078  1.0078  1.0078
 looking for force constants in 
 ./phenothiazine-pyrene_0_C0S1.fchk                                             
  
 Cartesian Force Constants                  R   N=       10011                  
  
 n3=         141       10011
 g94-fc frequencies=
    -0.0   -0.0    0.0    2.3    2.7    4.8   29.1   30.4   32.1   57.8
    93.3  101.3  148.0  151.3  156.8  205.7  209.7  223.9  235.6  237.4
   267.5  343.1  366.2  381.7  381.8  416.2  424.4  445.7  449.2  455.2
   455.7  473.2  493.0  508.0  510.5  512.3  519.5  531.9  544.0  550.6
   599.1  605.1  611.1  650.4  663.2  668.1  694.2  698.4  705.9  715.5
   716.4  721.9  734.9  754.5  766.7  767.6  773.1  778.0  780.5  816.7
   818.9  820.2  844.4  855.2  862.0  865.2  905.8  913.5  935.6  954.8
   969.2  969.6  988.2  989.9 1004.9 1012.8 1013.2 1050.6 1059.9 1077.0
  1096.7 1111.0 1137.4 1140.0 1146.5 1156.0 1172.4 1184.7 1187.4 1193.3
  1204.9 1212.4 1232.5 1253.0 1265.2 1265.3 1278.6 1300.3 1311.9 1316.5
  1339.3 1346.0 1357.0 1369.0 1376.1 1383.1 1424.8 1438.7 1447.2 1452.9
  1473.1 1477.6 1501.3 1513.5 1515.3 1551.3 1552.2 1568.8 1573.9 1598.2
  1603.6 1624.3 1639.7 1645.8 3141.5 3142.7 3143.4 3160.8 3162.9 3164.4
  3173.6 3177.7 3177.8 3181.3 3185.0 3194.2 3194.2 3207.5 3207.6 3254.9
  3254.9
 at 99999: n3=         141
 symm operator            1 :  F  nop=           0
 symm operator            2 :  F  nop=           0
 symm operator            3 :  F  nop=           0
 symm operator            4 :  F  nop=           0
 symm operator            5 :  F  nop=           0
 symm operator            6 :  F  nop=           0
 symm operator            7 :  F  nop=           0
 The point group of the molecule is  C1
 Symmetry rotation matrix:
   1.00000   0.00000   0.00000
   0.00000   1.00000   0.00000
   0.00000   0.00000   1.00000

 Projecting out zero-frequency components
 generating redundant internal coords
         300        3600          47
 search for int coords
   1 str   2   1   1.406
   2 str   3   2   1.376
   3 str   4   3   1.417
   4 str   5   4   1.420
   5 str   6   1   1.378
   6 str   6   5   1.404
   7 str   7   5   1.742
   8 str   8   7   1.742
   9 str   9   8   1.404
  10 str  10   9   1.378
  11 str  11  10   1.406
  12 str  12  11   1.376
  13 str  13   8   1.420
  14 str  13  12   1.417
  15 str  14   4   1.385
  16 str  14  13   1.385
  17 str  15  14   1.479
  18 str  16  15   1.383
  19 str  17  16   1.431
  20 str  18  17   1.411
  21 str  19  18   1.381
  22 str  20  19   1.416
  23 str  21  20   1.420
  24 str  22  21   1.389
  25 str  23  22   1.389
  26 str  24  23   1.420
  27 str  25  24   1.416
  28 str  26  25   1.381
  29 str  27  26   1.411
  30 str  28  15   1.383
  31 str  28  27   1.431
  32 str  29  17   1.436
  33 str  29  27   1.436
  34 str  30  20   1.434
  35 str  30  24   1.434
  36 str  30  29   1.429
  37 str  31   1   1.082
  38 str  32   2   1.083
  39 str  33   3   1.078
  40 str  34   6   1.084
  41 str  35   9   1.084
  42 str  36  10   1.082
  43 str  37  11   1.083
  44 str  38  12   1.078
  45 str  39  16   1.083
  46 str  40  18   1.086
  47 str  41  19   1.085
  48 str  42  21   1.084
  49 str  43  22   1.086
  50 str  44  23   1.084
  51 str  45  25   1.085
  52 str  46  26   1.086
  53 str  47  28   1.083
 nber stretches=          53
  54 ben   1   2   3
  55 prop tor   1   2   3   4
  56 prop tor   1   2   3  33
  57 ben   1   2  32
  58 ben   1   6   5
  59 ben   1   6  34
  60 ben   2   1   6
  61 prop tor   2   1   6   5
  62 prop tor   2   1   6  34
  63 ben   2   1  31
  64 ben   2   3   4
  65 prop tor   2   3   4   5
  66 prop tor   2   3   4  14
  67 ben   2   3  33
  68 ben   3   2  32
  69 ben   3   4   5
  70 prop tor   3   4   5   6
  71 prop tor   3   4   5   7
  72 ben   3   4  14
  73 prop tor   3   4  14  13
  74 prop tor   3   4  14  15
  75 ben   4   3  33
  76 ben   4   5   6
  77 prop tor   4   5   6   1
  78 prop tor   4   5   6  34
  79 ben   4   5   7
  80 prop tor   4   5   7   8
  81 ben   4  14  13
  82 ben   4  14  15
  83 prop tor   4  14  15  16
  84 prop tor   4  14  15  28
  85 ben   5   4  14
  86 prop tor   5   4  14  13
  87 prop tor   5   4  14  15
  88 ben   5   6  34
  89 ben   5   7   8
  90 prop tor   5   7   8   9
  91 prop tor   5   7   8  13
  92 prop tor   6   1   2   3
  93 prop tor   6   1   2  32
  94 ben   6   1  31
  95 ben   6   5   7
  96 prop tor   6   5   7   8
  97 prop tor   7   5   6   1
  98 prop tor   7   5   6  34
  99 ben   7   8   9
 100 prop tor   7   8   9  10
 101 prop tor   7   8   9  35
 102 ben   7   8  13
 103 prop tor   7   8  13  12
 104 prop tor   7   8  13  14
 105 ben   8   9  10
 106 prop tor   8   9  10  11
 107 prop tor   8   9  10  36
 108 ben   8   9  35
 109 ben   8  13  12
 110 ben   8  13  14
 111 prop tor   8  13  14   4
 112 prop tor   8  13  14  15
 113 ben   9   8  13
 114 prop tor   9   8  13  12
 115 prop tor   9   8  13  14
 116 ben   9  10  11
 117 prop tor   9  10  11  12
 118 prop tor   9  10  11  37
 119 ben   9  10  36
 120 ben  10   9  35
 121 ben  10  11  12
 122 prop tor  10  11  12  13
 123 prop tor  10  11  12  38
 124 ben  10  11  37
 125 ben  11  10  36
 126 ben  11  12  13
 127 prop tor  11  12  13   8
 128 prop tor  11  12  13  14
 129 ben  11  12  38
 130 ben  12  11  37
 131 ben  12  13  14
 132 prop tor  12  13  14   4
 133 prop tor  12  13  14  15
 134 prop tor  13   8   9  10
 135 prop tor  13   8   9  35
 136 ben  13  12  38
 137 ben  13  14  15
 138 prop tor  13  14  15  16
 139 prop tor  13  14  15  28
 140 prop tor  14   4   5   6
 141 prop tor  14   4   5   7
 142 ben  14  15  16
 143 prop tor  14  15  16  17
 144 prop tor  14  15  16  39
 145 ben  14  15  28
 146 prop tor  14  15  28  27
 147 prop tor  14  15  28  47
 148 ben  15  16  17
 149 prop tor  15  16  17  18
 150 prop tor  15  16  17  29
 151 ben  15  16  39
 152 ben  15  28  27
 153 ben  15  28  47
 154 ben  16  15  28
 155 prop tor  16  15  28  27
 156 prop tor  16  15  28  47
 157 ben  16  17  18
 158 prop tor  16  17  18  19
 159 prop tor  16  17  18  40
 160 ben  16  17  29
 161 prop tor  16  17  29  27
 162 prop tor  16  17  29  30
 163 ben  17  16  39
 164 ben  17  18  19
 165 prop tor  17  18  19  20
 166 prop tor  17  18  19  41
 167 ben  17  18  40
 168 ben  17  29  27
 169 ben  17  29  30
 170 prop tor  17  29  30  20
 171 prop tor  17  29  30  24
 172 ben  18  17  29
 173 prop tor  18  17  29  27
 174 prop tor  18  17  29  30
 175 ben  18  19  20
 176 prop tor  18  19  20  21
 177 prop tor  18  19  20  30
 178 ben  18  19  41
 179 ben  19  18  40
 180 ben  19  20  21
 181 prop tor  19  20  21  22
 182 prop tor  19  20  21  42
 183 ben  19  20  30
 184 prop tor  19  20  30  24
 185 prop tor  19  20  30  29
 186 ben  20  19  41
 187 ben  20  21  22
 188 prop tor  20  21  22  23
 189 prop tor  20  21  22  43
 190 ben  20  21  42
 191 ben  20  30  24
 192 ben  20  30  29
 193 ben  21  20  30
 194 prop tor  21  20  30  24
 195 prop tor  21  20  30  29
 196 ben  21  22  23
 197 prop tor  21  22  23  24
 198 prop tor  21  22  23  44
 199 ben  21  22  43
 200 ben  22  21  42
 201 ben  22  23  24
 202 prop tor  22  23  24  25
 203 prop tor  22  23  24  30
 204 ben  22  23  44
 205 ben  23  22  43
 206 ben  23  24  25
 207 prop tor  23  24  25  26
 208 prop tor  23  24  25  45
 209 ben  23  24  30
 210 prop tor  23  24  30  20
 211 prop tor  23  24  30  29
 212 ben  24  23  44
 213 ben  24  25  26
 214 prop tor  24  25  26  27
 215 prop tor  24  25  26  46
 216 ben  24  25  45
 217 ben  24  30  29
 218 ben  25  24  30
 219 prop tor  25  24  30  20
 220 prop tor  25  24  30  29
 221 ben  25  26  27
 222 prop tor  25  26  27  28
 223 prop tor  25  26  27  29
 224 ben  25  26  46
 225 ben  26  25  45
 226 ben  26  27  28
 227 prop tor  26  27  28  15
 228 prop tor  26  27  28  47
 229 ben  26  27  29
 230 prop tor  26  27  29  17
 231 prop tor  26  27  29  30
 232 ben  27  26  46
 233 ben  27  28  47
 234 ben  27  29  30
 235 prop tor  27  29  30  20
 236 prop tor  27  29  30  24
 237 prop tor  28  15  16  17
 238 prop tor  28  15  16  39
 239 ben  28  27  29
 240 prop tor  28  27  29  17
 241 prop tor  28  27  29  30
 242 prop tor  29  17  18  19
 243 prop tor  29  17  18  40
 244 prop tor  29  27  28  15
 245 prop tor  29  27  28  47
 246 prop tor  30  20  21  22
 247 prop tor  30  20  21  42
 248 prop tor  30  24  25  26
 249 prop tor  30  24  25  45
 250 prop tor  31   1   2   3
 251 prop tor  31   1   2  32
 252 prop tor  31   1   6   5
 253 prop tor  31   1   6  34
 254 prop tor  32   2   3   4
 255 prop tor  32   2   3  33
 256 prop tor  33   3   4   5
 257 prop tor  33   3   4  14
 258 prop tor  35   9  10  11
 259 prop tor  35   9  10  36
 260 prop tor  36  10  11  12
 261 prop tor  36  10  11  37
 262 prop tor  37  11  12  13
 263 prop tor  37  11  12  38
 264 prop tor  38  12  13   8
 265 prop tor  38  12  13  14
 266 prop tor  39  16  17  18
 267 prop tor  39  16  17  29
 268 prop tor  40  18  19  20
 269 prop tor  40  18  19  41
 270 prop tor  41  19  20  21
 271 prop tor  41  19  20  30
 272 prop tor  42  21  22  23
 273 prop tor  42  21  22  43
 274 prop tor  43  22  23  24
 275 prop tor  43  22  23  44
 276 prop tor  44  23  24  25
 277 prop tor  44  23  24  30
 278 prop tor  45  25  26  27
 279 prop tor  45  25  26  46
 280 prop tor  46  26  27  28
 281 prop tor  46  26  27  29
 nber bend=              88
 nber lin bend=           0
 nber prop tor=         140
 nber impr tor=           0
 nber tot redund int=         281
 Eigenvalues of G in red int coords
    Gval -0.00000000 -0.00000000 -0.00000000 -0.00000000 -0.00000000 -0.00000000 -0.00000000 -0.00000000
    Gval -0.00000000 -0.00000000 -0.00000000 -0.00000000 -0.00000000 -0.00000000 -0.00000000 -0.00000000
    Gval -0.00000000 -0.00000000 -0.00000000 -0.00000000 -0.00000000 -0.00000000 -0.00000000 -0.00000000
    Gval -0.00000000 -0.00000000 -0.00000000 -0.00000000 -0.00000000 -0.00000000 -0.00000000 -0.00000000
    Gval -0.00000000 -0.00000000 -0.00000000 -0.00000000 -0.00000000 -0.00000000 -0.00000000 -0.00000000
    Gval -0.00000000 -0.00000000 -0.00000000 -0.00000000 -0.00000000 -0.00000000 -0.00000000 -0.00000000
    Gval -0.00000000 -0.00000000 -0.00000000 -0.00000000 -0.00000000 -0.00000000 -0.00000000 -0.00000000
    Gval -0.00000000 -0.00000000 -0.00000000 -0.00000000 -0.00000000 -0.00000000 -0.00000000 -0.00000000
    Gval -0.00000000 -0.00000000 -0.00000000 -0.00000000 -0.00000000 -0.00000000 -0.00000000  0.00000000
    Gval  0.00000000  0.00000000  0.00000000  0.00000000  0.00000000  0.00000000  0.00000000  0.00000000
    Gval  0.00000000  0.00000000  0.00000000  0.00000000  0.00000000  0.00000000  0.00000000  0.00000000
    Gval  0.00000000  0.00000000  0.00000000  0.00000000  0.00000000  0.00000000  0.00000000  0.00000000
    Gval  0.00000000  0.00000000  0.00000000  0.00000000  0.00000000  0.00000000  0.00000000  0.00000000
    Gval  0.00000000  0.00000000  0.00000000  0.00000000  0.00000000  0.00000000  0.00000000  0.00000000
    Gval  0.00000000  0.00000000  0.00000000  0.00000000  0.00000000  0.00000000  0.00000000  0.00000000
    Gval  0.00000000  0.00000000  0.00000000  0.00000000  0.00000000  0.00000000  0.00000000  0.00000000
    Gval  0.00000000  0.00000000  0.00000000  0.00000000  0.00000000  0.00000000  0.00000000  0.00000000
    Gval  0.00000000  0.00000000  0.00000000  0.00000000  0.00000000  0.00000000  0.00000000  0.00000000
    Gval  0.00000000  0.00000000  0.00000084  0.00000163  0.00000198  0.00000452  0.00000840  0.00001002
    Gval  0.00001048  0.00001166  0.00001716  0.00002120  0.00002227  0.00002441  0.00002507  0.00002824
    Gval  0.00003016  0.00003653  0.00004188  0.00004911  0.00005147  0.00005560  0.00005569  0.00005855
    Gval  0.00006236  0.00006752  0.00006839  0.00007175  0.00007411  0.00007435  0.00007671  0.00007950
    Gval  0.00008294  0.00008567  0.00010385  0.00010478  0.00011171  0.00011471  0.00011737  0.00012155
    Gval  0.00012745  0.00013976  0.00014033  0.00014589  0.00016514  0.00017103  0.00017265  0.00018809
    Gval  0.00019053  0.00019964  0.00020464  0.00022740  0.00024776  0.00026062  0.00026619  0.00026721
    Gval  0.00026950  0.00031458  0.00032479  0.00033852  0.00034558  0.00037233  0.00038105  0.00038838
    Gval  0.00039627  0.00040160  0.00041988  0.00044209  0.00045479  0.00045857  0.00047348  0.00051890
    Gval  0.00057891  0.00059321  0.00059322  0.00059385  0.00059726  0.00059726  0.00059741  0.00059875
    Gval  0.00060759  0.00061788  0.00061913  0.00062004  0.00062752  0.00064254  0.00064531  0.00065491
    Gval  0.00065560  0.00065824  0.00068690  0.00076967  0.00079131  0.00082935  0.00091842  0.00096536
    Gval  0.00105624  0.00105667  0.00106275  0.00108637  0.00108643  0.00111393  0.00112326  0.00112339
    Gval  0.00113967  0.00114501  0.00115717  0.00115796  0.00116563  0.00116591  0.00116607  0.00117584
    Gval  0.00117584  0.00117892  0.00133758  0.00146292  0.00170744  0.00171770  0.00175126  0.00180025
    Gval  0.00191726  0.00220361  0.00230763  0.00238589  0.00255678  0.00264446  0.00271352  0.00309185
    Gval  0.00312690  0.00320282  0.00351023  0.00352414  0.00366361  0.00370489  0.00391100  0.00403086
    Gval  0.00403216
  8.425293249986704E-007  8.425293249986704E-007
  1.633029713827066E-006  8.425293249986704E-007
  1.983340529255737E-006  8.425293249986704E-007
  4.522626032302459E-006  8.425293249986704E-007
  8.401985201927678E-006  8.425293249986704E-007
  1.002480736187216E-005  8.425293249986704E-007
  1.048143379150716E-005  8.425293249986704E-007
  1.166154877941423E-005  8.425293249986704E-007
  1.715938660429678E-005  8.425293249986704E-007
  2.120306744066541E-005  8.425293249986704E-007
  2.227126825479770E-005  8.425293249986704E-007
  2.441109100453833E-005  8.425293249986704E-007
  2.507473164814223E-005  8.425293249986704E-007
  2.823933481365678E-005  8.425293249986704E-007
  3.015651242863685E-005  8.425293249986704E-007
  3.653076403633187E-005  8.425293249986704E-007
  4.187688977948833E-005  8.425293249986704E-007
  4.911147600435695E-005  8.425293249986704E-007
  5.147004466315687E-005  8.425293249986704E-007
  5.559661463297348E-005  8.425293249986704E-007
  5.568615346444074E-005  8.425293249986704E-007
  5.855319802521785E-005  8.425293249986704E-007
  6.236280994279452E-005  8.425293249986704E-007
  6.752328180519436E-005  8.425293249986704E-007
  6.838943137213021E-005  8.425293249986704E-007
  7.174529653493127E-005  8.425293249986704E-007
  7.410530205040123E-005  8.425293249986704E-007
  7.435480379721862E-005  8.425293249986704E-007
  7.671264663762530E-005  8.425293249986704E-007
  7.949679664032094E-005  8.425293249986704E-007
  8.293595829312284E-005  8.425293249986704E-007
  8.566678692486151E-005  8.425293249986704E-007
  1.038457988370408E-004  8.425293249986704E-007
  1.047817392887096E-004  8.425293249986704E-007
  1.117142207095735E-004  8.425293249986704E-007
  1.147071782808477E-004  8.425293249986704E-007
  1.173745109109822E-004  8.425293249986704E-007
  1.215461551659010E-004  8.425293249986704E-007
  1.274469188647991E-004  8.425293249986704E-007
  1.397645772866821E-004  8.425293249986704E-007
  1.403328214377896E-004  8.425293249986704E-007
  1.458941710434940E-004  8.425293249986704E-007
  1.651374743668442E-004  8.425293249986704E-007
  1.710281414689582E-004  8.425293249986704E-007
  1.726512596051151E-004  8.425293249986704E-007
  1.880920669473903E-004  8.425293249986704E-007
  1.905264905741619E-004  8.425293249986704E-007
  1.996433932007608E-004  8.425293249986704E-007
  2.046415415660427E-004  8.425293249986704E-007
  2.274044654584315E-004  8.425293249986704E-007
  2.477558250760565E-004  8.425293249986704E-007
  2.606171751287754E-004  8.425293249986704E-007
  2.661890271488303E-004  8.425293249986704E-007
  2.672119123664410E-004  8.425293249986704E-007
  2.695028111715231E-004  8.425293249986704E-007
  3.145750192983906E-004  8.425293249986704E-007
  3.247908316739790E-004  8.425293249986704E-007
  3.385198662465818E-004  8.425293249986704E-007
  3.455755742468098E-004  8.425293249986704E-007
  3.723336118969661E-004  8.425293249986704E-007
  3.810512527787701E-004  8.425293249986704E-007
  3.883752567924070E-004  8.425293249986704E-007
  3.962684825939060E-004  8.425293249986704E-007
  4.015997641663914E-004  8.425293249986704E-007
  4.198774220014896E-004  8.425293249986704E-007
  4.420900852942837E-004  8.425293249986704E-007
  4.547944058653847E-004  8.425293249986704E-007
  4.585656560705334E-004  8.425293249986704E-007
  4.734759438980338E-004  8.425293249986704E-007
  5.188991468432749E-004  8.425293249986704E-007
  5.789106107496609E-004  8.425293249986704E-007
  5.932063037930417E-004  8.425293249986704E-007
  5.932229868722818E-004  8.425293249986704E-007
  5.938474776459704E-004  8.425293249986704E-007
  5.972579860438534E-004  8.425293249986704E-007
  5.972640102202418E-004  8.425293249986704E-007
  5.974083053832933E-004  8.425293249986704E-007
  5.987542186537621E-004  8.425293249986704E-007
  6.075878133308590E-004  8.425293249986704E-007
  6.178773472497200E-004  8.425293249986704E-007
  6.191260852130870E-004  8.425293249986704E-007
  6.200370696549772E-004  8.425293249986704E-007
  6.275213855542614E-004  8.425293249986704E-007
  6.425385933404441E-004  8.425293249986704E-007
  6.453141325067427E-004  8.425293249986704E-007
  6.549070802668300E-004  8.425293249986704E-007
  6.555962542599378E-004  8.425293249986704E-007
  6.582357562874548E-004  8.425293249986704E-007
  6.869000519040066E-004  8.425293249986704E-007
  7.696743938329944E-004  8.425293249986704E-007
  7.913088176838380E-004  8.425293249986704E-007
  8.293512296696187E-004  8.425293249986704E-007
  9.184226260777786E-004  8.425293249986704E-007
  9.653619439673419E-004  8.425293249986704E-007
  1.056236863778737E-003  8.425293249986704E-007
  1.056668290473787E-003  8.425293249986704E-007
  1.062753435024018E-003  8.425293249986704E-007
  1.086371272361980E-003  8.425293249986704E-007
  1.086426144336897E-003  8.425293249986704E-007
  1.113928619199071E-003  8.425293249986704E-007
  1.123259434990984E-003  8.425293249986704E-007
  1.123386840726846E-003  8.425293249986704E-007
  1.139674404297747E-003  8.425293249986704E-007
  1.145007286097988E-003  8.425293249986704E-007
  1.157170597590243E-003  8.425293249986704E-007
  1.157961891180595E-003  8.425293249986704E-007
  1.165630218388457E-003  8.425293249986704E-007
  1.165911462058637E-003  8.425293249986704E-007
  1.166069282412416E-003  8.425293249986704E-007
  1.175836600420519E-003  8.425293249986704E-007
  1.175842930077038E-003  8.425293249986704E-007
  1.178923673053234E-003  8.425293249986704E-007
  1.337580493088294E-003  8.425293249986704E-007
  1.462919901049240E-003  8.425293249986704E-007
  1.707437158421318E-003  8.425293249986704E-007
  1.717699804104748E-003  8.425293249986704E-007
  1.751264864540963E-003  8.425293249986704E-007
  1.800253338399584E-003  8.425293249986704E-007
  1.917255182158245E-003  8.425293249986704E-007
  2.203613459486907E-003  8.425293249986704E-007
  2.307630478461086E-003  8.425293249986704E-007
  2.385892155500763E-003  8.425293249986704E-007
  2.556777234160183E-003  8.425293249986704E-007
  2.644455244630080E-003  8.425293249986704E-007
  2.713516823568234E-003  8.425293249986704E-007
  3.091850085997991E-003  8.425293249986704E-007
  3.126901535360726E-003  8.425293249986704E-007
  3.202819634814785E-003  8.425293249986704E-007
  3.510229671736896E-003  8.425293249986704E-007
  3.524141330386391E-003  8.425293249986704E-007
  3.663610109822895E-003  8.425293249986704E-007
  3.704886341057800E-003  8.425293249986704E-007
  3.911004444967131E-003  8.425293249986704E-007
  4.030862360238275E-003  8.425293249986704E-007
  4.032159673352441E-003  8.425293249986704E-007
 cut=1d-8, nber non-redundant internal coords=         135
 Check on Eigenvals of non-red overlap matrix:
  0.00000084  0.00000163  0.00000198  0.00000452  0.00000840  0.00001002  0.00001048  0.00001166
  0.00001716  0.00002120  0.00002227  0.00002441  0.00002507  0.00002824  0.00003016  0.00003653
  0.00004188  0.00004911  0.00005147  0.00005560  0.00005569  0.00005855  0.00006236  0.00006752
  0.00006839  0.00007175  0.00007411  0.00007435  0.00007671  0.00007950  0.00008294  0.00008567
  0.00010385  0.00010478  0.00011171  0.00011471  0.00011737  0.00012155  0.00012745  0.00013976
  0.00014033  0.00014589  0.00016514  0.00017103  0.00017265  0.00018809  0.00019053  0.00019964
  0.00020464  0.00022740  0.00024776  0.00026062  0.00026619  0.00026721  0.00026950  0.00031458
  0.00032479  0.00033852  0.00034558  0.00037233  0.00038105  0.00038838  0.00039627  0.00040160
  0.00041988  0.00044209  0.00045479  0.00045857  0.00047348  0.00051890  0.00057891  0.00059321
  0.00059322  0.00059385  0.00059726  0.00059726  0.00059741  0.00059875  0.00060759  0.00061788
  0.00061913  0.00062004  0.00062752  0.00064254  0.00064531  0.00065491  0.00065560  0.00065824
  0.00068690  0.00076967  0.00079131  0.00082935  0.00091842  0.00096536  0.00105624  0.00105667
  0.00106275  0.00108637  0.00108643  0.00111393  0.00112326  0.00112339  0.00113967  0.00114501
  0.00115717  0.00115796  0.00116563  0.00116591  0.00116607  0.00117584  0.00117584  0.00117892
  0.00133758  0.00146292  0.00170744  0.00171770  0.00175126  0.00180025  0.00191726  0.00220361
  0.00230763  0.00238589  0.00255678  0.00264446  0.00271352  0.00309185  0.00312690  0.00320282
  0.00351023  0.00352414  0.00366361  0.00370489  0.00391100  0.00403086  0.00403216
 Checking for correct frequencies
 recalc frequencies=
    -0.0   -0.0   -0.0   -0.0    0.0    0.0   29.1   30.4   32.1   57.8
    93.3  101.3  148.0  151.3  156.8  205.7  209.7  223.9  235.6  237.4
   267.5  343.1  366.2  381.7  381.8  416.2  424.4  445.7  449.2  455.2
   455.7  473.2  493.0  508.0  510.5  512.3  519.5  531.9  544.0  550.6
   599.1  605.1  611.1  650.4  663.2  668.1  694.2  698.4  705.9  715.5
   716.4  721.9  734.9  754.5  766.7  767.6  773.1  778.0  780.5  816.7
   818.9  820.2  844.4  855.2  862.0  865.2  905.8  913.5  935.6  954.8
   969.2  969.6  988.2  989.9 1004.9 1012.8 1013.2 1050.6 1059.9 1077.0
  1096.7 1111.0 1137.4 1140.0 1146.5 1156.0 1172.4 1184.7 1187.4 1193.3
  1204.9 1212.4 1232.5 1253.0 1265.2 1265.3 1278.6 1300.3 1311.9 1316.5
  1339.3 1346.0 1357.0 1369.0 1376.1 1383.1 1424.8 1438.7 1447.2 1452.9
  1473.1 1477.6 1501.3 1513.5 1515.3 1551.3 1552.2 1568.8 1573.9 1598.2
  1603.6 1624.3 1639.7 1645.8 3141.5 3142.7 3143.4 3160.8 3162.9 3164.4
  3173.6 3177.7 3177.8 3181.3 3185.0 3194.2 3194.2 3207.5 3207.6 3254.9
  3254.9
 recalc symmetries=
                                                                       
                                                                       
                                                                       
                                                                       
                                                                       
                                                                       
                                                                       
                                                                       
                                                                       
                                                                       
                                                                       
                                                                       
                                                                       
                                                                       
        
 recalc freqs check OK
 Zero-point lengths:
 10.0000 10.0000 10.0000 10.0000 10.0000 10.0000 45.9691 44.9340 43.7437 32.5966
 25.6628 24.6299 20.3761 20.1572 19.7999 17.2847 17.1182 16.5683 16.1501 16.0901
 15.1584 13.3832 12.9550 12.6900 12.6869 12.1514 12.0340 11.7427 11.6975 11.6195
 11.6127 11.3961 11.1657 10.9994 10.9722 10.9527 10.8763 10.7489 10.6292 10.5653
 10.1284 10.0783 10.0286  9.7211  9.6266  9.5914  9.4089  9.3808  9.3311  9.2679
  9.2620  9.2270  9.1452  9.0252  8.9535  8.9481  8.9163  8.8880  8.8738  8.6751
  8.6634  8.6561  8.5315  8.4774  8.4440  8.4280  8.2370  8.2026  8.1048  8.0230
  7.9631  7.9614  7.8865  7.8794  7.8206  7.7899  7.7885  7.6486  7.6148  7.5541
  7.4860  7.4378  7.3508  7.3423  7.3217  7.2915  7.2404  7.2025  7.1946  7.1765
  7.1420  7.1200  7.0615  7.0035  6.9698  6.9696  6.9331  6.8751  6.8446  6.8327
  6.7742  6.7572  6.7298  6.7004  6.6829  6.6661  6.5678  6.5361  6.5166  6.5040
  6.4591  6.4494  6.3984  6.3725  6.3687  6.2943  6.2924  6.2592  6.2489  6.2012
  6.1909  6.1513  6.1223  6.1108  4.4231  4.4222  4.4218  4.4096  4.4081  4.4070
  4.4007  4.3978  4.3978  4.3954  4.3928  4.3865  4.3865  4.3773  4.3773  4.3454
  4.3454
 highest evec of mol 2
 -0.0030  0.0015  0.0009
  0.0065  0.0226  0.0131
  0.2320 -0.0153 -0.0093
 -0.0043 -0.0042 -0.0024
 -0.0008 -0.0003 -0.0002
 -0.0023  0.0002  0.0001
 -0.0002 -0.0000 -0.0000
 -0.0007  0.0003  0.0002
 -0.0017 -0.0002 -0.0001
 -0.0023 -0.0011 -0.0006
  0.0048 -0.0167 -0.0097
  0.1715  0.0111  0.0061
 -0.0030  0.0034  0.0020
  0.0035 -0.0001 -0.0001
 -0.0004 -0.0005 -0.0003
 -0.0004 -0.0005  0.0007
  0.0001 -0.0001  0.0001
 -0.0001 -0.0002  0.0004
  0.0001 -0.0000  0.0001
 -0.0000  0.0000 -0.0000
  0.0001 -0.0001  0.0001
  0.0002 -0.0000 -0.0000
  0.0001  0.0001 -0.0001
 -0.0000 -0.0000  0.0000
  0.0001  0.0000 -0.0001
 -0.0001  0.0002 -0.0004
  0.0001  0.0000 -0.0001
 -0.0004  0.0004 -0.0008
  0.0002  0.0000  0.0000
  0.0001  0.0000  0.0000
  0.0019 -0.0032 -0.0018
 -0.0394 -0.0525 -0.0305
 -0.7639  0.0470  0.0287
  0.0060 -0.0003 -0.0002
  0.0047  0.0003  0.0001
  0.0015  0.0024  0.0014
 -0.0289  0.0388  0.0226
 -0.5645 -0.0346 -0.0190
  0.0021  0.0022 -0.0035
  0.0006  0.0006 -0.0010
 -0.0002  0.0002 -0.0003
 -0.0002  0.0002 -0.0003
 -0.0005 -0.0000  0.0000
 -0.0002 -0.0002  0.0003
 -0.0002 -0.0002  0.0003
  0.0006 -0.0006  0.0010
  0.0021 -0.0019  0.0036
 Enter nber and list of atoms to keep of mol #2
 keep list:          47           1           2           3           4
           5           6           7           8           9          10
          11          12          13          14          15          16
          17          18          19          20          21          22
          23          24          25          26          27          28
          29          30          31          32          33          34
          35          36          37          38          39          40
          41          42          43          44          45          46
          47
 reordering atoms
           1  -3.65025986659972     
           2  -2.24961076788683     
           3  -1.63907520279409     
           4  -2.40536779732205     
           5  -3.81909176756137     
           6  -4.42408640866973     
           7  -4.90456402216835     
[...]
 nber times 1st assigned=          21           0
 nber times 1st assigned=          22           0
 nber times 1st assigned=          23           0
 nber times 1st assigned=          24           0
 nber times 1st assigned=          25           0
 nber times 1st assigned=          26           0
 nber times 1st assigned=          27           0
 nber times 1st assigned=          28           0
 nber times 1st assigned=          29           0
 nber times 1st assigned=          30           0
 nber times 1st assigned=          31           0
 nber times 1st assigned=          32           0
 nber times 1st assigned=          33           0
 nber times 1st assigned=          34           0
 nber times 1st assigned=          35           0
 nber times 1st assigned=          36           0
 nber times 1st assigned=          37           0
 nber times 1st assigned=          38           0
 nber times 1st assigned=          39           0
 nber times 1st assigned=          40           0
 nber times 1st assigned=          41           0
 nber times 1st assigned=          42           0
 nber times 1st assigned=          43           0
 nber times 1st assigned=          44           0
 nber times 1st assigned=          45           0
 nber times 1st assigned=          46           0
 nber times 1st assigned=          47           0
 nber times 1st assigned=          48           0
 nber times 1st assigned=          49           0
 nber times 1st assigned=          50           0
 nber times 1st assigned=          51           0
 nber times 1st assigned=          52           0
 nber times 1st assigned=          53           0
 nber times 1st assigned=          54           0
 nber times 1st assigned=          55           0
 nber times 1st assigned=          56           0
 nber times 1st assigned=          57           0
 nber times 1st assigned=          58           0
 nber times 1st assigned=          59           0
 nber times 1st assigned=          60           0
 nber times 1st assigned=          61           0
 nber times 1st assigned=          62           0
 nber times 1st assigned=          63           0
 nber times 1st assigned=          64           0
 nber times 1st assigned=          65           0
 nber times 1st assigned=          66           0
 nber times 1st assigned=          67           0
 nber times 1st assigned=          68           0
 nber times 1st assigned=          69           0
 nber times 1st assigned=          70           0
 nber times 1st assigned=          71           0
 nber times 1st assigned=          72           0
 nber times 1st assigned=          73           0
 nber times 1st assigned=          74           0
 nber times 1st assigned=          75           0
 nber times 1st assigned=          76           0
 nber times 1st assigned=          77           0
 nber times 1st assigned=          78           0
 nber times 1st assigned=          79           0
 nber times 1st assigned=          80           0
 nber times 1st assigned=          81           0
 nber times 1st assigned=          82           0
 nber times 1st assigned=          83           0
 nber times 1st assigned=          84           0
 nber times 1st assigned=          85           0
 nber times 1st assigned=          86           0
 nber times 1st assigned=          87           0
 nber times 1st assigned=          88           0
 nber times 1st assigned=          89           0
 nber times 1st assigned=          90           0
 nber times 1st assigned=          91           0
 nber times 1st assigned=          92           0
 nber times 1st assigned=          93           0
 nber times 1st assigned=          94           0
 nber times 1st assigned=          95           0
 nber times 1st assigned=          96           0
 nber times 1st assigned=          97           0
 nber times 1st assigned=          98           0
 nber times 1st assigned=          99           0
 nber times 1st assigned=         100           0
 nber times 1st assigned=         101           0
 nber times 1st assigned=         102           0
 nber times 1st assigned=         103           0
 nber times 1st assigned=         104           0
 nber times 1st assigned=         105           0
 nber times 1st assigned=         106           0
 nber times 1st assigned=         107           0
 nber times 1st assigned=         108           0
 nber times 1st assigned=         109           0
 nber times 1st assigned=         110           0
 nber times 1st assigned=         111           0
 nber times 1st assigned=         112           0
 nber times 1st assigned=         113           0
 nber times 1st assigned=         114           0
 nber times 1st assigned=         115           0
 nber times 1st assigned=         116           0
 nber times 1st assigned=         117           0
 nber times 1st assigned=         118           0
 nber times 1st assigned=         119           0
 nber times 1st assigned=         120           0
 nber times 1st assigned=         121           0
 nber times 1st assigned=         122           0
 nber times 1st assigned=         123           0
 nber times 1st assigned=         124           0
 nber times 1st assigned=         125           0
 nber times 1st assigned=         126           0
 nber times 1st assigned=         127           0
 nber times 1st assigned=         128           0
 nber times 1st assigned=         129           0
 nber times 1st assigned=         130           0
 nber times 1st assigned=         131           0
 nber times 1st assigned=         132           0
 nber times 1st assigned=         133           0
 nber times 1st assigned=         134           0
 nber times 1st assigned=         135           0
 nber times 1st assigned=         136           0
 nber times 1st assigned=         137           0
 nber times 1st assigned=         138           0
 nber times 1st assigned=         139           0
 nber times 1st assigned=         140           0
 nber times 1st assigned=         141           0
 modes represented=   135.092132250674     
 p1=
    1.    0.   -0.    0.    0.   -0.   -0.   -1.   -0.    0.   -0.    0.    0.    5.   -0.   -0.    0.    0.   -0.    0.
   10.   -0.   -0.   -6.    0.    0.    0.    0.   -0.   -0.   -0.   -7.    0.   -0.    1.   -0.   -1.   -0.   -0.    0.
    0.   -3.   -0.   -0.    0.    0.   -3.    1.    0.   -0.   -0.    0.    0.    3.    0.    0.   -0.   -0.   -0.   -0.
    2.    0.    0.   -0.   -0.    0.   -0.    0.   -0.    0.   -0.    0.   -0.    0.   -0.    3.   -0.   -1.   -2.    0.
    2.   -3.    0.   -0.   -3.   -2.    0.   -2.   -0.   -1.    0.   -0.    0.   -2.    0.   -2.   -1.    0.   -0.    0.
    0.    1.   -1.   -0.   -0.    2.    1.   -0.   -0.   -0.    0.    0.   -1.   -0.   -0.   -0.   -0.    4.    0.   -2.
   -0.   -2.   -0.   -4.    0.   -0.   -0.   -0.    0.    0.   -0.   -0.   -0.    0.    0.   -0.   -0.    0.    0.   -0.
    0.
 p2=
   -0.   -0.    0.   -0.    0.    0.    0.    1.   -1.    0.    0.    0.   -1.    5.   -0.    0.    0.    0.   -0.   -0.
  -10.    0.   -6.    0.   -0.   -0.    0.    7.   -0.   -0.   -0.   -0.   -0.    0.   -0.    0.    1.    0.   -0.    0.
    3.    0.   -0.   -0.   -0.    2.   -0.   -0.    0.   -0.   -0.    0.   -0.    3.   -0.   -0.   -0.   -0.   -0.   -0.
    0.   -2.    1.   -0.   -0.    0.    0.    0.   -0.    0.    0.   -0.    1.    0.   -4.    0.    0.   -0.    2.   -0.
    1.   -3.    0.   -2.   -0.    3.    0.    1.   -0.   -0.   -2.    0.    0.   -2.   -0.   -0.    0.   -0.   -0.   -1.
    0.    1.   -0.    1.   -0.   -2.   -0.    0.   -0.   -0.    1.   -0.    1.   -0.   -0.    2.    0.   -0.    1.    0.
    4.    0.    1.    4.    0.    0.    0.    0.    0.   -0.    0.   -0.   -0.   -0.   -0.    0.   -0.    0.    0.   -0.
   -0.

 Displacement: in terms of nc of 1 THEN of nc of 2

   1     freq=   -69. Q=  0.033 lam=    -0.0     freq=    -0. Q=  0.000 lam=    -0.0
   2     freq=    -0. Q=  0.000 lam=    -0.0     freq=    -0. Q=  0.000 lam=    -0.0
   3     freq=    -0. Q= -0.000 lam=    -0.0     freq=    -0. Q= -0.000 lam=    -0.0
   4     freq=    -0. Q=  0.000 lam=    -0.0     freq=    -0. Q=  0.000 lam=    -0.0
   5     freq=     0. Q=  0.000 lam=     0.0     freq=     0. Q=  0.000 lam=     0.0
   6     freq=     0. Q= -0.000 lam=     0.0     freq=     0. Q= -0.000 lam=     0.0
   7     freq=     0. Q= -0.000 lam=     0.0     freq=    29. Q= -0.004 lam=     0.0
   8     freq=    18. Q= -0.017 lam=     0.0     freq=    30. Q= -0.017 lam=     0.0
   9     freq=    29. Q= -0.004 lam=     0.0     freq=    32. Q= -0.022 lam=     0.0
  10     freq=    51. Q=  0.006 lam=     0.0     freq=    58. Q=  0.013 lam=     0.0
  11     freq=    66. Q= -0.003 lam=     0.0     freq=    93. Q= -0.000 lam=     0.0
  12     freq=    92. Q=  0.005 lam=     0.0     freq=   101. Q=  0.004 lam=     0.0
  13     freq=    92. Q=  0.000 lam=     0.0     freq=   148. Q=  0.025 lam=     0.0
  14     freq=   152. Q=  0.245 lam=     4.6     freq=   151. Q=  0.252 lam=     4.8
  15     freq=   157. Q= -0.005 lam=     0.0     freq=   157. Q= -0.004 lam=     0.0
  16     freq=   199. Q= -0.002 lam=     0.0     freq=   206. Q= -0.014 lam=     0.0
  17     freq=   201. Q=  0.001 lam=     0.0     freq=   210. Q=  0.001 lam=     0.0
  18     freq=   210. Q=  0.000 lam=     0.0     freq=   224. Q=  0.003 lam=     0.0
  19     freq=   227. Q= -0.001 lam=     0.0     freq=   236. Q= -0.001 lam=     0.0
  20     freq=   252. Q=  0.003 lam=     0.0     freq=   237. Q=  0.003 lam=     0.0
  21     freq=   266. Q=  0.646 lam=    55.5     freq=   267. Q=  0.641 lam=    54.9
  22     freq=   335. Q= -0.001 lam=     0.0     freq=   343. Q= -0.003 lam=     0.0
  23     freq=   361. Q= -0.000 lam=     0.0     freq=   366. Q= -0.458 lam=    38.5
  24     freq=   369. Q= -0.447 lam=    36.9     freq=   382. Q= -0.000 lam=     0.0
  25     freq=   381. Q=  0.001 lam=     0.0     freq=   382. Q=  0.000 lam=     0.0
  26     freq=   396. Q=  0.000 lam=     0.0     freq=   416. Q=  0.000 lam=     0.0
  27     freq=   401. Q=  0.000 lam=     0.0     freq=   424. Q=  0.005 lam=     0.0
  28     freq=   405. Q=  0.001 lam=     0.0     freq=   446. Q=  0.603 lam=    81.0
  29     freq=   408. Q= -0.001 lam=     0.0     freq=   449. Q= -0.002 lam=     0.0
  30     freq=   443. Q= -0.000 lam=     0.0     freq=   455. Q= -0.005 lam=     0.0
  31     freq=   446. Q= -0.000 lam=     0.0     freq=   456. Q= -0.000 lam=     0.0
  32     freq=   448. Q= -0.587 lam=    77.3     freq=   473. Q= -0.002 lam=     0.0
  33     freq=   476. Q=  0.001 lam=     0.0     freq=   493. Q=  0.001 lam=     0.0
  34     freq=   501. Q= -0.001 lam=     0.0     freq=   508. Q= -0.000 lam=     0.0
  35     freq=   509. Q=  0.089 lam=     2.0     freq=   510. Q=  0.001 lam=     0.0
  36     freq=   513. Q= -0.001 lam=     0.0     freq=   512. Q= -0.038 lam=     0.4
  37     freq=   519. Q= -0.083 lam=     1.8     freq=   520. Q= -0.116 lam=     3.5
  38     freq=   535. Q= -0.001 lam=     0.0     freq=   532. Q= -0.000 lam=     0.0
  39     freq=   540. Q= -0.000 lam=     0.0     freq=   544. Q= -0.000 lam=     0.0
  40     freq=   545. Q=  0.000 lam=     0.0     freq=   551. Q=  0.000 lam=     0.0
  41     freq=   587. Q=  0.000 lam=     0.0     freq=   599. Q=  0.310 lam=    28.8
  42     freq=   599. Q= -0.294 lam=    25.9     freq=   605. Q= -0.000 lam=     0.0
  43     freq=   608. Q= -0.000 lam=     0.0     freq=   611. Q= -0.000 lam=     0.0
  44     freq=   630. Q= -0.000 lam=     0.0     freq=   650. Q= -0.000 lam=     0.0
  45     freq=   649. Q=  0.000 lam=     0.0     freq=   663. Q=  0.000 lam=     0.0
  46     freq=   659. Q=  0.000 lam=     0.0     freq=   668. Q=  0.254 lam=    21.5
  47     freq=   660. Q= -0.286 lam=    27.1     freq=   694. Q= -0.003 lam=     0.0
  48     freq=   686. Q=  0.060 lam=     1.2     freq=   698. Q=  0.001 lam=     0.0
  49     freq=   686. Q=  0.000 lam=     0.0     freq=   706. Q=  0.000 lam=     0.0
  50     freq=   705. Q= -0.001 lam=     0.0     freq=   716. Q= -0.002 lam=     0.0
  51     freq=   712. Q= -0.000 lam=     0.0     freq=   716. Q= -0.000 lam=     0.0
  52     freq=   721. Q=  0.000 lam=     0.0     freq=   722. Q=  0.000 lam=     0.0
  53     freq=   755. Q=  0.000 lam=     0.0     freq=   735. Q=  0.000 lam=     0.0
  54     freq=   756. Q=  0.348 lam=    45.7     freq=   755. Q=  0.347 lam=    45.4
  55     freq=   771. Q=  0.000 lam=     0.0     freq=   767. Q=  0.000 lam=     0.0
  56     freq=   779. Q=  0.000 lam=     0.0     freq=   768. Q=  0.000 lam=     0.0
  57     freq=   789. Q= -0.000 lam=     0.0     freq=   773. Q= -0.000 lam=     0.0
  58     freq=   793. Q= -0.000 lam=     0.0     freq=   778. Q= -0.000 lam=     0.0
  59     freq=   814. Q= -0.000 lam=     0.0     freq=   780. Q= -0.000 lam=     0.0
  60     freq=   825. Q= -0.000 lam=     0.0     freq=   817. Q= -0.000 lam=     0.0
  61     freq=   826. Q=  0.203 lam=    17.0     freq=   819. Q=  0.000 lam=     0.0
  62     freq=   839. Q=  0.031 lam=     0.4     freq=   820. Q=  0.182 lam=    13.6
  63     freq=   850. Q=  0.000 lam=     0.0     freq=   844. Q=  0.118 lam=     5.8
  64     freq=   888. Q= -0.000 lam=     0.0     freq=   855. Q= -0.000 lam=     0.0
  65     freq=   898. Q= -0.000 lam=     0.0     freq=   862. Q= -0.001 lam=     0.0
  66     freq=   914. Q=  0.000 lam=     0.0     freq=   865. Q=  0.001 lam=     0.0
  67     freq=   928. Q= -0.000 lam=     0.0     freq=   906. Q= -0.000 lam=     0.0
  68     freq=   929. Q=  0.000 lam=     0.0     freq=   913. Q=  0.000 lam=     0.0
  69     freq=   932. Q= -0.000 lam=     0.0     freq=   936. Q= -0.000 lam=     0.0
  70     freq=   936. Q=  0.000 lam=     0.0     freq=   955. Q=  0.000 lam=     0.0
  71     freq=   937. Q= -0.001 lam=     0.0     freq=   969. Q= -0.001 lam=     0.0
  72     freq=   978. Q=  0.000 lam=     0.0     freq=   970. Q=  0.000 lam=     0.0
  73     freq=   982. Q= -0.000 lam=     0.0     freq=   988. Q= -0.098 lam=     4.8
  74     freq=   991. Q=  0.000 lam=     0.0     freq=   990. Q=  0.000 lam=     0.0
  75     freq=   997. Q= -0.000 lam=     0.0     freq=  1005. Q= -0.465 lam=   108.5
  76     freq=  1009. Q=  0.349 lam=    61.4     freq=  1013. Q=  0.000 lam=     0.0
  77     freq=  1011. Q= -0.000 lam=     0.0     freq=  1013. Q= -0.001 lam=     0.0
  78     freq=  1015. Q= -0.168 lam=    14.3     freq=  1051. Q= -0.000 lam=     0.0
  79     freq=  1024. Q= -0.313 lam=    50.1     freq=  1060. Q= -0.293 lam=    45.5
  80     freq=  1078. Q=  0.000 lam=     0.0     freq=  1077. Q=  0.000 lam=     0.0
  81     freq=  1101. Q=  0.251 lam=    34.7     freq=  1097. Q=  0.105 lam=     6.0
  82     freq=  1107. Q= -0.450 lam=   112.1     freq=  1111. Q= -0.417 lam=    96.8
  83     freq=  1137. Q=  0.000 lam=     0.0     freq=  1137. Q=  0.000 lam=     0.0
  84     freq=  1145. Q= -0.000 lam=     0.0     freq=  1140. Q= -0.290 lam=    47.9
  85     freq=  1151. Q= -0.356 lam=    72.8     freq=  1146. Q= -0.000 lam=     0.0
  86     freq=  1171. Q= -0.328 lam=    62.9     freq=  1156. Q= -0.471 lam=   128.5
  87     freq=  1172. Q=  0.001 lam=     0.0     freq=  1172. Q=  0.000 lam=     0.0
  88     freq=  1182. Q= -0.330 lam=    64.3     freq=  1185. Q= -0.084 lam=     4.2
  89     freq=  1182. Q= -0.008 lam=     0.0     freq=  1187. Q= -0.000 lam=     0.0
  90     freq=  1195. Q= -0.168 lam=    16.9     freq=  1193. Q= -0.000 lam=     0.0
  91     freq=  1205. Q=  0.000 lam=     0.0     freq=  1205. Q=  0.253 lam=    38.6
  92     freq=  1210. Q= -0.000 lam=     0.0     freq=  1212. Q= -0.000 lam=     0.0
  93     freq=  1223. Q=  0.000 lam=     0.0     freq=  1233. Q=  0.000 lam=     0.0
  94     freq=  1257. Q= -0.256 lam=    41.2     freq=  1253. Q= -0.296 lam=    54.8
  95     freq=  1259. Q=  0.002 lam=     0.0     freq=  1265. Q=  0.010 lam=     0.1
  96     freq=  1267. Q= -0.284 lam=    51.2     freq=  1265. Q= -0.000 lam=     0.0
  97     freq=  1280. Q= -0.087 lam=     4.9     freq=  1279. Q= -0.013 lam=     0.1
  98     freq=  1322. Q=  0.016 lam=     0.2     freq=  1300. Q=  0.000 lam=     0.0
  99     freq=  1323. Q= -0.000 lam=     0.0     freq=  1312. Q= -0.000 lam=     0.0
 100     freq=  1340. Q=  0.000 lam=     0.0     freq=  1316. Q=  0.146 lam=    14.1
 101     freq=  1341. Q=  0.000 lam=     0.0     freq=  1339. Q=  0.000 lam=     0.0
 102     freq=  1351. Q=  0.085 lam=     4.9     freq=  1346. Q=  0.177 lam=    21.1
 103     freq=  1384. Q= -0.193 lam=    25.7     freq=  1357. Q= -0.000 lam=     0.0
 104     freq=  1408. Q= -0.000 lam=     0.0     freq=  1369. Q= -0.165 lam=    18.6
 105     freq=  1416. Q= -0.001 lam=     0.0     freq=  1376. Q= -0.000 lam=     0.0
 106     freq=  1431. Q=  0.380 lam=   103.2     freq=  1383. Q=  0.346 lam=    82.9
 107     freq=  1447. Q=  0.123 lam=    11.0     freq=  1425. Q=  0.000 lam=     0.0
 108     freq=  1450. Q= -0.000 lam=     0.0     freq=  1439. Q= -0.024 lam=     0.4
 109     freq=  1450. Q= -0.000 lam=     0.0     freq=  1447. Q= -0.000 lam=     0.0
 110     freq=  1465. Q= -0.061 lam=     2.7     freq=  1453. Q= -0.000 lam=     0.0
 111     freq=  1478. Q=  0.000 lam=     0.0     freq=  1473. Q=  0.137 lam=    13.8
 112     freq=  1485. Q=  0.050 lam=     1.8     freq=  1478. Q=  0.000 lam=     0.0
 113     freq=  1492. Q= -0.088 lam=     5.8     freq=  1501. Q= -0.108 lam=     8.7
 114     freq=  1495. Q= -0.001 lam=     0.0     freq=  1513. Q= -0.000 lam=     0.0
 115     freq=  1525. Q= -0.000 lam=     0.0     freq=  1515. Q= -0.024 lam=     0.4
 116     freq=  1528. Q= -0.000 lam=     0.0     freq=  1551. Q= -0.292 lam=    66.3
 117     freq=  1563. Q= -0.037 lam=     1.1     freq=  1552. Q= -0.001 lam=     0.0
 118     freq=  1577. Q=  0.590 lam=   274.0     freq=  1569. Q=  0.000 lam=     0.0
 119     freq=  1594. Q=  0.001 lam=     0.0     freq=  1574. Q=  0.100 lam=     7.8
 120     freq=  1598. Q= -0.308 lam=    75.7     freq=  1598. Q= -0.000 lam=     0.0
 121     freq=  1630. Q= -0.000 lam=     0.0     freq=  1604. Q= -0.683 lam=   374.1
 122     freq=  1635. Q= -0.300 lam=    73.7     freq=  1624. Q= -0.000 lam=     0.0
 123     freq=  1663. Q= -0.003 lam=     0.0     freq=  1640. Q= -0.171 lam=    24.1
 124     freq=  1674. Q= -0.669 lam=   374.5     freq=  1646. Q= -0.612 lam=   308.0
 125     freq=  3156. Q=  0.000 lam=     0.0     freq=  3141. Q=  0.005 lam=     0.0
 126     freq=  3156. Q= -0.018 lam=     0.5     freq=  3143. Q= -0.000 lam=     0.0
 127     freq=  3160. Q= -0.006 lam=     0.0     freq=  3143. Q= -0.021 lam=     0.7
 128     freq=  3161. Q= -0.000 lam=     0.0     freq=  3161. Q= -0.000 lam=     0.0
 129     freq=  3162. Q=  0.019 lam=     0.6     freq=  3163. Q=  0.010 lam=     0.2
 130     freq=  3170. Q=  0.000 lam=     0.0     freq=  3164. Q=  0.000 lam=     0.0
 131     freq=  3179. Q= -0.000 lam=     0.0     freq=  3174. Q= -0.004 lam=     0.0
 132     freq=  3179. Q= -0.010 lam=     0.2     freq=  3178. Q= -0.001 lam=     0.0
 133     freq=  3179. Q= -0.010 lam=     0.2     freq=  3178. Q= -0.017 lam=     0.4
 134     freq=  3179. Q=  0.000 lam=     0.0     freq=  3181. Q=  0.000 lam=     0.0
 135     freq=  3185. Q=  0.011 lam=     0.2     freq=  3185. Q=  0.010 lam=     0.1
 136     freq=  3186. Q= -0.000 lam=     0.0     freq=  3194. Q= -0.010 lam=     0.2
 137     freq=  3186. Q= -0.015 lam=     0.4     freq=  3194. Q= -0.000 lam=     0.0
 138     freq=  3196. Q=  0.000 lam=     0.0     freq=  3207. Q=  0.000 lam=     0.0
 139     freq=  3196. Q=  0.011 lam=     0.2     freq=  3208. Q=  0.007 lam=     0.1
 140     freq=  3215. Q= -0.000 lam=     0.0     freq=  3255. Q= -0.005 lam=     0.0
 141     freq=  3216. Q=  0.023 lam=     0.9     freq=  3255. Q=  0.030 lam=     1.5

 total reorg energy (cm**-1, kcal/mol)=     1840.     1778.      5.26      5.08
 Nber of molecules processed=           2
