 Enter ifcurve (0=recti, 1=orth curvi, 2=apprx curvi, -1 = skip
 And atom ordering flag, 0= never changes, 1= use the first order thenceforth,
  2= deduce it (does read on fail), 3= always read it
 Reading file: 
 ./CDT-PDI_0_C0S2.log                                                           
                                          
  Entering Gaussian System, Link 0=g16                                          
  
 Gaussian format, type: g94, g98, g03= F F F
  #P Geom=AllCheck Guess=TCheck SCRF=Check GenChk RB3LYP TD(FC,Read)/6-3    
 energy type= TD      
 Original G94 input coords:
  6 12.891451 14.190883-25.813561
  6 11.557704 14.931509-25.672008
  6 10.505937 14.497915-26.698283
  7 11.029154 14.857275-24.272255
  6 10.671007 13.612009-23.741966
  8 10.780456 12.584340-24.394682
  6 10.153045 13.587073-22.357087
  6  9.783116 12.360662-21.792136
  6  9.296182 12.303331-20.502163
  6  9.152652 13.472731-19.705258
  6  8.645966 13.428130-18.356901
  6  8.255768 12.210101-17.735321
  6  7.772348 12.179778-16.444052
  6  7.651678 13.361565-15.702382
  6  7.129448 13.282110-14.324375
  8  6.800614 12.233756-13.806570
  7  7.028392 14.508300-13.618863
  6  6.536350 14.463043-12.287101
  6  7.264080 14.308225-11.139623
  6  6.440408 14.309666 -9.989529
  6  6.627153 14.184204 -8.491625
  6  5.201165 14.291952 -7.991669
  6  4.532559 14.269811 -6.741490
  6  3.178007 14.415984 -6.881616
 16  2.691578 14.584455 -8.551991
  6  4.338265 14.454988 -9.059015
  6  5.099059 14.465886-10.285515
 16  4.810597 14.615469-11.979808
  6  7.387379 15.776138-14.144716
  8  7.270908 16.784782-13.478142
  6  7.902881 15.788386-15.527128
  6  8.272892 17.013706-16.095521
  6  8.759019 17.069035-17.384974
  6  8.901952 15.898039-18.178935
  6  9.408804 15.942627-19.527174
  6  9.799950 17.158712-20.152488
  6 10.283778 17.186599-21.444628
  6 10.403809 16.003213-22.183539
  6 10.925217 16.069452-23.564431
  8 11.251370 17.133708-24.067231
  6 10.028008 14.773325-21.604364
  6  9.525832 14.729293-20.268247
  6  8.528554 14.641406-17.614093
  6  8.025691 14.597051-16.276559
  1 13.307749 14.395079-26.803807
  1 12.768225 13.114285-25.703164
  1 13.610950 14.544692-25.070620
  1 11.744775 15.994419-25.807554
  1 10.286201 13.433594-26.625279
  1 10.882221 14.708824-27.703026
  1  9.579475 15.062372-26.564582
  1  9.889821 11.466848-22.393087
  1  9.020484 11.339252-20.099018
  1  8.334547 11.278659-18.277577
  1  7.476306 11.249590-15.976410
  1  8.340376 14.200121-11.145347
  1  7.264583 14.979547 -8.089268
  1  7.088655 13.229914 -8.213934
  1  5.014603 14.152618 -5.779620
  1  2.422221 14.436994 -6.112045
  1  8.165836 17.908844-15.496474
  1  9.033823 18.032241-17.790657
  1  9.721230 18.091799-19.612891
  1 10.579314 18.116148-21.913607
 nber atoms=          64
  Total Energy, E(TD-HF/TD-DFT) =  -2591.14714944                               
  
          32          49 "  -2591.14714944"
After scan for Atom:   Atom  AN      X      Y      Z        X      Y      Z        X      Y      Z   
After scan for Atom:   Atom  AN      X      Y      Z        X      Y      Z        X      Y      Z   
After scan for Atom:   Atom  AN      X      Y      Z        X      Y      Z        X      Y      Z   
After scan for Atom:   Atom  AN      X      Y      Z        X      Y      Z        X      Y      Z   
After scan for Atom:   Atom  AN      X      Y      Z        X      Y      Z        X      Y      Z   
After scan for Atom:   Atom  AN      X      Y      Z        X      Y      Z        X      Y      Z   
After scan for Atom:   Atom  AN      X      Y      Z        X      Y      Z        X      Y      Z   
After scan for Atom:   Atom  AN      X      Y      Z        X      Y      Z        X      Y      Z   
After scan for Atom:   Atom  AN      X      Y      Z        X      Y      Z        X      Y      Z   
After scan for Atom:   Atom  AN      X      Y      Z        X      Y      Z        X      Y      Z   
After scan for Atom:   Atom  AN      X      Y      Z        X      Y      Z        X      Y      Z   
After scan for Atom:   Atom  AN      X      Y      Z        X      Y      Z        X      Y      Z   
After scan for Atom:   Atom  AN      X      Y      Z        X      Y      Z        X      Y      Z   
After scan for Atom:   Atom  AN      X      Y      Z        X      Y      Z        X      Y      Z   
After scan for Atom:   Atom  AN      X      Y      Z        X      Y      Z        X      Y      Z   
After scan for Atom:   Atom  AN      X      Y      Z        X      Y      Z        X      Y      Z   
After scan for Atom:   Atom  AN      X      Y      Z        X      Y      Z        X      Y      Z   
After scan for Atom:   Atom  AN      X      Y      Z        X      Y      Z        X      Y      Z   
After scan for Atom:   Atom  AN      X      Y      Z        X      Y      Z        X      Y      Z   
After scan for Atom:   Atom  AN      X      Y      Z        X      Y      Z        X      Y      Z   
After scan for Atom:   Atom  AN      X      Y      Z        X      Y      Z        X      Y      Z   
After scan for Atom:   Atom  AN      X      Y      Z        X      Y      Z        X      Y      Z   
After scan for Atom:   Atom  AN      X      Y      Z        X      Y      Z        X      Y      Z   
After scan for Atom:   Atom  AN      X      Y      Z        X      Y      Z        X      Y      Z   
After scan for Atom:   Atom  AN      X      Y      Z        X      Y      Z        X      Y      Z   
After scan for Atom:   Atom  AN      X      Y      Z        X      Y      Z        X      Y      Z   
After scan for Atom:   Atom  AN      X      Y      Z        X      Y      Z        X      Y      Z   
After scan for Atom:   Atom  AN      X      Y      Z        X      Y      Z        X      Y      Z   
After scan for Atom:   Atom  AN      X      Y      Z        X      Y      Z        X      Y      Z   
After scan for Atom:   Atom  AN      X      Y      Z        X      Y      Z        X      Y      Z   
After scan for Atom:   Atom  AN      X      Y      Z        X      Y      Z        X      Y      Z   
After scan for Atom:   Atom  AN      X      Y      Z        X      Y      Z        X      Y      Z   
After scan for Atom:   Atom  AN      X      Y      Z        X      Y      Z        X      Y      Z   
After scan for Atom:   Atom  AN      X      Y      Z        X      Y      Z        X      Y      Z   
After scan for Atom:   Atom  AN      X      Y      Z        X      Y      Z        X      Y      Z   
After scan for Atom:   Atom  AN      X      Y      Z        X      Y      Z        X      Y      Z   
After scan for Atom:   Atom  AN      X      Y      Z        X      Y      Z        X      Y      Z   
After scan for Atom:   Atom  AN      X      Y      Z        X      Y      Z        X      Y      Z   
After scan for Atom:   Atom  AN      X      Y      Z        X      Y      Z        X      Y      Z   
After scan for Atom:   Atom  AN      X      Y      Z        X      Y      Z        X      Y      Z   
After scan for Atom:   Atom  AN      X      Y      Z        X      Y      Z        X      Y      Z   
After scan for Atom:   Atom  AN      X      Y      Z        X      Y      Z        X      Y      Z   
After scan for Atom:   Atom  AN      X      Y      Z        X      Y      Z        X      Y      Z   
After scan for Atom:   Atom  AN      X      Y      Z        X      Y      Z        X      Y      Z   
After scan for Atom:   Atom  AN      X      Y      Z        X      Y      Z        X      Y      Z   
After scan for Atom:   Atom  AN      X      Y      Z        X      Y      Z        X      Y      Z   
After scan for Atom:   Atom  AN      X      Y      Z        X      Y      Z        X      Y      Z   
After scan for Atom:   Atom  AN      X      Y      Z        X      Y      Z        X      Y      Z   
After scan for Atom:   Atom  AN      X      Y      Z        X      Y      Z        X      Y      Z   
After scan for Atom:   Atom  AN      X      Y      Z        X      Y      Z        X      Y      Z   
After scan for Atom:   Atom  AN      X      Y      Z        X      Y      Z        X      Y      Z   
After scan for Atom:   Atom  AN      X      Y      Z        X      Y      Z        X      Y      Z   
After scan for Atom:   Atom  AN      X      Y      Z        X      Y      Z        X      Y      Z   
After scan for Atom:   Atom  AN      X      Y      Z        X      Y      Z        X      Y      Z   
After scan for Atom:   Atom  AN      X      Y      Z        X      Y      Z        X      Y      Z   
After scan for Atom:   Atom  AN      X      Y      Z        X      Y      Z        X      Y      Z   
After scan for Atom:   Atom  AN      X      Y      Z        X      Y      Z        X      Y      Z   
After scan for Atom:   Atom  AN      X      Y      Z        X      Y      Z        X      Y      Z   
After scan for Atom:   Atom  AN      X      Y      Z        X      Y      Z        X      Y      Z   
After scan for Atom:   Atom  AN      X      Y      Z        X      Y      Z        X      Y      Z   
After scan for Atom:   Atom  AN      X      Y      Z        X      Y      Z        X      Y      Z   
After scan for Atom:   Atom  AN      X      Y      Z        X      Y      Z        X      Y      Z   
 g94    frequencies=
     0.0    0.0    0.0    0.0    0.0    0.0   10.9   15.3   20.8   29.5
    31.1   54.8   58.5   76.4   80.4   88.9   93.4  106.5  118.9  130.7
   141.9  167.8  178.0  186.4  193.3  206.9  216.0  221.9  233.7  234.8
   238.2  253.0  256.2  280.2  299.6  301.8  320.8  335.6  354.2  374.8
   389.1  392.8  417.3  431.3  436.0  437.1  439.0  447.3  455.8  470.5
   474.0  483.3  487.4  498.9  506.3  508.0  529.0  536.8  547.3  569.8
   570.8  573.4  578.3  579.1  605.2  611.6  615.7  633.2  635.3  652.8
   670.0  679.5  697.7  699.6  706.7  713.7  713.8  722.3  752.8  754.0
   759.6  761.8  773.0  801.4  808.4  812.5  815.2  819.2  824.3  828.6
   832.7  845.8  849.1  876.8  902.0  919.8  931.1  936.4  945.4  946.6
   956.7  969.0  974.7  976.5  987.9  988.6 1001.1 1008.4 1061.0 1073.9
  1093.0 1110.0 1120.4 1135.3 1143.7 1148.8 1155.5 1160.9 1169.9 1173.6
  1185.6 1195.9 1200.0 1211.8 1224.1 1232.5 1234.3 1242.0 1250.3 1265.7
  1297.2 1311.8 1318.3 1345.1 1351.4 1361.1 1366.0 1374.9 1382.2 1391.4
  1400.1 1402.8 1403.8 1416.2 1429.1 1431.1 1438.1 1441.8 1444.6 1457.1
  1460.0 1466.2 1470.9 1485.0 1491.7 1497.6 1505.1 1510.8 1522.4 1532.3
  1546.4 1554.4 1568.9 1570.6 1581.0 1599.2 1599.3 1622.6 1685.6 1715.8
  1725.1 1749.4 3027.5 3034.2 3038.3 3055.3 3092.1 3095.3 3112.4 3132.5
  3142.9 3198.1 3198.4 3199.2 3204.8 3205.0 3209.1 3212.8 3212.9 3224.2
  3224.5 3246.0
 g94    symmetries=
                                                 A      A      A      A
       A      A      A      A      A      A      A      A      A      A
       A      A      A      A      A      A      A      A      A      A
       A      A      A      A      A      A      A      A      A      A
       A      A      A      A      A      A      A      A      A      A
       A      A      A      A      A      A      A      A      A      A
       A      A      A      A      A      A      A      A      A      A
       A      A      A      A      A      A      A      A      A      A
       A      A      A      A      A      A      A      A      A      A
       A      A      A      A      A      A      A      A      A      A
       A      A      A      A      A      A      A      A      A      A
       A      A      A      A      A      A      A      A      A      A
       A      A      A      A      A      A      A      A      A      A
       A      A      A      A      A      A      A      A      A      A
       A      A      A      A      A      A      A      A      A      A
       A      A      A      A      A      A      A      A      A      A
       A      A      A      A      A      A      A      A      A      A
       A      A      A      A      A      A      A      A      A      A
       A      A      A      A      A      A      A      A      A      A
       A      A
 atomic masses:
 12.0000 12.0000 12.0000 14.0031 12.0000 15.9949 12.0000 12.0000 12.0000 12.0000
 12.0000 12.0000 12.0000 12.0000 12.0000 15.9949 14.0031 12.0000 12.0000 12.0000
 12.0000 12.0000 12.0000 12.0000 31.9721 12.0000 12.0000 31.9721 12.0000 15.9949
 12.0000 12.0000 12.0000 12.0000 12.0000 12.0000 12.0000 12.0000 12.0000 15.9949
 12.0000 12.0000 12.0000 12.0000  1.0078  1.0078  1.0078  1.0078  1.0078  1.0078
  1.0078  1.0078  1.0078  1.0078  1.0078  1.0078  1.0078  1.0078  1.0078  1.0078
  1.0078  1.0078  1.0078  1.0078
 looking for force constants in 
 ./CDT-PDI_0_C0S2.fchk                                                          
  
 Cartesian Force Constants                  R   N=       18528                  
  
 n3=         192       18528
 g94-fc frequencies=
    -3.0   -0.9   -0.0    0.0    0.0    3.1   10.9   15.3   20.8   29.5
    31.1   54.8   58.5   76.4   80.4   88.9   93.4  106.5  118.9  130.7
   141.9  167.8  178.0  186.4  193.3  206.9  216.0  221.9  233.7  234.8
   238.2  253.0  256.2  280.2  299.6  301.8  320.8  335.6  354.2  374.8
   389.2  392.8  417.3  431.3  436.0  437.1  439.0  447.3  455.9  470.5
   474.0  483.3  487.4  498.9  506.3  508.0  529.0  536.8  547.4  569.9
   570.8  573.4  578.3  579.2  605.2  611.6  615.7  633.2  635.3  652.8
   670.0  679.5  697.7  699.6  706.7  713.7  713.8  722.3  752.8  754.0
   759.7  761.8  773.1  801.5  808.4  812.5  815.2  819.2  824.3  828.6
   832.7  845.8  849.1  876.8  902.1  919.8  931.1  936.4  945.4  946.6
   956.7  969.0  974.7  976.5  987.9  988.6 1001.2 1008.4 1061.1 1073.9
  1093.0 1110.0 1120.4 1135.3 1143.7 1148.8 1155.5 1160.9 1170.0 1173.7
  1185.6 1195.9 1200.0 1211.8 1224.2 1232.6 1234.3 1242.0 1250.3 1265.7
  1297.2 1311.8 1318.3 1345.2 1351.5 1361.1 1366.1 1374.9 1382.2 1391.4
  1400.1 1402.9 1403.8 1416.2 1429.2 1431.1 1438.1 1441.8 1444.6 1457.1
  1460.0 1466.2 1470.9 1485.0 1491.8 1497.6 1505.2 1510.8 1522.4 1532.3
  1546.4 1554.4 1568.9 1570.6 1581.0 1599.2 1599.3 1622.6 1685.6 1715.8
  1725.1 1749.5 3027.6 3034.3 3038.4 3055.4 3092.2 3095.4 3112.4 3132.6
  3142.9 3198.1 3198.5 3199.2 3204.9 3205.0 3209.2 3212.9 3213.0 3224.3
  3224.6 3246.1
 at 99999: n3=         192
 symm operator            1 :  F  nop=           0
 symm operator            2 :  F  nop=           0
 symm operator            3 :  F  nop=           0
 symm operator            4 :  F  nop=           0
 symm operator            5 :  F  nop=           0
 symm operator            6 :  F  nop=           0
 symm operator            7 :  F  nop=           0
 The point group of the molecule is  C1
 Symmetry rotation matrix:
   1.00000   0.00000   0.00000
   0.00000   1.00000   0.00000
   0.00000   0.00000   1.00000

 Projecting out zero-frequency components
 generating redundant internal coords
         300        3600          64
 search for int coords
   1 str   2   1   1.532
   2 str   3   2   1.532
   3 str   4   2   1.498
   4 str   5   4   1.400
   5 str   6   5   1.222
   6 str   7   5   1.479
   7 str   8   7   1.400
   8 str   9   8   1.380
   9 str  10   9   1.422
  10 str  11  10   1.441
  11 str  12  11   1.422
  12 str  13  12   1.379
  13 str  14  13   1.400
  14 str  15  14   1.476
  15 str  16  15   1.215
  16 str  17  15   1.418
  17 str  18  17   1.420
  18 str  19  18   1.368
  19 str  20  19   1.415
  20 str  21  20   1.515
  21 str  22  21   1.515
  22 str  23  22   1.418
  23 str  24  23   1.370
  24 str  25  24   1.748
  25 str  26  22   1.382
  26 str  26  25   1.728
  27 str  27  20   1.382
  28 str  27  26   1.443
  29 str  28  18   1.760
  30 str  28  27   1.725
  31 str  29  17   1.419
  32 str  30  29   1.215
  33 str  31  29   1.475
  34 str  32  31   1.400
  35 str  33  32   1.379
  36 str  34  33   1.422
  37 str  35  34   1.441
  38 str  36  35   1.422
  39 str  37  36   1.380
  40 str  38  37   1.400
  41 str  39   4   1.408
  42 str  39  38   1.478
  43 str  40  39   1.221
  44 str  41   7   1.410
  45 str  41  38   1.410
  46 str  42  10   1.427
  47 str  42  35   1.427
  48 str  42  41   1.428
  49 str  43  11   1.427
  50 str  43  34   1.427
  51 str  44  14   1.413
  52 str  44  31   1.413
  53 str  44  43   1.430
  54 str  45   1   1.093
  55 str  46   1   1.089
  56 str  47   1   1.093
  57 str  48   2   1.088
  58 str  49   3   1.089
  59 str  50   3   1.093
  60 str  51   3   1.093
  61 str  52   8   1.082
  62 str  53   9   1.081
  63 str  54  12   1.081
  64 str  55  13   1.082
  65 str  56  19   1.082
  66 str  57  21   1.096
  67 str  58  21   1.096
  68 str  59  23   1.082
  69 str  60  24   1.079
  70 str  61  32   1.082
  71 str  62  33   1.081
  72 str  63  36   1.081
  73 str  64  37   1.082
 nber stretches=          73
  74 ben   1   2   3
  75 prop tor   1   2   3  49
  76 prop tor   1   2   3  50
  77 prop tor   1   2   3  51
  78 ben   1   2   4
  79 prop tor   1   2   4   5
  80 prop tor   1   2   4  39
  81 ben   1   2  48
  82 ben   2   1  45
  83 ben   2   1  46
  84 ben   2   1  47
  85 ben   2   3  49
  86 ben   2   3  50
  87 ben   2   3  51
  88 ben   2   4   5
  89 prop tor   2   4   5   6
  90 prop tor   2   4   5   7
  91 ben   2   4  39
  92 prop tor   2   4  39  38
  93 prop tor   2   4  39  40
  94 ben   3   2   4
  95 prop tor   3   2   4   5
  96 prop tor   3   2   4  39
  97 ben   3   2  48
  98 prop tor   4   2   3  49
  99 prop tor   4   2   3  50
 100 prop tor   4   2   3  51
 101 ben   4   2  48
 102 ben   4   5   6
 103 ben   4   5   7
 104 prop tor   4   5   7   8
 105 prop tor   4   5   7  41
 106 ben   4  39  38
 107 ben   4  39  40
 108 ben   5   4  39
 109 prop tor   5   4  39  38
 110 prop tor   5   4  39  40
 111 ben   5   7   8
 112 prop tor   5   7   8   9
 113 prop tor   5   7   8  52
 114 ben   5   7  41
 115 prop tor   5   7  41  38
 116 prop tor   5   7  41  42
 117 ben   6   5   7
 118 prop tor   6   5   7   8
 119 prop tor   6   5   7  41
 120 ben   7   8   9
 121 prop tor   7   8   9  10
 122 prop tor   7   8   9  53
 123 ben   7   8  52
 124 ben   7  41  38
 125 ben   7  41  42
 126 prop tor   7  41  42  10
 127 prop tor   7  41  42  35
 128 ben   8   7  41
 129 prop tor   8   7  41  38
 130 prop tor   8   7  41  42
 131 ben   8   9  10
 132 prop tor   8   9  10  11
 133 prop tor   8   9  10  42
 134 ben   8   9  53
 135 ben   9   8  52
 136 ben   9  10  11
 137 prop tor   9  10  11  12
 138 prop tor   9  10  11  43
 139 ben   9  10  42
 140 prop tor   9  10  42  35
 141 prop tor   9  10  42  41
 142 ben  10   9  53
 143 ben  10  11  12
 144 prop tor  10  11  12  13
 145 prop tor  10  11  12  54
 146 ben  10  11  43
 147 prop tor  10  11  43  34
 148 prop tor  10  11  43  44
 149 ben  10  42  35
 150 ben  10  42  41
 151 ben  11  10  42
 152 prop tor  11  10  42  35
 153 prop tor  11  10  42  41
 154 ben  11  12  13
 155 prop tor  11  12  13  14
 156 prop tor  11  12  13  55
 157 ben  11  12  54
 158 ben  11  43  34
 159 ben  11  43  44
 160 prop tor  11  43  44  14
 161 prop tor  11  43  44  31
 162 ben  12  11  43
 163 prop tor  12  11  43  34
 164 prop tor  12  11  43  44
 165 ben  12  13  14
 166 prop tor  12  13  14  15
 167 prop tor  12  13  14  44
 168 ben  12  13  55
 169 ben  13  12  54
 170 ben  13  14  15
 171 prop tor  13  14  15  16
 172 prop tor  13  14  15  17
 173 ben  13  14  44
 174 prop tor  13  14  44  31
 175 prop tor  13  14  44  43
 176 ben  14  13  55
 177 ben  14  15  16
 178 ben  14  15  17
 179 prop tor  14  15  17  18
 180 prop tor  14  15  17  29
 181 ben  14  44  31
 182 ben  14  44  43
 183 ben  15  14  44
 184 prop tor  15  14  44  31
 185 prop tor  15  14  44  43
 186 ben  15  17  18
 187 prop tor  15  17  18  19
 188 prop tor  15  17  18  28
 189 ben  15  17  29
 190 prop tor  15  17  29  30
 191 prop tor  15  17  29  31
 192 ben  16  15  17
 193 prop tor  16  15  17  18
 194 prop tor  16  15  17  29
 195 ben  17  18  19
 196 prop tor  17  18  19  20
 197 prop tor  17  18  19  56
 198 ben  17  18  28
 199 prop tor  17  18  28  27
 200 ben  17  29  30
 201 ben  17  29  31
 202 prop tor  17  29  31  32
 203 prop tor  17  29  31  44
 204 ben  18  17  29
 205 prop tor  18  17  29  30
 206 prop tor  18  17  29  31
 207 ben  18  19  20
 208 prop tor  18  19  20  21
 209 prop tor  18  19  20  27
 210 ben  18  19  56
 211 ben  18  28  27
 212 ben  19  18  28
 213 prop tor  19  18  28  27
 214 ben  19  20  21
 215 prop tor  19  20  21  22
 216 prop tor  19  20  21  57
 217 prop tor  19  20  21  58
 218 ben  19  20  27
 219 prop tor  19  20  27  26
 220 prop tor  19  20  27  28
 221 ben  20  19  56
 222 ben  20  21  22
 223 prop tor  20  21  22  23
 224 prop tor  20  21  22  26
 225 ben  20  21  57
 226 ben  20  21  58
 227 ben  20  27  26
 228 ben  20  27  28
 229 prop tor  20  27  28  18
 230 ben  21  20  27
 231 prop tor  21  20  27  26
 232 prop tor  21  20  27  28
 233 ben  21  22  23
 234 prop tor  21  22  23  24
 235 prop tor  21  22  23  59
 236 ben  21  22  26
 237 prop tor  21  22  26  25
 238 prop tor  21  22  26  27
 239 ben  22  21  57
 240 ben  22  21  58
 241 ben  22  23  24
 242 prop tor  22  23  24  25
 243 prop tor  22  23  24  60
 244 ben  22  23  59
 245 ben  22  26  25
 246 ben  22  26  27
 247 prop tor  22  26  27  20
 248 prop tor  22  26  27  28
 249 ben  23  22  26
 250 prop tor  23  22  26  25
 251 prop tor  23  22  26  27
 252 ben  23  24  25
 253 prop tor  23  24  25  26
 254 ben  23  24  60
 255 ben  24  23  59
 256 ben  24  25  26
 257 prop tor  24  25  26  22
 258 prop tor  24  25  26  27
 259 ben  25  24  60
 260 ben  25  26  27
 261 prop tor  25  26  27  20
 262 prop tor  25  26  27  28
 263 prop tor  26  22  23  24
 264 prop tor  26  22  23  59
 265 ben  26  27  28
 266 prop tor  26  27  28  18
 267 prop tor  27  20  21  22
 268 prop tor  27  20  21  57
 269 prop tor  27  20  21  58
 270 prop tor  28  18  19  20
 271 prop tor  28  18  19  56
 272 prop tor  29  17  18  19
 273 prop tor  29  17  18  28
 274 ben  29  31  32
 275 prop tor  29  31  32  33
 276 prop tor  29  31  32  61
 277 ben  29  31  44
 278 prop tor  29  31  44  14
 279 prop tor  29  31  44  43
 280 ben  30  29  31
 281 prop tor  30  29  31  32
 282 prop tor  30  29  31  44
 283 ben  31  32  33
 284 prop tor  31  32  33  34
 285 prop tor  31  32  33  62
 286 ben  31  32  61
 287 ben  31  44  43
 288 ben  32  31  44
 289 prop tor  32  31  44  14
 290 prop tor  32  31  44  43
 291 ben  32  33  34
 292 prop tor  32  33  34  35
 293 prop tor  32  33  34  43
 294 ben  32  33  62
 295 ben  33  32  61
 296 ben  33  34  35
 297 prop tor  33  34  35  36
 298 prop tor  33  34  35  42
 299 ben  33  34  43
 300 prop tor  33  34  43  11
 301 prop tor  33  34  43  44
 302 ben  34  33  62
 303 ben  34  35  36
 304 prop tor  34  35  36  37
 305 prop tor  34  35  36  63
 306 ben  34  35  42
 307 prop tor  34  35  42  10
 308 prop tor  34  35  42  41
 309 ben  34  43  44
 310 prop tor  34  43  44  14
 311 prop tor  34  43  44  31
 312 ben  35  34  43
 313 prop tor  35  34  43  11
 314 prop tor  35  34  43  44
 315 ben  35  36  37
 316 prop tor  35  36  37  38
 317 prop tor  35  36  37  64
 318 ben  35  36  63
 319 ben  35  42  41
 320 ben  36  35  42
 321 prop tor  36  35  42  10
 322 prop tor  36  35  42  41
 323 ben  36  37  38
 324 prop tor  36  37  38  39
 325 prop tor  36  37  38  41
 326 ben  36  37  64
 327 ben  37  36  63
 328 ben  37  38  39
 329 prop tor  37  38  39   4
 330 prop tor  37  38  39  40
 331 ben  37  38  41
 332 prop tor  37  38  41   7
 333 prop tor  37  38  41  42
 334 ben  38  37  64
 335 ben  38  39  40
 336 ben  38  41  42
 337 prop tor  38  41  42  10
 338 prop tor  38  41  42  35
 339 prop tor  39   4   5   6
 340 prop tor  39   4   5   7
 341 ben  39  38  41
 342 prop tor  39  38  41   7
 343 prop tor  39  38  41  42
 344 prop tor  41   7   8   9
 345 prop tor  41   7   8  52
 346 prop tor  41  38  39   4
 347 prop tor  41  38  39  40
 348 prop tor  42  10  11  12
 349 prop tor  42  10  11  43
 350 prop tor  42  35  36  37
 351 prop tor  42  35  36  63
 352 prop tor  43  11  12  13
 353 prop tor  43  11  12  54
 354 prop tor  43  34  35  36
 355 prop tor  43  34  35  42
 356 prop tor  44  14  15  16
 357 prop tor  44  14  15  17
 358 prop tor  44  31  32  33
 359 prop tor  44  31  32  61
 360 prop tor  45   1   2   3
 361 prop tor  45   1   2   4
 362 prop tor  45   1   2  48
 363 ben  45   1  46
 364 ben  45   1  47
 365 prop tor  46   1   2   3
 366 prop tor  46   1   2   4
 367 prop tor  46   1   2  48
 368 ben  46   1  47
 369 prop tor  47   1   2   3
 370 prop tor  47   1   2   4
 371 prop tor  47   1   2  48
 372 prop tor  48   2   3  49
 373 prop tor  48   2   3  50
 374 prop tor  48   2   3  51
 375 prop tor  48   2   4   5
 376 prop tor  48   2   4  39
 377 ben  49   3  50
 378 ben  49   3  51
 379 ben  50   3  51
 380 prop tor  52   8   9  10
 381 prop tor  52   8   9  53
 382 prop tor  53   9  10  11
 383 prop tor  53   9  10  42
 384 prop tor  54  12  13  14
 385 prop tor  54  12  13  55
 386 prop tor  55  13  14  15
 387 prop tor  55  13  14  44
 388 prop tor  56  19  20  21
 389 prop tor  56  19  20  27
 390 prop tor  57  21  22  23
 391 prop tor  57  21  22  26
 392 ben  57  21  58
 393 prop tor  58  21  22  23
 394 prop tor  58  21  22  26
 395 prop tor  59  23  24  25
 396 prop tor  59  23  24  60
 397 prop tor  60  24  25  26
 398 prop tor  61  32  33  34
 399 prop tor  61  32  33  62
 400 prop tor  62  33  34  35
 401 prop tor  62  33  34  43
 402 prop tor  63  36  37  38
 403 prop tor  63  36  37  64
 404 prop tor  64  37  38  39
 405 prop tor  64  37  38  41
 nber bend=             128
 nber lin bend=           0
 nber prop tor=         204
 nber impr tor=           0
 nber tot redund int=         405
 Eigenvalues of G in red int coords
    Gval -0.00000000 -0.00000000 -0.00000000 -0.00000000 -0.00000000 -0.00000000 -0.00000000 -0.00000000
    Gval -0.00000000 -0.00000000 -0.00000000 -0.00000000 -0.00000000 -0.00000000 -0.00000000 -0.00000000
    Gval -0.00000000 -0.00000000 -0.00000000 -0.00000000 -0.00000000 -0.00000000 -0.00000000 -0.00000000
    Gval -0.00000000 -0.00000000 -0.00000000 -0.00000000 -0.00000000 -0.00000000 -0.00000000 -0.00000000
    Gval -0.00000000 -0.00000000 -0.00000000 -0.00000000 -0.00000000 -0.00000000 -0.00000000 -0.00000000
    Gval -0.00000000 -0.00000000 -0.00000000 -0.00000000 -0.00000000 -0.00000000 -0.00000000 -0.00000000
    Gval -0.00000000 -0.00000000 -0.00000000 -0.00000000 -0.00000000 -0.00000000 -0.00000000 -0.00000000
    Gval -0.00000000 -0.00000000 -0.00000000 -0.00000000 -0.00000000 -0.00000000 -0.00000000 -0.00000000
    Gval -0.00000000 -0.00000000 -0.00000000 -0.00000000 -0.00000000 -0.00000000 -0.00000000 -0.00000000
    Gval -0.00000000 -0.00000000 -0.00000000 -0.00000000 -0.00000000 -0.00000000 -0.00000000 -0.00000000
    Gval -0.00000000 -0.00000000 -0.00000000 -0.00000000 -0.00000000 -0.00000000 -0.00000000 -0.00000000
    Gval -0.00000000 -0.00000000 -0.00000000 -0.00000000 -0.00000000 -0.00000000 -0.00000000 -0.00000000
    Gval -0.00000000 -0.00000000 -0.00000000 -0.00000000 -0.00000000 -0.00000000 -0.00000000 -0.00000000
    Gval -0.00000000 -0.00000000 -0.00000000 -0.00000000 -0.00000000 -0.00000000 -0.00000000 -0.00000000
    Gval -0.00000000 -0.00000000 -0.00000000  0.00000000  0.00000000  0.00000000  0.00000000  0.00000000
    Gval  0.00000000  0.00000000  0.00000000  0.00000000  0.00000000  0.00000000  0.00000000  0.00000000
    Gval  0.00000000  0.00000000  0.00000000  0.00000000  0.00000000  0.00000000  0.00000000  0.00000000
    Gval  0.00000000  0.00000000  0.00000000  0.00000000  0.00000000  0.00000000  0.00000000  0.00000000
    Gval  0.00000000  0.00000000  0.00000000  0.00000000  0.00000000  0.00000000  0.00000000  0.00000000
    Gval  0.00000000  0.00000000  0.00000000  0.00000000  0.00000000  0.00000000  0.00000000  0.00000000
    Gval  0.00000000  0.00000000  0.00000000  0.00000000  0.00000000  0.00000000  0.00000000  0.00000000
    Gval  0.00000000  0.00000000  0.00000000  0.00000000  0.00000000  0.00000000  0.00000000  0.00000000
    Gval  0.00000000  0.00000000  0.00000000  0.00000000  0.00000000  0.00000000  0.00000000  0.00000000
    Gval  0.00000000  0.00000000  0.00000000  0.00000000  0.00000000  0.00000000  0.00000000  0.00000000
    Gval  0.00000000  0.00000000  0.00000000  0.00000000  0.00000000  0.00000000  0.00000000  0.00000000
    Gval  0.00000000  0.00000000  0.00000000  0.00000000  0.00000000  0.00000000  0.00000000  0.00000000
    Gval  0.00000000  0.00000000  0.00000000  0.00000000  0.00000000  0.00000000  0.00000000  0.00000000
    Gval  0.00000000  0.00000000  0.00000000  0.00000030  0.00000038  0.00000122  0.00000179  0.00000273
    Gval  0.00000417  0.00000516  0.00000579  0.00000767  0.00000927  0.00001095  0.00001252  0.00001294
    Gval  0.00001511  0.00001552  0.00001642  0.00001758  0.00001827  0.00001928  0.00001944  0.00002168
    Gval  0.00002396  0.00002471  0.00002481  0.00002561  0.00002737  0.00003004  0.00003460  0.00003676
    Gval  0.00003898  0.00003994  0.00004769  0.00004884  0.00005101  0.00005114  0.00005300  0.00005529
    Gval  0.00005713  0.00005953  0.00006130  0.00006759  0.00006986  0.00007188  0.00007288  0.00007293
    Gval  0.00008032  0.00008150  0.00008245  0.00008466  0.00008714  0.00008789  0.00009317  0.00009323
    Gval  0.00009498  0.00010042  0.00010305  0.00011118  0.00011786  0.00012247  0.00013375  0.00013526
    Gval  0.00013602  0.00013728  0.00014038  0.00015512  0.00015619  0.00015863  0.00015975  0.00016564
    Gval  0.00018135  0.00018751  0.00019785  0.00020647  0.00021829  0.00022199  0.00022834  0.00023018
    Gval  0.00025382  0.00027308  0.00028558  0.00028589  0.00029023  0.00029948  0.00030279  0.00030808
    Gval  0.00034159  0.00036023  0.00036907  0.00037377  0.00037969  0.00038545  0.00038686  0.00039077
    Gval  0.00039230  0.00040049  0.00042279  0.00042407  0.00042761  0.00043214  0.00043553  0.00044081
    Gval  0.00044199  0.00046201  0.00046610  0.00046883  0.00048574  0.00049493  0.00053385  0.00053716
    Gval  0.00054486  0.00055409  0.00055598  0.00055601  0.00057864  0.00058332  0.00059676  0.00059849
    Gval  0.00059924  0.00059956  0.00059985  0.00060219  0.00060925  0.00062109  0.00062409  0.00063144
    Gval  0.00064073  0.00064423  0.00064499  0.00064682  0.00067023  0.00069377  0.00069772  0.00079541
    Gval  0.00081332  0.00093305  0.00098335  0.00101310  0.00108137  0.00109326  0.00109418  0.00109488
    Gval  0.00109538  0.00110474  0.00114207  0.00114295  0.00116542  0.00116559  0.00116589  0.00116615
    Gval  0.00117117  0.00117176  0.00118436  0.00120736  0.00126160  0.00129533  0.00133665  0.00137496
    Gval  0.00138167  0.00148205  0.00156325  0.00166023  0.00171515  0.00177956  0.00191840  0.00195222
    Gval  0.00208433  0.00228009  0.00233910  0.00252107  0.00252505  0.00255985  0.00266385  0.00278920
    Gval  0.00292189  0.00302347  0.00302505  0.00304207  0.00308128  0.00309612  0.00367502  0.00367681
    Gval  0.00372172  0.00372342  0.00374111  0.00394501  0.00408079
  2.972405381084385E-007  2.972405381084385E-007
  3.755782872203351E-007  2.972405381084385E-007
  1.223373799462471E-006  2.972405381084385E-007
  1.785481053053247E-006  2.972405381084385E-007
  2.727211671599224E-006  2.972405381084385E-007
  4.172180845945879E-006  2.972405381084385E-007
  5.156885091679631E-006  2.972405381084385E-007
  5.794406142012315E-006  2.972405381084385E-007
  7.668310063025556E-006  2.972405381084385E-007
  9.274470778482004E-006  2.972405381084385E-007
  1.095088182423131E-005  2.972405381084385E-007
  1.251695783129101E-005  2.972405381084385E-007
  1.294325684812758E-005  2.972405381084385E-007
  1.510511104706467E-005  2.972405381084385E-007
  1.551764470375080E-005  2.972405381084385E-007
  1.642482697840692E-005  2.972405381084385E-007
  1.758210965669475E-005  2.972405381084385E-007
  1.827242370601584E-005  2.972405381084385E-007
  1.928217938090575E-005  2.972405381084385E-007
  1.944128728497255E-005  2.972405381084385E-007
  2.167674595086219E-005  2.972405381084385E-007
  2.396027006821516E-005  2.972405381084385E-007
  2.471419620617252E-005  2.972405381084385E-007
  2.480878043522698E-005  2.972405381084385E-007
  2.560812367605400E-005  2.972405381084385E-007
  2.737040431941633E-005  2.972405381084385E-007
  3.004220389940219E-005  2.972405381084385E-007
  3.460212715565566E-005  2.972405381084385E-007
  3.675829705084766E-005  2.972405381084385E-007
  3.897878417943048E-005  2.972405381084385E-007
  3.994069867960925E-005  2.972405381084385E-007
  4.768612227630755E-005  2.972405381084385E-007
  4.883772091315778E-005  2.972405381084385E-007
  5.100551505208973E-005  2.972405381084385E-007
  5.113993218352834E-005  2.972405381084385E-007
  5.299717872845981E-005  2.972405381084385E-007
  5.529074487043852E-005  2.972405381084385E-007
  5.713004133648575E-005  2.972405381084385E-007
  5.953483563249770E-005  2.972405381084385E-007
  6.129723559158596E-005  2.972405381084385E-007
  6.758834206359952E-005  2.972405381084385E-007
  6.986274693692905E-005  2.972405381084385E-007
  7.187889809259830E-005  2.972405381084385E-007
  7.287626471314271E-005  2.972405381084385E-007
  7.292783208792318E-005  2.972405381084385E-007
  8.031529596126496E-005  2.972405381084385E-007
  8.150063403899973E-005  2.972405381084385E-007
  8.245116170003757E-005  2.972405381084385E-007
  8.465908236066961E-005  2.972405381084385E-007
  8.713679093273958E-005  2.972405381084385E-007
  8.788725713847087E-005  2.972405381084385E-007
  9.316676527708352E-005  2.972405381084385E-007
  9.322718442988878E-005  2.972405381084385E-007
  9.497514446971254E-005  2.972405381084385E-007
  1.004188188559814E-004  2.972405381084385E-007
  1.030547980315229E-004  2.972405381084385E-007
  1.111767338813097E-004  2.972405381084385E-007
  1.178578688859188E-004  2.972405381084385E-007
  1.224710409017076E-004  2.972405381084385E-007
  1.337545657593785E-004  2.972405381084385E-007
  1.352574293710411E-004  2.972405381084385E-007
  1.360236513002721E-004  2.972405381084385E-007
  1.372758190208749E-004  2.972405381084385E-007
  1.403791682234996E-004  2.972405381084385E-007
  1.551207350273549E-004  2.972405381084385E-007
  1.561879481895944E-004  2.972405381084385E-007
  1.586269435729336E-004  2.972405381084385E-007
  1.597500825462449E-004  2.972405381084385E-007
  1.656434140974292E-004  2.972405381084385E-007
  1.813524148224805E-004  2.972405381084385E-007
  1.875076829012651E-004  2.972405381084385E-007
  1.978475767589994E-004  2.972405381084385E-007
  2.064739435140014E-004  2.972405381084385E-007
  2.182861502737506E-004  2.972405381084385E-007
  2.219870839062480E-004  2.972405381084385E-007
  2.283393221086541E-004  2.972405381084385E-007
  2.301779672651680E-004  2.972405381084385E-007
  2.538167678153621E-004  2.972405381084385E-007
  2.730808080460794E-004  2.972405381084385E-007
  2.855840094242152E-004  2.972405381084385E-007
  2.858850897914884E-004  2.972405381084385E-007
  2.902323257144095E-004  2.972405381084385E-007
  2.994761447424531E-004  2.972405381084385E-007
  3.027939976498865E-004  2.972405381084385E-007
  3.080808308942565E-004  2.972405381084385E-007
  3.415931765731952E-004  2.972405381084385E-007
  3.602312593266185E-004  2.972405381084385E-007
  3.690724540539558E-004  2.972405381084385E-007
  3.737729573659476E-004  2.972405381084385E-007
  3.796858068820047E-004  2.972405381084385E-007
  3.854451638627861E-004  2.972405381084385E-007
  3.868628824289467E-004  2.972405381084385E-007
  3.907696260105529E-004  2.972405381084385E-007
  3.922979343011077E-004  2.972405381084385E-007
  4.004931958580251E-004  2.972405381084385E-007
  4.227885420307199E-004  2.972405381084385E-007
  4.240688008957825E-004  2.972405381084385E-007
  4.276060004939020E-004  2.972405381084385E-007
  4.321388911323306E-004  2.972405381084385E-007
  4.355329720610795E-004  2.972405381084385E-007
  4.408085705471119E-004  2.972405381084385E-007
  4.419850959319381E-004  2.972405381084385E-007
  4.620112661218760E-004  2.972405381084385E-007
  4.661029716512021E-004  2.972405381084385E-007
  4.688290212899920E-004  2.972405381084385E-007
  4.857393545975819E-004  2.972405381084385E-007
  4.949308107415556E-004  2.972405381084385E-007
  5.338534703792537E-004  2.972405381084385E-007
  5.371641836124463E-004  2.972405381084385E-007
  5.448567733059810E-004  2.972405381084385E-007
  5.540878101994446E-004  2.972405381084385E-007
  5.559764641955288E-004  2.972405381084385E-007
  5.560123784165864E-004  2.972405381084385E-007
  5.786440727563076E-004  2.972405381084385E-007
  5.833217326607640E-004  2.972405381084385E-007
  5.967594239229557E-004  2.972405381084385E-007
  5.984896685894310E-004  2.972405381084385E-007
  5.992365948263670E-004  2.972405381084385E-007
  5.995623178833244E-004  2.972405381084385E-007
  5.998469021880038E-004  2.972405381084385E-007
  6.021874823723712E-004  2.972405381084385E-007
  6.092519316145317E-004  2.972405381084385E-007
  6.210890422195319E-004  2.972405381084385E-007
  6.240921428217997E-004  2.972405381084385E-007
  6.314393920119748E-004  2.972405381084385E-007
  6.407323810664686E-004  2.972405381084385E-007
  6.442327160751327E-004  2.972405381084385E-007
  6.449895569384848E-004  2.972405381084385E-007
  6.468184479026140E-004  2.972405381084385E-007
  6.702342391756300E-004  2.972405381084385E-007
  6.937701220071507E-004  2.972405381084385E-007
  6.977194788532582E-004  2.972405381084385E-007
  7.954099614273256E-004  2.972405381084385E-007
  8.133213166307474E-004  2.972405381084385E-007
  9.330481736506838E-004  2.972405381084385E-007
  9.833465612561875E-004  2.972405381084385E-007
  1.013100425926803E-003  2.972405381084385E-007
  1.081365565933797E-003  2.972405381084385E-007
  1.093255017719593E-003  2.972405381084385E-007
  1.094184610229638E-003  2.972405381084385E-007
  1.094883601112614E-003  2.972405381084385E-007
  1.095379735316433E-003  2.972405381084385E-007
  1.104742754948488E-003  2.972405381084385E-007
  1.142065291044206E-003  2.972405381084385E-007
  1.142952482747614E-003  2.972405381084385E-007
  1.165419226999542E-003  2.972405381084385E-007
  1.165593979793079E-003  2.972405381084385E-007
  1.165890127267297E-003  2.972405381084385E-007
  1.166148144007386E-003  2.972405381084385E-007
  1.171173398693619E-003  2.972405381084385E-007
  1.171764649117884E-003  2.972405381084385E-007
  1.184360736516913E-003  2.972405381084385E-007
  1.207360886457522E-003  2.972405381084385E-007
  1.261595656077432E-003  2.972405381084385E-007
  1.295327631818400E-003  2.972405381084385E-007
  1.336649350673184E-003  2.972405381084385E-007
  1.374960072331126E-003  2.972405381084385E-007
  1.381673585026022E-003  2.972405381084385E-007
  1.482049743566437E-003  2.972405381084385E-007
  1.563252431563698E-003  2.972405381084385E-007
  1.660234937106342E-003  2.972405381084385E-007
  1.715153083998221E-003  2.972405381084385E-007
  1.779560523809226E-003  2.972405381084385E-007
  1.918402763688746E-003  2.972405381084385E-007
  1.952220001515275E-003  2.972405381084385E-007
  2.084334879562460E-003  2.972405381084385E-007
  2.280086534672811E-003  2.972405381084385E-007
  2.339101824221139E-003  2.972405381084385E-007
  2.521067375913215E-003  2.972405381084385E-007
  2.525047386052896E-003  2.972405381084385E-007
  2.559852450151794E-003  2.972405381084385E-007
  2.663852711362626E-003  2.972405381084385E-007
  2.789203319644406E-003  2.972405381084385E-007
  2.921887627543337E-003  2.972405381084385E-007
  3.023474631906338E-003  2.972405381084385E-007
  3.025045735501481E-003  2.972405381084385E-007
  3.042071431939243E-003  2.972405381084385E-007
  3.081276330010809E-003  2.972405381084385E-007
  3.096121834360260E-003  2.972405381084385E-007
  3.675021562023110E-003  2.972405381084385E-007
  3.676812761312679E-003  2.972405381084385E-007
  3.721717606414606E-003  2.972405381084385E-007
  3.723420322502186E-003  2.972405381084385E-007
  3.741114592917491E-003  2.972405381084385E-007
  3.945006231932151E-003  2.972405381084385E-007
  4.080785204537162E-003  2.972405381084385E-007
 cut=1d-8, nber non-redundant internal coords=         186
 Check on Eigenvals of non-red overlap matrix:
  0.00000030  0.00000038  0.00000122  0.00000179  0.00000273  0.00000417  0.00000516  0.00000579
  0.00000767  0.00000927  0.00001095  0.00001252  0.00001294  0.00001511  0.00001552  0.00001642
  0.00001758  0.00001827  0.00001928  0.00001944  0.00002168  0.00002396  0.00002471  0.00002481
  0.00002561  0.00002737  0.00003004  0.00003460  0.00003676  0.00003898  0.00003994  0.00004769
  0.00004884  0.00005101  0.00005114  0.00005300  0.00005529  0.00005713  0.00005953  0.00006130
  0.00006759  0.00006986  0.00007188  0.00007288  0.00007293  0.00008032  0.00008150  0.00008245
  0.00008466  0.00008714  0.00008789  0.00009317  0.00009323  0.00009498  0.00010042  0.00010305
  0.00011118  0.00011786  0.00012247  0.00013375  0.00013526  0.00013602  0.00013728  0.00014038
  0.00015512  0.00015619  0.00015863  0.00015975  0.00016564  0.00018135  0.00018751  0.00019785
  0.00020647  0.00021829  0.00022199  0.00022834  0.00023018  0.00025382  0.00027308  0.00028558
  0.00028589  0.00029023  0.00029948  0.00030279  0.00030808  0.00034159  0.00036023  0.00036907
  0.00037377  0.00037969  0.00038545  0.00038686  0.00039077  0.00039230  0.00040049  0.00042279
  0.00042407  0.00042761  0.00043214  0.00043553  0.00044081  0.00044199  0.00046201  0.00046610
  0.00046883  0.00048574  0.00049493  0.00053385  0.00053716  0.00054486  0.00055409  0.00055598
  0.00055601  0.00057864  0.00058332  0.00059676  0.00059849  0.00059924  0.00059956  0.00059985
  0.00060219  0.00060925  0.00062109  0.00062409  0.00063144  0.00064073  0.00064423  0.00064499
  0.00064682  0.00067023  0.00069377  0.00069772  0.00079541  0.00081332  0.00093305  0.00098335
  0.00101310  0.00108137  0.00109326  0.00109418  0.00109488  0.00109538  0.00110474  0.00114207
  0.00114295  0.00116542  0.00116559  0.00116589  0.00116615  0.00117117  0.00117176  0.00118436
  0.00120736  0.00126160  0.00129533  0.00133665  0.00137496  0.00138167  0.00148205  0.00156325
  0.00166023  0.00171515  0.00177956  0.00191840  0.00195222  0.00208433  0.00228009  0.00233910
  0.00252107  0.00252505  0.00255985  0.00266385  0.00278920  0.00292189  0.00302347  0.00302505
  0.00304207  0.00308128  0.00309612  0.00367502  0.00367681  0.00372172  0.00372342  0.00374111
  0.00394501  0.00408079
 Checking for correct frequencies
 recalc frequencies=
    -0.0   -0.0    0.0    0.0    0.0    0.0   10.9   15.3   20.8   29.5
    31.1   54.8   58.5   76.4   80.4   88.9   93.4  106.5  118.9  130.7
   141.9  167.8  178.0  186.4  193.3  206.9  216.0  221.9  233.7  234.8
   238.2  253.0  256.2  280.2  299.6  301.8  320.8  335.6  354.2  374.8
   389.2  392.8  417.3  431.3  436.0  437.1  439.0  447.3  455.9  470.5
   474.0  483.3  487.4  498.9  506.3  508.0  529.0  536.8  547.4  569.9
   570.8  573.4  578.3  579.2  605.2  611.6  615.7  633.2  635.3  652.8
   670.0  679.5  697.7  699.6  706.7  713.7  713.8  722.3  752.8  754.0
   759.7  761.8  773.1  801.5  808.4  812.5  815.2  819.2  824.3  828.6
   832.7  845.8  849.1  876.8  902.1  919.8  931.1  936.4  945.4  946.6
   956.7  969.0  974.7  976.5  987.9  988.6 1001.2 1008.4 1061.1 1073.9
  1093.0 1110.0 1120.4 1135.3 1143.7 1148.8 1155.5 1160.9 1170.0 1173.7
  1185.6 1195.9 1200.0 1211.8 1224.2 1232.6 1234.3 1242.0 1250.3 1265.7
  1297.2 1311.8 1318.3 1345.2 1351.5 1361.1 1366.1 1374.9 1382.2 1391.4
  1400.1 1402.9 1403.8 1416.2 1429.2 1431.1 1438.1 1441.8 1444.6 1457.1
  1460.0 1466.2 1470.9 1485.0 1491.8 1497.6 1505.2 1510.8 1522.4 1532.3
  1546.4 1554.4 1568.9 1570.6 1581.0 1599.2 1599.3 1622.6 1685.6 1715.8
  1725.1 1749.5 3027.6 3034.3 3038.4 3055.4 3092.2 3095.4 3112.4 3132.6
  3142.9 3198.1 3198.5 3199.2 3204.9 3205.0 3209.2 3212.9 3213.0 3224.3
  3224.6 3246.1
 recalc symmetries=
                                                                       
                                                                       
                                                                       
                                                                       
                                                                       
                                                                       
                                                                       
                                                                       
                                                                       
                                                                       
                                                                       
                                                                       
                                                                       
                                                                       
                                                                       
                                                                       
                                                                       
                                                                       
                                                                       
               
 recalc freqs check OK
 Zero-point lengths:
 10.0000 10.0000 10.0000 10.0000 10.0000 10.0000 75.1820 63.3803 54.2980 45.6263
 44.4470 33.4785 32.4173 28.3665 27.6476 26.2961 25.6466 24.0232 22.7341 21.6811
 20.8128 19.1377 18.5816 18.1573 17.8315 17.2342 16.8699 16.6419 16.2179 16.1795
 16.0620 15.5866 15.4897 14.8101 14.3224 14.2705 13.8420 13.5330 13.1722 12.8058
 12.5671 12.5080 12.1354 11.9377 11.8731 11.8575 11.8321 11.7218 11.6114 11.4288
 11.3866 11.2763 11.2289 11.0992 11.0178 10.9995 10.7788 10.7002 10.5965 10.3851
 10.3765 10.3532 10.3092 10.3014 10.0774 10.0247  9.9910  9.8517  9.8355  9.7029
  9.5777  9.5104  9.3857  9.3728  9.3255  9.2798  9.2791  9.2245  9.0354  9.0281
  8.9947  8.9821  8.9164  8.7570  8.7193  8.6974  8.6830  8.6615  8.6350  8.6122
  8.5911  8.5243  8.5076  8.3723  8.2542  8.1743  8.1246  8.1014  8.0628  8.0575
  8.0150  7.9639  7.9406  7.9333  7.8874  7.8847  7.8351  7.8067  7.6107  7.5651
  7.4986  7.4411  7.4063  7.3575  7.3305  7.3143  7.2931  7.2760  7.2479  7.2365
  7.1999  7.1687  7.1566  7.1215  7.0856  7.0614  7.0564  7.0345  7.0110  6.9683
  6.8831  6.8448  6.8279  6.7594  6.7436  6.7196  6.7075  6.6859  6.6683  6.6462
  6.6253  6.6189  6.6166  6.5877  6.5577  6.5532  6.5373  6.5289  6.5226  6.4945
  6.4880  6.4744  6.4639  6.4332  6.4186  6.4062  6.3900  6.3781  6.3537  6.3332
  6.3042  6.2880  6.2589  6.2554  6.2349  6.1993  6.1991  6.1544  6.0383  5.9849
  5.9688  5.9271  4.5056  4.5006  4.4975  4.4850  4.4582  4.4559  4.4437  4.4294
  4.4221  4.3838  4.3835  4.3830  4.3792  4.3790  4.3762  4.3737  4.3736  4.3660
  4.3658  4.3513
 highest evec of mol 1
  0.0000  0.0000 -0.0000
  0.0000  0.0000 -0.0000
  0.0000  0.0000 -0.0000
 -0.0000 -0.0000  0.0000
  0.0000 -0.0000 -0.0000
 -0.0000  0.0000  0.0000
 -0.0000 -0.0000  0.0000
  0.0000 -0.0000 -0.0000
 -0.0000 -0.0000  0.0000
  0.0000 -0.0000 -0.0000
 -0.0000  0.0000  0.0000
  0.0000 -0.0000 -0.0000
 -0.0000 -0.0000  0.0000
 -0.0000  0.0000  0.0000
  0.0000 -0.0000 -0.0000
 -0.0000  0.0000  0.0000
  0.0000  0.0000 -0.0000
 -0.0002  0.0000  0.0001
  0.0003 -0.0000  0.0000
  0.0003 -0.0000 -0.0000
  0.0001  0.0000 -0.0002
 -0.0019 -0.0003  0.0064
 -0.0423  0.0081 -0.0539
  0.2119 -0.0072 -0.1970
  0.0011 -0.0002  0.0019
 -0.0028  0.0001  0.0022
 -0.0004  0.0000 -0.0000
  0.0000  0.0000 -0.0001
  0.0000  0.0000 -0.0000
 -0.0000 -0.0000  0.0000
 -0.0000 -0.0000  0.0000
 -0.0000  0.0000  0.0000
  0.0000  0.0000 -0.0000
 -0.0000 -0.0000  0.0000
  0.0000  0.0000 -0.0000
 -0.0000  0.0000  0.0000
  0.0000  0.0000 -0.0000
 -0.0000  0.0000  0.0000
  0.0000  0.0000 -0.0000
 -0.0000 -0.0000  0.0000
 -0.0000 -0.0000  0.0000
  0.0000  0.0000 -0.0000
 -0.0000 -0.0000  0.0000
 -0.0000 -0.0000  0.0000
 -0.0000 -0.0000  0.0000
  0.0000 -0.0000 -0.0000
  0.0000  0.0000  0.0000
 -0.0000 -0.0000  0.0000
 -0.0000 -0.0000 -0.0000
 -0.0000 -0.0000  0.0000
  0.0000 -0.0000 -0.0000
 -0.0000  0.0000  0.0000
  0.0000  0.0001 -0.0000
 -0.0000  0.0001  0.0001
  0.0000  0.0001 -0.0001
 -0.0009  0.0001  0.0000
  0.0003  0.0001 -0.0001
  0.0003 -0.0001 -0.0001
  0.0837 -0.0199  0.1607
 -0.6589  0.0187  0.6661
  0.0000 -0.0001 -0.0001
 -0.0000 -0.0001  0.0000
  0.0000 -0.0001 -0.0000
 -0.0000 -0.0000  0.0000
 generating redundant internal coords
         300        3600          64
 Adding extra bonds for z output only
           6           6           6           7           6           8
           6           6           6           6           6           6
           6           6           6           8           7           6
           6           6           6           6           6           6
          16           6           6          16           6           8
           6           6           6           6           6           6
           6           6           6           8           6           6
           6           6           1           1           1           1
           1           1           1           1           1           1
           1           1           1           1           1           1
           1           1           1           1
 search for int coords
   1 str   2   1   1.532
   2 str   3   2   1.532
   3 str   4   2   1.498
   4 str   5   4   1.400
   5 str   6   5   1.222
   6 str   7   5   1.479
   7 str   8   7   1.400
   8 str   9   8   1.380
   9 str  10   9   1.422
  10 str  11  10   1.441
  11 str  12  11   1.422
  12 str  13  12   1.379
  13 str  14  13   1.400
  14 str  15  14   1.476
  15 str  16  15   1.215
  16 str  17  15   1.418
  17 str  18  17   1.420
  18 str  19  18   1.368
  19 str  20  19   1.415
  20 str  21  20   1.515
  21 str  22  21   1.515
  22 str  23  22   1.418
  23 str  24  23   1.370
  24 str  25  24   1.748
  25 str  26  22   1.382
  26 str  26  25   1.728
  27 str  27  20   1.382
  28 str  27  26   1.443
  29 str  28  18   1.760
  30 str  28  27   1.725
  31 str  29  17   1.419
  32 str  30  29   1.215
  33 str  31  29   1.475
  34 str  32  31   1.400
  35 str  33  32   1.379
  36 str  34  33   1.422
  37 str  35  34   1.441
  38 str  36  35   1.422
  39 str  37  36   1.380
  40 str  38  37   1.400
  41 str  39   4   1.408
  42 str  39  38   1.478
  43 str  40  39   1.221
  44 str  41   7   1.410
  45 str  41  38   1.410
  46 str  42  10   1.427
  47 str  42  35   1.427
  48 str  42  41   1.428
  49 str  43  11   1.427
  50 str  43  34   1.427
  51 str  44  14   1.413
  52 str  44  31   1.413
  53 str  44  43   1.430
  54 str  45   1   1.093
  55 str  46   1   1.089
  56 str  47   1   1.093
  57 str  48   2   1.088
  58 str  49   3   1.089
  59 str  50   3   1.093
  60 str  51   3   1.093
  61 str  52   8   1.082
  62 str  53   9   1.081
  63 str  54  12   1.081
  64 str  55  13   1.082
  65 str  56  19   1.082
  66 str  57  21   1.096
  67 str  58  21   1.096
  68 str  59  23   1.082
  69 str  60  24   1.079
  70 str  61  32   1.082
  71 str  62  33   1.081
  72 str  63  36   1.081
  73 str  64  37   1.082
 nber stretches=          73
  74 ben   1   2   3
  75 prop tor   1   2   3  49
  76 prop tor   1   2   3  50
  77 prop tor   1   2   3  51
  78 ben   1   2   4
  79 prop tor   1   2   4   5
  80 prop tor   1   2   4  39
  81 ben   1   2  48
  82 ben   2   1  45
  83 ben   2   1  46
  84 ben   2   1  47
  85 ben   2   3  49
  86 ben   2   3  50
  87 ben   2   3  51
  88 ben   2   4   5
  89 prop tor   2   4   5   6
  90 prop tor   2   4   5   7
  91 ben   2   4  39
  92 prop tor   2   4  39  38
  93 prop tor   2   4  39  40
  94 ben   3   2   4
  95 prop tor   3   2   4   5
  96 prop tor   3   2   4  39
  97 ben   3   2  48
  98 prop tor   4   2   3  49
  99 prop tor   4   2   3  50
 100 prop tor   4   2   3  51
 101 ben   4   2  48
 102 ben   4   5   6
 103 ben   4   5   7
 104 prop tor   4   5   7   8
 105 prop tor   4   5   7  41
 106 ben   4  39  38
 107 ben   4  39  40
 108 ben   5   4  39
 109 prop tor   5   4  39  38
 110 prop tor   5   4  39  40
 111 ben   5   7   8
 112 prop tor   5   7   8   9
 113 prop tor   5   7   8  52
 114 ben   5   7  41
 115 prop tor   5   7  41  38
 116 prop tor   5   7  41  42
 117 ben   6   5   7
 118 prop tor   6   5   7   8
 119 prop tor   6   5   7  41
 120 ben   7   8   9
 121 prop tor   7   8   9  10
 122 prop tor   7   8   9  53
 123 ben   7   8  52
 124 ben   7  41  38
 125 ben   7  41  42
 126 prop tor   7  41  42  10
 127 prop tor   7  41  42  35
 128 ben   8   7  41
 129 prop tor   8   7  41  38
 130 prop tor   8   7  41  42
 131 ben   8   9  10
 132 prop tor   8   9  10  11
 133 prop tor   8   9  10  42
 134 ben   8   9  53
 135 ben   9   8  52
 136 ben   9  10  11
 137 prop tor   9  10  11  12
 138 prop tor   9  10  11  43
 139 ben   9  10  42
 140 prop tor   9  10  42  35
 141 prop tor   9  10  42  41
 142 ben  10   9  53
 143 ben  10  11  12
 144 prop tor  10  11  12  13
 145 prop tor  10  11  12  54
 146 ben  10  11  43
 147 prop tor  10  11  43  34
 148 prop tor  10  11  43  44
 149 ben  10  42  35
 150 ben  10  42  41
 151 ben  11  10  42
 152 prop tor  11  10  42  35
 153 prop tor  11  10  42  41
 154 ben  11  12  13
 155 prop tor  11  12  13  14
 156 prop tor  11  12  13  55
 157 ben  11  12  54
 158 ben  11  43  34
 159 ben  11  43  44
 160 prop tor  11  43  44  14
 161 prop tor  11  43  44  31
 162 ben  12  11  43
 163 prop tor  12  11  43  34
 164 prop tor  12  11  43  44
 165 ben  12  13  14
 166 prop tor  12  13  14  15
 167 prop tor  12  13  14  44
 168 ben  12  13  55
 169 ben  13  12  54
 170 ben  13  14  15
 171 prop tor  13  14  15  16
 172 prop tor  13  14  15  17
 173 ben  13  14  44
 174 prop tor  13  14  44  31
 175 prop tor  13  14  44  43
 176 ben  14  13  55
 177 ben  14  15  16
 178 ben  14  15  17
 179 prop tor  14  15  17  18
 180 prop tor  14  15  17  29
 181 ben  14  44  31
 182 ben  14  44  43
 183 ben  15  14  44
 184 prop tor  15  14  44  31
 185 prop tor  15  14  44  43
 186 ben  15  17  18
 187 prop tor  15  17  18  19
 188 prop tor  15  17  18  28
 189 ben  15  17  29
 190 prop tor  15  17  29  30
 191 prop tor  15  17  29  31
 192 ben  16  15  17
 193 prop tor  16  15  17  18
 194 prop tor  16  15  17  29
 195 ben  17  18  19
 196 prop tor  17  18  19  20
 197 prop tor  17  18  19  56
 198 ben  17  18  28
 199 prop tor  17  18  28  27
 200 ben  17  29  30
 201 ben  17  29  31
 202 prop tor  17  29  31  32
 203 prop tor  17  29  31  44
 204 ben  18  17  29
 205 prop tor  18  17  29  30
 206 prop tor  18  17  29  31
 207 ben  18  19  20
 208 prop tor  18  19  20  21
 209 prop tor  18  19  20  27
 210 ben  18  19  56
 211 ben  18  28  27
 212 ben  19  18  28
 213 prop tor  19  18  28  27
 214 ben  19  20  21
 215 prop tor  19  20  21  22
 216 prop tor  19  20  21  57
 217 prop tor  19  20  21  58
 218 ben  19  20  27
 219 prop tor  19  20  27  26
 220 prop tor  19  20  27  28
 221 ben  20  19  56
 222 ben  20  21  22
 223 prop tor  20  21  22  23
 224 prop tor  20  21  22  26
 225 ben  20  21  57
 226 ben  20  21  58
 227 ben  20  27  26
 228 ben  20  27  28
 229 prop tor  20  27  28  18
 230 ben  21  20  27
 231 prop tor  21  20  27  26
 232 prop tor  21  20  27  28
 233 ben  21  22  23
 234 prop tor  21  22  23  24
 235 prop tor  21  22  23  59
 236 ben  21  22  26
 237 prop tor  21  22  26  25
 238 prop tor  21  22  26  27
 239 ben  22  21  57
 240 ben  22  21  58
 241 ben  22  23  24
 242 prop tor  22  23  24  25
 243 prop tor  22  23  24  60
 244 ben  22  23  59
 245 ben  22  26  25
 246 ben  22  26  27
 247 prop tor  22  26  27  20
 248 prop tor  22  26  27  28
 249 ben  23  22  26
 250 prop tor  23  22  26  25
 251 prop tor  23  22  26  27
 252 ben  23  24  25
 253 prop tor  23  24  25  26
 254 ben  23  24  60
 255 ben  24  23  59
 256 ben  24  25  26
 257 prop tor  24  25  26  22
 258 prop tor  24  25  26  27
 259 ben  25  24  60
 260 ben  25  26  27
 261 prop tor  25  26  27  20
 262 prop tor  25  26  27  28
 263 prop tor  26  22  23  24
 264 prop tor  26  22  23  59
 265 ben  26  27  28
 266 prop tor  26  27  28  18
 267 prop tor  27  20  21  22
 268 prop tor  27  20  21  57
 269 prop tor  27  20  21  58
 270 prop tor  28  18  19  20
 271 prop tor  28  18  19  56
 272 prop tor  29  17  18  19
 273 prop tor  29  17  18  28
 274 ben  29  31  32
 275 prop tor  29  31  32  33
 276 prop tor  29  31  32  61
 277 ben  29  31  44
 278 prop tor  29  31  44  14
 279 prop tor  29  31  44  43
 280 ben  30  29  31
 281 prop tor  30  29  31  32
 282 prop tor  30  29  31  44
 283 ben  31  32  33
 284 prop tor  31  32  33  34
 285 prop tor  31  32  33  62
 286 ben  31  32  61
 287 ben  31  44  43
 288 ben  32  31  44
 289 prop tor  32  31  44  14
 290 prop tor  32  31  44  43
 291 ben  32  33  34
 292 prop tor  32  33  34  35
 293 prop tor  32  33  34  43
 294 ben  32  33  62
 295 ben  33  32  61
 296 ben  33  34  35
 297 prop tor  33  34  35  36
 298 prop tor  33  34  35  42
 299 ben  33  34  43
 300 prop tor  33  34  43  11
 301 prop tor  33  34  43  44
 302 ben  34  33  62
 303 ben  34  35  36
 304 prop tor  34  35  36  37
 305 prop tor  34  35  36  63
 306 ben  34  35  42
 307 prop tor  34  35  42  10
 308 prop tor  34  35  42  41
 309 ben  34  43  44
 310 prop tor  34  43  44  14
 311 prop tor  34  43  44  31
 312 ben  35  34  43
 313 prop tor  35  34  43  11
 314 prop tor  35  34  43  44
 315 ben  35  36  37
 316 prop tor  35  36  37  38
 317 prop tor  35  36  37  64
 318 ben  35  36  63
 319 ben  35  42  41
 320 ben  36  35  42
 321 prop tor  36  35  42  10
 322 prop tor  36  35  42  41
 323 ben  36  37  38
 324 prop tor  36  37  38  39
 325 prop tor  36  37  38  41
 326 ben  36  37  64
 327 ben  37  36  63
 328 ben  37  38  39
 329 prop tor  37  38  39   4
 330 prop tor  37  38  39  40
 331 ben  37  38  41
 332 prop tor  37  38  41   7
 333 prop tor  37  38  41  42
 334 ben  38  37  64
 335 ben  38  39  40
 336 ben  38  41  42
 337 prop tor  38  41  42  10
 338 prop tor  38  41  42  35
 339 prop tor  39   4   5   6
 340 prop tor  39   4   5   7
 341 ben  39  38  41
 342 prop tor  39  38  41   7
 343 prop tor  39  38  41  42
 344 prop tor  41   7   8   9
 345 prop tor  41   7   8  52
 346 prop tor  41  38  39   4
 347 prop tor  41  38  39  40
 348 prop tor  42  10  11  12
 349 prop tor  42  10  11  43
 350 prop tor  42  35  36  37
 351 prop tor  42  35  36  63
 352 prop tor  43  11  12  13
 353 prop tor  43  11  12  54
 354 prop tor  43  34  35  36
 355 prop tor  43  34  35  42
 356 prop tor  44  14  15  16
 357 prop tor  44  14  15  17
 358 prop tor  44  31  32  33
 359 prop tor  44  31  32  61
 360 prop tor  45   1   2   3
 361 prop tor  45   1   2   4
 362 prop tor  45   1   2  48
 363 ben  45   1  46
 364 ben  45   1  47
 365 prop tor  46   1   2   3
 366 prop tor  46   1   2   4
 367 prop tor  46   1   2  48
 368 ben  46   1  47
 369 prop tor  47   1   2   3
 370 prop tor  47   1   2   4
 371 prop tor  47   1   2  48
 372 prop tor  48   2   3  49
 373 prop tor  48   2   3  50
 374 prop tor  48   2   3  51
 375 prop tor  48   2   4   5
 376 prop tor  48   2   4  39
 377 ben  49   3  50
 378 ben  49   3  51
 379 ben  50   3  51
 380 prop tor  52   8   9  10
 381 prop tor  52   8   9  53
 382 prop tor  53   9  10  11
 383 prop tor  53   9  10  42
 384 prop tor  54  12  13  14
 385 prop tor  54  12  13  55
 386 prop tor  55  13  14  15
 387 prop tor  55  13  14  44
 388 prop tor  56  19  20  21
 389 prop tor  56  19  20  27
 390 prop tor  57  21  22  23
 391 prop tor  57  21  22  26
 392 ben  57  21  58
 393 prop tor  58  21  22  23
 394 prop tor  58  21  22  26
 395 prop tor  59  23  24  25
 396 prop tor  59  23  24  60
 397 prop tor  60  24  25  26
 398 prop tor  61  32  33  34
 399 prop tor  61  32  33  62
 400 prop tor  62  33  34  35
 401 prop tor  62  33  34  43
 402 prop tor  63  36  37  38
 403 prop tor  63  36  37  64
 404 prop tor  64  37  38  39
 405 prop tor  64  37  38  41
 nber bend=             128
 nber lin bend=           0
 nber prop tor=         204
 nber impr tor=           0
 nber tot redund int=         405
 Reading file: 
 ./CDT-PDI_0_C0S1.log                                                           
                                          
  Entering Gaussian System, Link 0=g16                                          
  
 Gaussian format, type: g94, g98, g03= F F F
  #P Geom=AllCheck Guess=TCheck SCRF=Check GenChk RB3LYP TD(FC,Read)/6-3    
 energy type= TD      
 Original G94 input coords:
  6 13.085045 14.481738-25.684280
  6 11.633621 14.970487-25.622761
  6 10.719448 14.286598-26.645445
  7 11.078147 14.889701-24.239006
  6 10.934960 13.631538-23.632030
  8 11.258522 12.607838-24.221752
  6 10.383410 13.603062-22.267755
  6 10.222131 12.376949-21.622539
  6  9.707111 12.315643-20.340982
  6  9.325135 13.478409-19.634990
  6  8.786083 13.429090-18.294584
  6  8.596110 12.203972-17.603917
  6  8.084723 12.164680-16.332302
  6  7.733946 13.349902-15.656267
  6  7.205748 13.237450-14.318746
  8  6.999883 12.186433-13.743962
  7  6.909351 14.512424-13.638977
  6  6.503541 14.508791-12.304630
  6  6.533869 13.415962-11.416826
  6  6.033011 13.746553-10.170030
  6  5.817344 13.029754 -8.855555
  6  5.240377 14.139399 -8.006368
  6  4.784672 14.304044 -6.694514
  6  4.352745 15.597030 -6.461805
 16  4.496162 16.639946 -7.847216
  6  5.150050 15.324479 -8.768562
  6  5.617898 15.089837-10.073450
 16  5.867349 15.986764-11.543693
  6  6.997962 15.788629-14.315737
  8  6.621893 16.786159-13.716721
  6  7.534249 15.796475-15.653797
  6  7.680308 17.029357-16.314900
  6  8.189588 17.084547-17.587884
  6  8.578115 15.911741-18.283989
  6  9.118321 15.961843-19.626889
  6  9.301225 17.177241-20.322335
  6  9.818630 17.212494-21.604298
  6 10.180204 16.034890-22.258053
  6 10.727899 16.109233-23.622302
  8 10.876101 17.176692-24.202296
  6 10.017021 14.794235-21.605153
  6  9.481980 14.744716-20.275963
  6  8.426849 14.646386-17.639040
  6  7.898076 14.597367-16.298477
  1 13.492883 14.694159-26.676850
  1 13.154970 13.410859-25.498296
  1 13.699727 15.010067-24.950676
  1 11.628836 16.038809-25.827904
  1 10.692355 13.207563-26.499754
  1 11.089179 14.496740-27.653309
  1  9.701827 14.679706-26.574420
  1 10.511229 11.478231-22.152408
  1  9.601057 11.343854-19.879925
  1  8.855540 11.271163-18.082832
  1  7.942846 11.221349-15.821254
  1  6.889113 12.449547-11.722438
  1  6.751385 12.635688 -8.442750
  1  5.128371 12.185226 -8.956936
  1  4.762240 13.534099 -5.935894
  1  3.954209 16.001208 -5.543743
  1  7.385859 17.932140-15.795593
  1  8.291008 18.050241-18.060692
  1  9.035904 18.114406-19.853924
  1  9.954231 18.150928-22.126600
 nber atoms=          64
  Total Energy, E(TD-HF/TD-DFT) =  -2591.20072376                               
  
          32          49 "  -2591.20072376"
After scan for Atom:   Atom  AN      X      Y      Z        X      Y      Z        X      Y      Z   
After scan for Atom:   Atom  AN      X      Y      Z        X      Y      Z        X      Y      Z   
After scan for Atom:   Atom  AN      X      Y      Z        X      Y      Z        X      Y      Z   
After scan for Atom:   Atom  AN      X      Y      Z        X      Y      Z        X      Y      Z   
After scan for Atom:   Atom  AN      X      Y      Z        X      Y      Z        X      Y      Z   
After scan for Atom:   Atom  AN      X      Y      Z        X      Y      Z        X      Y      Z   
After scan for Atom:   Atom  AN      X      Y      Z        X      Y      Z        X      Y      Z   
After scan for Atom:   Atom  AN      X      Y      Z        X      Y      Z        X      Y      Z   
After scan for Atom:   Atom  AN      X      Y      Z        X      Y      Z        X      Y      Z   
After scan for Atom:   Atom  AN      X      Y      Z        X      Y      Z        X      Y      Z   
After scan for Atom:   Atom  AN      X      Y      Z        X      Y      Z        X      Y      Z   
After scan for Atom:   Atom  AN      X      Y      Z        X      Y      Z        X      Y      Z   
After scan for Atom:   Atom  AN      X      Y      Z        X      Y      Z        X      Y      Z   
After scan for Atom:   Atom  AN      X      Y      Z        X      Y      Z        X      Y      Z   
After scan for Atom:   Atom  AN      X      Y      Z        X      Y      Z        X      Y      Z   
After scan for Atom:   Atom  AN      X      Y      Z        X      Y      Z        X      Y      Z   
After scan for Atom:   Atom  AN      X      Y      Z        X      Y      Z        X      Y      Z   
After scan for Atom:   Atom  AN      X      Y      Z        X      Y      Z        X      Y      Z   
After scan for Atom:   Atom  AN      X      Y      Z        X      Y      Z        X      Y      Z   
After scan for Atom:   Atom  AN      X      Y      Z        X      Y      Z        X      Y      Z   
After scan for Atom:   Atom  AN      X      Y      Z        X      Y      Z        X      Y      Z   
After scan for Atom:   Atom  AN      X      Y      Z        X      Y      Z        X      Y      Z   
After scan for Atom:   Atom  AN      X      Y      Z        X      Y      Z        X      Y      Z   
After scan for Atom:   Atom  AN      X      Y      Z        X      Y      Z        X      Y      Z   
After scan for Atom:   Atom  AN      X      Y      Z        X      Y      Z        X      Y      Z   
After scan for Atom:   Atom  AN      X      Y      Z        X      Y      Z        X      Y      Z   
After scan for Atom:   Atom  AN      X      Y      Z        X      Y      Z        X      Y      Z   
After scan for Atom:   Atom  AN      X      Y      Z        X      Y      Z        X      Y      Z   
After scan for Atom:   Atom  AN      X      Y      Z        X      Y      Z        X      Y      Z   
After scan for Atom:   Atom  AN      X      Y      Z        X      Y      Z        X      Y      Z   
After scan for Atom:   Atom  AN      X      Y      Z        X      Y      Z        X      Y      Z   
After scan for Atom:   Atom  AN      X      Y      Z        X      Y      Z        X      Y      Z   
After scan for Atom:   Atom  AN      X      Y      Z        X      Y      Z        X      Y      Z   
After scan for Atom:   Atom  AN      X      Y      Z        X      Y      Z        X      Y      Z   
After scan for Atom:   Atom  AN      X      Y      Z        X      Y      Z        X      Y      Z   
After scan for Atom:   Atom  AN      X      Y      Z        X      Y      Z        X      Y      Z   
After scan for Atom:   Atom  AN      X      Y      Z        X      Y      Z        X      Y      Z   
After scan for Atom:   Atom  AN      X      Y      Z        X      Y      Z        X      Y      Z   
After scan for Atom:   Atom  AN      X      Y      Z        X      Y      Z        X      Y      Z   
After scan for Atom:   Atom  AN      X      Y      Z        X      Y      Z        X      Y      Z   
After scan for Atom:   Atom  AN      X      Y      Z        X      Y      Z        X      Y      Z   
After scan for Atom:   Atom  AN      X      Y      Z        X      Y      Z        X      Y      Z   
After scan for Atom:   Atom  AN      X      Y      Z        X      Y      Z        X      Y      Z   
After scan for Atom:   Atom  AN      X      Y      Z        X      Y      Z        X      Y      Z   
After scan for Atom:   Atom  AN      X      Y      Z        X      Y      Z        X      Y      Z   
After scan for Atom:   Atom  AN      X      Y      Z        X      Y      Z        X      Y      Z   
After scan for Atom:   Atom  AN      X      Y      Z        X      Y      Z        X      Y      Z   
After scan for Atom:   Atom  AN      X      Y      Z        X      Y      Z        X      Y      Z   
After scan for Atom:   Atom  AN      X      Y      Z        X      Y      Z        X      Y      Z   
After scan for Atom:   Atom  AN      X      Y      Z        X      Y      Z        X      Y      Z   
After scan for Atom:   Atom  AN      X      Y      Z        X      Y      Z        X      Y      Z   
After scan for Atom:   Atom  AN      X      Y      Z        X      Y      Z        X      Y      Z   
After scan for Atom:   Atom  AN      X      Y      Z        X      Y      Z        X      Y      Z   
After scan for Atom:   Atom  AN      X      Y      Z        X      Y      Z        X      Y      Z   
After scan for Atom:   Atom  AN      X      Y      Z        X      Y      Z        X      Y      Z   
After scan for Atom:   Atom  AN      X      Y      Z        X      Y      Z        X      Y      Z   
After scan for Atom:   Atom  AN      X      Y      Z        X      Y      Z        X      Y      Z   
After scan for Atom:   Atom  AN      X      Y      Z        X      Y      Z        X      Y      Z   
After scan for Atom:   Atom  AN      X      Y      Z        X      Y      Z        X      Y      Z   
After scan for Atom:   Atom  AN      X      Y      Z        X      Y      Z        X      Y      Z   
After scan for Atom:   Atom  AN      X      Y      Z        X      Y      Z        X      Y      Z   
After scan for Atom:   Atom  AN      X      Y      Z        X      Y      Z        X      Y      Z   
 g94    frequencies=
     0.0    0.0    0.0    0.0    0.0    0.0    9.3   16.1   26.6   27.9
    48.3   52.7   58.3   71.1   81.3   91.0  102.3  109.0  135.1  146.7
   161.5  168.9  172.4  184.4  195.1  213.2  228.9  234.8  236.0  242.9
   255.7  259.7  276.7  295.2  297.6  312.3  330.1  338.2  365.0  377.3
   398.7  409.3  417.7  426.3  435.8  443.2  453.4  459.4  463.7  465.9
   473.9  493.8  501.0  501.3  511.2  516.1  530.8  546.2  553.7  573.9
   579.9  583.1  587.5  600.4  605.8  623.2  628.0  648.4  650.4  662.2
   668.4  691.5  711.3  718.2  727.1  729.1  746.6  748.0  757.8  765.3
   770.7  786.2  805.1  810.2  817.0  818.8  822.9  827.2  828.9  834.1
   844.5  848.1  875.5  899.3  903.2  922.3  943.8  948.3  951.1  955.8
   958.6  972.5  976.1  977.5  986.3  989.3  990.0  996.3 1002.3 1069.1
  1077.6 1096.3 1102.0 1133.5 1151.1 1155.1 1160.7 1165.1 1173.4 1175.2
  1190.7 1201.6 1203.5 1217.8 1227.2 1231.0 1236.5 1252.3 1272.2 1282.5
  1295.4 1302.7 1322.7 1333.7 1353.8 1364.9 1365.6 1374.3 1379.9 1384.0
  1394.2 1397.8 1400.1 1412.0 1427.5 1431.4 1439.0 1441.7 1462.3 1467.0
  1469.9 1479.0 1484.2 1486.8 1488.1 1490.7 1496.5 1506.5 1523.5 1537.7
  1553.9 1559.5 1575.7 1589.8 1616.7 1620.1 1626.3 1639.1 1685.3 1721.5
  1764.1 2030.6 3030.1 3034.7 3043.4 3073.3 3087.4 3090.6 3109.8 3132.0
  3141.8 3193.3 3194.2 3200.6 3200.8 3209.2 3209.7 3217.7 3223.4 3224.8
  3248.6 3291.7
 g94    symmetries=
                                                 A      A      A      A
       A      A      A      A      A      A      A      A      A      A
       A      A      A      A      A      A      A      A      A      A
       A      A      A      A      A      A      A      A      A      A
       A      A      A      A      A      A      A      A      A      A
       A      A      A      A      A      A      A      A      A      A
       A      A      A      A      A      A      A      A      A      A
       A      A      A      A      A      A      A      A      A      A
       A      A      A      A      A      A      A      A      A      A
       A      A      A      A      A      A      A      A      A      A
       A      A      A      A      A      A      A      A      A      A
       A      A      A      A      A      A      A      A      A      A
       A      A      A      A      A      A      A      A      A      A
       A      A      A      A      A      A      A      A      A      A
       A      A      A      A      A      A      A      A      A      A
       A      A      A      A      A      A      A      A      A      A
       A      A      A      A      A      A      A      A      A      A
       A      A      A      A      A      A      A      A      A      A
       A      A      A      A      A      A      A      A      A      A
       A      A
 atomic masses:
 12.0000 12.0000 12.0000 14.0031 12.0000 15.9949 12.0000 12.0000 12.0000 12.0000
 12.0000 12.0000 12.0000 12.0000 12.0000 15.9949 14.0031 12.0000 12.0000 12.0000
 12.0000 12.0000 12.0000 12.0000 31.9721 12.0000 12.0000 31.9721 12.0000 15.9949
 12.0000 12.0000 12.0000 12.0000 12.0000 12.0000 12.0000 12.0000 12.0000 15.9949
 12.0000 12.0000 12.0000 12.0000  1.0078  1.0078  1.0078  1.0078  1.0078  1.0078
  1.0078  1.0078  1.0078  1.0078  1.0078  1.0078  1.0078  1.0078  1.0078  1.0078
  1.0078  1.0078  1.0078  1.0078
 looking for force constants in 
 ./CDT-PDI_0_C0S1.fchk                                                          
  
 Cartesian Force Constants                  R   N=       18528                  
  
 n3=         192       18528
 g94-fc frequencies=
    -3.3   -1.3   -0.0   -0.0    0.0    2.1    9.4   16.1   26.6   27.9
    48.3   52.7   58.3   71.1   81.3   91.0  102.3  109.0  135.1  146.7
   161.5  168.9  172.4  184.4  195.1  213.2  228.9  234.8  236.0  242.9
   255.7  259.7  276.7  295.2  297.6  312.4  330.2  338.2  365.1  377.4
   398.7  409.3  417.7  426.3  435.8  443.2  453.4  459.5  463.7  465.9
   473.9  493.8  501.0  501.3  511.2  516.1  530.8  546.2  553.7  573.9
   579.9  583.1  587.6  600.4  605.8  623.2  628.0  648.5  650.4  662.2
   668.4  691.5  711.3  718.2  727.1  729.2  746.6  748.0  757.8  765.3
   770.7  786.2  805.1  810.2  817.0  818.8  822.9  827.2  828.9  834.1
   844.5  848.1  875.5  899.3  903.2  922.3  943.9  948.3  951.2  955.8
   958.6  972.6  976.1  977.5  986.3  989.3  990.0  996.4 1002.3 1069.1
  1077.6 1096.3 1102.0 1133.5 1151.1 1155.1 1160.7 1165.1 1173.5 1175.2
  1190.8 1201.6 1203.5 1217.9 1227.2 1231.0 1236.6 1252.3 1272.2 1282.5
  1295.4 1302.7 1322.7 1333.7 1353.8 1365.0 1365.6 1374.3 1379.9 1384.1
  1394.2 1397.9 1400.1 1412.1 1427.6 1431.5 1439.0 1441.8 1462.4 1467.1
  1469.9 1479.0 1484.2 1486.8 1488.1 1490.8 1496.5 1506.5 1523.5 1537.7
  1554.0 1559.5 1575.7 1589.8 1616.7 1620.1 1626.3 1639.1 1685.3 1721.5
  1764.1 2030.6 3030.2 3034.7 3043.4 3073.3 3087.5 3090.6 3109.8 3132.1
  3141.8 3193.3 3194.2 3200.7 3200.8 3209.2 3209.7 3217.8 3223.5 3224.9
  3248.7 3291.8
 at 99999: n3=         192
 symm operator            1 :  F  nop=           0
 symm operator            2 :  F  nop=           0
 symm operator            3 :  F  nop=           0
 symm operator            4 :  F  nop=           0
 symm operator            5 :  F  nop=           0
 symm operator            6 :  F  nop=           0
 symm operator            7 :  F  nop=           0
 The point group of the molecule is  C1
 Symmetry rotation matrix:
   1.00000   0.00000   0.00000
   0.00000   1.00000   0.00000
   0.00000   0.00000   1.00000

 Projecting out zero-frequency components
 generating redundant internal coords
         300        3600          64
 search for int coords
   1 str   2   1   1.533
   2 str   3   2   1.533
   3 str   4   2   1.493
   4 str   5   4   1.404
   5 str   6   5   1.225
   6 str   7   5   1.472
   7 str   8   7   1.395
   8 str   9   8   1.383
   9 str  10   9   1.413
  10 str  11  10   1.446
  11 str  12  11   1.419
  12 str  13  12   1.371
  13 str  14  13   1.409
  14 str  15  14   1.442
  15 str  16  15   1.215
  16 str  17  15   1.475
  17 str  18  17   1.395
  18 str  19  18   1.408
  19 str  20  19   1.384
  20 str  21  20   1.513
  21 str  22  21   1.512
  22 str  23  22   1.398
  23 str  24  23   1.383
  24 str  25  24   1.740
  25 str  26  22   1.412
  26 str  26  25   1.734
  27 str  27  20   1.409
  28 str  27  26   1.406
  29 str  28  18   1.780
  30 str  28  27   1.740
  31 str  29  17   1.447
  32 str  30  28   2.435
  33 str  30  29   1.223
  34 str  31  29   1.442
  35 str  32  31   1.407
  36 str  33  32   1.372
  37 str  34  33   1.418
  38 str  35  34   1.448
  39 str  36  35   1.412
  40 str  37  36   1.383
  41 str  38  37   1.395
  42 str  39   4   1.411
  43 str  39  38   1.472
  44 str  40  39   1.224
  45 str  41   7   1.411
  46 str  41  38   1.411
  47 str  42  10   1.428
  48 str  42  35   1.427
  49 str  42  41   1.434
  50 str  43  11   1.428
  51 str  43  34   1.428
  52 str  44  14   1.413
  53 str  44  31   1.409
  54 str  44  43   1.442
  55 str  45   1   1.094
  56 str  46   1   1.089
  57 str  47   1   1.093
  58 str  48   2   1.088
  59 str  49   3   1.089
  60 str  50   3   1.094
  61 str  51   3   1.093
  62 str  52   8   1.083
  63 str  53   9   1.081
  64 str  54  12   1.080
  65 str  55  13   1.082
  66 str  56  19   1.074
  67 str  57  21   1.095
  68 str  58  21   1.095
  69 str  59  23   1.081
  70 str  60  24   1.079
  71 str  61  32   1.082
  72 str  62  33   1.080
  73 str  63  36   1.081
  74 str  64  37   1.083
 nber stretches=          74
  75 ben   1   2   3
  76 prop tor   1   2   3  49
  77 prop tor   1   2   3  50
  78 prop tor   1   2   3  51
  79 ben   1   2   4
  80 prop tor   1   2   4   5
  81 prop tor   1   2   4  39
  82 ben   1   2  48
  83 ben   2   1  45
  84 ben   2   1  46
  85 ben   2   1  47
  86 ben   2   3  49
  87 ben   2   3  50
  88 ben   2   3  51
  89 ben   2   4   5
  90 prop tor   2   4   5   6
  91 prop tor   2   4   5   7
  92 ben   2   4  39
  93 prop tor   2   4  39  38
  94 prop tor   2   4  39  40
  95 ben   3   2   4
  96 prop tor   3   2   4   5
  97 prop tor   3   2   4  39
  98 ben   3   2  48
  99 prop tor   4   2   3  49
 100 prop tor   4   2   3  50
 101 prop tor   4   2   3  51
 102 ben   4   2  48
 103 ben   4   5   6
 104 ben   4   5   7
 105 prop tor   4   5   7   8
 106 prop tor   4   5   7  41
 107 ben   4  39  38
 108 ben   4  39  40
 109 ben   5   4  39
 110 prop tor   5   4  39  38
 111 prop tor   5   4  39  40
 112 ben   5   7   8
 113 prop tor   5   7   8   9
 114 prop tor   5   7   8  52
 115 ben   5   7  41
 116 prop tor   5   7  41  38
 117 prop tor   5   7  41  42
 118 ben   6   5   7
 119 prop tor   6   5   7   8
 120 prop tor   6   5   7  41
 121 ben   7   8   9
 122 prop tor   7   8   9  10
 123 prop tor   7   8   9  53
 124 ben   7   8  52
 125 ben   7  41  38
 126 ben   7  41  42
 127 prop tor   7  41  42  10
 128 prop tor   7  41  42  35
 129 ben   8   7  41
 130 prop tor   8   7  41  38
 131 prop tor   8   7  41  42
 132 ben   8   9  10
 133 prop tor   8   9  10  11
 134 prop tor   8   9  10  42
 135 ben   8   9  53
 136 ben   9   8  52
 137 ben   9  10  11
 138 prop tor   9  10  11  12
 139 prop tor   9  10  11  43
 140 ben   9  10  42
 141 prop tor   9  10  42  35
 142 prop tor   9  10  42  41
 143 ben  10   9  53
 144 ben  10  11  12
 145 prop tor  10  11  12  13
 146 prop tor  10  11  12  54
 147 ben  10  11  43
 148 prop tor  10  11  43  34
 149 prop tor  10  11  43  44
 150 ben  10  42  35
 151 ben  10  42  41
 152 ben  11  10  42
 153 prop tor  11  10  42  35
 154 prop tor  11  10  42  41
 155 ben  11  12  13
 156 prop tor  11  12  13  14
 157 prop tor  11  12  13  55
 158 ben  11  12  54
 159 ben  11  43  34
 160 ben  11  43  44
 161 prop tor  11  43  44  14
 162 prop tor  11  43  44  31
 163 ben  12  11  43
 164 prop tor  12  11  43  34
 165 prop tor  12  11  43  44
 166 ben  12  13  14
 167 prop tor  12  13  14  15
 168 prop tor  12  13  14  44
 169 ben  12  13  55
 170 ben  13  12  54
 171 ben  13  14  15
 172 prop tor  13  14  15  16
 173 prop tor  13  14  15  17
 174 ben  13  14  44
 175 prop tor  13  14  44  31
 176 prop tor  13  14  44  43
 177 ben  14  13  55
 178 ben  14  15  16
 179 ben  14  15  17
 180 prop tor  14  15  17  18
 181 prop tor  14  15  17  29
 182 ben  14  44  31
 183 ben  14  44  43
 184 ben  15  14  44
 185 prop tor  15  14  44  31
 186 prop tor  15  14  44  43
 187 ben  15  17  18
 188 prop tor  15  17  18  19
 189 prop tor  15  17  18  28
 190 ben  15  17  29
 191 prop tor  15  17  29  30
 192 prop tor  15  17  29  31
 193 ben  16  15  17
[...]
 321 ben  34  43  44
 322 prop tor  34  43  44  14
 323 prop tor  34  43  44  31
 324 ben  35  34  43
 325 prop tor  35  34  43  11
 326 prop tor  35  34  43  44
 327 ben  35  36  37
 328 prop tor  35  36  37  38
 329 prop tor  35  36  37  64
 330 ben  35  36  63
 331 ben  35  42  41
 332 ben  36  35  42
 333 prop tor  36  35  42  10
 334 prop tor  36  35  42  41
 335 ben  36  37  38
 336 prop tor  36  37  38  39
 337 prop tor  36  37  38  41
 338 ben  36  37  64
 339 ben  37  36  63
 340 ben  37  38  39
 341 prop tor  37  38  39   4
 342 prop tor  37  38  39  40
 343 ben  37  38  41
 344 prop tor  37  38  41   7
 345 prop tor  37  38  41  42
 346 ben  38  37  64
 347 ben  38  39  40
 348 ben  38  41  42
 349 prop tor  38  41  42  10
 350 prop tor  38  41  42  35
 351 prop tor  39   4   5   6
 352 prop tor  39   4   5   7
 353 ben  39  38  41
 354 prop tor  39  38  41   7
 355 prop tor  39  38  41  42
 356 prop tor  41   7   8   9
 357 prop tor  41   7   8  52
 358 prop tor  41  38  39   4
 359 prop tor  41  38  39  40
 360 prop tor  42  10  11  12
 361 prop tor  42  10  11  43
 362 prop tor  42  35  36  37
 363 prop tor  42  35  36  63
 364 prop tor  43  11  12  13
 365 prop tor  43  11  12  54
 366 prop tor  43  34  35  36
 367 prop tor  43  34  35  42
 368 prop tor  44  14  15  16
 369 prop tor  44  14  15  17
 370 prop tor  44  31  32  33
 371 prop tor  44  31  32  61
 372 prop tor  45   1   2   3
 373 prop tor  45   1   2   4
 374 prop tor  45   1   2  48
 375 ben  45   1  46
 376 ben  45   1  47
 377 prop tor  46   1   2   3
 378 prop tor  46   1   2   4
 379 prop tor  46   1   2  48
 380 ben  46   1  47
 381 prop tor  47   1   2   3
 382 prop tor  47   1   2   4
 383 prop tor  47   1   2  48
 384 prop tor  48   2   3  49
 385 prop tor  48   2   3  50
 386 prop tor  48   2   3  51
 387 prop tor  48   2   4   5
 388 prop tor  48   2   4  39
 389 ben  49   3  50
 390 ben  49   3  51
 391 ben  50   3  51
 392 prop tor  52   8   9  10
 393 prop tor  52   8   9  53
 394 prop tor  53   9  10  11
 395 prop tor  53   9  10  42
 396 prop tor  54  12  13  14
 397 prop tor  54  12  13  55
 398 prop tor  55  13  14  15
 399 prop tor  55  13  14  44
 400 prop tor  56  19  20  21
 401 prop tor  56  19  20  27
 402 prop tor  57  21  22  23
 403 prop tor  57  21  22  26
 404 ben  57  21  58
 405 prop tor  58  21  22  23
 406 prop tor  58  21  22  26
 407 prop tor  59  23  24  25
 408 prop tor  59  23  24  60
 409 prop tor  60  24  25  26
 410 prop tor  61  32  33  34
 411 prop tor  61  32  33  62
 412 prop tor  62  33  34  35
 413 prop tor  62  33  34  43
 414 prop tor  63  36  37  38
 415 prop tor  63  36  37  64
 416 prop tor  64  37  38  39
 417 prop tor  64  37  38  41
 nber bend=             131
 nber lin bend=           0
 nber prop tor=         212
 nber impr tor=           0
 nber tot redund int=         417
 Eigenvalues of G in red int coords
    Gval -0.00000000 -0.00000000 -0.00000000 -0.00000000 -0.00000000 -0.00000000 -0.00000000 -0.00000000
    Gval -0.00000000 -0.00000000 -0.00000000 -0.00000000 -0.00000000 -0.00000000 -0.00000000 -0.00000000
    Gval -0.00000000 -0.00000000 -0.00000000 -0.00000000 -0.00000000 -0.00000000 -0.00000000 -0.00000000
    Gval -0.00000000 -0.00000000 -0.00000000 -0.00000000 -0.00000000 -0.00000000 -0.00000000 -0.00000000
    Gval -0.00000000 -0.00000000 -0.00000000 -0.00000000 -0.00000000 -0.00000000 -0.00000000 -0.00000000
    Gval -0.00000000 -0.00000000 -0.00000000 -0.00000000 -0.00000000 -0.00000000 -0.00000000 -0.00000000
    Gval -0.00000000 -0.00000000 -0.00000000 -0.00000000 -0.00000000 -0.00000000 -0.00000000 -0.00000000
    Gval -0.00000000 -0.00000000 -0.00000000 -0.00000000 -0.00000000 -0.00000000 -0.00000000 -0.00000000
    Gval -0.00000000 -0.00000000 -0.00000000 -0.00000000 -0.00000000 -0.00000000 -0.00000000 -0.00000000
    Gval -0.00000000 -0.00000000 -0.00000000 -0.00000000 -0.00000000 -0.00000000 -0.00000000 -0.00000000
    Gval -0.00000000 -0.00000000 -0.00000000 -0.00000000 -0.00000000 -0.00000000 -0.00000000 -0.00000000
    Gval -0.00000000 -0.00000000 -0.00000000 -0.00000000 -0.00000000 -0.00000000 -0.00000000 -0.00000000
    Gval -0.00000000 -0.00000000 -0.00000000 -0.00000000 -0.00000000 -0.00000000 -0.00000000 -0.00000000
    Gval -0.00000000 -0.00000000 -0.00000000 -0.00000000 -0.00000000 -0.00000000 -0.00000000 -0.00000000
    Gval  0.00000000  0.00000000  0.00000000  0.00000000  0.00000000  0.00000000  0.00000000  0.00000000
    Gval  0.00000000  0.00000000  0.00000000  0.00000000  0.00000000  0.00000000  0.00000000  0.00000000
    Gval  0.00000000  0.00000000  0.00000000  0.00000000  0.00000000  0.00000000  0.00000000  0.00000000
    Gval  0.00000000  0.00000000  0.00000000  0.00000000  0.00000000  0.00000000  0.00000000  0.00000000
    Gval  0.00000000  0.00000000  0.00000000  0.00000000  0.00000000  0.00000000  0.00000000  0.00000000
    Gval  0.00000000  0.00000000  0.00000000  0.00000000  0.00000000  0.00000000  0.00000000  0.00000000
    Gval  0.00000000  0.00000000  0.00000000  0.00000000  0.00000000  0.00000000  0.00000000  0.00000000
    Gval  0.00000000  0.00000000  0.00000000  0.00000000  0.00000000  0.00000000  0.00000000  0.00000000
    Gval  0.00000000  0.00000000  0.00000000  0.00000000  0.00000000  0.00000000  0.00000000  0.00000000
    Gval  0.00000000  0.00000000  0.00000000  0.00000000  0.00000000  0.00000000  0.00000000  0.00000000
    Gval  0.00000000  0.00000000  0.00000000  0.00000000  0.00000000  0.00000000  0.00000000  0.00000000
    Gval  0.00000000  0.00000000  0.00000000  0.00000000  0.00000000  0.00000000  0.00000000  0.00000000
    Gval  0.00000000  0.00000000  0.00000000  0.00000000  0.00000000  0.00000000  0.00000000  0.00000000
    Gval  0.00000000  0.00000000  0.00000000  0.00000000  0.00000000  0.00000000  0.00000000  0.00000000
    Gval  0.00000000  0.00000000  0.00000000  0.00000000  0.00000000  0.00000000  0.00000000  0.00000034
    Gval  0.00000076  0.00000140  0.00000177  0.00000409  0.00000481  0.00000552  0.00000665  0.00000769
    Gval  0.00001013  0.00001221  0.00001341  0.00001445  0.00001607  0.00001764  0.00001833  0.00001851
    Gval  0.00001989  0.00002116  0.00002270  0.00002403  0.00002486  0.00002541  0.00002819  0.00003015
    Gval  0.00003684  0.00003756  0.00003995  0.00004178  0.00004584  0.00004794  0.00004879  0.00005128
    Gval  0.00005308  0.00005380  0.00005506  0.00005656  0.00005917  0.00006453  0.00006614  0.00006909
    Gval  0.00007230  0.00007376  0.00007555  0.00008138  0.00008264  0.00008324  0.00008549  0.00008684
    Gval  0.00008767  0.00009383  0.00009632  0.00009804  0.00010068  0.00010456  0.00011620  0.00012102
    Gval  0.00012498  0.00012613  0.00013615  0.00013818  0.00013838  0.00014073  0.00014786  0.00015673
    Gval  0.00015944  0.00016680  0.00016748  0.00018281  0.00018398  0.00020133  0.00020353  0.00021561
    Gval  0.00022433  0.00022893  0.00023042  0.00023698  0.00026703  0.00028380  0.00029223  0.00029487
    Gval  0.00030017  0.00030272  0.00034435  0.00034611  0.00035438  0.00036615  0.00037127  0.00038256
    Gval  0.00038690  0.00038954  0.00039172  0.00039725  0.00041803  0.00042085  0.00043038  0.00043167
    Gval  0.00043377  0.00043573  0.00044130  0.00044323  0.00045405  0.00046431  0.00046970  0.00047198
    Gval  0.00049467  0.00053098  0.00053437  0.00053728  0.00055372  0.00055528  0.00055594  0.00055835
    Gval  0.00058322  0.00059674  0.00059852  0.00059925  0.00059958  0.00059986  0.00060221  0.00060829
    Gval  0.00062433  0.00062721  0.00062920  0.00064140  0.00064488  0.00064570  0.00064746  0.00067038
    Gval  0.00069432  0.00069709  0.00079317  0.00080936  0.00085953  0.00093874  0.00099924  0.00108274
    Gval  0.00108935  0.00109380  0.00109472  0.00109548  0.00109598  0.00114577  0.00115778  0.00116444
    Gval  0.00116497  0.00116658  0.00116724  0.00116895  0.00116954  0.00118280  0.00120100  0.00127007
    Gval  0.00128432  0.00129258  0.00138110  0.00145465  0.00150659  0.00162631  0.00165627  0.00167320
    Gval  0.00173577  0.00184902  0.00194360  0.00206950  0.00227925  0.00234491  0.00252241  0.00254010
    Gval  0.00256993  0.00266582  0.00277672  0.00278306  0.00292453  0.00302246  0.00302938  0.00304254
    Gval  0.00308273  0.00309253  0.00366433  0.00366972  0.00371225  0.00371751  0.00379402  0.00393466
    Gval  0.00408139
  3.363143805345710E-007  3.363143805345710E-007
  7.599686622277188E-007  3.363143805345710E-007
  1.400367222787026E-006  3.363143805345710E-007
  1.772788148402589E-006  3.363143805345710E-007
  4.090052643698735E-006  3.363143805345710E-007
  4.812503719397142E-006  3.363143805345710E-007
  5.522110788051206E-006  3.363143805345710E-007
  6.648562782494484E-006  3.363143805345710E-007
  7.690401444523205E-006  3.363143805345710E-007
  1.013497763454857E-005  3.363143805345710E-007
  1.220698715021821E-005  3.363143805345710E-007
  1.340720785192793E-005  3.363143805345710E-007
  1.445282922952883E-005  3.363143805345710E-007
  1.607009761056555E-005  3.363143805345710E-007
  1.763800840031863E-005  3.363143805345710E-007
  1.832585143957787E-005  3.363143805345710E-007
  1.851278126676256E-005  3.363143805345710E-007
  1.988922597309616E-005  3.363143805345710E-007
  2.116017167023760E-005  3.363143805345710E-007
  2.269859754442406E-005  3.363143805345710E-007
  2.403211360807414E-005  3.363143805345710E-007
  2.485987144528794E-005  3.363143805345710E-007
  2.540506215805067E-005  3.363143805345710E-007
  2.818691941986360E-005  3.363143805345710E-007
  3.015329185972693E-005  3.363143805345710E-007
  3.684032835605646E-005  3.363143805345710E-007
  3.755522902457901E-005  3.363143805345710E-007
  3.994750677727880E-005  3.363143805345710E-007
  4.178064225617717E-005  3.363143805345710E-007
  4.583860830619971E-005  3.363143805345710E-007
  4.793560972280966E-005  3.363143805345710E-007
  4.879115343040427E-005  3.363143805345710E-007
  5.127897055313885E-005  3.363143805345710E-007
  5.307808560520535E-005  3.363143805345710E-007
  5.380315976585787E-005  3.363143805345710E-007
  5.506451254203341E-005  3.363143805345710E-007
  5.656359598013515E-005  3.363143805345710E-007
  5.917066309138671E-005  3.363143805345710E-007
  6.453012814062958E-005  3.363143805345710E-007
  6.613723066344574E-005  3.363143805345710E-007
  6.909207906161475E-005  3.363143805345710E-007
  7.230425420620327E-005  3.363143805345710E-007
  7.375594168796150E-005  3.363143805345710E-007
  7.555452802136077E-005  3.363143805345710E-007
  8.138394366017866E-005  3.363143805345710E-007
  8.263522075719063E-005  3.363143805345710E-007
  8.323636080419975E-005  3.363143805345710E-007
  8.548804861573846E-005  3.363143805345710E-007
  8.683857120100759E-005  3.363143805345710E-007
  8.767416986378656E-005  3.363143805345710E-007
  9.382603466534468E-005  3.363143805345710E-007
  9.632063737273150E-005  3.363143805345710E-007
  9.804082403674016E-005  3.363143805345710E-007
  1.006773575155343E-004  3.363143805345710E-007
  1.045620756282261E-004  3.363143805345710E-007
  1.161986305586680E-004  3.363143805345710E-007
  1.210184062465486E-004  3.363143805345710E-007
  1.249828437669319E-004  3.363143805345710E-007
  1.261310397534946E-004  3.363143805345710E-007
  1.361509141170692E-004  3.363143805345710E-007
  1.381763120818677E-004  3.363143805345710E-007
  1.383771187450740E-004  3.363143805345710E-007
  1.407345930667785E-004  3.363143805345710E-007
  1.478600088439019E-004  3.363143805345710E-007
  1.567347125471191E-004  3.363143805345710E-007
  1.594398027787051E-004  3.363143805345710E-007
  1.667972055689742E-004  3.363143805345710E-007
  1.674803853196095E-004  3.363143805345710E-007
  1.828083722808394E-004  3.363143805345710E-007
  1.839759609792437E-004  3.363143805345710E-007
  2.013290392975399E-004  3.363143805345710E-007
  2.035280892444495E-004  3.363143805345710E-007
  2.156076980242057E-004  3.363143805345710E-007
  2.243251314200203E-004  3.363143805345710E-007
  2.289327498432662E-004  3.363143805345710E-007
  2.304192180379924E-004  3.363143805345710E-007
  2.369792375860251E-004  3.363143805345710E-007
  2.670348851412603E-004  3.363143805345710E-007
  2.837968900929310E-004  3.363143805345710E-007
  2.922328321828994E-004  3.363143805345710E-007
  2.948731715913790E-004  3.363143805345710E-007
  3.001705601814380E-004  3.363143805345710E-007
  3.027178622023115E-004  3.363143805345710E-007
  3.443530631438995E-004  3.363143805345710E-007
  3.461085675373287E-004  3.363143805345710E-007
  3.543760877457540E-004  3.363143805345710E-007
  3.661519500160939E-004  3.363143805345710E-007
  3.712742183414542E-004  3.363143805345710E-007
  3.825560574338491E-004  3.363143805345710E-007
  3.869021788899717E-004  3.363143805345710E-007
  3.895372702390041E-004  3.363143805345710E-007
  3.917173653211554E-004  3.363143805345710E-007
  3.972536216420939E-004  3.363143805345710E-007
  4.180321606968641E-004  3.363143805345710E-007
  4.208511622592360E-004  3.363143805345710E-007
  4.303838069927743E-004  3.363143805345710E-007
  4.316729473991338E-004  3.363143805345710E-007
  4.337672473366375E-004  3.363143805345710E-007
  4.357299273577284E-004  3.363143805345710E-007
  4.413049980667668E-004  3.363143805345710E-007
  4.432278873409376E-004  3.363143805345710E-007
  4.540505894333402E-004  3.363143805345710E-007
  4.643062582121430E-004  3.363143805345710E-007
  4.697006052986132E-004  3.363143805345710E-007
  4.719781843603525E-004  3.363143805345710E-007
  4.946732303529982E-004  3.363143805345710E-007
  5.309807997433590E-004  3.363143805345710E-007
  5.343707542537559E-004  3.363143805345710E-007
  5.372768942845615E-004  3.363143805345710E-007
  5.537184898325610E-004  3.363143805345710E-007
  5.552816718171255E-004  3.363143805345710E-007
  5.559439421470450E-004  3.363143805345710E-007
  5.583532132825847E-004  3.363143805345710E-007
  5.832225062538819E-004  3.363143805345710E-007
  5.967375322964403E-004  3.363143805345710E-007
  5.985204400599573E-004  3.363143805345710E-007
  5.992474876568843E-004  3.363143805345710E-007
  5.995759941213500E-004  3.363143805345710E-007
  5.998579563549624E-004  3.363143805345710E-007
  6.022123160866205E-004  3.363143805345710E-007
  6.082854606015965E-004  3.363143805345710E-007
  6.243342662067116E-004  3.363143805345710E-007
  6.272082800485216E-004  3.363143805345710E-007
  6.291952614555065E-004  3.363143805345710E-007
  6.414003912679614E-004  3.363143805345710E-007
  6.448829343817568E-004  3.363143805345710E-007
  6.456996441861220E-004  3.363143805345710E-007
  6.474592911099867E-004  3.363143805345710E-007
  6.703814667650481E-004  3.363143805345710E-007
  6.943244034234293E-004  3.363143805345710E-007
  6.970851450819641E-004  3.363143805345710E-007
  7.931714532956221E-004  3.363143805345710E-007
  8.093628830268717E-004  3.363143805345710E-007
  8.595345997854998E-004  3.363143805345710E-007
  9.387392528138511E-004  3.363143805345710E-007
  9.992390591828631E-004  3.363143805345710E-007
  1.082742354896202E-003  3.363143805345710E-007
  1.089353662827904E-003  3.363143805345710E-007
  1.093804428466427E-003  3.363143805345710E-007
  1.094722704842491E-003  3.363143805345710E-007
  1.095482196926531E-003  3.363143805345710E-007
  1.095978549738156E-003  3.363143805345710E-007
  1.145766660257398E-003  3.363143805345710E-007
  1.157779920282093E-003  3.363143805345710E-007
  1.164437436803377E-003  3.363143805345710E-007
  1.164972761930013E-003  3.363143805345710E-007
  1.166577514489789E-003  3.363143805345710E-007
  1.167242743434257E-003  3.363143805345710E-007
  1.168954872417543E-003  3.363143805345710E-007
  1.169540521648514E-003  3.363143805345710E-007
  1.182797576186174E-003  3.363143805345710E-007
  1.201001492329126E-003  3.363143805345710E-007
  1.270074246766395E-003  3.363143805345710E-007
  1.284315096181942E-003  3.363143805345710E-007
  1.292576059055080E-003  3.363143805345710E-007
  1.381096912549870E-003  3.363143805345710E-007
  1.454646616557270E-003  3.363143805345710E-007
  1.506586695507735E-003  3.363143805345710E-007
  1.626309456794934E-003  3.363143805345710E-007
  1.656274104174602E-003  3.363143805345710E-007
  1.673203094654739E-003  3.363143805345710E-007
  1.735771613586417E-003  3.363143805345710E-007
  1.849023803995953E-003  3.363143805345710E-007
  1.943601227543424E-003  3.363143805345710E-007
  2.069500499328414E-003  3.363143805345710E-007
  2.279251522989975E-003  3.363143805345710E-007
  2.344911448718942E-003  3.363143805345710E-007
  2.522413788602503E-003  3.363143805345710E-007
  2.540101538416462E-003  3.363143805345710E-007
  2.569931302602342E-003  3.363143805345710E-007
  2.665820380301558E-003  3.363143805345710E-007
  2.776723411628838E-003  3.363143805345710E-007
  2.783057815046076E-003  3.363143805345710E-007
  2.924528314952893E-003  3.363143805345710E-007
  3.022455328016587E-003  3.363143805345710E-007
  3.029380937007344E-003  3.363143805345710E-007
  3.042538821152085E-003  3.363143805345710E-007
  3.082732584469309E-003  3.363143805345710E-007
  3.092525031710204E-003  3.363143805345710E-007
  3.664334645411412E-003  3.363143805345710E-007
  3.669724092092323E-003  3.363143805345710E-007
  3.712246475586688E-003  3.363143805345710E-007
  3.717509939269242E-003  3.363143805345710E-007
  3.794015389753699E-003  3.363143805345710E-007
  3.934657978825351E-003  3.363143805345710E-007
  4.081386224556499E-003  3.363143805345710E-007
 cut=1d-8, nber non-redundant internal coords=         186
 Check on Eigenvals of non-red overlap matrix:
  0.00000034  0.00000076  0.00000140  0.00000177  0.00000409  0.00000481  0.00000552  0.00000665
  0.00000769  0.00001013  0.00001221  0.00001341  0.00001445  0.00001607  0.00001764  0.00001833
  0.00001851  0.00001989  0.00002116  0.00002270  0.00002403  0.00002486  0.00002541  0.00002819
  0.00003015  0.00003684  0.00003756  0.00003995  0.00004178  0.00004584  0.00004794  0.00004879
  0.00005128  0.00005308  0.00005380  0.00005506  0.00005656  0.00005917  0.00006453  0.00006614
  0.00006909  0.00007230  0.00007376  0.00007555  0.00008138  0.00008264  0.00008324  0.00008549
  0.00008684  0.00008767  0.00009383  0.00009632  0.00009804  0.00010068  0.00010456  0.00011620
  0.00012102  0.00012498  0.00012613  0.00013615  0.00013818  0.00013838  0.00014073  0.00014786
  0.00015673  0.00015944  0.00016680  0.00016748  0.00018281  0.00018398  0.00020133  0.00020353
  0.00021561  0.00022433  0.00022893  0.00023042  0.00023698  0.00026703  0.00028380  0.00029223
  0.00029487  0.00030017  0.00030272  0.00034435  0.00034611  0.00035438  0.00036615  0.00037127
  0.00038256  0.00038690  0.00038954  0.00039172  0.00039725  0.00041803  0.00042085  0.00043038
  0.00043167  0.00043377  0.00043573  0.00044130  0.00044323  0.00045405  0.00046431  0.00046970
  0.00047198  0.00049467  0.00053098  0.00053437  0.00053728  0.00055372  0.00055528  0.00055594
  0.00055835  0.00058322  0.00059674  0.00059852  0.00059925  0.00059958  0.00059986  0.00060221
  0.00060829  0.00062433  0.00062721  0.00062920  0.00064140  0.00064488  0.00064570  0.00064746
  0.00067038  0.00069432  0.00069709  0.00079317  0.00080936  0.00085953  0.00093874  0.00099924
  0.00108274  0.00108935  0.00109380  0.00109472  0.00109548  0.00109598  0.00114577  0.00115778
  0.00116444  0.00116497  0.00116658  0.00116724  0.00116895  0.00116954  0.00118280  0.00120100
  0.00127007  0.00128432  0.00129258  0.00138110  0.00145465  0.00150659  0.00162631  0.00165627
  0.00167320  0.00173577  0.00184902  0.00194360  0.00206950  0.00227925  0.00234491  0.00252241
  0.00254010  0.00256993  0.00266582  0.00277672  0.00278306  0.00292453  0.00302246  0.00302938
  0.00304254  0.00308273  0.00309253  0.00366433  0.00366972  0.00371225  0.00371751  0.00379402
  0.00393466  0.00408139
 int defn changed for coord          32
          30          29           0           0
          30          28           0           0
