 Enter ifcurve (0=recti, 1=orth curvi, 2=apprx curvi, -1 = skip
 And atom ordering flag, 0= never changes, 1= use the first order thenceforth,
  2= deduce it (does read on fail), 3= always read it
 Reading file: 
 ./TT_1_C1S0.log                                                                
                                          
  Entering Gaussian System, Link 0=g16                                          
  
 Gaussian format, type: g94, g98, g03= F F F
  #P Geom=AllCheck Guess=TCheck SCRF=Check GenChk UB3LYP/6-311G(d,p) Fre    
 energy type= B3LYP   
 Original G94 input coords:
  6 -1.476245 -0.140763  0.108654
  6 -0.889364  1.130317  0.054174
  6  0.479790  1.253815 -0.065197
  6  1.308760  0.102728 -0.134192
  6  2.730274  0.221025 -0.258082
  6  3.672648 -0.834968 -0.337059
  6  4.966782 -0.370094 -0.450615
 16  6.543151 -1.122381 -0.585361
  6  7.276378  0.445083 -0.653069
  6  6.390184  1.509431 -0.579040
  6  5.078585  1.046673 -0.464056
 16  3.519289  1.804041 -0.330788
  6  0.691301 -1.176726 -0.077053
  6 -0.679682 -1.289891  0.042512
  1 -2.551583 -0.234325  0.202423
  1 -1.509594  2.016289  0.105699
  1  0.919053  2.243508 -0.106012
  1  3.394672 -1.877920 -0.310052
  1  8.351448  0.512836 -0.746477
  1  6.700450  2.543977 -0.608700
  1  1.290173 -2.076038 -0.126731
  1 -1.138240 -2.269847  0.085091
 nber atoms=          22
  SCF Done:  E(UB3LYP) =  -1258.35752554     A.U. after    1 cycles             
  
          23          40 "  -1258.35752554"
After scan for Atom:   Atom  AN      X      Y      Z        X      Y      Z        X      Y      Z   
After scan for Atom:   Atom  AN      X      Y      Z        X      Y      Z        X      Y      Z   
After scan for Atom:   Atom  AN      X      Y      Z        X      Y      Z        X      Y      Z   
After scan for Atom:   Atom  AN      X      Y      Z        X      Y      Z        X      Y      Z   
After scan for Atom:   Atom  AN      X      Y      Z        X      Y      Z        X      Y      Z   
After scan for Atom:   Atom  AN      X      Y      Z        X      Y      Z        X      Y      Z   
After scan for Atom:   Atom  AN      X      Y      Z        X      Y      Z        X      Y      Z   
After scan for Atom:   Atom  AN      X      Y      Z        X      Y      Z        X      Y      Z   
After scan for Atom:   Atom  AN      X      Y      Z        X      Y      Z        X      Y      Z   
After scan for Atom:   Atom  AN      X      Y      Z        X      Y      Z        X      Y      Z   
After scan for Atom:   Atom  AN      X      Y      Z        X      Y      Z        X      Y      Z   
After scan for Atom:   Atom  AN      X      Y      Z        X      Y      Z        X      Y      Z   
After scan for Atom:   Atom  AN      X      Y      Z        X      Y      Z        X      Y      Z   
After scan for Atom:   Atom  AN      X      Y      Z        X      Y      Z        X      Y      Z   
After scan for Atom:   Atom  AN      X      Y      Z        X      Y      Z        X      Y      Z   
After scan for Atom:   Atom  AN      X      Y      Z        X      Y      Z        X      Y      Z   
After scan for Atom:   Atom  AN      X      Y      Z        X      Y      Z        X      Y      Z   
After scan for Atom:   Atom  AN      X      Y      Z        X      Y      Z        X      Y      Z   
After scan for Atom:   Atom  AN      X      Y      Z        X      Y      Z        X      Y      Z   
After scan for Atom:   Atom  AN      X      Y      Z        X      Y      Z        X      Y      Z   
 g94    frequencies=
     0.0    0.0    0.0    0.0    0.0    0.0   23.5   62.1  116.8  155.0
   203.0  267.4  278.9  314.8  387.4  427.3  434.3  453.7  462.1  563.5
   582.1  616.5  624.8  641.2  665.4  682.8  759.2  765.4  783.0  806.3
   825.6  855.5  892.8  905.3  948.6  974.0  998.4 1007.0 1027.7 1040.1
  1099.2 1113.3 1170.1 1194.3 1203.5 1223.5 1244.7 1336.4 1353.4 1373.0
  1408.6 1425.1 1444.7 1477.2 1514.6 1531.1 1577.0 1623.7 3182.3 3190.5
  3199.5 3207.2 3213.0 3225.7 3238.3 3239.2
 g94    symmetries=
                                                 A      A      A      A
       A      A      A      A      A      A      A      A      A      A
       A      A      A      A      A      A      A      A      A      A
       A      A      A      A      A      A      A      A      A      A
       A      A      A      A      A      A      A      A      A      A
       A      A      A      A      A      A      A      A      A      A
       A      A      A      A      A      A
 atomic masses:
 12.0000 12.0000 12.0000 12.0000 12.0000 12.0000 12.0000 31.9721 12.0000 12.0000
 12.0000 31.9721 12.0000 12.0000  1.0078  1.0078  1.0078  1.0078  1.0078  1.0078
  1.0078  1.0078
 looking for force constants in 
 ./TT_1_C1S0.fchk                                                               
  
 Cartesian Force Constants                  R   N=        2211                  
  
 n3=          66        2211
 g94-fc frequencies=
    -2.9   -0.0   -0.0    0.0    0.6    3.5   23.6   62.1  116.8  155.0
   203.0  267.4  278.9  314.9  387.4  427.3  434.3  453.7  462.1  563.5
   582.2  616.5  624.8  641.2  665.5  682.8  759.2  765.4  783.0  806.3
   825.6  855.5  892.9  905.3  948.6  974.0  998.4 1007.1 1027.8 1040.2
  1099.2 1113.3 1170.1 1194.3 1203.6 1223.6 1244.8 1336.5 1353.4 1373.0
  1408.7 1425.1 1444.8 1477.2 1514.7 1531.1 1577.0 1623.8 3182.4 3190.5
  3199.5 3207.3 3213.1 3225.8 3238.4 3239.3
 at 99999: n3=          66
 symm operator            1 :  F  nop=           0
 symm operator            2 :  F  nop=           0
 symm operator            3 :  F  nop=           0
 symm operator            4 :  F  nop=           0
 symm operator            5 :  F  nop=           0
 symm operator            6 :  F  nop=           0
 symm operator            7 :  F  nop=           0
 The point group of the molecule is  C1
 Symmetry rotation matrix:
   1.00000   0.00000   0.00000
   0.00000   1.00000   0.00000
   0.00000   0.00000   1.00000

 Projecting out zero-frequency components
 generating redundant internal coords
         300        3600          22
 search for int coords
   1 str   2   1   1.401
   2 str   3   2   1.380
   3 str   4   3   1.420
   4 str   5   4   1.432
   5 str   6   5   1.418
   6 str   7   6   1.380
   7 str   8   7   1.752
   8 str   9   8   1.732
   9 str  10   9   1.387
  10 str  11   7   1.421
  11 str  11  10   1.396
  12 str  12   5   1.770
  13 str  12  11   1.739
  14 str  13   4   1.422
  15 str  14   1   1.400
  16 str  14  13   1.381
  17 str  15   1   1.083
  18 str  16   2   1.083
  19 str  17   3   1.084
  20 str  18   6   1.080
  21 str  19   9   1.081
  22 str  20  10   1.080
  23 str  21  13   1.082
  24 str  22  14   1.083
 nber stretches=          24
  25 ben   1   2   3
  26 prop tor   1   2   3   4
  27 prop tor   1   2   3  17
  28 ben   1   2  16
  29 ben   1  14  13
  30 ben   1  14  22
  31 ben   2   1  14
  32 prop tor   2   1  14  13
  33 prop tor   2   1  14  22
  34 ben   2   1  15
  35 ben   2   3   4
  36 prop tor   2   3   4   5
  37 prop tor   2   3   4  13
  38 ben   2   3  17
  39 ben   3   2  16
  40 ben   3   4   5
  41 prop tor   3   4   5   6
  42 prop tor   3   4   5  12
  43 ben   3   4  13
  44 prop tor   3   4  13  14
  45 prop tor   3   4  13  21
  46 ben   4   3  17
  47 ben   4   5   6
  48 prop tor   4   5   6   7
  49 prop tor   4   5   6  18
  50 ben   4   5  12
  51 prop tor   4   5  12  11
  52 ben   4  13  14
  53 prop tor   4  13  14   1
  54 prop tor   4  13  14  22
  55 ben   4  13  21
  56 ben   5   4  13
  57 prop tor   5   4  13  14
  58 prop tor   5   4  13  21
  59 ben   5   6   7
  60 prop tor   5   6   7   8
  61 prop tor   5   6   7  11
  62 ben   5   6  18
  63 ben   5  12  11
  64 ben   6   5  12
  65 prop tor   6   5  12  11
  66 ben   6   7   8
  67 prop tor   6   7   8   9
  68 ben   6   7  11
  69 prop tor   6   7  11  10
  70 prop tor   6   7  11  12
  71 ben   7   6  18
  72 ben   7   8   9
  73 prop tor   7   8   9  10
  74 prop tor   7   8   9  19
  75 ben   7  11  10
  76 ben   7  11  12
  77 prop tor   7  11  12   5
  78 ben   8   7  11
  79 prop tor   8   7  11  10
  80 prop tor   8   7  11  12
  81 ben   8   9  10
  82 prop tor   8   9  10  11
  83 prop tor   8   9  10  20
  84 ben   8   9  19
  85 ben   9  10  11
  86 prop tor   9  10  11   7
  87 prop tor   9  10  11  12
  88 ben   9  10  20
  89 ben  10   9  19
  90 ben  10  11  12
  91 prop tor  10  11  12   5
  92 prop tor  11   7   8   9
  93 ben  11  10  20
  94 prop tor  12   5   6   7
  95 prop tor  12   5   6  18
  96 prop tor  13   4   5   6
  97 prop tor  13   4   5  12
  98 ben  13  14  22
  99 prop tor  14   1   2   3
 100 prop tor  14   1   2  16
 101 ben  14   1  15
 102 ben  14  13  21
 103 prop tor  15   1   2   3
 104 prop tor  15   1   2  16
 105 prop tor  15   1  14  13
 106 prop tor  15   1  14  22
 107 prop tor  16   2   3   4
 108 prop tor  16   2   3  17
 109 prop tor  17   3   4   5
 110 prop tor  17   3   4  13
 111 prop tor  18   6   7   8
 112 prop tor  18   6   7  11
 113 prop tor  19   9  10  11
 114 prop tor  19   9  10  20
 115 prop tor  20  10  11   7
 116 prop tor  20  10  11  12
 117 prop tor  21  13  14   1
 118 prop tor  21  13  14  22
 nber bend=              38
 nber lin bend=           0
 nber prop tor=          56
 nber impr tor=           0
 nber tot redund int=         118
 Eigenvalues of G in red int coords
    Gval -0.00000000 -0.00000000 -0.00000000 -0.00000000 -0.00000000 -0.00000000 -0.00000000 -0.00000000
    Gval -0.00000000 -0.00000000 -0.00000000 -0.00000000 -0.00000000 -0.00000000 -0.00000000 -0.00000000
    Gval -0.00000000 -0.00000000 -0.00000000 -0.00000000 -0.00000000 -0.00000000 -0.00000000 -0.00000000
    Gval -0.00000000 -0.00000000 -0.00000000  0.00000000  0.00000000  0.00000000  0.00000000  0.00000000
    Gval  0.00000000  0.00000000  0.00000000  0.00000000  0.00000000  0.00000000  0.00000000  0.00000000
    Gval  0.00000000  0.00000000  0.00000000  0.00000000  0.00000000  0.00000000  0.00000000  0.00000000
    Gval  0.00000000  0.00000000  0.00000000  0.00000000  0.00000000  0.00000000  0.00000000  0.00000000
    Gval  0.00000000  0.00000000  0.00000274  0.00000533  0.00001501  0.00001621  0.00002100  0.00003003
    Gval  0.00003313  0.00003991  0.00004721  0.00004856  0.00005473  0.00006294  0.00006483  0.00008973
    Gval  0.00009311  0.00010252  0.00011205  0.00011651  0.00012622  0.00015493  0.00015671  0.00018504
    Gval  0.00022265  0.00026869  0.00029767  0.00030982  0.00031155  0.00036505  0.00037474  0.00042876
    Gval  0.00053000  0.00055698  0.00059304  0.00059363  0.00059656  0.00060398  0.00062009  0.00062364
    Gval  0.00063077  0.00065771  0.00066015  0.00104193  0.00105636  0.00108072  0.00111035  0.00113952
    Gval  0.00114586  0.00117313  0.00117391  0.00118191  0.00128329  0.00144950  0.00188198  0.00206254
    Gval  0.00235203  0.00311010  0.00355695  0.00374852  0.00394525  0.00406307
  2.744614254607757E-006  2.744614254607757E-006
  5.330381549742043E-006  2.744614254607757E-006
  1.501200822926409E-005  2.744614254607757E-006
  1.620861311157980E-005  2.744614254607757E-006
  2.100095180611136E-005  2.744614254607757E-006
  3.002923048203276E-005  2.744614254607757E-006
  3.313218826808903E-005  2.744614254607757E-006
  3.991207793097821E-005  2.744614254607757E-006
  4.720567138836684E-005  2.744614254607757E-006
  4.855833808428540E-005  2.744614254607757E-006
  5.472751887518152E-005  2.744614254607757E-006
  6.294227223736544E-005  2.744614254607757E-006
  6.483225566114329E-005  2.744614254607757E-006
  8.973471347362671E-005  2.744614254607757E-006
  9.311052061119319E-005  2.744614254607757E-006
  1.025172545833079E-004  2.744614254607757E-006
  1.120455854227783E-004  2.744614254607757E-006
  1.165050907250629E-004  2.744614254607757E-006
  1.262183191442242E-004  2.744614254607757E-006
  1.549298754637729E-004  2.744614254607757E-006
  1.567146857711441E-004  2.744614254607757E-006
  1.850370472584978E-004  2.744614254607757E-006
  2.226520908422920E-004  2.744614254607757E-006
  2.686875729317861E-004  2.744614254607757E-006
  2.976679832372106E-004  2.744614254607757E-006
  3.098158104360652E-004  2.744614254607757E-006
  3.115491536339205E-004  2.744614254607757E-006
  3.650468709881464E-004  2.744614254607757E-006
  3.747448443711675E-004  2.744614254607757E-006
  4.287629414488875E-004  2.744614254607757E-006
  5.299980144735702E-004  2.744614254607757E-006
  5.569782951916168E-004  2.744614254607757E-006
  5.930369742836869E-004  2.744614254607757E-006
  5.936301215364202E-004  2.744614254607757E-006
  5.965562909702201E-004  2.744614254607757E-006
  6.039818918536766E-004  2.744614254607757E-006
  6.200858935076766E-004  2.744614254607757E-006
  6.236366250045658E-004  2.744614254607757E-006
  6.307677312849854E-004  2.744614254607757E-006
  6.577081442282563E-004  2.744614254607757E-006
  6.601508214377623E-004  2.744614254607757E-006
  1.041930587032968E-003  2.744614254607757E-006
  1.056357896776904E-003  2.744614254607757E-006
  1.080717018044445E-003  2.744614254607757E-006
  1.110351079383059E-003  2.744614254607757E-006
  1.139523897236053E-003  2.744614254607757E-006
  1.145861290164347E-003  2.744614254607757E-006
  1.173126506977451E-003  2.744614254607757E-006
  1.173914642767193E-003  2.744614254607757E-006
  1.181914524444908E-003  2.744614254607757E-006
  1.283293308398208E-003  2.744614254607757E-006
  1.449499909446396E-003  2.744614254607757E-006
  1.881983415942572E-003  2.744614254607757E-006
  2.062537170912118E-003  2.744614254607757E-006
  2.352025144261307E-003  2.744614254607757E-006
  3.110104578096493E-003  2.744614254607757E-006
  3.556952413000494E-003  2.744614254607757E-006
  3.748521229373168E-003  2.744614254607757E-006
  3.945246818098672E-003  2.744614254607757E-006
  4.063072212555020E-003  2.744614254607757E-006
 cut=1d-8, nber non-redundant internal coords=          60
 Check on Eigenvals of non-red overlap matrix:
  0.00000274  0.00000533  0.00001501  0.00001621  0.00002100  0.00003003  0.00003313  0.00003991
  0.00004721  0.00004856  0.00005473  0.00006294  0.00006483  0.00008973  0.00009311  0.00010252
  0.00011205  0.00011651  0.00012622  0.00015493  0.00015671  0.00018504  0.00022265  0.00026869
  0.00029767  0.00030982  0.00031155  0.00036505  0.00037474  0.00042876  0.00053000  0.00055698
  0.00059304  0.00059363  0.00059656  0.00060398  0.00062009  0.00062364  0.00063077  0.00065771
  0.00066015  0.00104193  0.00105636  0.00108072  0.00111035  0.00113952  0.00114586  0.00117313
  0.00117391  0.00118191  0.00128329  0.00144950  0.00188198  0.00206254  0.00235203  0.00311010
  0.00355695  0.00374852  0.00394525  0.00406307
 Checking for correct frequencies
 recalc frequencies=
    -0.0   -0.0   -0.0    0.0    0.0    0.0   23.5   62.1  116.8  155.0
   203.0  267.4  278.9  314.9  387.4  427.3  434.3  453.7  462.1  563.5
   582.2  616.5  624.8  641.2  665.5  682.8  759.2  765.4  783.0  806.3
   825.6  855.5  892.9  905.3  948.6  974.0  998.4 1007.1 1027.8 1040.2
  1099.2 1113.3 1170.1 1194.3 1203.6 1223.6 1244.8 1336.5 1353.4 1373.0
  1408.7 1425.1 1444.8 1477.2 1514.7 1531.1 1577.0 1623.8 3182.4 3190.5
  3199.5 3207.3 3213.1 3225.8 3238.4 3239.3
 recalc symmetries=
                                                                       
                                                                       
                                                                       
                                                                       
                                                                       
                                                                       
                                           
 recalc freqs check OK
 Zero-point lengths:
 10.0000 10.0000 10.0000 10.0000 10.0000 10.0000 51.0898 31.4574 22.9436 19.9098
 17.4011 15.1609 14.8448 13.9715 12.5960 11.9927 11.8958 11.6383 11.5326 10.4436
 10.2749  9.9844  9.9181  9.7906  9.6102  9.4871  8.9975  8.9609  8.8593  8.7304
  8.6282  8.4757  8.2967  8.2394  8.0491  7.9434  7.8460  7.8121  7.7330  7.6868
  7.4774  7.4299  7.2475  7.1737  7.1460  7.0873  7.0267  6.7814  6.7387  6.6905
  6.6053  6.5670  6.5222  6.4502  6.3699  6.3356  6.2428  6.1522  4.3946  4.3890
  4.3828  4.3775  4.3736  4.3649  4.3564  4.3558
 highest evec of mol 1
  0.0009 -0.0001 -0.0001
  0.0003 -0.0007 -0.0000
 -0.0002 -0.0008  0.0000
 -0.0006  0.0002  0.0001
  0.0029 -0.0027 -0.0002
  0.0318  0.1117 -0.0031
 -0.0087 -0.0041  0.0008
 -0.0008 -0.0023  0.0001
  0.2022  0.0007 -0.0175
  0.0462  0.1822 -0.0045
 -0.0108 -0.0044  0.0009
  0.0003 -0.0005 -0.0000
 -0.0134  0.0200  0.0011
  0.0026  0.0040 -0.0002
 -0.0021 -0.0001  0.0002
 -0.0014  0.0019  0.0001
  0.0007  0.0018 -0.0001
 -0.1008 -0.3638  0.0098
 -0.6411 -0.0372  0.0557
 -0.1670 -0.5621  0.0160
  0.0467 -0.0675 -0.0039
 -0.0061 -0.0126  0.0006
 generating redundant internal coords
         300        3600          22
 Adding extra bonds for z output only
           6           6           6           6           6           6
           6          16           6           6           6          16
           6           6           1           1           1           1
           1           1           1           1
 search for int coords
   1 str   2   1   1.401
   2 str   3   2   1.380
   3 str   4   3   1.420
   4 str   5   4   1.432
   5 str   6   5   1.418
   6 str   7   6   1.380
   7 str   8   7   1.752
   8 str   9   8   1.732
   9 str  10   9   1.387
  10 str  11   7   1.421
  11 str  11  10   1.396
  12 str  12   5   1.770
  13 str  12  11   1.739
  14 str  13   4   1.422
  15 str  14   1   1.400
  16 str  14  13   1.381
  17 str  15   1   1.083
  18 str  16   2   1.083
  19 str  17   3   1.084
  20 str  18   6   1.080
  21 str  19   9   1.081
  22 str  20  10   1.080
  23 str  21  13   1.082
  24 str  22  14   1.083
 nber stretches=          24
  25 ben   1   2   3
  26 prop tor   1   2   3   4
  27 prop tor   1   2   3  17
  28 ben   1   2  16
  29 ben   1  14  13
  30 ben   1  14  22
  31 ben   2   1  14
  32 prop tor   2   1  14  13
  33 prop tor   2   1  14  22
  34 ben   2   1  15
  35 ben   2   3   4
  36 prop tor   2   3   4   5
  37 prop tor   2   3   4  13
  38 ben   2   3  17
  39 ben   3   2  16
  40 ben   3   4   5
  41 prop tor   3   4   5   6
  42 prop tor   3   4   5  12
  43 ben   3   4  13
  44 prop tor   3   4  13  14
  45 prop tor   3   4  13  21
  46 ben   4   3  17
  47 ben   4   5   6
  48 prop tor   4   5   6   7
  49 prop tor   4   5   6  18
  50 ben   4   5  12
  51 prop tor   4   5  12  11
  52 ben   4  13  14
  53 prop tor   4  13  14   1
  54 prop tor   4  13  14  22
  55 ben   4  13  21
  56 ben   5   4  13
  57 prop tor   5   4  13  14
  58 prop tor   5   4  13  21
  59 ben   5   6   7
  60 prop tor   5   6   7   8
  61 prop tor   5   6   7  11
  62 ben   5   6  18
  63 ben   5  12  11
  64 ben   6   5  12
  65 prop tor   6   5  12  11
  66 ben   6   7   8
  67 prop tor   6   7   8   9
  68 ben   6   7  11
  69 prop tor   6   7  11  10
  70 prop tor   6   7  11  12
  71 ben   7   6  18
  72 ben   7   8   9
  73 prop tor   7   8   9  10
  74 prop tor   7   8   9  19
  75 ben   7  11  10
  76 ben   7  11  12
  77 prop tor   7  11  12   5
  78 ben   8   7  11
  79 prop tor   8   7  11  10
  80 prop tor   8   7  11  12
  81 ben   8   9  10
  82 prop tor   8   9  10  11
  83 prop tor   8   9  10  20
  84 ben   8   9  19
  85 ben   9  10  11
  86 prop tor   9  10  11   7
  87 prop tor   9  10  11  12
  88 ben   9  10  20
  89 ben  10   9  19
  90 ben  10  11  12
  91 prop tor  10  11  12   5
  92 prop tor  11   7   8   9
  93 ben  11  10  20
  94 prop tor  12   5   6   7
  95 prop tor  12   5   6  18
  96 prop tor  13   4   5   6
  97 prop tor  13   4   5  12
  98 ben  13  14  22
  99 prop tor  14   1   2   3
 100 prop tor  14   1   2  16
 101 ben  14   1  15
 102 ben  14  13  21
 103 prop tor  15   1   2   3
 104 prop tor  15   1   2  16
 105 prop tor  15   1  14  13
 106 prop tor  15   1  14  22
 107 prop tor  16   2   3   4
 108 prop tor  16   2   3  17
 109 prop tor  17   3   4   5
 110 prop tor  17   3   4  13
 111 prop tor  18   6   7   8
 112 prop tor  18   6   7  11
 113 prop tor  19   9  10  11
 114 prop tor  19   9  10  20
 115 prop tor  20  10  11   7
 116 prop tor  20  10  11  12
 117 prop tor  21  13  14   1
 118 prop tor  21  13  14  22
 nber bend=              38
 nber lin bend=           0
 nber prop tor=          56
 nber impr tor=           0
 nber tot redund int=         118
 Reading file: 
 ./TT_1_C0S0.log                                                                
                                          
  Entering Gaussian System, Link 0=g16                                          
  
 Gaussian format, type: g94, g98, g03= F F F
  #P Geom=AllCheck Guess=TCheck SCRF=Check GenChk RB3LYP/6-311G(d,p) Fre    
 energy type= B3LYP   
 Original G94 input coords:
  6 -1.506205 -0.144067  0.135924
  6 -0.927751  1.085565 -0.171180
  6  0.452344  1.200695 -0.298616
  6  1.287491  0.087484 -0.112207
  6  2.744557  0.189923 -0.252659
  6  3.622826 -0.777365 -0.673360
  6  4.965692 -0.317764 -0.678710
 16  6.506630 -1.015690 -1.103711
  6  7.318622  0.483548 -0.710622
  6  6.467892  1.460330 -0.283206
  6  5.121712  0.998762 -0.267819
 16  3.581780  1.696252  0.152560
  6  0.691543 -1.143736  0.208740
  6 -0.689033 -1.257825  0.323296
  1 -2.582121 -0.233225  0.232252
  1 -1.553379  1.958115 -0.322051
  1  0.887171  2.157200 -0.565495
  1  3.306604 -1.760597 -0.992513
  1  8.390168  0.542761 -0.822981
  1  6.790241  2.451711  0.002895
  1  1.319109 -2.007958  0.391948
  1 -1.127664 -2.217349  0.573588
 nber atoms=          22
  SCF Done:  E(RB3LYP) =  -1258.62005394     A.U. after    1 cycles             
  
          23          40 "  -1258.62005394"
After scan for Atom:   Atom  AN      X      Y      Z        X      Y      Z        X      Y      Z   
After scan for Atom:   Atom  AN      X      Y      Z        X      Y      Z        X      Y      Z   
After scan for Atom:   Atom  AN      X      Y      Z        X      Y      Z        X      Y      Z   
After scan for Atom:   Atom  AN      X      Y      Z        X      Y      Z        X      Y      Z   
After scan for Atom:   Atom  AN      X      Y      Z        X      Y      Z        X      Y      Z   
After scan for Atom:   Atom  AN      X      Y      Z        X      Y      Z        X      Y      Z   
After scan for Atom:   Atom  AN      X      Y      Z        X      Y      Z        X      Y      Z   
After scan for Atom:   Atom  AN      X      Y      Z        X      Y      Z        X      Y      Z   
After scan for Atom:   Atom  AN      X      Y      Z        X      Y      Z        X      Y      Z   
After scan for Atom:   Atom  AN      X      Y      Z        X      Y      Z        X      Y      Z   
After scan for Atom:   Atom  AN      X      Y      Z        X      Y      Z        X      Y      Z   
After scan for Atom:   Atom  AN      X      Y      Z        X      Y      Z        X      Y      Z   
After scan for Atom:   Atom  AN      X      Y      Z        X      Y      Z        X      Y      Z   
After scan for Atom:   Atom  AN      X      Y      Z        X      Y      Z        X      Y      Z   
After scan for Atom:   Atom  AN      X      Y      Z        X      Y      Z        X      Y      Z   
After scan for Atom:   Atom  AN      X      Y      Z        X      Y      Z        X      Y      Z   
After scan for Atom:   Atom  AN      X      Y      Z        X      Y      Z        X      Y      Z   
After scan for Atom:   Atom  AN      X      Y      Z        X      Y      Z        X      Y      Z   
After scan for Atom:   Atom  AN      X      Y      Z        X      Y      Z        X      Y      Z   
After scan for Atom:   Atom  AN      X      Y      Z        X      Y      Z        X      Y      Z   
 g94    frequencies=
     0.0    0.0    0.0    0.0    0.0    0.0   42.6   65.0   93.3  177.9
   204.3  258.6  272.5  326.1  407.7  414.5  459.6  465.6  498.3  573.7
   585.5  622.8  631.9  639.5  696.4  700.7  709.7  762.6  774.3  820.8
   836.8  851.8  876.0  899.6  927.1  979.0  980.4 1001.6 1014.7 1053.0
  1104.0 1109.5 1177.7 1183.4 1206.9 1210.2 1243.6 1315.0 1355.7 1362.7
  1378.3 1456.9 1475.9 1504.7 1523.3 1557.9 1615.1 1642.0 3161.8 3168.2
  3177.9 3184.2 3191.9 3212.5 3213.6 3244.7
 g94    symmetries=
                                                 A      A      A      A
       A      A      A      A      A      A      A      A      A      A
       A      A      A      A      A      A      A      A      A      A
       A      A      A      A      A      A      A      A      A      A
       A      A      A      A      A      A      A      A      A      A
       A      A      A      A      A      A      A      A      A      A
       A      A      A      A      A      A
 atomic masses:
 12.0000 12.0000 12.0000 12.0000 12.0000 12.0000 12.0000 31.9721 12.0000 12.0000
 12.0000 31.9721 12.0000 12.0000  1.0078  1.0078  1.0078  1.0078  1.0078  1.0078
  1.0078  1.0078
 looking for force constants in 
 ./TT_1_C0S0.fchk                                                               
  
 Cartesian Force Constants                  R   N=        2211                  
  
 n3=          66        2211
 g94-fc frequencies=
    -3.5   -0.7   -0.0   -0.0    0.0    1.8   42.6   65.0   93.3  177.9
   204.3  258.6  272.5  326.2  407.8  414.5  459.6  465.7  498.3  573.7
   585.5  622.8  632.0  639.5  696.4  700.7  709.8  762.6  774.3  820.8
   836.9  851.8  876.0  899.6  927.1  979.0  980.4 1001.6 1014.7 1053.0
  1104.1 1109.6 1177.7 1183.4 1206.9 1210.3 1243.6 1315.0 1355.7 1362.7
  1378.3 1457.0 1476.0 1504.7 1523.3 1558.0 1615.1 1642.0 3161.8 3168.3
  3178.0 3184.3 3192.0 3212.6 3213.6 3244.8
 at 99999: n3=          66
 symm operator            1 :  F  nop=           0
 symm operator            2 :  F  nop=           0
 symm operator            3 :  F  nop=           0
 symm operator            4 :  F  nop=           0
 symm operator            5 :  F  nop=           0
 symm operator            6 :  F  nop=           0
 symm operator            7 :  F  nop=           0
 The point group of the molecule is  C1
 Symmetry rotation matrix:
   1.00000   0.00000   0.00000
   0.00000   1.00000   0.00000
   0.00000   0.00000   1.00000

 Projecting out zero-frequency components
 generating redundant internal coords
         300        3600          22
 search for int coords
   1 str   2   1   1.393
   2 str   3   2   1.391
   3 str   4   3   1.404
   4 str   5   4   1.467
   5 str   6   5   1.373
   6 str   7   6   1.419
   7 str   8   7   1.744
   8 str   9   8   1.750
   9 str  10   9   1.364
  10 str  11   7   1.388
  11 str  11  10   1.423
  12 str  12   5   1.770
  13 str  12  11   1.742
  14 str  13   4   1.405
  15 str  14   1   1.394
  16 str  14  13   1.390
  17 str  15   1   1.084
  18 str  16   2   1.084
  19 str  17   3   1.084
  20 str  18   6   1.081
  21 str  19   9   1.079
  22 str  20  10   1.081
  23 str  21  13   1.084
  24 str  22  14   1.084
 nber stretches=          24
  25 ben   1   2   3
  26 prop tor   1   2   3   4
  27 prop tor   1   2   3  17
  28 ben   1   2  16
  29 ben   1  14  13
  30 ben   1  14  22
  31 ben   2   1  14
  32 prop tor   2   1  14  13
  33 prop tor   2   1  14  22
  34 ben   2   1  15
  35 ben   2   3   4
  36 prop tor   2   3   4   5
  37 prop tor   2   3   4  13
  38 ben   2   3  17
  39 ben   3   2  16
  40 ben   3   4   5
  41 prop tor   3   4   5   6
  42 prop tor   3   4   5  12
  43 ben   3   4  13
  44 prop tor   3   4  13  14
  45 prop tor   3   4  13  21
  46 ben   4   3  17
  47 ben   4   5   6
  48 prop tor   4   5   6   7
  49 prop tor   4   5   6  18
  50 ben   4   5  12
  51 prop tor   4   5  12  11
  52 ben   4  13  14
  53 prop tor   4  13  14   1
  54 prop tor   4  13  14  22
  55 ben   4  13  21
  56 ben   5   4  13
  57 prop tor   5   4  13  14
  58 prop tor   5   4  13  21
  59 ben   5   6   7
  60 prop tor   5   6   7   8
  61 prop tor   5   6   7  11
  62 ben   5   6  18
  63 ben   5  12  11
  64 ben   6   5  12
  65 prop tor   6   5  12  11
  66 ben   6   7   8
  67 prop tor   6   7   8   9
  68 ben   6   7  11
  69 prop tor   6   7  11  10
  70 prop tor   6   7  11  12
  71 ben   7   6  18
  72 ben   7   8   9
  73 prop tor   7   8   9  10
  74 prop tor   7   8   9  19
  75 ben   7  11  10
  76 ben   7  11  12
  77 prop tor   7  11  12   5
  78 ben   8   7  11
  79 prop tor   8   7  11  10
  80 prop tor   8   7  11  12
  81 ben   8   9  10
  82 prop tor   8   9  10  11
  83 prop tor   8   9  10  20
  84 ben   8   9  19
  85 ben   9  10  11
  86 prop tor   9  10  11   7
  87 prop tor   9  10  11  12
  88 ben   9  10  20
  89 ben  10   9  19
  90 ben  10  11  12
  91 prop tor  10  11  12   5
  92 prop tor  11   7   8   9
  93 ben  11  10  20
  94 prop tor  12   5   6   7
  95 prop tor  12   5   6  18
  96 prop tor  13   4   5   6
  97 prop tor  13   4   5  12
  98 ben  13  14  22
  99 prop tor  14   1   2   3
 100 prop tor  14   1   2  16
 101 ben  14   1  15
 102 ben  14  13  21
 103 prop tor  15   1   2   3
 104 prop tor  15   1   2  16
 105 prop tor  15   1  14  13
 106 prop tor  15   1  14  22
 107 prop tor  16   2   3   4
 108 prop tor  16   2   3  17
 109 prop tor  17   3   4   5
 110 prop tor  17   3   4  13
 111 prop tor  18   6   7   8
 112 prop tor  18   6   7  11
 113 prop tor  19   9  10  11
 114 prop tor  19   9  10  20
 115 prop tor  20  10  11   7
 116 prop tor  20  10  11  12
 117 prop tor  21  13  14   1
 118 prop tor  21  13  14  22
 nber bend=              38
 nber lin bend=           0
 nber prop tor=          56
 nber impr tor=           0
 nber tot redund int=         118
 Eigenvalues of G in red int coords
    Gval -0.00000000 -0.00000000 -0.00000000 -0.00000000 -0.00000000 -0.00000000 -0.00000000 -0.00000000
    Gval -0.00000000 -0.00000000 -0.00000000 -0.00000000 -0.00000000 -0.00000000 -0.00000000 -0.00000000
    Gval -0.00000000 -0.00000000 -0.00000000 -0.00000000 -0.00000000 -0.00000000 -0.00000000 -0.00000000
    Gval -0.00000000 -0.00000000 -0.00000000 -0.00000000 -0.00000000 -0.00000000 -0.00000000  0.00000000
    Gval  0.00000000  0.00000000  0.00000000  0.00000000  0.00000000  0.00000000  0.00000000  0.00000000
    Gval  0.00000000  0.00000000  0.00000000  0.00000000  0.00000000  0.00000000  0.00000000  0.00000000
    Gval  0.00000000  0.00000000  0.00000000  0.00000000  0.00000000  0.00000000  0.00000000  0.00000000
    Gval  0.00000000  0.00000000  0.00000293  0.00000533  0.00001092  0.00001919  0.00002233  0.00003026
    Gval  0.00003299  0.00004027  0.00004650  0.00004875  0.00005396  0.00006280  0.00006534  0.00008019
    Gval  0.00009717  0.00010260  0.00011289  0.00011678  0.00012451  0.00015577  0.00016253  0.00018606
    Gval  0.00022702  0.00027028  0.00029366  0.00030686  0.00031815  0.00036776  0.00037004  0.00041217
    Gval  0.00053453  0.00059219  0.00059306  0.00059660  0.00059847  0.00060438  0.00061996  0.00062359
    Gval  0.00063498  0.00066080  0.00066168  0.00103204  0.00105636  0.00108135  0.00110901  0.00113855
    Gval  0.00114458  0.00117037  0.00117259  0.00118675  0.00129255  0.00144844  0.00185789  0.00208702
    Gval  0.00234164  0.00310544  0.00354268  0.00373273  0.00397409  0.00406809
  2.927531662421004E-006  2.927531662421004E-006
  5.326788921509260E-006  2.927531662421004E-006
  1.091904319206776E-005  2.927531662421004E-006
  1.918892276238882E-005  2.927531662421004E-006
  2.232647254589148E-005  2.927531662421004E-006
  3.025667932250725E-005  2.927531662421004E-006
  3.299403191165805E-005  2.927531662421004E-006
  4.027041223410776E-005  2.927531662421004E-006
  4.650371600854285E-005  2.927531662421004E-006
  4.874643516712308E-005  2.927531662421004E-006
  5.396008663524411E-005  2.927531662421004E-006
  6.280454322731897E-005  2.927531662421004E-006
  6.534419699460466E-005  2.927531662421004E-006
  8.019390710150007E-005  2.927531662421004E-006
  9.717138193384459E-005  2.927531662421004E-006
  1.025963259417323E-004  2.927531662421004E-006
  1.128949539773579E-004  2.927531662421004E-006
  1.167824185677991E-004  2.927531662421004E-006
  1.245126842936245E-004  2.927531662421004E-006
  1.557682030362498E-004  2.927531662421004E-006
  1.625303395598763E-004  2.927531662421004E-006
  1.860647694355304E-004  2.927531662421004E-006
  2.270184141928441E-004  2.927531662421004E-006
  2.702758298989996E-004  2.927531662421004E-006
  2.936564231525620E-004  2.927531662421004E-006
  3.068550595626090E-004  2.927531662421004E-006
  3.181491349764801E-004  2.927531662421004E-006
  3.677586479606260E-004  2.927531662421004E-006
  3.700362065623875E-004  2.927531662421004E-006
  4.121715849981046E-004  2.927531662421004E-006
  5.345330716607067E-004  2.927531662421004E-006
  5.921931855606497E-004  2.927531662421004E-006
  5.930627187400122E-004  2.927531662421004E-006
  5.966041643055776E-004  2.927531662421004E-006
  5.984669852392911E-004  2.927531662421004E-006
  6.043761328949993E-004  2.927531662421004E-006
  6.199597506546829E-004  2.927531662421004E-006
  6.235911155720279E-004  2.927531662421004E-006
  6.349810039005497E-004  2.927531662421004E-006
  6.607952994136344E-004  2.927531662421004E-006
  6.616787669616360E-004  2.927531662421004E-006
  1.032040159449654E-003  2.927531662421004E-006
  1.056363510977211E-003  2.927531662421004E-006
  1.081349202387198E-003  2.927531662421004E-006
  1.109014222904440E-003  2.927531662421004E-006
  1.138552778241379E-003  2.927531662421004E-006
  1.144579529809034E-003  2.927531662421004E-006
  1.170368885290600E-003  2.927531662421004E-006
  1.172588621123751E-003  2.927531662421004E-006
  1.186745687342281E-003  2.927531662421004E-006
  1.292546671390038E-003  2.927531662421004E-006
  1.448435901202813E-003  2.927531662421004E-006
  1.857893983592036E-003  2.927531662421004E-006
  2.087016569105904E-003  2.927531662421004E-006
  2.341641208190079E-003  2.927531662421004E-006
  3.105438886845310E-003  2.927531662421004E-006
  3.542678356646067E-003  2.927531662421004E-006
  3.732734561176227E-003  2.927531662421004E-006
  3.974091960510334E-003  2.927531662421004E-006
  4.068093013356395E-003  2.927531662421004E-006
 cut=1d-8, nber non-redundant internal coords=          60
 Check on Eigenvals of non-red overlap matrix:
  0.00000293  0.00000533  0.00001092  0.00001919  0.00002233  0.00003026  0.00003299  0.00004027
  0.00004650  0.00004875  0.00005396  0.00006280  0.00006534  0.00008019  0.00009717  0.00010260
  0.00011289  0.00011678  0.00012451  0.00015577  0.00016253  0.00018606  0.00022702  0.00027028
  0.00029366  0.00030686  0.00031815  0.00036776  0.00037004  0.00041217  0.00053453  0.00059219
  0.00059306  0.00059660  0.00059847  0.00060438  0.00061996  0.00062359  0.00063498  0.00066080
  0.00066168  0.00103204  0.00105636  0.00108135  0.00110901  0.00113855  0.00114458  0.00117037
  0.00117259  0.00118675  0.00129255  0.00144844  0.00185789  0.00208702  0.00234164  0.00310544
  0.00354268  0.00373273  0.00397409  0.00406809
 Checking for correct frequencies
 recalc frequencies=
    -0.0   -0.0   -0.0    0.0    0.0    0.0   42.6   65.0   93.3  177.9
   204.3  258.6  272.5  326.2  407.8  414.5  459.6  465.7  498.3  573.7
   585.5  622.8  632.0  639.5  696.4  700.7  709.8  762.6  774.3  820.8
   836.9  851.8  876.0  899.6  927.1  979.0  980.4 1001.6 1014.7 1053.0
  1104.1 1109.6 1177.7 1183.4 1206.9 1210.3 1243.6 1315.0 1355.7 1362.7
  1378.3 1457.0 1476.0 1504.7 1523.3 1558.0 1615.1 1642.0 3161.8 3168.3
  3178.0 3184.3 3192.0 3212.6 3213.6 3244.8
 recalc symmetries=
                                                                       
                                                                       
                                                                       
                                                                       
                                                                       
                                                                       
                                           
 recalc freqs check OK
 Zero-point lengths:
 10.0000 10.0000 10.0000 10.0000 10.0000 10.0000 37.9965 30.7605 25.6632 18.5853
 17.3455 15.4158 15.0182 13.7273 12.2770 12.1766 11.5637 11.4885 11.1055 10.3499
 10.2457  9.9340  9.8617  9.8036  9.3942  9.3653  9.3055  8.9771  8.9091  8.6532
  8.5698  8.4941  8.3760  8.2655  8.1420  7.9233  7.9176  7.8335  7.7825  7.6398
  7.4610  7.4425  7.2239  7.2065  7.1360  7.1262  7.0299  6.8364  6.7331  6.7156
  6.6776  6.4949  6.4530  6.3911  6.3519  6.2808  6.1686  6.1179  4.4089  4.4044
  4.3976  4.3933  4.3880  4.3739  4.3732  4.3521
 highest evec of mol 2
 -0.0000  0.0000  0.0000
  0.0001 -0.0001  0.0000
 -0.0001 -0.0002  0.0001
 -0.0000  0.0001  0.0000
  0.0003 -0.0003 -0.0001
  0.0006  0.0023  0.0007
 -0.0034 -0.0003  0.0003
 -0.0006 -0.0021 -0.0006
  0.2818  0.0016 -0.0342
  0.0147  0.0900  0.0278
 -0.0069 -0.0029 -0.0001
  0.0004 -0.0000 -0.0001
 -0.0001  0.0001 -0.0000
  0.0000  0.0001 -0.0000
  0.0000  0.0000  0.0000
 -0.0002  0.0003 -0.0000
  0.0002  0.0006 -0.0002
 -0.0020 -0.0062 -0.0020
 -0.9090 -0.0466  0.0966
 -0.0778 -0.2474 -0.0717
  0.0002 -0.0003  0.0001
 -0.0001 -0.0003  0.0001
 Enter nber and list of atoms to keep of mol #2
 keep list:          22           1           2           3           4
           5           6           7           8           9          10
          11          12          13          14          15          16
          17          18          19          20          21          22
 reordering atoms
           1  -4.78620690085274     
           2  -4.16141107622954     
           3  -2.77441297929243     
           4  -1.97966528023794     
           5 -0.514884741677434     
           6  0.393014764450239     
           7   1.73357984476173     
           8   3.30373457337894     
           9   4.08497022488046     
          10   3.20379363397623     
          11   1.85877918928040     
          12  0.290139802533025     
          13  -2.62342337924476     
          14  -4.00943355963618     
          15  -5.86715634247898     
          16  -4.75502372102341     
          17  -2.30028292099523     
          18  0.102486477068487     
          19   5.16301001494491     
          20   3.50423960560481     
          21  -2.03142797421417     
          22  -4.48551010190813     
           1           1
           2           2
           3           3
           4           4
           5           5
           6           6
           7           7
           8           8
           9           9
          10          10
          11          11
          12          12
          13          13
          14          14
          15          15
          16          16
          17          17
          18          18
          19          19
          20          20
          21          21
          22          22
 initial cartes coords mol 1
   6  -0.00019   0.34134   4.74751
   6  -0.00012  -0.92804   4.15446
   6  -0.00000  -1.04758   2.77976
   6   0.00011   0.10591   1.95125
   6   0.00021  -0.00828   0.52401
   6   0.00020   1.05044  -0.41861
   6   0.00010   0.58931  -1.71905
  16  -0.00003   1.34616  -3.29899
   6  -0.00025  -0.21918  -4.03984
   6  -0.00018  -1.28609  -3.15364
   6  -0.00000  -0.82713  -1.83568
  16   0.00011  -1.58901  -0.27289
   6   0.00006   1.38357   2.57502
   6  -0.00013   1.49277   3.95153
   1  -0.00031   0.43179   5.82720
   1  -0.00018  -1.81581   4.77426
   1  -0.00001  -2.03600   2.33576
   1   0.00015   2.09259  -0.13634
   1  -0.00039  -0.28382  -5.11916
   1  -0.00027  -2.31974  -3.46829
   1   0.00015   2.28462   1.97669
   1  -0.00023   2.47140   4.41488
 initial cartes coords mol 2
   6   0.04908  -0.30800  -4.78621
   6   0.48017   0.86020  -4.16141
   6   0.46703   0.96130  -2.77441
   6   0.01258  -0.10327  -1.97967
   6   0.00146  -0.01635  -0.51488
   6   0.16075  -1.03337   0.39301
   6   0.08685  -0.57297   1.73358
  16   0.21806  -1.32104   3.30373
   6  -0.02117   0.22622   4.08497
   6  -0.18866   1.25384   3.20379
   6  -0.12454   0.79307   1.85878
  16  -0.25140   1.53998   0.29014
   6  -0.43036  -1.27094  -2.62342
   6  -0.40436  -1.37306  -4.00943
   1   0.06239  -0.38671  -5.86716
   1   0.83776   1.69403  -4.75502
   1   0.83153   1.86547  -2.30028
   1   0.35331  -2.05666   0.10249
   1  -0.02302   0.27278   5.16301
   1  -0.34820   2.27994   3.50424
   1  -0.81855  -2.09138  -2.03143
   1  -0.75265  -2.28289  -4.48551
 loop 1 0
 mod cartes coords mol 2
   6   0.04908  -0.30800  -4.78621
   6   0.48017   0.86020  -4.16141
   6   0.46703   0.96130  -2.77441
   6   0.01258  -0.10327  -1.97967
   6   0.00146  -0.01635  -0.51488
   6   0.16075  -1.03337   0.39301
   6   0.08685  -0.57297   1.73358
  16   0.21806  -1.32104   3.30373
   6  -0.02117   0.22622   4.08497
   6  -0.18866   1.25384   3.20379
   6  -0.12454   0.79307   1.85878
  16  -0.25140   1.53998   0.29014
   6  -0.43036  -1.27094  -2.62342
   6  -0.40436  -1.37306  -4.00943
   1   0.06239  -0.38671  -5.86716
   1   0.83776   1.69403  -4.75502
   1   0.83153   1.86547  -2.30028
   1   0.35331  -2.05666   0.10249
   1  -0.02302   0.27278   5.16301
   1  -0.34820   2.27994   3.50424
   1  -0.81855  -2.09138  -2.03143
   1  -0.75265  -2.28289  -4.48551
 read in order, maxerr= 11.72 for atom  15
 loop 1 1
 mod cartes coords mol 2
   6  -0.04908  -0.30800  -4.78621
   6  -0.48017   0.86020  -4.16141
   6  -0.46703   0.96130  -2.77441
   6  -0.01258  -0.10327  -1.97967
   6  -0.00146  -0.01635  -0.51488
   6  -0.16075  -1.03337   0.39301
   6  -0.08685  -0.57297   1.73358
  16  -0.21806  -1.32104   3.30373
   6   0.02117   0.22622   4.08497
   6   0.18866   1.25384   3.20379
   6   0.12454   0.79307   1.85878
  16   0.25140   1.53998   0.29014
   6   0.43036  -1.27094  -2.62342
   6   0.40436  -1.37306  -4.00943
   1  -0.06239  -0.38671  -5.86716
   1  -0.83776   1.69403  -4.75502
   1  -0.83153   1.86547  -2.30028
   1  -0.35331  -2.05666   0.10249
   1   0.02302   0.27278   5.16301
   1   0.34820   2.27994   3.50424
   1   0.81855  -2.09138  -2.03143
   1   0.75265  -2.28289  -4.48551
 read in order, maxerr= 11.72 for atom  15
 loop 1 2
 mod cartes coords mol 2
   6   0.04908   0.30800  -4.78621
   6   0.48017  -0.86020  -4.16141
   6   0.46703  -0.96130  -2.77441
   6   0.01258   0.10327  -1.97967
   6   0.00146   0.01635  -0.51488
   6   0.16075   1.03337   0.39301
   6   0.08685   0.57297   1.73358
  16   0.21806   1.32104   3.30373
   6  -0.02117  -0.22622   4.08497
   6  -0.18866  -1.25384   3.20379
   6  -0.12454  -0.79307   1.85878
  16  -0.25140  -1.53998   0.29014
   6  -0.43036   1.27094  -2.62342
   6  -0.40436   1.37306  -4.00943
   1   0.06239   0.38671  -5.86716
   1   0.83776  -1.69403  -4.75502
   1   0.83153  -1.86547  -2.30028
   1   0.35331   2.05666   0.10249
   1  -0.02302  -0.27278   5.16301
   1  -0.34820  -2.27994   3.50424
   1  -0.81855   2.09138  -2.03143
   1  -0.75265   2.28289  -4.48551
 read in order, maxerr= 11.69 for atom  15
 loop 1 3
 mod cartes coords mol 2
   6  -0.04908   0.30800  -4.78621
   6  -0.48017  -0.86020  -4.16141
   6  -0.46703  -0.96130  -2.77441
   6  -0.01258   0.10327  -1.97967
   6  -0.00146   0.01635  -0.51488
   6  -0.16075   1.03337   0.39301
   6  -0.08685   0.57297   1.73358
  16  -0.21806   1.32104   3.30373
   6   0.02117  -0.22622   4.08497
   6   0.18866  -1.25384   3.20379
   6   0.12454  -0.79307   1.85878
  16   0.25140  -1.53998   0.29014
   6   0.43036   1.27094  -2.62342
   6   0.40436   1.37306  -4.00943
   1  -0.06239   0.38671  -5.86716
   1  -0.83776  -1.69403  -4.75502
   1  -0.83153  -1.86547  -2.30028
   1  -0.35331   2.05666   0.10249
   1   0.02302  -0.27278   5.16301
   1   0.34820  -2.27994   3.50424
   1   0.81855   2.09138  -2.03143
   1   0.75265   2.28289  -4.48551
 read in order, maxerr= 11.69 for atom  15
 loop 1 4
 mod cartes coords mol 2
   6   0.04908  -0.30800   4.78621
   6   0.48017   0.86020   4.16141
   6   0.46703   0.96130   2.77441
   6   0.01258  -0.10327   1.97967
   6   0.00146  -0.01635   0.51488
   6   0.16075  -1.03337  -0.39301
   6   0.08685  -0.57297  -1.73358
  16   0.21806  -1.32104  -3.30373
   6  -0.02117   0.22622  -4.08497
   6  -0.18866   1.25384  -3.20379
   6  -0.12454   0.79307  -1.85878
  16  -0.25140   1.53998  -0.29014
   6  -0.43036  -1.27094   2.62342
   6  -0.40436  -1.37306   4.00943
   1   0.06239  -0.38671   5.86716
   1   0.83776   1.69403   4.75502
   1   0.83153   1.86547   2.30028
   1   0.35331  -2.05666  -0.10249
   1  -0.02302   0.27278  -5.16301
   1  -0.34820   2.27994  -3.50424
   1  -0.81855  -2.09138   2.03143
   1  -0.75265  -2.28289   4.48551
 read in order, maxerr=  4.81 for atom  22
 loop 1 5
 mod cartes coords mol 2
   6  -0.04908  -0.30800   4.78621
   6  -0.48017   0.86020   4.16141
   6  -0.46703   0.96130   2.77441
   6  -0.01258  -0.10327   1.97967
   6  -0.00146  -0.01635   0.51488
   6  -0.16075  -1.03337  -0.39301
   6  -0.08685  -0.57297  -1.73358
  16  -0.21806  -1.32104  -3.30373
   6   0.02117   0.22622  -4.08497
   6   0.18866   1.25384  -3.20379
   6   0.12454   0.79307  -1.85878
  16   0.25140   1.53998  -0.29014
   6   0.43036  -1.27094   2.62342
   6   0.40436  -1.37306   4.00943
   1  -0.06239  -0.38671   5.86716
   1  -0.83776   1.69403   4.75502
   1  -0.83153   1.86547   2.30028
   1  -0.35331  -2.05666  -0.10249
   1   0.02302   0.27278  -5.16301
   1   0.34820   2.27994  -3.50424
   1   0.81855  -2.09138   2.03143
   1   0.75265  -2.28289   4.48551
 read in order, maxerr=  4.81 for atom  22
 loop 1 6
 mod cartes coords mol 2
   6   0.04908   0.30800   4.78621
   6   0.48017  -0.86020   4.16141
   6   0.46703  -0.96130   2.77441
   6   0.01258   0.10327   1.97967
   6   0.00146   0.01635   0.51488
   6   0.16075   1.03337  -0.39301
   6   0.08685   0.57297  -1.73358
  16   0.21806   1.32104  -3.30373
   6  -0.02117  -0.22622  -4.08497
   6  -0.18866  -1.25384  -3.20379
   6  -0.12454  -0.79307  -1.85878
  16  -0.25140  -1.53998  -0.29014
   6  -0.43036   1.27094   2.62342
   6  -0.40436   1.37306   4.00943
   1   0.06239   0.38671   5.86716
   1   0.83776  -1.69403   4.75502
   1   0.83153  -1.86547   2.30028
   1   0.35331   2.05666  -0.10249
   1  -0.02302  -0.27278  -5.16301
   1  -0.34820  -2.27994  -3.50424
   1  -0.81855   2.09138   2.03143
   1  -0.75265   2.28289   4.48551
 read in order, maxerr=  0.85 for atom  17
 loop 1 7
 mod cartes coords mol 2
   6  -0.04908   0.30800   4.78621
   6  -0.48017  -0.86020   4.16141
   6  -0.46703  -0.96130   2.77441
   6  -0.01258   0.10327   1.97967
   6  -0.00146   0.01635   0.51488
   6  -0.16075   1.03337  -0.39301
   6  -0.08685   0.57297  -1.73358
  16  -0.21806   1.32104  -3.30373
   6   0.02117  -0.22622  -4.08497
   6   0.18866  -1.25384  -3.20379
   6   0.12454  -0.79307  -1.85878
  16   0.25140  -1.53998  -0.29014
   6   0.43036   1.27094   2.62342
   6   0.40436   1.37306   4.00943
   1  -0.06239   0.38671   5.86716
   1  -0.83776  -1.69403   4.75502
   1  -0.83153  -1.86547   2.30028
   1  -0.35331   2.05666  -0.10249
   1   0.02302  -0.27278  -5.16301
   1   0.34820  -2.27994  -3.50424
   1   0.81855   2.09138   2.03143
   1   0.75265   2.28289   4.48551
 read in order, maxerr=  0.85 for atom  17
 loop 2 0
 mod cartes coords mol 2
   6   0.04908  -4.78621  -0.30800
   6   0.48017  -4.16141   0.86020
   6   0.46703  -2.77441   0.96130
   6   0.01258  -1.97967  -0.10327
   6   0.00146  -0.51488  -0.01635
   6   0.16075   0.39301  -1.03337
   6   0.08685   1.73358  -0.57297
  16   0.21806   3.30373  -1.32104
   6  -0.02117   4.08497   0.22622
   6  -0.18866   3.20379   1.25384
   6  -0.12454   1.85878   0.79307
  16  -0.25140   0.29014   1.53998
   6  -0.43036  -2.62342  -1.27094
   6  -0.40436  -4.00943  -1.37306
   1   0.06239  -5.86716  -0.38671
   1   0.83776  -4.75502   1.69403
   1   0.83153  -2.30028   1.86547
   1   0.35331   0.10249  -2.05666
   1  -0.02302   5.16301   0.27278
   1  -0.34820   3.50424   2.27994
   1  -0.81855  -2.03143  -2.09138
   1  -0.75265  -4.48551  -2.28289
 read in order, maxerr=  9.69 for atom  22
 loop 2 1
 mod cartes coords mol 2
   6  -0.04908  -4.78621  -0.30800
   6  -0.48017  -4.16141   0.86020
   6  -0.46703  -2.77441   0.96130
   6  -0.01258  -1.97967  -0.10327
   6  -0.00146  -0.51488  -0.01635
   6  -0.16075   0.39301  -1.03337
   6  -0.08685   1.73358  -0.57297
  16  -0.21806   3.30373  -1.32104
   6   0.02117   4.08497   0.22622
   6   0.18866   3.20379   1.25384
   6   0.12454   1.85878   0.79307
  16   0.25140   0.29014   1.53998
   6   0.43036  -2.62342  -1.27094
   6   0.40436  -4.00943  -1.37306
   1  -0.06239  -5.86716  -0.38671
   1  -0.83776  -4.75502   1.69403
   1  -0.83153  -2.30028   1.86547
   1  -0.35331   0.10249  -2.05666
   1   0.02302   5.16301   0.27278
   1   0.34820   3.50424   2.27994
   1   0.81855  -2.03143  -2.09138
   1   0.75265  -4.48551  -2.28289
 read in order, maxerr=  9.69 for atom  22
 loop 2 2
 mod cartes coords mol 2
   6   0.04908  -4.78621   0.30800
   6   0.48017  -4.16141  -0.86020
   6   0.46703  -2.77441  -0.96130
   6   0.01258  -1.97967   0.10327
   6   0.00146  -0.51488   0.01635
   6   0.16075   0.39301   1.03337
   6   0.08685   1.73358   0.57297
  16   0.21806   3.30373   1.32104
   6  -0.02117   4.08497  -0.22622
   6  -0.18866   3.20379  -1.25384
   6  -0.12454   1.85878  -0.79307
  16  -0.25140   0.29014  -1.53998
   6  -0.43036  -2.62342   1.27094
   6  -0.40436  -4.00943   1.37306
   1   0.06239  -5.86716   0.38671
   1   0.83776  -4.75502  -1.69403
   1   0.83153  -2.30028  -1.86547
   1   0.35331   0.10249   2.05666
   1  -0.02302   5.16301  -0.27278
   1  -0.34820   3.50424  -2.27994
   1  -0.81855  -2.03143   2.09138
   1  -0.75265  -4.48551   2.28289
 read in order, maxerr=  8.32 for atom  15
 loop 2 3
 mod cartes coords mol 2
   6  -0.04908  -4.78621   0.30800
   6  -0.48017  -4.16141  -0.86020
   6  -0.46703  -2.77441  -0.96130
   6  -0.01258  -1.97967   0.10327
   6  -0.00146  -0.51488   0.01635
   6  -0.16075   0.39301   1.03337
   6  -0.08685   1.73358   0.57297
  16  -0.21806   3.30373   1.32104
   6   0.02117   4.08497  -0.22622
   6   0.18866   3.20379  -1.25384
   6   0.12454   1.85878  -0.79307
  16   0.25140   0.29014  -1.53998
   6   0.43036  -2.62342   1.27094
   6   0.40436  -4.00943   1.37306
   1  -0.06239  -5.86716   0.38671
   1  -0.83776  -4.75502  -1.69403
   1  -0.83153  -2.30028  -1.86547
   1  -0.35331   0.10249   2.05666
   1   0.02302   5.16301  -0.27278
   1   0.34820   3.50424  -2.27994
   1   0.81855  -2.03143   2.09138
   1   0.75265  -4.48551   2.28289
 read in order, maxerr=  8.32 for atom  15
 loop 2 4
 mod cartes coords mol 2
   6   0.04908   4.78621  -0.30800
   6   0.48017   4.16141   0.86020
   6   0.46703   2.77441   0.96130
   6   0.01258   1.97967  -0.10327
   6   0.00146   0.51488  -0.01635
   6   0.16075  -0.39301  -1.03337
   6   0.08685  -1.73358  -0.57297
  16   0.21806  -3.30373  -1.32104
   6  -0.02117  -4.08497   0.22622
   6  -0.18866  -3.20379   1.25384
   6  -0.12454  -1.85878   0.79307
  16  -0.25140  -0.29014   1.53998
   6  -0.43036   2.62342  -1.27094
   6  -0.40436   4.00943  -1.37306
   1   0.06239   5.86716  -0.38671
   1   0.83776   4.75502   1.69403
   1   0.83153   2.30028   1.86547
   1   0.35331  -0.10249  -2.05666
   1  -0.02302  -5.16301   0.27278
   1  -0.34820  -3.50424   2.27994
   1  -0.81855   2.03143  -2.09138
   1  -0.75265   4.48551  -2.28289
 read in order, maxerr=  8.26 for atom  15
 loop 2 5
 mod cartes coords mol 2
   6  -0.04908   4.78621  -0.30800
   6  -0.48017   4.16141   0.86020
   6  -0.46703   2.77441   0.96130
   6  -0.01258   1.97967  -0.10327
   6  -0.00146   0.51488  -0.01635
   6  -0.16075  -0.39301  -1.03337
   6  -0.08685  -1.73358  -0.57297
  16  -0.21806  -3.30373  -1.32104
   6   0.02117  -4.08497   0.22622
   6   0.18866  -3.20379   1.25384
   6   0.12454  -1.85878   0.79307
  16   0.25140  -0.29014   1.53998
   6   0.43036   2.62342  -1.27094
   6   0.40436   4.00943  -1.37306
   1  -0.06239   5.86716  -0.38671
   1  -0.83776   4.75502   1.69403
   1  -0.83153   2.30028   1.86547
   1  -0.35331  -0.10249  -2.05666
   1   0.02302  -5.16301   0.27278
   1   0.34820  -3.50424   2.27994
   1   0.81855   2.03143  -2.09138
   1   0.75265   4.48551  -2.28289
 read in order, maxerr=  8.26 for atom  15
 loop 2 6
 mod cartes coords mol 2
   6   0.04908   4.78621   0.30800
   6   0.48017   4.16141  -0.86020
   6   0.46703   2.77441  -0.96130
   6   0.01258   1.97967   0.10327
   6   0.00146   0.51488   0.01635
   6   0.16075  -0.39301   1.03337
   6   0.08685  -1.73358   0.57297
  16   0.21806  -3.30373   1.32104
   6  -0.02117  -4.08497  -0.22622
   6  -0.18866  -3.20379  -1.25384
   6  -0.12454  -1.85878  -0.79307
  16  -0.25140  -0.29014  -1.53998
   6  -0.43036   2.62342   1.27094
   6  -0.40436   4.00943   1.37306
   1   0.06239   5.86716   0.38671
   1   0.83776   4.75502  -1.69403
   1   0.83153   2.30028  -1.86547
   1   0.35331  -0.10249   2.05666
   1  -0.02302  -5.16301  -0.27278
   1  -0.34820  -3.50424  -2.27994
   1  -0.81855   2.03143   2.09138
   1  -0.75265   4.48551   2.28289
 read in order, maxerr=  9.26 for atom  16
 loop 2 7
 mod cartes coords mol 2
   6  -0.04908   4.78621   0.30800
   6  -0.48017   4.16141  -0.86020
   6  -0.46703   2.77441  -0.96130
   6  -0.01258   1.97967   0.10327
   6  -0.00146   0.51488   0.01635
   6  -0.16075  -0.39301   1.03337
   6  -0.08685  -1.73358   0.57297
  16  -0.21806  -3.30373   1.32104
   6   0.02117  -4.08497  -0.22622
   6   0.18866  -3.20379  -1.25384
   6   0.12454  -1.85878  -0.79307
  16   0.25140  -0.29014  -1.53998
   6   0.43036   2.62342   1.27094
   6   0.40436   4.00943   1.37306
   1  -0.06239   5.86716   0.38671
   1  -0.83776   4.75502  -1.69403
   1  -0.83153   2.30028  -1.86547
   1  -0.35331  -0.10249   2.05666
   1   0.02302  -5.16301  -0.27278
   1   0.34820  -3.50424  -2.27994
   1   0.81855   2.03143   2.09138
   1   0.75265   4.48551   2.28289
 read in order, maxerr=  9.26 for atom  16
 loop 3 0
 mod cartes coords mol 2
   6  -0.30800   0.04908  -4.78621
   6   0.86020   0.48017  -4.16141
   6   0.96130   0.46703  -2.77441
   6  -0.10327   0.01258  -1.97967
   6  -0.01635   0.00146  -0.51488
   6  -1.03337   0.16075   0.39301
   6  -0.57297   0.08685   1.73358
  16  -1.32104   0.21806   3.30373
   6   0.22622  -0.02117   4.08497
   6   1.25384  -0.18866   3.20379
   6   0.79307  -0.12454   1.85878
  16   1.53998  -0.25140   0.29014
   6  -1.27094  -0.43036  -2.62342
   6  -1.37306  -0.40436  -4.00943
   1  -0.38671   0.06239  -5.86716
   1   1.69403   0.83776  -4.75502
   1   1.86547   0.83153  -2.30028
   1  -2.05666   0.35331   0.10249
   1   0.27278  -0.02302   5.16301
   1   2.27994  -0.34820   3.50424
   1  -2.09138  -0.81855  -2.03143
   1  -2.28289  -0.75265  -4.48551
 read in order, maxerr= 11.71 for atom  15
 loop 3 1
 mod cartes coords mol 2
   6  -0.30800  -0.04908  -4.78621
   6   0.86020  -0.48017  -4.16141
   6   0.96130  -0.46703  -2.77441
   6  -0.10327  -0.01258  -1.97967
   6  -0.01635  -0.00146  -0.51488
   6  -1.03337  -0.16075   0.39301
   6  -0.57297  -0.08685   1.73358
  16  -1.32104  -0.21806   3.30373
   6   0.22622   0.02117   4.08497
   6   1.25384   0.18866   3.20379
   6   0.79307   0.12454   1.85878
  16   1.53998   0.25140   0.29014
   6  -1.27094   0.43036  -2.62342
   6  -1.37306   0.40436  -4.00943
   1  -0.38671  -0.06239  -5.86716
   1   1.69403  -0.83776  -4.75502
   1   1.86547  -0.83153  -2.30028
   1  -2.05666  -0.35331   0.10249
   1   0.27278   0.02302   5.16301
   1   2.27994   0.34820   3.50424
   1  -2.09138   0.81855  -2.03143
   1  -2.28289   0.75265  -4.48551
 read in order, maxerr= 11.71 for atom  15
 loop 3 2
 mod cartes coords mol 2
   6   0.30800   0.04908  -4.78621
   6  -0.86020   0.48017  -4.16141
   6  -0.96130   0.46703  -2.77441
   6   0.10327   0.01258  -1.97967
   6   0.01635   0.00146  -0.51488
   6   1.03337   0.16075   0.39301
   6   0.57297   0.08685   1.73358
  16   1.32104   0.21806   3.30373
   6  -0.22622  -0.02117   4.08497
   6  -1.25384  -0.18866   3.20379
   6  -0.79307  -0.12454   1.85878
  16  -1.53998  -0.25140   0.29014
   6   1.27094  -0.43036  -2.62342
   6   1.37306  -0.40436  -4.00943
   1   0.38671   0.06239  -5.86716
   1  -1.69403   0.83776  -4.75502
   1  -1.86547   0.83153  -2.30028
   1   2.05666   0.35331   0.10249
   1  -0.27278  -0.02302   5.16301
   1  -2.27994  -0.34820   3.50424
   1   2.09138  -0.81855  -2.03143
   1   2.28289  -0.75265  -4.48551
 read in order, maxerr= 11.71 for atom  15
 loop 3 3
 mod cartes coords mol 2
   6   0.30800  -0.04908  -4.78621
   6  -0.86020  -0.48017  -4.16141
   6  -0.96130  -0.46703  -2.77441
   6   0.10327  -0.01258  -1.97967
   6   0.01635  -0.00146  -0.51488
   6   1.03337  -0.16075   0.39301
   6   0.57297  -0.08685   1.73358
  16   1.32104  -0.21806   3.30373
   6  -0.22622   0.02117   4.08497
   6  -1.25384   0.18866   3.20379
   6  -0.79307   0.12454   1.85878
  16  -1.53998   0.25140   0.29014
   6   1.27094   0.43036  -2.62342
   6   1.37306   0.40436  -4.00943
   1   0.38671  -0.06239  -5.86716
   1  -1.69403  -0.83776  -4.75502
   1  -1.86547  -0.83153  -2.30028
   1   2.05666  -0.35331   0.10249
   1  -0.27278   0.02302   5.16301
   1  -2.27994   0.34820   3.50424
   1   2.09138   0.81855  -2.03143
   1   2.28289   0.75265  -4.48551
 read in order, maxerr= 11.71 for atom  15
 loop 3 4
 mod cartes coords mol 2
   6  -0.30800   0.04908   4.78621
   6   0.86020   0.48017   4.16141
   6   0.96130   0.46703   2.77441
   6  -0.10327   0.01258   1.97967
   6  -0.01635   0.00146   0.51488
   6  -1.03337   0.16075  -0.39301
   6  -0.57297   0.08685  -1.73358
  16  -1.32104   0.21806  -3.30373
   6   0.22622  -0.02117  -4.08497
   6   1.25384  -0.18866  -3.20379
   6   0.79307  -0.12454  -1.85878
  16   1.53998  -0.25140  -0.29014
   6  -1.27094  -0.43036   2.62342
   6  -1.37306  -0.40436   4.00943
   1  -0.38671   0.06239   5.86716
   1   1.69403   0.83776   4.75502
   1   1.86547   0.83153   2.30028
   1  -2.05666   0.35331  -0.10249
   1   0.27278  -0.02302  -5.16301
   1   2.27994  -0.34820  -3.50424
   1  -2.09138  -0.81855   2.03143
   1  -2.28289  -0.75265   4.48551
 read in order, maxerr=  3.95 for atom  22
 loop 3 5
 mod cartes coords mol 2
   6  -0.30800  -0.04908   4.78621
   6   0.86020  -0.48017   4.16141
   6   0.96130  -0.46703   2.77441
   6  -0.10327  -0.01258   1.97967
   6  -0.01635  -0.00146   0.51488
   6  -1.03337  -0.16075  -0.39301
   6  -0.57297  -0.08685  -1.73358
  16  -1.32104  -0.21806  -3.30373
   6   0.22622   0.02117  -4.08497
   6   1.25384   0.18866  -3.20379
   6   0.79307   0.12454  -1.85878
  16   1.53998   0.25140  -0.29014
   6  -1.27094   0.43036   2.62342
   6  -1.37306   0.40436   4.00943
   1  -0.38671  -0.06239   5.86716
   1   1.69403  -0.83776   4.75502
   1   1.86547  -0.83153   2.30028
   1  -2.05666  -0.35331  -0.10249
   1   0.27278   0.02302  -5.16301
   1   2.27994   0.34820  -3.50424
   1  -2.09138   0.81855   2.03143
   1  -2.28289   0.75265   4.48551
 read in order, maxerr=  3.51 for atom  20
 loop 3 6
 mod cartes coords mol 2
   6   0.30800   0.04908   4.78621
   6  -0.86020   0.48017   4.16141
   6  -0.96130   0.46703   2.77441
   6   0.10327   0.01258   1.97967
   6   0.01635   0.00146   0.51488
   6   1.03337   0.16075  -0.39301
   6   0.57297   0.08685  -1.73358
  16   1.32104   0.21806  -3.30373
   6  -0.22622  -0.02117  -4.08497
   6  -1.25384  -0.18866  -3.20379
   6  -0.79307  -0.12454  -1.85878
  16  -1.53998  -0.25140  -0.29014
   6   1.27094  -0.43036   2.62342
   6   1.37306  -0.40436   4.00943
   1   0.38671   0.06239   5.86716
   1  -1.69403   0.83776   4.75502
   1  -1.86547   0.83153   2.30028
   1   2.05666   0.35331  -0.10249
   1  -0.27278  -0.02302  -5.16301
   1  -2.27994  -0.34820  -3.50424
   1   2.09138  -0.81855   2.03143
   1   2.28289  -0.75265   4.48551
 read in order, maxerr=  3.95 for atom  22
 loop 3 7
 mod cartes coords mol 2
   6   0.30800  -0.04908   4.78621
   6  -0.86020  -0.48017   4.16141
   6  -0.96130  -0.46703   2.77441
   6   0.10327  -0.01258   1.97967
   6   0.01635  -0.00146   0.51488
   6   1.03337  -0.16075  -0.39301
   6   0.57297  -0.08685  -1.73358
  16   1.32104  -0.21806  -3.30373
   6  -0.22622   0.02117  -4.08497
   6  -1.25384   0.18866  -3.20379
   6  -0.79307   0.12454  -1.85878
  16  -1.53998   0.25140  -0.29014
   6   1.27094   0.43036   2.62342
   6   1.37306   0.40436   4.00943
   1   0.38671  -0.06239   5.86716
   1  -1.69403  -0.83776   4.75502
   1  -1.86547  -0.83153   2.30028
   1   2.05666  -0.35331  -0.10249
   1  -0.27278   0.02302  -5.16301
   1  -2.27994   0.34820  -3.50424
   1   2.09138   0.81855   2.03143
   1   2.28289   0.75265   4.48551
 read in order, maxerr=  3.51 for atom  20
 loop 4 0
 mod cartes coords mol 2
   6  -4.78621   0.04908  -0.30800
   6  -4.16141   0.48017   0.86020
   6  -2.77441   0.46703   0.96130
   6  -1.97967   0.01258  -0.10327
   6  -0.51488   0.00146  -0.01635
   6   0.39301   0.16075  -1.03337
   6   1.73358   0.08685  -0.57297
  16   3.30373   0.21806  -1.32104
   6   4.08497  -0.02117   0.22622
   6   3.20379  -0.18866   1.25384
   6   1.85878  -0.12454   0.79307
  16   0.29014  -0.25140   1.53998
   6  -2.62342  -0.43036  -1.27094
   6  -4.00943  -0.40436  -1.37306
   1  -5.86716   0.06239  -0.38671
   1  -4.75502   0.83776   1.69403
   1  -2.30028   0.83153   1.86547
   1   0.10249   0.35331  -2.05666
   1   5.16301  -0.02302   0.27278
   1   3.50424  -0.34820   2.27994
   1  -2.03143  -0.81855  -2.09138
   1  -4.48551  -0.75265  -2.28289
 read in order, maxerr=  8.68 for atom  22
 loop 4 1
 mod cartes coords mol 2
   6  -4.78621  -0.04908  -0.30800
   6  -4.16141  -0.48017   0.86020
   6  -2.77441  -0.46703   0.96130
   6  -1.97967  -0.01258  -0.10327
   6  -0.51488  -0.00146  -0.01635
   6   0.39301  -0.16075  -1.03337
   6   1.73358  -0.08685  -0.57297
  16   3.30373  -0.21806  -1.32104
   6   4.08497   0.02117   0.22622
   6   3.20379   0.18866   1.25384
   6   1.85878   0.12454   0.79307
  16   0.29014   0.25140   1.53998
   6  -2.62342   0.43036  -1.27094
   6  -4.00943   0.40436  -1.37306
   1  -5.86716  -0.06239  -0.38671
   1  -4.75502  -0.83776   1.69403
   1  -2.30028  -0.83153   1.86547
   1   0.10249  -0.35331  -2.05666
   1   5.16301   0.02302   0.27278
   1   3.50424   0.34820   2.27994
   1  -2.03143   0.81855  -2.09138
   1  -4.48551   0.75265  -2.28289
 read in order, maxerr=  8.56 for atom  15
 loop 4 2
 mod cartes coords mol 2
   6  -4.78621   0.04908   0.30800
   6  -4.16141   0.48017  -0.86020
   6  -2.77441   0.46703  -0.96130
   6  -1.97967   0.01258   0.10327
   6  -0.51488   0.00146   0.01635
   6   0.39301   0.16075   1.03337
   6   1.73358   0.08685   0.57297
  16   3.30373   0.21806   1.32104
   6   4.08497  -0.02117  -0.22622
   6   3.20379  -0.18866  -1.25384
   6   1.85878  -0.12454  -0.79307
  16   0.29014  -0.25140  -1.53998
   6  -2.62342  -0.43036   1.27094
   6  -4.00943  -0.40436   1.37306
   1  -5.86716   0.06239   0.38671
   1  -4.75502   0.83776  -1.69403
   1  -2.30028   0.83153  -1.86547
   1   0.10249   0.35331   2.05666
   1   5.16301  -0.02302  -0.27278
   1   3.50424  -0.34820  -2.27994
   1  -2.03143  -0.81855   2.09138
   1  -4.48551  -0.75265   2.28289
 read in order, maxerr=  8.46 for atom  16
 loop 4 3
 mod cartes coords mol 2
   6  -4.78621  -0.04908   0.30800
   6  -4.16141  -0.48017  -0.86020
   6  -2.77441  -0.46703  -0.96130
   6  -1.97967  -0.01258   0.10327
   6  -0.51488  -0.00146   0.01635
   6   0.39301  -0.16075   1.03337
   6   1.73358  -0.08685   0.57297
  16   3.30373  -0.21806   1.32104
   6   4.08497   0.02117  -0.22622
   6   3.20379   0.18866  -1.25384
   6   1.85878   0.12454  -0.79307
  16   0.29014   0.25140  -1.53998
   6  -2.62342   0.43036   1.27094
   6  -4.00943   0.40436   1.37306
   1  -5.86716  -0.06239   0.38671
   1  -4.75502  -0.83776  -1.69403
   1  -2.30028  -0.83153  -1.86547
   1   0.10249  -0.35331   2.05666
   1   5.16301   0.02302  -0.27278
   1   3.50424   0.34820  -2.27994
   1  -2.03143   0.81855   2.09138
   1  -4.48551   0.75265   2.28289
 read in order, maxerr=  8.09 for atom  16
 loop 4 4
 mod cartes coords mol 2
   6   4.78621   0.04908  -0.30800
   6   4.16141   0.48017   0.86020
   6   2.77441   0.46703   0.96130
   6   1.97967   0.01258  -0.10327
   6   0.51488   0.00146  -0.01635
   6  -0.39301   0.16075  -1.03337
   6  -1.73358   0.08685  -0.57297
  16  -3.30373   0.21806  -1.32104
   6  -4.08497  -0.02117   0.22622
   6  -3.20379  -0.18866   1.25384
   6  -1.85878  -0.12454   0.79307
  16  -0.29014  -0.25140   1.53998
   6   2.62342  -0.43036  -1.27094
   6   4.00943  -0.40436  -1.37306
   1   5.86716   0.06239  -0.38671
   1   4.75502   0.83776   1.69403
   1   2.30028   0.83153   1.86547
   1  -0.10249   0.35331  -2.05666
   1  -5.16301  -0.02302   0.27278
   1  -3.50424  -0.34820   2.27994
   1   2.03143  -0.81855  -2.09138
   1   4.48551  -0.75265  -2.28289
 read in order, maxerr=  8.68 for atom  22
 loop 4 5
 mod cartes coords mol 2
   6   4.78621  -0.04908  -0.30800
   6   4.16141  -0.48017   0.86020
   6   2.77441  -0.46703   0.96130
   6   1.97967  -0.01258  -0.10327
   6   0.51488  -0.00146  -0.01635
   6  -0.39301  -0.16075  -1.03337
   6  -1.73358  -0.08685  -0.57297
  16  -3.30373  -0.21806  -1.32104
   6  -4.08497   0.02117   0.22622
   6  -3.20379   0.18866   1.25384
   6  -1.85878   0.12454   0.79307
  16  -0.29014   0.25140   1.53998
   6   2.62342   0.43036  -1.27094
   6   4.00943   0.40436  -1.37306
   1   5.86716  -0.06239  -0.38671
   1   4.75502  -0.83776   1.69403
   1   2.30028  -0.83153   1.86547
   1  -0.10249  -0.35331  -2.05666
   1  -5.16301   0.02302   0.27278
   1  -3.50424   0.34820   2.27994
   1   2.03143   0.81855  -2.09138
   1   4.48551   0.75265  -2.28289
 read in order, maxerr=  8.56 for atom  15
 loop 4 6
 mod cartes coords mol 2
   6   4.78621   0.04908   0.30800
   6   4.16141   0.48017  -0.86020
   6   2.77441   0.46703  -0.96130
   6   1.97967   0.01258   0.10327
   6   0.51488   0.00146   0.01635
   6  -0.39301   0.16075   1.03337
   6  -1.73358   0.08685   0.57297
  16  -3.30373   0.21806   1.32104
   6  -4.08497  -0.02117  -0.22622
   6  -3.20379  -0.18866  -1.25384
   6  -1.85878  -0.12454  -0.79307
  16  -0.29014  -0.25140  -1.53998
   6   2.62342  -0.43036   1.27094
   6   4.00943  -0.40436   1.37306
   1   5.86716   0.06239   0.38671
   1   4.75502   0.83776  -1.69403
   1   2.30028   0.83153  -1.86547
   1  -0.10249   0.35331   2.05666
   1  -5.16301  -0.02302  -0.27278
   1  -3.50424  -0.34820  -2.27994
   1   2.03143  -0.81855   2.09138
   1   4.48551  -0.75265   2.28289
 read in order, maxerr=  8.46 for atom  16
 loop 4 7
 mod cartes coords mol 2
   6   4.78621  -0.04908   0.30800
   6   4.16141  -0.48017  -0.86020
   6   2.77441  -0.46703  -0.96130
   6   1.97967  -0.01258   0.10327
   6   0.51488  -0.00146   0.01635
   6  -0.39301  -0.16075   1.03337
   6  -1.73358  -0.08685   0.57297
  16  -3.30373  -0.21806   1.32104
   6  -4.08497   0.02117  -0.22622
   6  -3.20379   0.18866  -1.25384
   6  -1.85878   0.12454  -0.79307
  16  -0.29014   0.25140  -1.53998
   6   2.62342   0.43036   1.27094
   6   4.00943   0.40436   1.37306
   1   5.86716  -0.06239   0.38671
   1   4.75502  -0.83776  -1.69403
   1   2.30028  -0.83153  -1.86547
   1  -0.10249  -0.35331   2.05666
   1  -5.16301   0.02302  -0.27278
   1  -3.50424   0.34820  -2.27994
   1   2.03143   0.81855   2.09138
   1   4.48551   0.75265   2.28289
 read in order, maxerr=  8.09 for atom  16
 loop 5 0
 mod cartes coords mol 2
   6  -0.30800  -4.78621   0.04908
   6   0.86020  -4.16141   0.48017
   6   0.96130  -2.77441   0.46703
   6  -0.10327  -1.97967   0.01258
   6  -0.01635  -0.51488   0.00146
   6  -1.03337   0.39301   0.16075
   6  -0.57297   1.73358   0.08685
  16  -1.32104   3.30373   0.21806
   6   0.22622   4.08497  -0.02117
   6   1.25384   3.20379  -0.18866
   6   0.79307   1.85878  -0.12454
  16   1.53998   0.29014  -0.25140
   6  -1.27094  -2.62342  -0.43036
   6  -1.37306  -4.00943  -0.40436
   1  -0.38671  -5.86716   0.06239
   1   1.69403  -4.75502   0.83776
   1   1.86547  -2.30028   0.83153
   1  -2.05666   0.10249   0.35331
   1   0.27278   5.16301  -0.02302
   1   2.27994   3.50424  -0.34820
   1  -2.09138  -2.03143  -0.81855
   1  -2.28289  -4.48551  -0.75265
 read in order, maxerr=  8.96 for atom  22
 loop 5 1
 mod cartes coords mol 2
   6  -0.30800  -4.78621  -0.04908
   6   0.86020  -4.16141  -0.48017
   6   0.96130  -2.77441  -0.46703
   6  -0.10327  -1.97967  -0.01258
   6  -0.01635  -0.51488  -0.00146
   6  -1.03337   0.39301  -0.16075
   6  -0.57297   1.73358  -0.08685
  16  -1.32104   3.30373  -0.21806
   6   0.22622   4.08497   0.02117
   6   1.25384   3.20379   0.18866
   6   0.79307   1.85878   0.12454
  16   1.53998   0.29014   0.25140
   6  -1.27094  -2.62342   0.43036
   6  -1.37306  -4.00943   0.40436
   1  -0.38671  -5.86716  -0.06239
   1   1.69403  -4.75502  -0.83776
   1   1.86547  -2.30028  -0.83153
   1  -2.05666   0.10249  -0.35331
   1   0.27278   5.16301   0.02302
   1   2.27994   3.50424   0.34820
   1  -2.09138  -2.03143   0.81855
   1  -2.28289  -4.48551   0.75265
 read in order, maxerr=  8.63 for atom  15
 loop 5 2
 mod cartes coords mol 2
   6   0.30800  -4.78621   0.04908
   6  -0.86020  -4.16141   0.48017
   6  -0.96130  -2.77441   0.46703
   6   0.10327  -1.97967   0.01258
   6   0.01635  -0.51488   0.00146
   6   1.03337   0.39301   0.16075
   6   0.57297   1.73358   0.08685
  16   1.32104   3.30373   0.21806
   6  -0.22622   4.08497  -0.02117
   6  -1.25384   3.20379  -0.18866
   6  -0.79307   1.85878  -0.12454
  16  -1.53998   0.29014  -0.25140
   6   1.27094  -2.62342  -0.43036
   6   1.37306  -4.00943  -0.40436
   1   0.38671  -5.86716   0.06239
   1  -1.69403  -4.75502   0.83776
   1  -1.86547  -2.30028   0.83153
   1   2.05666   0.10249   0.35331
   1  -0.27278   5.16301  -0.02302
   1  -2.27994   3.50424  -0.34820
   1   2.09138  -2.03143  -0.81855
   1   2.28289  -4.48551  -0.75265
 read in order, maxerr=  8.96 for atom  22
 loop 5 3
 mod cartes coords mol 2
   6   0.30800  -4.78621  -0.04908
   6  -0.86020  -4.16141  -0.48017
   6  -0.96130  -2.77441  -0.46703
   6   0.10327  -1.97967  -0.01258
   6   0.01635  -0.51488  -0.00146
   6   1.03337   0.39301  -0.16075
   6   0.57297   1.73358  -0.08685
  16   1.32104   3.30373  -0.21806
   6  -0.22622   4.08497   0.02117
   6  -1.25384   3.20379   0.18866
   6  -0.79307   1.85878   0.12454
  16  -1.53998   0.29014   0.25140
   6   1.27094  -2.62342   0.43036
   6   1.37306  -4.00943   0.40436
   1   0.38671  -5.86716  -0.06239
   1  -1.69403  -4.75502  -0.83776
   1  -1.86547  -2.30028  -0.83153
   1   2.05666   0.10249  -0.35331
   1  -0.27278   5.16301   0.02302
   1  -2.27994   3.50424   0.34820
   1   2.09138  -2.03143   0.81855
   1   2.28289  -4.48551   0.75265
 read in order, maxerr=  8.63 for atom  15
 loop 5 4
 mod cartes coords mol 2
   6  -0.30800   4.78621   0.04908
   6   0.86020   4.16141   0.48017
   6   0.96130   2.77441   0.46703
   6  -0.10327   1.97967   0.01258
   6  -0.01635   0.51488   0.00146
   6  -1.03337  -0.39301   0.16075
   6  -0.57297  -1.73358   0.08685
  16  -1.32104  -3.30373   0.21806
   6   0.22622  -4.08497  -0.02117
   6   1.25384  -3.20379  -0.18866
   6   0.79307  -1.85878  -0.12454
  16   1.53998  -0.29014  -0.25140
   6  -1.27094   2.62342  -0.43036
   6  -1.37306   4.00943  -0.40436
   1  -0.38671   5.86716   0.06239
   1   1.69403   4.75502   0.83776
   1   1.86547   2.30028   0.83153
   1  -2.05666  -0.10249   0.35331
   1   0.27278  -5.16301  -0.02302
   1   2.27994  -3.50424  -0.34820
   1  -2.09138   2.03143  -0.81855
   1  -2.28289   4.48551  -0.75265
 read in order, maxerr=  7.93 for atom  15
 loop 5 5
 mod cartes coords mol 2
   6  -0.30800   4.78621  -0.04908
   6   0.86020   4.16141  -0.48017
   6   0.96130   2.77441  -0.46703
   6  -0.10327   1.97967  -0.01258
   6  -0.01635   0.51488  -0.00146
   6  -1.03337  -0.39301  -0.16075
   6  -0.57297  -1.73358  -0.08685
  16  -1.32104  -3.30373  -0.21806
   6   0.22622  -4.08497   0.02117
   6   1.25384  -3.20379   0.18866
   6   0.79307  -1.85878   0.12454
  16   1.53998  -0.29014   0.25140
   6  -1.27094   2.62342   0.43036
   6  -1.37306   4.00943   0.40436
   1  -0.38671   5.86716  -0.06239
   1   1.69403   4.75502  -0.83776
   1   1.86547   2.30028  -0.83153
   1  -2.05666  -0.10249  -0.35331
   1   0.27278  -5.16301   0.02302
   1   2.27994  -3.50424   0.34820
   1  -2.09138   2.03143   0.81855
   1  -2.28289   4.48551   0.75265
 read in order, maxerr=  8.81 for atom  16
 loop 5 6
 mod cartes coords mol 2
   6   0.30800   4.78621   0.04908
   6  -0.86020   4.16141   0.48017
   6  -0.96130   2.77441   0.46703
   6   0.10327   1.97967   0.01258
   6   0.01635   0.51488   0.00146
   6   1.03337  -0.39301   0.16075
   6   0.57297  -1.73358   0.08685
  16   1.32104  -3.30373   0.21806
   6  -0.22622  -4.08497  -0.02117
   6  -1.25384  -3.20379  -0.18866
   6  -0.79307  -1.85878  -0.12454
  16  -1.53998  -0.29014  -0.25140
   6   1.27094   2.62342  -0.43036
   6   1.37306   4.00943  -0.40436
   1   0.38671   5.86716   0.06239
   1  -1.69403   4.75502   0.83776
   1  -1.86547   2.30028   0.83153
   1   2.05666  -0.10249   0.35331
   1  -0.27278  -5.16301  -0.02302
   1  -2.27994  -3.50424  -0.34820
   1   2.09138   2.03143  -0.81855
   1   2.28289   4.48551  -0.75265
 read in order, maxerr=  7.93 for atom  15
 loop 5 7
 mod cartes coords mol 2
   6   0.30800   4.78621  -0.04908
   6  -0.86020   4.16141  -0.48017
   6  -0.96130   2.77441  -0.46703
   6   0.10327   1.97967  -0.01258
   6   0.01635   0.51488  -0.00146
   6   1.03337  -0.39301  -0.16075
   6   0.57297  -1.73358  -0.08685
  16   1.32104  -3.30373  -0.21806
   6  -0.22622  -4.08497   0.02117
   6  -1.25384  -3.20379   0.18866
   6  -0.79307  -1.85878   0.12454
  16  -1.53998  -0.29014   0.25140
   6   1.27094   2.62342   0.43036
   6   1.37306   4.00943   0.40436
   1   0.38671   5.86716  -0.06239
   1  -1.69403   4.75502  -0.83776
   1  -1.86547   2.30028  -0.83153
   1   2.05666  -0.10249  -0.35331
   1  -0.27278  -5.16301   0.02302
   1  -2.27994  -3.50424   0.34820
   1   2.09138   2.03143   0.81855
   1   2.28289   4.48551   0.75265
 read in order, maxerr=  8.81 for atom  16
 loop 6 0
 mod cartes coords mol 2
   6  -4.78621  -0.30800   0.04908
   6  -4.16141   0.86020   0.48017
   6  -2.77441   0.96130   0.46703
   6  -1.97967  -0.10327   0.01258
   6  -0.51488  -0.01635   0.00146
   6   0.39301  -1.03337   0.16075
   6   1.73358  -0.57297   0.08685
  16   3.30373  -1.32104   0.21806
   6   4.08497   0.22622  -0.02117
   6   3.20379   1.25384  -0.18866
   6   1.85878   0.79307  -0.12454
  16   0.29014   1.53998  -0.25140
   6  -2.62342  -1.27094  -0.43036
   6  -4.00943  -1.37306  -0.40436
   1  -5.86716  -0.38671   0.06239
   1  -4.75502   1.69403   0.83776
   1  -2.30028   1.86547   0.83153
   1   0.10249  -2.05666   0.35331
   1   5.16301   0.27278  -0.02302
   1   3.50424   2.27994  -0.34820
   1  -2.03143  -2.09138  -0.81855
   1  -4.48551  -2.28289  -0.75265
 read in order, maxerr=  8.33 for atom  22
 loop 6 1
 mod cartes coords mol 2
   6  -4.78621  -0.30800  -0.04908
   6  -4.16141   0.86020  -0.48017
   6  -2.77441   0.96130  -0.46703
   6  -1.97967  -0.10327  -0.01258
   6  -0.51488  -0.01635  -0.00146
   6   0.39301  -1.03337  -0.16075
   6   1.73358  -0.57297  -0.08685
  16   3.30373  -1.32104  -0.21806
   6   4.08497   0.22622   0.02117
   6   3.20379   1.25384   0.18866
   6   1.85878   0.79307   0.12454
  16   0.29014   1.53998   0.25140
   6  -2.62342  -1.27094   0.43036
   6  -4.00943  -1.37306   0.40436
   1  -5.86716  -0.38671  -0.06239
   1  -4.75502   1.69403  -0.83776
   1  -2.30028   1.86547  -0.83153
   1   0.10249  -2.05666  -0.35331
   1   5.16301   0.27278   0.02302
   1   3.50424   2.27994   0.34820
   1  -2.03143  -2.09138   0.81855
   1  -4.48551  -2.28289   0.75265
 read in order, maxerr=  8.35 for atom  15
 loop 6 2
 mod cartes coords mol 2
   6  -4.78621   0.30800   0.04908
   6  -4.16141  -0.86020   0.48017
   6  -2.77441  -0.96130   0.46703
   6  -1.97967   0.10327   0.01258
   6  -0.51488   0.01635   0.00146
   6   0.39301   1.03337   0.16075
   6   1.73358   0.57297   0.08685
  16   3.30373   1.32104   0.21806
   6   4.08497  -0.22622  -0.02117
   6   3.20379  -1.25384  -0.18866
   6   1.85878  -0.79307  -0.12454
  16   0.29014  -1.53998  -0.25140
   6  -2.62342   1.27094  -0.43036
   6  -4.00943   1.37306  -0.40436
   1  -5.86716   0.38671   0.06239
   1  -4.75502  -1.69403   0.83776
   1  -2.30028  -1.86547   0.83153
   1   0.10249   2.05666   0.35331
   1   5.16301  -0.27278  -0.02302
   1   3.50424  -2.27994  -0.34820
   1  -2.03143   2.09138  -0.81855
   1  -4.48551   2.28289  -0.75265
 read in order, maxerr=  8.23 for atom  15
 loop 6 3
 mod cartes coords mol 2
   6  -4.78621   0.30800  -0.04908
   6  -4.16141  -0.86020  -0.48017
   6  -2.77441  -0.96130  -0.46703
   6  -1.97967   0.10327  -0.01258
   6  -0.51488   0.01635  -0.00146
   6   0.39301   1.03337  -0.16075
   6   1.73358   0.57297  -0.08685
  16   3.30373   1.32104  -0.21806
   6   4.08497  -0.22622   0.02117
   6   3.20379  -1.25384   0.18866
   6   1.85878  -0.79307   0.12454
  16   0.29014  -1.53998   0.25140
   6  -2.62342   1.27094   0.43036
   6  -4.00943   1.37306   0.40436
   1  -5.86716   0.38671  -0.06239
   1  -4.75502  -1.69403  -0.83776
   1  -2.30028  -1.86547  -0.83153
   1   0.10249   2.05666  -0.35331
   1   5.16301  -0.27278   0.02302
   1   3.50424  -2.27994   0.34820
   1  -2.03143   2.09138   0.81855
   1  -4.48551   2.28289   0.75265
 read in order, maxerr=  8.31 for atom  15
 loop 6 4
 mod cartes coords mol 2
   6   4.78621  -0.30800   0.04908
   6   4.16141   0.86020   0.48017
   6   2.77441   0.96130   0.46703
   6   1.97967  -0.10327   0.01258
   6   0.51488  -0.01635   0.00146
   6  -0.39301  -1.03337   0.16075
   6  -1.73358  -0.57297   0.08685
  16  -3.30373  -1.32104   0.21806
   6  -4.08497   0.22622  -0.02117
   6  -3.20379   1.25384  -0.18866
   6  -1.85878   0.79307  -0.12454
  16  -0.29014   1.53998  -0.25140
   6   2.62342  -1.27094  -0.43036
   6   4.00943  -1.37306  -0.40436
   1   5.86716  -0.38671   0.06239
   1   4.75502   1.69403   0.83776
   1   2.30028   1.86547   0.83153
   1  -0.10249  -2.05666   0.35331
   1  -5.16301   0.27278  -0.02302
   1  -3.50424   2.27994  -0.34820
   1   2.03143  -2.09138  -0.81855
   1   4.48551  -2.28289  -0.75265
 read in order, maxerr=  8.33 for atom  22
 loop 6 5
 mod cartes coords mol 2
   6   4.78621  -0.30800  -0.04908
   6   4.16141   0.86020  -0.48017
   6   2.77441   0.96130  -0.46703
   6   1.97967  -0.10327  -0.01258
   6   0.51488  -0.01635  -0.00146
   6  -0.39301  -1.03337  -0.16075
   6  -1.73358  -0.57297  -0.08685
  16  -3.30373  -1.32104  -0.21806
   6  -4.08497   0.22622   0.02117
   6  -3.20379   1.25384   0.18866
   6  -1.85878   0.79307   0.12454
  16  -0.29014   1.53998   0.25140
   6   2.62342  -1.27094   0.43036
   6   4.00943  -1.37306   0.40436
   1   5.86716  -0.38671  -0.06239
   1   4.75502   1.69403  -0.83776
   1   2.30028   1.86547  -0.83153
   1  -0.10249  -2.05666  -0.35331
   1  -5.16301   0.27278   0.02302
   1  -3.50424   2.27994   0.34820
   1   2.03143  -2.09138   0.81855
   1   4.48551  -2.28289   0.75265
 read in order, maxerr=  8.35 for atom  15
 loop 6 6
 mod cartes coords mol 2
   6   4.78621   0.30800   0.04908
   6   4.16141  -0.86020   0.48017
   6   2.77441  -0.96130   0.46703
   6   1.97967   0.10327   0.01258
   6   0.51488   0.01635   0.00146
   6  -0.39301   1.03337   0.16075
   6  -1.73358   0.57297   0.08685
  16  -3.30373   1.32104   0.21806
   6  -4.08497  -0.22622  -0.02117
[...]
  64      3212. -0.8992    80.9   100.0  64      3226.
                 0.4063    16.5          66      3239.
  65      3214. -0.9114    83.1   100.0  65      3238.
                -0.3857    14.9          66      3239.
  66      3245.  0.4372    19.1   100.0  64      3226.
                -0.3549    12.6          65      3238.
                 0.8263    68.3          66      3239.
 nber times 1st assigned=           1           0
 nber times 1st assigned=           2           0
 nber times 1st assigned=           3           0
 nber times 1st assigned=           4           0
 nber times 1st assigned=           5           0
 nber times 1st assigned=           6           0
 nber times 1st assigned=           7           5
 nber times 1st assigned=           9           0
 nber times 1st assigned=          10           0
 nber times 1st assigned=          11           0
 nber times 1st assigned=          12           0
 nber times 1st assigned=          13           0
 nber times 1st assigned=          14           0
 nber times 1st assigned=          15           0
 nber times 1st assigned=          16           0
 nber times 1st assigned=          17           0
 nber times 1st assigned=          18           0
 nber times 1st assigned=          19           0
 nber times 1st assigned=          20           0
 nber times 1st assigned=          21           0
 nber times 1st assigned=          22           0
 nber times 1st assigned=          23           0
 nber times 1st assigned=          24           0
 nber times 1st assigned=          25           0
 nber times 1st assigned=          26           0
 nber times 1st assigned=          27           0
 nber times 1st assigned=          28           0
 nber times 1st assigned=          29           0
 nber times 1st assigned=          30           0
 nber times 1st assigned=          31           0
 nber times 1st assigned=          32           0
 nber times 1st assigned=          33           0
 nber times 1st assigned=          34           0
 nber times 1st assigned=          35           0
 nber times 1st assigned=          36           0
 nber times 1st assigned=          37           0
 nber times 1st assigned=          38           0
 nber times 1st assigned=          39           0
 nber times 1st assigned=          40           0
 nber times 1st assigned=          41           0
 nber times 1st assigned=          42           0
 nber times 1st assigned=          43           0
 nber times 1st assigned=          44           0
 nber times 1st assigned=          45           0
 nber times 1st assigned=          46           0
 nber times 1st assigned=          47           0
 nber times 1st assigned=          48           0
 nber times 1st assigned=          49           0
 nber times 1st assigned=          50           0
 nber times 1st assigned=          51           0
 nber times 1st assigned=          52           0
 nber times 1st assigned=          53           0
 nber times 1st assigned=          54           0
 nber times 1st assigned=          55           0
 nber times 1st assigned=          56           0
 nber times 1st assigned=          57           0
 nber times 1st assigned=          58           0
 nber times 1st assigned=          59           0
 nber times 1st assigned=          60           0
 nber times 1st assigned=          61           0
 nber times 1st assigned=          62           0
 nber times 1st assigned=          63           0
 nber times 1st assigned=          64           0
 nber times 1st assigned=          65           0
 nber times 1st assigned=          66           0
 Dushinsky matrix written to .out file
 modes represented=   65.5561574654407     

 Dushinsky matrix, ncs 1 in terms of ncs 2

   mode   freq    coeff     %      %tot     of    at

   7        24. -0.9982    99.6   114.6   7        43.
   8        62. -0.9976    99.5   275.1   8        65.
                 0.5024    25.2          48      1315.
                -0.3172    10.1          50      1363.
                -0.3282    10.8          53      1476.
                -0.3965    15.7          57      1615.
   9       117.  0.9633    92.8   435.4   9        93.
                 0.5127    26.3          10       178.
                 0.4398    19.3          13       272.
                 0.3410    11.6          14       326.
                -0.4023    16.2          19       498.
                -0.7511    56.4          20       574.
                -0.6062    36.8          29       774.
                -0.3551    12.6          31       837.
                -0.3376    11.4          35       927.
  10       155.  0.7861    61.8   109.8  10       178.
                 0.3251    10.6          11       204.
  11       203.  0.9202    84.7   101.1  11       204.
  12       267. -0.9045    81.8   103.3  12       259.
                 0.3597    12.9          13       272.
  13       279. -0.5605    31.4    99.4  13       272.
                -0.5328    28.4          14       326.
  14       315.  0.4819    23.2   113.4  13       272.
                -0.6799    46.2          14       326.
  15       387. -0.9872    97.5   100.5  16       415.
  16       427.  0.7976    63.6   101.7  15       408.
                 0.3870    15.0          18       466.
  17       434. -0.4212    17.7   103.8  15       408.
                 0.7187    51.7          18       466.
                -0.3306    10.9          19       498.
  18       454.  0.9650    93.1    99.7  17       460.
  19       462.  0.3949    15.6    99.0  18       466.
                 0.7535    56.8          19       498.
  20       563.  0.5986    35.8    97.8  20       574.
  21       582. -0.9619    92.5   100.3  21       585.
  22       617. -0.8540    72.9   100.2  23       632.
                 0.4246    18.0          24       639.
  23       625. -0.9088    82.6   100.6  22       623.
                -0.3488    12.2          26       701.
  24       641. -0.4010    16.1    99.9  23       632.
                -0.8845    78.2          24       639.
  25       665. -0.8970    80.5   100.2  27       710.
  26       683. -0.8680    75.3    98.7  25       696.
  27       759.  0.9800    96.0   100.4  28       763.
  28       765. -0.3692    13.6   101.0  22       623.
                 0.8517    72.5          26       701.
  29       783. -0.7472    55.8    99.6  29       774.
  30       806. -0.9546    91.1   100.0  30       821.
  31       826. -0.9636    92.8    99.6  32       852.
  32       856.  0.8739    76.4    99.8  31       837.
  33       893.  0.9770    95.5   100.4  34       900.
  34       905. -0.9944    98.9   101.2  33       876.
  35       949.  0.9050    81.9   100.1  35       927.
  36       974.  0.7262    52.7   100.7  36       979.
                -0.6222    38.7          37       980.
  37       998. -0.6376    40.6    99.6  36       979.
                -0.7331    53.7          37       980.
  38      1007. -0.9764    95.3   100.4  39      1015.
  39      1028.  0.9869    97.4   100.1  38      1002.
  40      1040.  0.9917    98.3   100.0  40      1053.
  41      1099. -0.4413    19.5   100.1  41      1104.
                 0.8555    73.2          42      1110.
  42      1113. -0.8194    67.1   100.6  41      1104.
                -0.4664    21.8          42      1110.
  43      1170.  0.8698    75.7    99.9  43      1178.
  44      1194. -0.8655    74.9   100.2  44      1183.
  45      1204.  0.4537    20.6    99.5  44      1183.
                 0.4040    16.3          45      1207.
                 0.3352    11.2          46      1210.
                 0.5702    32.5          47      1244.
  46      1224. -0.8762    76.8    99.7  45      1207.
                 0.3417    11.7          46      1210.
  47      1245.  0.7769    60.4   100.0  46      1210.
                -0.4680    21.9          47      1244.
  48      1336.  0.7705    59.4    98.7  48      1315.
  49      1353. -0.7669    58.8    99.5  50      1363.
                 0.3499    12.2          52      1457.
  50      1373. -0.9428    88.9    99.9  49      1356.
  51      1409.  0.7530    56.7    98.9  54      1505.
                 0.5248    27.5          55      1523.
  52      1425.  0.4816    23.2    99.8  52      1457.
                 0.3943    15.5          55      1523.
                 0.5034    25.3          56      1558.
  53      1445. -0.8943    80.0   100.6  51      1378.
  54      1477.  0.7666    58.8    99.7  53      1476.
                -0.3576    12.8          54      1505.
  55      1515.  0.4481    20.1   100.5  52      1457.
                 0.3598    12.9          54      1505.
                -0.6202    38.5          55      1523.
  56      1531.  0.4911    24.1   100.6  52      1457.
                 0.3306    10.9          55      1523.
                -0.6939    48.1          56      1558.
  57      1577. -0.8532    72.8    99.8  57      1615.
  58      1624.  0.9883    97.7   100.2  58      1642.
  59      3182. -0.6682    44.6   100.0  59      3162.
                -0.5682    32.3          60      3168.
                -0.3966    15.7          61      3178.
  60      3190. -0.7177    51.5   100.0  59      3162.
                 0.5272    27.8          60      3168.
                 0.4473    20.0          61      3178.
  61      3199.  0.6164    38.0   100.0  60      3168.
                -0.7663    58.7          61      3178.
  62      3207.  0.8340    69.6   100.0  62      3184.
                -0.4716    22.2          63      3192.
  63      3213. -0.4690    22.0   100.0  62      3184.
                -0.8599    73.9          63      3192.
  64      3226. -0.8992    80.9   100.0  64      3212.
                 0.4372    19.1          66      3245.
  65      3238. -0.9114    83.1   100.0  65      3214.
                -0.3549    12.6          66      3245.
  66      3239.  0.4063    16.5   100.0  64      3212.
                -0.3857    14.9          65      3214.
                 0.8263    68.3          66      3245.
 nber times 1st assigned=           1           0
 nber times 1st assigned=           2           0
 nber times 1st assigned=           3           0
 nber times 1st assigned=           4           0
 nber times 1st assigned=           5           0
 nber times 1st assigned=           6           0
 nber times 1st assigned=           7           0
 nber times 1st assigned=           8           0
 nber times 1st assigned=           9           0
 nber times 1st assigned=          10           0
 nber times 1st assigned=          11           0
 nber times 1st assigned=          12           0
 nber times 1st assigned=          13           0
 nber times 1st assigned=          14           0
 nber times 1st assigned=          15           0
 nber times 1st assigned=          16           0
 nber times 1st assigned=          17           0
 nber times 1st assigned=          18           0
 nber times 1st assigned=          19           0
 nber times 1st assigned=          20           0
 nber times 1st assigned=          21           0
 nber times 1st assigned=          22           0
 nber times 1st assigned=          23           0
 nber times 1st assigned=          24           0
 nber times 1st assigned=          25           0
 nber times 1st assigned=          26           0
 nber times 1st assigned=          27           0
 nber times 1st assigned=          28           0
 nber times 1st assigned=          29           0
 nber times 1st assigned=          30           0
 nber times 1st assigned=          31           0
 nber times 1st assigned=          32           0
 nber times 1st assigned=          33           0
 nber times 1st assigned=          34           0
 nber times 1st assigned=          35           0
 nber times 1st assigned=          36           0
 nber times 1st assigned=          37           0
 nber times 1st assigned=          38           0
 nber times 1st assigned=          39           0
 nber times 1st assigned=          40           0
 nber times 1st assigned=          41           0
 nber times 1st assigned=          42           0
 nber times 1st assigned=          43           0
 nber times 1st assigned=          44           0
 nber times 1st assigned=          45           0
 nber times 1st assigned=          46           0
 nber times 1st assigned=          47           0
 nber times 1st assigned=          48           0
 nber times 1st assigned=          49           0
 nber times 1st assigned=          50           0
 nber times 1st assigned=          51           0
 nber times 1st assigned=          52           0
 nber times 1st assigned=          53           0
 nber times 1st assigned=          54           0
 nber times 1st assigned=          55           0
 nber times 1st assigned=          56           0
 nber times 1st assigned=          57           0
 nber times 1st assigned=          58           0
 nber times 1st assigned=          59           0
 nber times 1st assigned=          60           0
 nber times 1st assigned=          61           0
 nber times 1st assigned=          62           0
 nber times 1st assigned=          63           0
 nber times 1st assigned=          64           0
 nber times 1st assigned=          65           0
 nber times 1st assigned=          66           0
 modes represented=   65.5561574654407     
 p1=
   -0.    0.    0.    0.   -0.    0. -181.   -9.    8.    1.   -4.  -12.   -3.   -5.    2.    4.    1.   -6.   -1.   -1.
    5.    0.   -1.    2.   -0.    3.   -4.    0.    0.    0.    2.    1.   -3.    0.    0.    1.   -1.    1.   -0.    0.
    2.    1.   -1.   -1.   -1.   -3.   -0.    0.    4.    1.   -0.   -1.    0.   -1.    2.    4.   -0.   -2.   -0.    0.
   -0.    0.    0.    0.    0.    0.
 p2=
   -0.    0.    0.   -0.    0.   -0. -178.  -20.   -7.   -1.    5.  -14.    7.   -5.   -4.    3.    6.   -2.    2.   -1.
    4.    1.    0.    1.    4.    1.   -1.    3.   -1.   -0.    1.   -1.   -0.    3.    0.   -1.    1.    0.    1.   -0.
    1.   -1.    1.   -0.   -1.    1.    1.    0.    1.    2.   -1.   -3.   -1.   -1.    1.    3.    0.    1.    0.   -0.
   -0.    0.    0.    0.    0.   -0.

 Displacement: in terms of nc of 1 THEN of nc of 2

   1     freq=    -0. Q= -0.000 lam=    -0.0     freq=    -0. Q= -0.000 lam=    -0.0
   2     freq=    -0. Q=  0.000 lam=    -0.0     freq=    -0. Q=  0.000 lam=    -0.0
   3     freq=    -0. Q=  0.000 lam=    -0.0     freq=    -0. Q=  0.000 lam=    -0.0
   4     freq=     0. Q=  0.000 lam=     0.0     freq=     0. Q=  0.000 lam=     0.0
   5     freq=     0. Q= -0.000 lam=     0.0     freq=     0. Q= -0.000 lam=     0.0
   6     freq=     0. Q=  0.000 lam=     0.0     freq=     0. Q=  0.000 lam=     0.0
   7     freq=    24. Q= -3.552 lam=   148.5     freq=    43. Q= -4.679 lam=   465.9
   8     freq=    62. Q= -0.289 lam=     2.6     freq=    65. Q= -0.658 lam=    14.1
   9     freq=   117. Q=  0.340 lam=     6.8     freq=    93. Q=  0.287 lam=     3.8
  10     freq=   155. Q=  0.046 lam=     0.2     freq=   178. Q=  0.076 lam=     0.5
  11     freq=   203. Q= -0.222 lam=     5.0     freq=   204. Q= -0.280 lam=     8.0
  12     freq=   267. Q= -0.799 lam=    85.3     freq=   259. Q= -0.935 lam=   113.1
  13     freq=   279. Q= -0.188 lam=     4.9     freq=   272. Q= -0.471 lam=    30.2
  14     freq=   315. Q= -0.393 lam=    24.3     freq=   326. Q= -0.357 lam=    20.8
  15     freq=   387. Q=  0.175 lam=     5.9     freq=   408. Q=  0.334 lam=    22.7
  16     freq=   427. Q=  0.326 lam=    22.7     freq=   415. Q=  0.240 lam=    11.9
  17     freq=   434. Q=  0.064 lam=     0.9     freq=   460. Q=  0.519 lam=    61.8
  18     freq=   454. Q= -0.547 lam=    67.8     freq=   466. Q= -0.202 lam=     9.5
  19     freq=   462. Q= -0.046 lam=     0.5     freq=   498. Q= -0.166 lam=     6.9
  20     freq=   563. Q= -0.076 lam=     1.6     freq=   574. Q= -0.137 lam=     5.4
  21     freq=   582. Q=  0.470 lam=    64.3     freq=   585. Q=  0.391 lam=    44.9
  22     freq=   617. Q=  0.013 lam=     0.1     freq=   623. Q=  0.056 lam=     1.0
  23     freq=   625. Q= -0.064 lam=     1.3     freq=   632. Q= -0.012 lam=     0.0
  24     freq=   641. Q=  0.165 lam=     8.7     freq=   639. Q=  0.129 lam=     5.3
  25     freq=   665. Q= -0.005 lam=     0.0     freq=   696. Q= -0.394 lam=    54.2
  26     freq=   683. Q=  0.346 lam=    40.9     freq=   701. Q=  0.152 lam=     8.1
  27     freq=   759. Q= -0.415 lam=    65.4     freq=   710. Q= -0.088 lam=     2.7
  28     freq=   765. Q=  0.028 lam=     0.3     freq=   763. Q=  0.362 lam=    50.0
  29     freq=   783. Q=  0.034 lam=     0.5     freq=   774. Q=  0.069 lam=     1.9
  30     freq=   806. Q=  0.025 lam=     0.3     freq=   821. Q=  0.050 lam=     1.0
  31     freq=   826. Q=  0.224 lam=    20.6     freq=   837. Q=  0.104 lam=     4.5
  32     freq=   856. Q=  0.077 lam=     2.6     freq=   852. Q=  0.135 lam=     7.8
  33     freq=   893. Q= -0.329 lam=    48.3     freq=   876. Q= -0.005 lam=     0.0
  34     freq=   905. Q=  0.014 lam=     0.1     freq=   900. Q=  0.303 lam=    41.2
  35     freq=   949. Q=  0.008 lam=     0.0     freq=   927. Q=  0.011 lam=     0.1
  36     freq=   974. Q=  0.106 lam=     5.5     freq=   979. Q=  0.067 lam=     2.2
  37     freq=   998. Q= -0.067 lam=     2.3     freq=   980. Q= -0.152 lam=    11.3
  38     freq=  1007. Q=  0.116 lam=     6.7     freq=  1002. Q=  0.016 lam=     0.1
  39     freq=  1028. Q= -0.004 lam=     0.0     freq=  1015. Q= -0.150 lam=    11.4
  40     freq=  1040. Q=  0.052 lam=     1.4     freq=  1053. Q=  0.032 lam=     0.5
  41     freq=  1099. Q=  0.207 lam=    23.6     freq=  1104. Q=  0.091 lam=     4.6
  42     freq=  1113. Q=  0.112 lam=     7.0     freq=  1110. Q=  0.118 lam=     7.7
  43     freq=  1170. Q= -0.105 lam=     6.5     freq=  1178. Q= -0.083 lam=     4.1
  44     freq=  1194. Q= -0.127 lam=     9.7     freq=  1183. Q= -0.010 lam=     0.1
  45     freq=  1204. Q= -0.208 lam=    26.0     freq=  1207. Q= -0.177 lam=    18.9
  46     freq=  1224. Q= -0.416 lam=   105.8     freq=  1210. Q= -0.179 lam=    19.5
  47     freq=  1245. Q= -0.041 lam=     1.0     freq=  1244. Q= -0.187 lam=    21.8
  48     freq=  1336. Q=  0.029 lam=     0.6     freq=  1315. Q=  0.004 lam=     0.0
  49     freq=  1353. Q=  0.525 lam=   186.2     freq=  1356. Q=  0.183 lam=    22.6
  50     freq=  1373. Q=  0.166 lam=    19.0     freq=  1363. Q=  0.364 lam=    90.3
  51     freq=  1409. Q= -0.023 lam=     0.4     freq=  1378. Q= -0.184 lam=    23.2
  52     freq=  1425. Q= -0.217 lam=    33.5     freq=  1457. Q= -0.516 lam=   194.0
  53     freq=  1445. Q=  0.073 lam=     3.8     freq=  1476. Q=  0.182 lam=    24.4
  54     freq=  1477. Q= -0.122 lam=    11.0     freq=  1505. Q= -0.124 lam=    11.5
  55     freq=  1515. Q=  0.315 lam=    75.3     freq=  1523. Q=  0.148 lam=    16.6
  56     freq=  1531. Q=  0.555 lam=   236.1     freq=  1558. Q=  0.526 lam=   215.7
  57     freq=  1577. Q= -0.045 lam=     1.6     freq=  1615. Q= -0.043 lam=     1.5
  58     freq=  1624. Q= -0.291 lam=    68.6     freq=  1642. Q= -0.212 lam=    36.8
  59     freq=  3182. Q= -0.004 lam=     0.0     freq=  3162. Q= -0.007 lam=     0.1
  60     freq=  3190. Q=  0.005 lam=     0.0     freq=  3168. Q=  0.001 lam=     0.0
  61     freq=  3199. Q= -0.006 lam=     0.1     freq=  3178. Q= -0.010 lam=     0.1
  62     freq=  3207. Q=  0.008 lam=     0.1     freq=  3184. Q=  0.002 lam=     0.0
  63     freq=  3213. Q=  0.029 lam=     1.3     freq=  3192. Q=  0.025 lam=     1.0
  64     freq=  3226. Q=  0.016 lam=     0.4     freq=  3212. Q=  0.012 lam=     0.2
  65     freq=  3238. Q=  0.011 lam=     0.2     freq=  3214. Q=  0.013 lam=     0.3
  66     freq=  3239. Q=  0.015 lam=     0.4     freq=  3245. Q=  0.012 lam=     0.2

 total reorg energy (cm**-1, kcal/mol)=     1464.     1738.      4.19      4.97
 Nber of molecules processed=           2
