 Enter ifcurve (0=recti, 1=orth curvi, 2=apprx curvi, -1 = skip
 And atom ordering flag, 0= never changes, 1= use the first order thenceforth,
  2= deduce it (does read on fail), 3= always read it
 Reading file: 
 ./Common_Moeties_0_C0S0.log                                                    
                                          
  Entering Gaussian System, Link 0=g16                                          
  
 Gaussian format, type: g94, g98, g03= F F F
  #P Geom=AllCheck Guess=TCheck SCRF=Check GenChk RB3LYP/6-311G(d,p) Fre    
 energy type= B3LYP   
 Original G94 input coords:
  7  2.297658  0.000000  0.000000
  6  0.919680  0.000000  0.000000
  6  0.198603 -1.207069  0.000000
  6 -1.191081 -1.199432  0.000000
  6 -1.901679  0.000000  0.000000
  6 -1.191081  1.199432  0.000000
  6  0.198603  1.207069  0.000000
  1  2.813815 -0.860039  0.000000
  1  2.813815  0.860039  0.000000
  1  0.736820 -2.149909  0.000000
  1 -1.723488 -2.144693  0.000000
  1 -2.984999  0.000000  0.000000
  1 -1.723488  2.144693  0.000000
  1  0.736820  2.149909  0.000000
 nber atoms=          14
 Original standard coords:
  7  0.000000  0.000000  2.318635
  6  0.000000  0.000000  0.940657
  6  0.000000  1.207069  0.219579
  6  0.000000  1.199432 -1.170104
  6  0.000000  0.000000 -1.880703
  6  0.000000 -1.199432 -1.170104
  6  0.000000 -1.207069  0.219579
  1  0.000000  0.860039  2.834792
  1  0.000000 -0.860039  2.834792
  1  0.000000  2.149909  0.757797
  1  0.000000  2.144693 -1.702511
  1  0.000000  0.000000 -2.964023
  1  0.000000 -2.144693 -1.702511
  1  0.000000 -2.149909  0.757797
  SCF Done:  E(RB3LYP) =  -287.680068774     A.U. after    1 cycles             
  
          23          40 "  -287.680068774"
After scan for Atom:   Atom  AN      X      Y      Z        X      Y      Z        X      Y      Z   
After scan for Atom:   Atom  AN      X      Y      Z        X      Y      Z        X      Y      Z   
After scan for Atom:   Atom  AN      X      Y      Z        X      Y      Z        X      Y      Z   
After scan for Atom:   Atom  AN      X      Y      Z        X      Y      Z        X      Y      Z   
After scan for Atom:   Atom  AN      X      Y      Z        X      Y      Z        X      Y      Z   
After scan for Atom:   Atom  AN      X      Y      Z        X      Y      Z        X      Y      Z   
After scan for Atom:   Atom  AN      X      Y      Z        X      Y      Z        X      Y      Z   
After scan for Atom:   Atom  AN      X      Y      Z        X      Y      Z        X      Y      Z   
After scan for Atom:   Atom  AN      X      Y      Z        X      Y      Z        X      Y      Z   
After scan for Atom:   Atom  AN      X      Y      Z        X      Y      Z        X      Y      Z   
After scan for Atom:   Atom  AN      X      Y      Z        X      Y      Z        X      Y      Z   
After scan for Atom:   Atom  AN      X      Y      Z        X      Y      Z        X      Y      Z   
 g94    frequencies=
     0.0    0.0    0.0    0.0    0.0    0.0 -438.8  219.4  345.2  379.2
   418.5  514.6  539.8  636.1  702.7  758.0  815.4  836.0  868.6  955.1
   974.6 1006.1 1023.4 1047.8 1120.6 1178.4 1200.0 1326.6 1341.8 1364.2
  1499.1 1534.2 1620.7 1640.8 1660.6 3148.0 3149.0 3165.2 3170.2 3189.2
  3638.5 3758.8
 g94    symmetries=
                                                B1     B1     A2     B2
      A2     B1     A1     B2     B1     B1     A2     A1     B1     A2
      B1     A1     B2     A1     B2     B2     A1     A1     B2     B2
      B2     A1     B2     A1     A1     A1     B2     A1     B2     A1
      A1     B2
 atomic masses:
 14.0031 12.0000 12.0000 12.0000 12.0000 12.0000 12.0000  1.0078  1.0078  1.0078
  1.0078  1.0078  1.0078  1.0078
 looking for force constants in 
 ./Common_Moeties_0_C0S0.fchk                                                   
  
 Cartesian Force Constants                  R   N=         903                  
  
 n3=          42         903
 g94-fc frequencies=
  -438.8   -8.0   -5.3   -5.0   -0.0    0.0    0.0  219.4  345.3  379.2
   418.6  514.6  539.8  636.2  702.8  758.0  815.4  836.0  868.7  955.2
   974.7 1006.2 1023.4 1047.8 1120.6 1178.5 1200.0 1326.6 1341.8 1364.3
  1499.1 1534.2 1620.8 1640.8 1660.6 3148.0 3149.1 3165.3 3170.2 3189.3
  3638.5 3758.9
 at 99999: n3=          42
 symm operator            1 :  T  nop=           1
 symm operator            2 :  F  nop=           1
 symm operator            3 :  F  nop=           1
 symm operator            4 :  F  nop=           1
 symm operator            5 :  F  nop=           1
 symm operator            6 :  T  nop=           2
 symm operator            7 :  T  nop=           3
 The point group of the molecule is C2V
 enforcing symm op           1  jsymt=          -1          -1           1
 enforcing symm op           6  jsymt=           1          -1           1
 enforcing symm op           7  jsymt=          -1           1           1
 cartesian coord symmetries:
 A1 :   14 A2 :    5 B1 :    9 B2 :   14
 Symmetry rotation matrix:
   1.00000   0.00000   0.00000
   0.00000   1.00000   0.00000
   0.00000   0.00000   1.00000

 Projecting out zero-frequency components
 generating redundant internal coords
         300        3600          14
 search for int coords
   1 str   2   1   1.378
   2 str   3   2   1.406
   3 str   4   3   1.390
   4 str   5   4   1.394
   5 str   6   5   1.394
   6 str   7   2   1.406
   7 str   7   6   1.390
   8 str   8   1   1.003
   9 str   9   1   1.003
  10 str  10   3   1.086
  11 str  11   4   1.085
  12 str  12   5   1.083
  13 str  13   6   1.085
  14 str  14   7   1.086
 nber stretches=          14
  15 ben   1   2   3
  16 prop tor   1   2   3   4
  17 prop tor   1   2   3  10
  18 ben   1   2   7
  19 prop tor   1   2   7   6
  20 prop tor   1   2   7  14
  21 ben   2   1   8
  22 ben   2   1   9
  23 ben   2   3   4
  24 prop tor   2   3   4   5
  25 prop tor   2   3   4  11
  26 ben   2   3  10
  27 ben   2   7   6
  28 ben   2   7  14
  29 ben   3   2   7
  30 prop tor   3   2   7   6
  31 prop tor   3   2   7  14
  32 ben   3   4   5
  33 prop tor   3   4   5   6
  34 prop tor   3   4   5  12
  35 ben   3   4  11
  36 ben   4   3  10
  37 ben   4   5   6
  38 prop tor   4   5   6   7
  39 prop tor   4   5   6  13
  40 ben   4   5  12
  41 ben   5   4  11
  42 ben   5   6   7
  43 prop tor   5   6   7   2
  44 prop tor   5   6   7  14
  45 ben   5   6  13
  46 ben   6   5  12
  47 ben   6   7  14
  48 prop tor   7   2   3   4
  49 prop tor   7   2   3  10
  50 ben   7   6  13
  51 prop tor   8   1   2   3
  52 prop tor   8   1   2   7
  53 ben   8   1   9
  54 prop tor   9   1   2   3
  55 prop tor   9   1   2   7
  56 prop tor  10   3   4   5
  57 prop tor  10   3   4  11
  58 prop tor  11   4   5   6
  59 prop tor  11   4   5  12
  60 prop tor  12   5   6   7
  61 prop tor  12   5   6  13
  62 prop tor  13   6   7   2
  63 prop tor  13   6   7  14
 nber bend=              21
 nber lin bend=           0
 nber prop tor=          28
 nber impr tor=           0
 nber tot redund int=          63
 Eigenvalues of G in red int coords
    Gval -0.00000000 -0.00000000 -0.00000000 -0.00000000 -0.00000000 -0.00000000 -0.00000000 -0.00000000
    Gval -0.00000000 -0.00000000 -0.00000000 -0.00000000 -0.00000000  0.00000000  0.00000000  0.00000000
    Gval  0.00000000  0.00000000  0.00000000  0.00000000  0.00000000  0.00000000  0.00000000  0.00000000
    Gval  0.00000000  0.00000000  0.00000000  0.00002464  0.00003110  0.00004994  0.00006042  0.00006671
    Gval  0.00011073  0.00011883  0.00015849  0.00017686  0.00026923  0.00029590  0.00036594  0.00049953
    Gval  0.00055984  0.00056347  0.00059307  0.00059326  0.00060426  0.00061962  0.00066057  0.00072049
    Gval  0.00080228  0.00103942  0.00110633  0.00113649  0.00116746  0.00117264  0.00140858  0.00151752
    Gval  0.00163766  0.00180184  0.00209810  0.00234551  0.00312978  0.00372404  0.00406947
  2.463572424003859E-005  2.463572424003859E-005
  3.110218695650028E-005  2.463572424003859E-005
  4.993752877478313E-005  2.463572424003859E-005
  6.041924445306874E-005  2.463572424003859E-005
  6.670990495176697E-005  2.463572424003859E-005
  1.107332957925562E-004  2.463572424003859E-005
  1.188301649231214E-004  2.463572424003859E-005
  1.584895339521213E-004  2.463572424003859E-005
  1.768607470736145E-004  2.463572424003859E-005
  2.692345758818489E-004  2.463572424003859E-005
  2.958982303859253E-004  2.463572424003859E-005
  3.659350626370469E-004  2.463572424003859E-005
  4.995348813064281E-004  2.463572424003859E-005
  5.598432996859186E-004  2.463572424003859E-005
  5.634659735843087E-004  2.463572424003859E-005
  5.930676293575305E-004  2.463572424003859E-005
  5.932637572246744E-004  2.463572424003859E-005
  6.042567275181737E-004  2.463572424003859E-005
  6.196158746651478E-004  2.463572424003859E-005
  6.605656810874523E-004  2.463572424003859E-005
  7.204911350690032E-004  2.463572424003859E-005
  8.022839707874982E-004  2.463572424003859E-005
  1.039419398266715E-003  2.463572424003859E-005
  1.106332112186933E-003  2.463572424003859E-005
  1.136492823411222E-003  2.463572424003859E-005
  1.167458351174835E-003  2.463572424003859E-005
  1.172642761882498E-003  2.463572424003859E-005
  1.408584619261584E-003  2.463572424003859E-005
  1.517517043964414E-003  2.463572424003859E-005
  1.637660412875547E-003  2.463572424003859E-005
  1.801837209067845E-003  2.463572424003859E-005
  2.098095457337616E-003  2.463572424003859E-005
  2.345514689089126E-003  2.463572424003859E-005
  3.129781695203772E-003  2.463572424003859E-005
  3.724042574548354E-003  2.463572424003859E-005
  4.069465623124805E-003  2.463572424003859E-005
 cut=1d-8, nber non-redundant internal coords=          36
 Check on Eigenvals of non-red overlap matrix:
  0.00002464  0.00003110  0.00004994  0.00006042  0.00006671  0.00011073  0.00011883  0.00015849
  0.00017686  0.00026923  0.00029590  0.00036594  0.00049953  0.00055984  0.00056347  0.00059307
  0.00059326  0.00060426  0.00061962  0.00066057  0.00072049  0.00080228  0.00103942  0.00110633
  0.00113649  0.00116746  0.00117264  0.00140858  0.00151752  0.00163766  0.00180184  0.00209810
  0.00234551  0.00312978  0.00372404  0.00406947
 Checking for correct frequencies
 recalc frequencies=
  -438.8   -0.0   -0.0   -0.0   -0.0   -0.0   -0.0  219.4  345.3  379.2
   418.6  514.6  539.8  636.2  702.8  758.0  815.4  836.0  868.7  955.2
   974.7 1006.2 1023.4 1047.8 1120.6 1178.5 1200.0 1326.6 1341.8 1364.3
  1499.1 1534.2 1620.8 1640.8 1660.6 3148.0 3149.1 3165.3 3170.2 3189.3
  3638.5 3758.9
 recalc symmetries=
     B1     A1     B2     A2     B2     B1     B1     B1     A2     B2 
     A2     B1     A1     B2     B1     B1     A2     A1     B1     A2 
     B1     A1     B2     A1     B2     B2     A1     A1     B2     B2 
     B2     A1     B2     A1     A1     A1     B2     A1     B2     A1 
     A1     B2 
 recalc freqs check OK
 Zero-point lengths:
 11.8342 10.0000 10.0000 10.0000 10.0000 10.0000 10.0000 16.7375 13.3422 12.7315
 12.1176 10.9282 10.6700  9.8291  9.3517  9.0045  8.6816  8.5743  8.4114  8.0216
  7.9409  7.8156  7.7495  7.6587  7.4057  7.2217  7.1565  6.8065  6.7678  6.7119
  6.4029  6.3293  6.1580  6.1201  6.0836  4.4185  4.4178  4.4065  4.4030  4.3899
  4.1099  4.0436
 highest evec of mol 1
  0.0000 -0.3077  0.0000
  0.0000 -0.0040  0.0000
  0.0000  0.0018 -0.0004
  0.0000 -0.0001  0.0000
  0.0000 -0.0001  0.0000
  0.0000 -0.0001 -0.0000
  0.0000  0.0018  0.0004
  0.0000  0.5750  0.3492
  0.0000  0.5750 -0.3492
  0.0000 -0.0005 -0.0017
  0.0000  0.0001  0.0002
  0.0000  0.0000  0.0000
  0.0000  0.0001 -0.0002
  0.0000 -0.0005  0.0017
 generating redundant internal coords
         300        3600          14
 Adding extra bonds for z output only
           7           6           6           6           6           6
           6           1           1           1           1           1
           1           1
 search for int coords
   1 str   2   1   1.378
   2 str   3   2   1.406
   3 str   4   3   1.390
   4 str   5   4   1.394
   5 str   6   5   1.394
   6 str   7   2   1.406
   7 str   7   6   1.390
   8 str   8   1   1.003
   9 str   9   1   1.003
  10 str  10   3   1.086
  11 str  11   4   1.085
  12 str  12   5   1.083
  13 str  13   6   1.085
  14 str  14   7   1.086
 nber stretches=          14
  15 ben   1   2   3
  16 prop tor   1   2   3   4
  17 prop tor   1   2   3  10
  18 ben   1   2   7
  19 prop tor   1   2   7   6
  20 prop tor   1   2   7  14
  21 ben   2   1   8
  22 ben   2   1   9
  23 ben   2   3   4
  24 prop tor   2   3   4   5
  25 prop tor   2   3   4  11
  26 ben   2   3  10
  27 ben   2   7   6
  28 ben   2   7  14
  29 ben   3   2   7
  30 prop tor   3   2   7   6
  31 prop tor   3   2   7  14
  32 ben   3   4   5
  33 prop tor   3   4   5   6
  34 prop tor   3   4   5  12
  35 ben   3   4  11
  36 ben   4   3  10
  37 ben   4   5   6
  38 prop tor   4   5   6   7
  39 prop tor   4   5   6  13
  40 ben   4   5  12
  41 ben   5   4  11
  42 ben   5   6   7
  43 prop tor   5   6   7   2
  44 prop tor   5   6   7  14
  45 ben   5   6  13
  46 ben   6   5  12
  47 ben   6   7  14
  48 prop tor   7   2   3   4
  49 prop tor   7   2   3  10
  50 ben   7   6  13
  51 prop tor   8   1   2   3
  52 prop tor   8   1   2   7
  53 ben   8   1   9
  54 prop tor   9   1   2   3
  55 prop tor   9   1   2   7
  56 prop tor  10   3   4   5
  57 prop tor  10   3   4  11
  58 prop tor  11   4   5   6
  59 prop tor  11   4   5  12
  60 prop tor  12   5   6   7
  61 prop tor  12   5   6  13
  62 prop tor  13   6   7   2
  63 prop tor  13   6   7  14
 nber bend=              21
 nber lin bend=           0
 nber prop tor=          28
 nber impr tor=           0
 nber tot redund int=          63
 Reading file: 
 ./Common_Moeties_0_C-1S0.log                                                   
                                          
  Entering Gaussian System, Link 0=g16                                          
  
 Gaussian format, type: g94, g98, g03= F F F
  #P Geom=AllCheck Guess=TCheck SCRF=Check GenChk UB3LYP/6-311G(d,p) Fre    
 energy type= B3LYP   
 Original G94 input coords:
  7  2.298204  0.000000  0.000000
  6  0.940698  0.000000  0.000000
  6  0.192792 -1.207571  0.000000
  6 -1.194472 -1.193195  0.000000
  6 -1.919462  0.000000  0.000000
  6 -1.194472  1.193195  0.000000
  6  0.192792  1.207571  0.000000
  1  2.816580 -0.910037  0.000000
  1  2.816580  0.910037  0.000000
  1  0.757658 -2.143716  0.000000
  1 -1.725581 -2.147251  0.000000
  1 -3.013394  0.000000  0.000000
  1 -1.725581  2.147251  0.000000
  1  0.757658  2.143716  0.000000
 nber atoms=          14
 Original standard coords:
  7  0.000000  0.000000  2.320632
  6  0.000000  0.000000  0.963125
  6  0.000000  1.207571  0.215220
  6  0.000000  1.193195 -1.172044
  6  0.000000  0.000000 -1.897034
  6  0.000000 -1.193195 -1.172044
  6  0.000000 -1.207571  0.215220
  1  0.000000  0.910037  2.839008
  1  0.000000 -0.910037  2.839008
  1  0.000000  2.143716  0.780086
  1  0.000000  2.147251 -1.703153
  1  0.000000  0.000000 -2.990966
  1  0.000000 -2.147251 -1.703153
  1  0.000000 -2.143716  0.780086
  SCF Done:  E(UB3LYP) =  -287.588635321     A.U. after    1 cycles             
  
          23          40 "  -287.588635321"
After scan for Atom:   Atom  AN      X      Y      Z        X      Y      Z        X      Y      Z   
After scan for Atom:   Atom  AN      X      Y      Z        X      Y      Z        X      Y      Z   
After scan for Atom:   Atom  AN      X      Y      Z        X      Y      Z        X      Y      Z   
After scan for Atom:   Atom  AN      X      Y      Z        X      Y      Z        X      Y      Z   
After scan for Atom:   Atom  AN      X      Y      Z        X      Y      Z        X      Y      Z   
After scan for Atom:   Atom  AN      X      Y      Z        X      Y      Z        X      Y      Z   
After scan for Atom:   Atom  AN      X      Y      Z        X      Y      Z        X      Y      Z   
After scan for Atom:   Atom  AN      X      Y      Z        X      Y      Z        X      Y      Z   
After scan for Atom:   Atom  AN      X      Y      Z        X      Y      Z        X      Y      Z   
After scan for Atom:   Atom  AN      X      Y      Z        X      Y      Z        X      Y      Z   
After scan for Atom:   Atom  AN      X      Y      Z        X      Y      Z        X      Y      Z   
After scan for Atom:   Atom  AN      X      Y      Z        X      Y      Z        X      Y      Z   
 g94    frequencies=
     0.0    0.0    0.0    0.0    0.0    0.0  212.5  370.2  425.8  426.8
   523.4  535.0  623.5  633.3  705.5  814.8  822.1  837.4  933.8  959.2
   964.8 1012.6 1036.5 1100.7 1147.0 1171.1 1295.7 1336.1 1346.1 1363.5
  1402.3 1482.3 1505.6 1584.5 1599.9 2487.2 2669.1 3004.4 3008.6 3016.9
  3052.2 3058.3
 g94    symmetries=
                                                B1     B2     B1     A2
      A1     A2     B2     B1     B1     A2     A1     B1     B1     A2
      A1     B2     A1     B2     B2     A1     A1     B2     B2     A1
      B1     B2     A1     B2     A1     A1     B2     A1     A1     B2
      A1     B2
 atomic masses:
 14.0031 12.0000 12.0000 12.0000 12.0000 12.0000 12.0000  1.0078  1.0078  1.0078
  1.0078  1.0078  1.0078  1.0078
 looking for force constants in 
 ./Common_Moeties_0_C-1S0.fchk                                                  
  
 Cartesian Force Constants                  R   N=         903                  
  
 n3=          42         903
 g94-fc frequencies=
   -10.1   -3.9   -1.6   -0.0   -0.0    0.0  212.5  370.2  425.8  426.8
   523.4  535.0  623.5  633.3  705.5  814.8  822.1  837.4  933.8  959.2
   964.8 1012.7 1036.5 1100.7 1147.0 1171.1 1295.7 1336.1 1346.1 1363.5
  1402.3 1482.4 1505.6 1584.5 1600.0 2487.2 2669.1 3004.5 3008.7 3017.0
  3052.2 3058.3
 at 99999: n3=          42
 symm operator            1 :  T  nop=           1
 symm operator            2 :  F  nop=           1
 symm operator            3 :  F  nop=           1
 symm operator            4 :  F  nop=           1
 symm operator            5 :  F  nop=           1
 symm operator            6 :  T  nop=           2
 symm operator            7 :  T  nop=           3
 The point group of the molecule is C2V
 enforcing symm op           1  jsymt=          -1          -1           1
 enforcing symm op           6  jsymt=           1          -1           1
 enforcing symm op           7  jsymt=          -1           1           1
 cartesian coord symmetries:
 A1 :   14 A2 :    5 B1 :    9 B2 :   14
 Symmetry rotation matrix:
   1.00000   0.00000   0.00000
   0.00000   1.00000   0.00000
   0.00000   0.00000   1.00000

 Projecting out zero-frequency components
 generating redundant internal coords
         300        3600          14
 search for int coords
   1 str   2   1   1.358
   2 str   3   2   1.420
   3 str   4   3   1.387
   4 str   5   4   1.396
   5 str   6   5   1.396
   6 str   7   2   1.420
   7 str   7   6   1.387
   8 str   8   1   1.047
   9 str   9   1   1.047
  10 str  10   3   1.093
  11 str  11   4   1.092
  12 str  12   5   1.094
  13 str  13   6   1.092
  14 str  14   7   1.093
 nber stretches=          14
  15 ben   1   2   3
  16 prop tor   1   2   3   4
  17 prop tor   1   2   3  10
  18 ben   1   2   7
  19 prop tor   1   2   7   6
  20 prop tor   1   2   7  14
  21 ben   2   1   8
  22 ben   2   1   9
  23 ben   2   3   4
  24 prop tor   2   3   4   5
  25 prop tor   2   3   4  11
  26 ben   2   3  10
  27 ben   2   7   6
  28 ben   2   7  14
  29 ben   3   2   7
  30 prop tor   3   2   7   6
  31 prop tor   3   2   7  14
  32 ben   3   4   5
  33 prop tor   3   4   5   6
  34 prop tor   3   4   5  12
  35 ben   3   4  11
  36 ben   4   3  10
  37 ben   4   5   6
  38 prop tor   4   5   6   7
  39 prop tor   4   5   6  13
  40 ben   4   5  12
  41 ben   5   4  11
  42 ben   5   6   7
  43 prop tor   5   6   7   2
  44 prop tor   5   6   7  14
  45 ben   5   6  13
  46 ben   6   5  12
  47 ben   6   7  14
  48 prop tor   7   2   3   4
  49 prop tor   7   2   3  10
  50 ben   7   6  13
  51 prop tor   8   1   2   3
  52 prop tor   8   1   2   7
  53 ben   8   1   9
  54 prop tor   9   1   2   3
  55 prop tor   9   1   2   7
  56 prop tor  10   3   4   5
  57 prop tor  10   3   4  11
  58 prop tor  11   4   5   6
  59 prop tor  11   4   5  12
  60 prop tor  12   5   6   7
  61 prop tor  12   5   6  13
  62 prop tor  13   6   7   2
  63 prop tor  13   6   7  14
 nber bend=              21
 nber lin bend=           0
 nber prop tor=          28
 nber impr tor=           0
 nber tot redund int=          63
 Eigenvalues of G in red int coords
    Gval -0.00000000 -0.00000000 -0.00000000 -0.00000000 -0.00000000 -0.00000000 -0.00000000 -0.00000000
    Gval -0.00000000 -0.00000000 -0.00000000 -0.00000000  0.00000000  0.00000000  0.00000000  0.00000000
    Gval  0.00000000  0.00000000  0.00000000  0.00000000  0.00000000  0.00000000  0.00000000  0.00000000
    Gval  0.00000000  0.00000000  0.00000000  0.00002453  0.00003124  0.00005019  0.00006002  0.00006669
    Gval  0.00011112  0.00011880  0.00015777  0.00018097  0.00026654  0.00029401  0.00036293  0.00050960
    Gval  0.00055175  0.00056184  0.00059305  0.00059314  0.00060405  0.00061894  0.00065966  0.00071095
    Gval  0.00076983  0.00102333  0.00108977  0.00112188  0.00115248  0.00115623  0.00136597  0.00139171
    Gval  0.00155672  0.00165759  0.00197015  0.00228542  0.00309326  0.00367229  0.00402279
  2.453192459664098E-005  2.453192459664098E-005
  3.123748893549971E-005  2.453192459664098E-005
  5.019196032617682E-005  2.453192459664098E-005
  6.002415846807418E-005  2.453192459664098E-005
  6.668789202390913E-005  2.453192459664098E-005
  1.111248747053164E-004  2.453192459664098E-005
  1.187996080856665E-004  2.453192459664098E-005
  1.577705987813161E-004  2.453192459664098E-005
  1.809731798143896E-004  2.453192459664098E-005
  2.665388964020011E-004  2.453192459664098E-005
  2.940119472821262E-004  2.453192459664098E-005
  3.629320395587333E-004  2.453192459664098E-005
  5.096009612266526E-004  2.453192459664098E-005
  5.517453416904677E-004  2.453192459664098E-005
  5.618357778578800E-004  2.453192459664098E-005
  5.930479937689715E-004  2.453192459664098E-005
  5.931446349679768E-004  2.453192459664098E-005
  6.040469433007835E-004  2.453192459664098E-005
  6.189367063481936E-004  2.453192459664098E-005
  6.596583925334873E-004  2.453192459664098E-005
  7.109463148004629E-004  2.453192459664098E-005
  7.698293113027008E-004  2.453192459664098E-005
  1.023328340772559E-003  2.453192459664098E-005
  1.089774316317596E-003  2.453192459664098E-005
  1.121884237249620E-003  2.453192459664098E-005
  1.152478780818451E-003  2.453192459664098E-005
  1.156225528474197E-003  2.453192459664098E-005
  1.365968164704508E-003  2.453192459664098E-005
  1.391706786094212E-003  2.453192459664098E-005
  1.556721254517333E-003  2.453192459664098E-005
  1.657594545539447E-003  2.453192459664098E-005
  1.970151010844990E-003  2.453192459664098E-005
  2.285422311347717E-003  2.453192459664098E-005
  3.093256478145960E-003  2.453192459664098E-005
  3.672288083352740E-003  2.453192459664098E-005
  4.022786024834677E-003  2.453192459664098E-005
 cut=1d-8, nber non-redundant internal coords=          36
 Check on Eigenvals of non-red overlap matrix:
  0.00002453  0.00003124  0.00005019  0.00006002  0.00006669  0.00011112  0.00011880  0.00015777
  0.00018097  0.00026654  0.00029401  0.00036293  0.00050960  0.00055175  0.00056184  0.00059305
  0.00059314  0.00060405  0.00061894  0.00065966  0.00071095  0.00076983  0.00102333  0.00108977
  0.00112188  0.00115248  0.00115623  0.00136597  0.00139171  0.00155672  0.00165759  0.00197015
  0.00228542  0.00309326  0.00367229  0.00402279
 Checking for correct frequencies
 recalc frequencies=
    -0.0   -0.0   -0.0    0.0    0.0    0.0  212.5  370.2  425.8  426.8
   523.4  535.0  623.5  633.3  705.5  814.8  822.1  837.4  933.8  959.2
   964.8 1012.7 1036.5 1100.7 1147.0 1171.1 1295.7 1336.1 1346.1 1363.5
  1402.3 1482.4 1505.6 1584.5 1600.0 2487.2 2669.1 3004.5 3008.7 3017.0
  3052.2 3058.3
 recalc symmetries=
     A1     B2     B1     B1     A2     B2     B1     B2     B1     A2 
     A1     A2     B2     B1     B1     A2     A1     B1     B1     A2 
     A1     B2     A1     B2     B2     A1     A1     B2     B2     A1 
     B1     B2     A1     B2     A1     A1     B2     A1     A1     B2 
     A1     B2 
 recalc freqs check OK
 Zero-point lengths:
 10.0000 10.0000 10.0000 10.0000 10.0000 10.0000 17.0074 12.8854 12.0140 12.0003
 10.8360 10.7176  9.9284  9.8513  9.3336  8.6848  8.6464  8.5668  8.1126  8.0045
  7.9814  7.7905  7.7004  7.4724  7.3199  7.2442  6.8873  6.7823  6.7569  6.7138
  6.6202  6.4390  6.3891  6.2280  6.1978  4.9709  4.7986  4.5228  4.5197  4.5135
  4.4873  4.4829
 highest evec of mol 2
  0.0000 -0.0204  0.0000
  0.0000  0.0010  0.0000
  0.0000 -0.0419 -0.0201
  0.0000  0.1702 -0.0930
  0.0000 -0.0088  0.0000
  0.0000  0.1702  0.0930
  0.0000 -0.0419  0.0201
  0.0000  0.0389  0.0222
  0.0000  0.0389 -0.0222
  0.0000  0.1407  0.0794
  0.0000 -0.5740  0.3199
  0.0000  0.0064  0.0000
  0.0000 -0.5740 -0.3199
  0.0000  0.1407 -0.0794
 Enter nber and list of atoms to keep of mol #2
 keep list:          14           1           2           3           4
           5           6           7           8           9          10
          11          12          13          14
 reordering atoms
           1   2.34010469626259     
           2  0.982597696262587     
           3  0.234692696262587     
           4  -1.15257130373741     
           5  -1.87756130373741     
           6  -1.15257130373741     
           7  0.234692696262587     
           8   2.85848069626259     
           9   2.85848069626259     
          10  0.799558696262587     
          11  -1.68368030373741     
          12  -2.97149330373741     
          13  -1.68368030373741     
          14  0.799558696262587     
           1           1
           2           2
           3           3
           4           4
           5           5
           6           6
           7           7
           8           8
           9           9
          10          10
          11          11
          12          12
          13          13
          14          14
 initial cartes coords mol 1
   7   0.00000   0.00000   2.33753
   6   0.00000   0.00000   0.95955
   6   0.00000  -1.20707   0.23848
   6   0.00000  -1.19943  -1.15121
   6   0.00000   0.00000  -1.86181
   6   0.00000   1.19943  -1.15121
   6   0.00000   1.20707   0.23848
   1   0.00000  -0.86004   2.85369
   1   0.00000   0.86004   2.85369
   1   0.00000  -2.14991   0.77669
   1   0.00000  -2.14469  -1.68361
   1   0.00000   0.00000  -2.94513
   1   0.00000   2.14469  -1.68361
   1   0.00000   2.14991   0.77669
 initial cartes coords mol 2
   7   0.00000   0.00000   2.34010
   6   0.00000   0.00000   0.98260
   6   0.00000  -1.20757   0.23469
   6   0.00000  -1.19320  -1.15257
   6   0.00000   0.00000  -1.87756
   6   0.00000   1.19320  -1.15257
   6   0.00000   1.20757   0.23469
   1   0.00000  -0.91004   2.85848
   1   0.00000   0.91004   2.85848
   1   0.00000  -2.14372   0.79956
   1   0.00000  -2.14725  -1.68368
   1   0.00000   0.00000  -2.97149
   1   0.00000   2.14725  -1.68368
   1   0.00000   2.14372   0.79956
 loop 1 0
 mod cartes coords mol 2
   7   0.00000   0.00000   2.34010
   6   0.00000   0.00000   0.98260
   6   0.00000  -1.20757   0.23469
   6   0.00000  -1.19320  -1.15257
   6   0.00000   0.00000  -1.87756
   6   0.00000   1.19320  -1.15257
   6   0.00000   1.20757   0.23469
   1   0.00000  -0.91004   2.85848
   1   0.00000   0.91004   2.85848
   1   0.00000  -2.14372   0.79956
   1   0.00000  -2.14725  -1.68368
   1   0.00000   0.00000  -2.97149
   1   0.00000   2.14725  -1.68368
   1   0.00000   2.14372   0.79956
 read in order, maxerr=  0.05 for atom   8
 final axis swaps:           1           1           1
 final xyz swap pattern=           1
 reorder list:
   1   2   3   4   5   6   7   8   9  10  11  12  13  14
 axis signs=           1           1           1
  7     0.000000  0.000000  2.340105     0.000000  0.000000  2.337531
  6     0.000000  0.000000  0.982598     0.000000  0.000000  0.959553
  6     0.000000 -1.207571  0.234693     0.000000 -1.207069  0.238475
  6     0.000000 -1.193195 -1.152571     0.000000 -1.199432 -1.151208
  6     0.000000  0.000000 -1.877561     0.000000  0.000000 -1.861807
  6     0.000000  1.193195 -1.152571     0.000000  1.199432 -1.151208
  6     0.000000  1.207571  0.234693     0.000000  1.207069  0.238475
  1     0.000000 -0.910037  2.858481     0.000000 -0.860039  2.853688
  1     0.000000  0.910037  2.858481     0.000000  0.860039  2.853688
  1     0.000000 -2.143716  0.799559     0.000000 -2.149909  0.776693
  1     0.000000 -2.147251 -1.683680     0.000000 -2.144693 -1.683615
  1     0.000000  0.000000 -2.971493     0.000000  0.000000 -2.945127
  1     0.000000  2.147251 -1.683680     0.000000  2.144693 -1.683615
  1     0.000000  2.143716  0.799559     0.000000  2.149909  0.776693
 generating redundant internal coords
         300        3600          14
 Adding extra bonds for z output only
           7           6           6           6           6           6
           6           1           1           1           1           1
           1           1
 search for int coords
   1 str   2   1   1.358
   2 str   3   2   1.420
   3 str   4   3   1.387
   4 str   5   4   1.396
   5 str   6   5   1.396
   6 str   7   2   1.420
   7 str   7   6   1.387
   8 str   8   1   1.047
   9 str   9   1   1.047
  10 str  10   3   1.093
  11 str  11   4   1.092
  12 str  12   5   1.094
  13 str  13   6   1.092
  14 str  14   7   1.093
 nber stretches=          14
  15 ben   1   2   3
  16 prop tor   1   2   3   4
  17 prop tor   1   2   3  10
  18 ben   1   2   7
  19 prop tor   1   2   7   6
  20 prop tor   1   2   7  14
  21 ben   2   1   8
  22 ben   2   1   9
  23 ben   2   3   4
  24 prop tor   2   3   4   5
  25 prop tor   2   3   4  11
  26 ben   2   3  10
  27 ben   2   7   6
  28 ben   2   7  14
  29 ben   3   2   7
  30 prop tor   3   2   7   6
  31 prop tor   3   2   7  14
  32 ben   3   4   5
  33 prop tor   3   4   5   6
  34 prop tor   3   4   5  12
  35 ben   3   4  11
  36 ben   4   3  10
  37 ben   4   5   6
  38 prop tor   4   5   6   7
  39 prop tor   4   5   6  13
  40 ben   4   5  12
  41 ben   5   4  11
  42 ben   5   6   7
  43 prop tor   5   6   7   2
  44 prop tor   5   6   7  14
  45 ben   5   6  13
  46 ben   6   5  12
  47 ben   6   7  14
  48 prop tor   7   2   3   4
  49 prop tor   7   2   3  10
  50 ben   7   6  13
  51 prop tor   8   1   2   3
  52 prop tor   8   1   2   7
  53 ben   8   1   9
  54 prop tor   9   1   2   3
  55 prop tor   9   1   2   7
  56 prop tor  10   3   4   5
  57 prop tor  10   3   4  11
  58 prop tor  11   4   5   6
  59 prop tor  11   4   5  12
  60 prop tor  12   5   6   7
  61 prop tor  12   5   6  13
  62 prop tor  13   6   7   2
  63 prop tor  13   6   7  14
 nber bend=              21
 nber lin bend=           0
 nber prop tor=          28
 nber impr tor=           0
 nber tot redund int=          63
 generating redundant internal coords
         300        3600          14
 search for int coords
   1 str   2   1   1.378
   2 str   3   2   1.406
   3 str   4   3   1.390
   4 str   5   4   1.394
   5 str   6   5   1.394
   6 str   7   2   1.406
   7 str   7   6   1.390
   8 str   8   1   1.003
   9 str   9   1   1.003
  10 str  10   3   1.086
  11 str  11   4   1.085
  12 str  12   5   1.083
  13 str  13   6   1.085
  14 str  14   7   1.086
 nber stretches=          14
  15 ben   1   2   3
  16 prop tor   1   2   3   4
  17 prop tor   1   2   3  10
  18 ben   1   2   7
  19 prop tor   1   2   7   6
  20 prop tor   1   2   7  14
  21 ben   2   1   8
  22 ben   2   1   9
  23 ben   2   3   4
  24 prop tor   2   3   4   5
  25 prop tor   2   3   4  11
  26 ben   2   3  10
  27 ben   2   7   6
  28 ben   2   7  14
  29 ben   3   2   7
  30 prop tor   3   2   7   6
  31 prop tor   3   2   7  14
  32 ben   3   4   5
  33 prop tor   3   4   5   6
  34 prop tor   3   4   5  12
  35 ben   3   4  11
  36 ben   4   3  10
  37 ben   4   5   6
  38 prop tor   4   5   6   7
  39 prop tor   4   5   6  13
  40 ben   4   5  12
  41 ben   5   4  11
  42 ben   5   6   7
  43 prop tor   5   6   7   2
  44 prop tor   5   6   7  14
  45 ben   5   6  13
  46 ben   6   5  12
  47 ben   6   7  14
  48 prop tor   7   2   3   4
  49 prop tor   7   2   3  10
  50 ben   7   6  13
  51 prop tor   8   1   2   3
  52 prop tor   8   1   2   7
  53 ben   8   1   9
  54 prop tor   9   1   2   3
  55 prop tor   9   1   2   7
  56 prop tor  10   3   4   5
  57 prop tor  10   3   4  11
  58 prop tor  11   4   5   6
  59 prop tor  11   4   5  12
  60 prop tor  12   5   6   7
  61 prop tor  12   5   6  13
  62 prop tor  13   6   7   2
  63 prop tor  13   6   7  14
 nber bend=              21
 nber lin bend=           0
 nber prop tor=          28
 nber impr tor=           0
 nber tot redund int=          63
 Eigenvalues of G in red int coords
    Gval -0.00000000 -0.00000000 -0.00000000 -0.00000000 -0.00000000 -0.00000000 -0.00000000 -0.00000000
    Gval -0.00000000 -0.00000000 -0.00000000 -0.00000000 -0.00000000  0.00000000  0.00000000  0.00000000
    Gval  0.00000000  0.00000000  0.00000000  0.00000000  0.00000000  0.00000000  0.00000000  0.00000000
    Gval  0.00000000  0.00000000  0.00000000  0.00002464  0.00003110  0.00004994  0.00006042  0.00006671
    Gval  0.00011073  0.00011883  0.00015849  0.00017686  0.00026923  0.00029590  0.00036594  0.00049953
    Gval  0.00055984  0.00056347  0.00059307  0.00059326  0.00060426  0.00061962  0.00066057  0.00072049
    Gval  0.00080228  0.00103942  0.00110633  0.00113649  0.00116746  0.00117264  0.00140858  0.00151752
    Gval  0.00163766  0.00180184  0.00209810  0.00234551  0.00312978  0.00372404  0.00406947
  2.463572424003859E-005  2.463572424003859E-005
  3.110218695650028E-005  2.463572424003859E-005
  4.993752877478313E-005  2.463572424003859E-005
  6.041924445306874E-005  2.463572424003859E-005
  6.670990495176697E-005  2.463572424003859E-005
  1.107332957925562E-004  2.463572424003859E-005
  1.188301649231214E-004  2.463572424003859E-005
  1.584895339521213E-004  2.463572424003859E-005
  1.768607470736145E-004  2.463572424003859E-005
  2.692345758818489E-004  2.463572424003859E-005
  2.958982303859253E-004  2.463572424003859E-005
  3.659350626370469E-004  2.463572424003859E-005
  4.995348813064281E-004  2.463572424003859E-005
  5.598432996859186E-004  2.463572424003859E-005
  5.634659735843087E-004  2.463572424003859E-005
  5.930676293575305E-004  2.463572424003859E-005
  5.932637572246744E-004  2.463572424003859E-005
  6.042567275181737E-004  2.463572424003859E-005
  6.196158746651478E-004  2.463572424003859E-005
  6.605656810874523E-004  2.463572424003859E-005
  7.204911350690032E-004  2.463572424003859E-005
  8.022839707874982E-004  2.463572424003859E-005
  1.039419398266715E-003  2.463572424003859E-005
  1.106332112186933E-003  2.463572424003859E-005
  1.136492823411222E-003  2.463572424003859E-005
  1.167458351174835E-003  2.463572424003859E-005
  1.172642761882498E-003  2.463572424003859E-005
  1.408584619261584E-003  2.463572424003859E-005
  1.517517043964414E-003  2.463572424003859E-005
  1.637660412875547E-003  2.463572424003859E-005
  1.801837209067845E-003  2.463572424003859E-005
  2.098095457337616E-003  2.463572424003859E-005
  2.345514689089126E-003  2.463572424003859E-005
  3.129781695203772E-003  2.463572424003859E-005
  3.724042574548354E-003  2.463572424003859E-005
  4.069465623124805E-003  2.463572424003859E-005
 cut=1d-8, nber non-redundant internal coords=          36
 Check on Eigenvals of non-red overlap matrix:
  0.00002464  0.00003110  0.00004994  0.00006042  0.00006671  0.00011073  0.00011883  0.00015849
  0.00017686  0.00026923  0.00029590  0.00036594  0.00049953  0.00055984  0.00056347  0.00059307
  0.00059326  0.00060426  0.00061962  0.00066057  0.00072049  0.00080228  0.00103942  0.00110633
  0.00113649  0.00116746  0.00117264  0.00140858  0.00151752  0.00163766  0.00180184  0.00209810
  0.00234551  0.00312978  0.00372404  0.00406947
 generating redundant internal coords
         300        3600          14
 search for int coords
   1 str   2   1   1.358
   2 str   3   2   1.420
   3 str   4   3   1.387
   4 str   5   4   1.396
   5 str   6   5   1.396
   6 str   7   2   1.420
   7 str   7   6   1.387
   8 str   8   1   1.047
   9 str   9   1   1.047
  10 str  10   3   1.093
  11 str  11   4   1.092
  12 str  12   5   1.094
  13 str  13   6   1.092
  14 str  14   7   1.093
 nber stretches=          14
  15 ben   1   2   3
  16 prop tor   1   2   3   4
  17 prop tor   1   2   3  10
  18 ben   1   2   7
  19 prop tor   1   2   7   6
  20 prop tor   1   2   7  14
  21 ben   2   1   8
  22 ben   2   1   9
  23 ben   2   3   4
  24 prop tor   2   3   4   5
  25 prop tor   2   3   4  11
  26 ben   2   3  10
  27 ben   2   7   6
  28 ben   2   7  14
  29 ben   3   2   7
  30 prop tor   3   2   7   6
  31 prop tor   3   2   7  14
  32 ben   3   4   5
  33 prop tor   3   4   5   6
  34 prop tor   3   4   5  12
  35 ben   3   4  11
  36 ben   4   3  10
  37 ben   4   5   6
  38 prop tor   4   5   6   7
  39 prop tor   4   5   6  13
  40 ben   4   5  12
  41 ben   5   4  11
  42 ben   5   6   7
  43 prop tor   5   6   7   2
  44 prop tor   5   6   7  14
  45 ben   5   6  13
  46 ben   6   5  12
  47 ben   6   7  14
  48 prop tor   7   2   3   4
  49 prop tor   7   2   3  10
  50 ben   7   6  13
  51 prop tor   8   1   2   3
  52 prop tor   8   1   2   7
  53 ben   8   1   9
  54 prop tor   9   1   2   3
  55 prop tor   9   1   2   7
  56 prop tor  10   3   4   5
  57 prop tor  10   3   4  11
  58 prop tor  11   4   5   6
  59 prop tor  11   4   5  12
  60 prop tor  12   5   6   7
  61 prop tor  12   5   6  13
  62 prop tor  13   6   7   2
  63 prop tor  13   6   7  14
 nber bend=              21
 nber lin bend=           0
 nber prop tor=          28
 nber impr tor=           0
 nber tot redund int=          63
 Eigenvalues of G in red int coords
    Gval -0.00000000 -0.00000000 -0.00000000 -0.00000000 -0.00000000 -0.00000000 -0.00000000 -0.00000000
    Gval -0.00000000 -0.00000000 -0.00000000 -0.00000000 -0.00000000 -0.00000000 -0.00000000  0.00000000
    Gval  0.00000000  0.00000000  0.00000000  0.00000000  0.00000000  0.00000000  0.00000000  0.00000000
    Gval  0.00000000  0.00000000  0.00000000  0.00002453  0.00003124  0.00005019  0.00006002  0.00006669
    Gval  0.00011112  0.00011880  0.00015777  0.00018097  0.00026654  0.00029401  0.00036293  0.00050960
    Gval  0.00055175  0.00056184  0.00059305  0.00059314  0.00060405  0.00061894  0.00065966  0.00071095
    Gval  0.00076983  0.00102333  0.00108977  0.00112188  0.00115248  0.00115623  0.00136597  0.00139171
    Gval  0.00155672  0.00165759  0.00197015  0.00228542  0.00309326  0.00367229  0.00402279
  2.453192459664088E-005  2.453192459664088E-005
  3.123748893549962E-005  2.453192459664088E-005
  5.019196032617676E-005  2.453192459664088E-005
  6.002415846807423E-005  2.453192459664088E-005
  6.668789202390906E-005  2.453192459664088E-005
  1.111248747053158E-004  2.453192459664088E-005
  1.187996080856663E-004  2.453192459664088E-005
  1.577705987813159E-004  2.453192459664088E-005
  1.809731798143905E-004  2.453192459664088E-005
  2.665388964020007E-004  2.453192459664088E-005
  2.940119472821257E-004  2.453192459664088E-005
  3.629320395587328E-004  2.453192459664088E-005
  5.096009612266527E-004  2.453192459664088E-005
  5.517453416904679E-004  2.453192459664088E-005
  5.618357778578801E-004  2.453192459664088E-005
  5.930479937689707E-004  2.453192459664088E-005
  5.931446349679781E-004  2.453192459664088E-005
  6.040469433007840E-004  2.453192459664088E-005
  6.189367063481930E-004  2.453192459664088E-005
  6.596583925334863E-004  2.453192459664088E-005
  7.109463148004639E-004  2.453192459664088E-005
  7.698293113027003E-004  2.453192459664088E-005
  1.023328340772558E-003  2.453192459664088E-005
  1.089774316317597E-003  2.453192459664088E-005
  1.121884237249620E-003  2.453192459664088E-005
  1.152478780818452E-003  2.453192459664088E-005
  1.156225528474197E-003  2.453192459664088E-005
  1.365968164704508E-003  2.453192459664088E-005
  1.391706786094214E-003  2.453192459664088E-005
  1.556721254517331E-003  2.453192459664088E-005
  1.657594545539446E-003  2.453192459664088E-005
  1.970151010844988E-003  2.453192459664088E-005
  2.285422311347719E-003  2.453192459664088E-005
  3.093256478145961E-003  2.453192459664088E-005
  3.672288083352738E-003  2.453192459664088E-005
  4.022786024834682E-003  2.453192459664088E-005
 cut=1d-8, nber non-redundant internal coords=          36
 Check on Eigenvals of non-red overlap matrix:
  0.00002453  0.00003124  0.00005019  0.00006002  0.00006669  0.00011112  0.00011880  0.00015777
  0.00018097  0.00026654  0.00029401  0.00036293  0.00050960  0.00055175  0.00056184  0.00059305
  0.00059314  0.00060405  0.00061894  0.00065966  0.00071095  0.00076983  0.00102333  0.00108977
  0.00112188  0.00115248  0.00115623  0.00136597  0.00139171  0.00155672  0.00165759  0.00197015
  0.00228542  0.00309326  0.00367229  0.00402279
 d1=
  -1.9  -0.0   0.3   0.0   1.8   1.0  -0.0  -0.0   0.0  -2.9  -0.0   0.4   0.0  -0.0  -2.8  -0.5  -0.0   0.6   0.0   0.2
   0.0   0.0   0.0  -1.8   0.0  -1.5   0.0  -0.0   0.0   0.0  -1.2   0.0   0.0  -0.0   0.0  -0.0
 d2=
  -1.9  -0.0   0.4  -0.0   1.9  -1.0  -0.0   0.0  -0.0  -2.9   0.0  -0.4  -0.0  -0.0   2.8   0.5  -0.0   0.6  -0.0  -0.2
  -0.0  -0.0   0.0   1.8  -0.0   1.5   0.0  -0.0  -0.0  -0.0   1.2  -0.0   0.0   0.0  -0.0   0.0
 curvilinear- renormalizn of Dush matrix done
  mol 1 sym            1  -> mol 2 sym            1
  mol 1 sym            2  -> mol 2 sym            2
  mol 1 sym            3  -> mol 2 sym            3
  mol 1 sym            4  -> mol 2 sym            4

 Dushinsky matrix, ncs 2 in terms of ncs 1

   mode   freq    coeff     %      %tot     of    at

   1 A1     -0. -0.0000     0.0     0.0  13 A1    540.
   2 B2     -0.  0.0000     0.0     0.0  10 B2    379.
   3 B1     -0.  0.0000     0.0     0.0   8 B1    219.
   4 B1      0. -0.0000     0.0     0.0   8 B1    219.
   5 A2      0.  0.0000     0.0     0.0  11 A2    419.
   6 B2      0.  0.0000     0.0     0.0  14 B2    636.
   7 B1    212.  0.9949    99.0   101.0   8 B1    219.
   8 B2    370. -0.9985    99.7   100.9  10 B2    379.
   9 B1    426. -0.6121    37.5    97.9   1 B1   -439.
                 0.7495    56.2          12 B1    515.
  10 A2    427.  0.9957    99.1   102.3  11 A2    419.
  11 A1    523.  0.9988    99.8    98.8  13 A1    540.
  12 A2    535.  0.9922    98.4    89.6   9 A2    345.
  13 B2    623. -0.9992    99.8   100.5  14 B2    636.
  14 B1    633.  0.4799    23.0    97.3  12 B1    515.
                 0.4377    19.2          15 B1    703.
                -0.6439    41.5          16 B1    758.
  15 B1    705. -0.8798    77.4    99.7  15 B1    703.
                -0.4360    19.0          16 B1    758.
  16 A2    815. -0.9865    97.3    97.5  17 A2    815.
  17 A1    822.  0.9974    99.5    99.2  18 A1    836.
  18 B1    837.  0.4585    21.0    98.1  16 B1    758.
                -0.8079    65.3          19 B1    869.
  19 B1    934. -0.4642    21.5    98.8  19 B1    869.
                -0.8520    72.6          21 B1    975.
  20 A2    959.  0.9912    98.2    98.7  20 A2    955.
  21 A1    965.  0.9976    99.5    99.8  22 A1   1006.
  22 B2   1013. -0.9819    96.4    95.1  23 B2   1023.
  23 A1   1036. -0.9979    99.6    99.6  24 A1   1048.
  24 B2   1101. -0.9717    94.4    97.3  25 B2   1121.
  25 B2   1147. -0.9806    96.2    98.6  26 B2   1178.
  26 A1   1171.  0.9945    98.9    99.3  27 A1   1200.
  27 A1   1296.  0.8448    71.4    96.2  28 A1   1327.
                 0.4649    21.6          34 A1   1641.
  28 B2   1336. -0.8371    70.1    98.9  29 B2   1342.
                 0.5243    27.5          30 B2   1364.
  29 B2   1346.  0.5236    27.4    99.1  29 B2   1342.
                 0.8460    71.6          30 B2   1364.
  30 A1   1363.  0.5378    28.9    96.0  28 A1   1327.
                -0.6772    45.9          34 A1   1641.
                 0.4405    19.4          35 A1   1661.
  31 B1   1402. -0.6559    43.0    94.2   1 B1   -439.
                -0.4474    20.0          12 B1    515.
                -0.3661    13.4          16 B1    758.
                 0.3690    13.6          21 B1    975.
  32 B2   1482.  0.9888    97.8    99.0  31 B2   1499.
  33 A1   1506. -0.9187    84.4    99.0  32 A1   1534.
                 0.3729    13.9          35 A1   1661.
  34 B2   1584. -0.9968    99.4    99.3  33 B2   1621.
  35 A1   1600.  0.5190    26.9    99.9  34 A1   1641.
                 0.7883    62.1          35 A1   1661.
  36 A1   2487. -0.9080    82.5    99.7  41 A1   3638.
  37 B2   2669.  0.9958    99.2   100.3  42 B2   3759.
  38 A1   3004.  0.5665    32.1   100.0  38 A1   3165.
                 0.7592    57.6          40 A1   3189.
  39 A1   3009. -0.8471    71.8   100.0  36 A1   3148.
                 0.4740    22.5          38 A1   3165.
  40 B2   3017. -0.7788    60.7   100.0  37 B2   3149.
                 0.6255    39.1          39 B2   3170.
  41 A1   3052. -0.4335    18.8   100.0  36 A1   3148.
                -0.6562    43.1          38 A1   3165.
                 0.5797    33.6          40 A1   3189.
  42 B2   3058. -0.6267    39.3   100.0  37 B2   3149.
                -0.7764    60.3          39 B2   3170.
 nber times 1st assigned=           1           0
 nber times 1st assigned=           2           0
 nber times 1st assigned=           3           0
 nber times 1st assigned=           4           0
 nber times 1st assigned=           5           0
 nber times 1st assigned=           6           0
 nber times 1st assigned=           7           0
 nber times 1st assigned=           8           2
 nber times 1st assigned=           9           0
 nber times 1st assigned=          12           0
 nber times 1st assigned=          15           0
 nber times 1st assigned=          16           0
 nber times 1st assigned=          17           0
 nber times 1st assigned=          18           0
 nber times 1st assigned=          19           0
 nber times 1st assigned=          20           0
 nber times 1st assigned=          21           0
 nber times 1st assigned=          22           0
 nber times 1st assigned=          23           0
 nber times 1st assigned=          24           0
 nber times 1st assigned=          25           0
 nber times 1st assigned=          26           0
 nber times 1st assigned=          27           0
 nber times 1st assigned=          28           0
 nber times 1st assigned=          29           0
 nber times 1st assigned=          30           0
 nber times 1st assigned=          31           0
 nber times 1st assigned=          32           0
 nber times 1st assigned=          33           0
 nber times 1st assigned=          34           0
 nber times 1st assigned=          35           0
 nber times 1st assigned=          36           0
 nber times 1st assigned=          37           0
 nber times 1st assigned=          38           0
 nber times 1st assigned=          39           0
 nber times 1st assigned=          40           0
 nber times 1st assigned=          41           0
 nber times 1st assigned=          42           0
 Dushinsky matrix written to .out file
 modes represented=   35.5185065098202     

 Dushinsky matrix, ncs 1 in terms of ncs 2

   mode   freq    coeff     %      %tot     of    at

   1 B1   -439. -0.6121    37.5    89.4   9 B1    426.
                -0.6559    43.0          31 B1   1402.
   8 B1    219.  0.9949    99.0   102.1   7 B1    212.
   9 A2    345.  0.9922    98.4    89.9  12 A2    535.
  10 B2    379. -0.9985    99.7   100.8   8 B2    370.
  11 A2    419.  0.9957    99.1   102.0  10 A2    427.
  12 B1    515.  0.7495    56.2    99.5   9 B1    426.
                 0.4799    23.0          14 B1    633.
                -0.4474    20.0          31 B1   1402.
  13 A1    540.  0.9988    99.8    99.0  11 A1    523.
  14 B2    636. -0.9992    99.8   100.5  13 B2    623.
  15 B1    703.  0.4377    19.2    99.6  14 B1    633.
                -0.8798    77.4          15 B1    705.
  16 B1    758. -0.6439    41.5    98.6  14 B1    633.
                -0.4360    19.0          15 B1    705.
                 0.4585    21.0          18 B1    837.
                -0.3661    13.4          31 B1   1402.
  17 A2    815. -0.9865    97.3    97.5  16 A2    815.
  18 A1    836.  0.9974    99.5    99.1  17 A1    822.
  19 B1    869. -0.8079    65.3    99.0  18 B1    837.
                -0.4642    21.5          19 B1    934.
  20 A2    955.  0.9912    98.2    98.7  20 A2    959.
  21 B1    975. -0.8520    72.6    98.8  19 B1    934.
                 0.3690    13.6          31 B1   1402.
  22 A1   1006.  0.9976    99.5    99.7  21 A1    965.
  23 B2   1023. -0.9819    96.4    94.4  22 B2   1013.
  24 A1   1048. -0.9979    99.6    99.7  23 A1   1036.
  25 B2   1121. -0.9717    94.4    98.2  24 B2   1101.
  26 B2   1178. -0.9806    96.2    98.7  25 B2   1147.
  27 A1   1200.  0.9945    98.9    99.3  26 A1   1171.
  28 A1   1327.  0.8448    71.4    99.3  27 A1   1296.
                 0.5378    28.9          30 A1   1363.
  29 B2   1342. -0.8371    70.1    99.5  28 B2   1336.
                 0.5236    27.4          29 B2   1346.
  30 B2   1364.  0.5243    27.5    98.6  28 B2   1336.
                 0.8460    71.6          29 B2   1346.
  31 B2   1499.  0.9888    97.8    98.9  32 B2   1482.
  32 A1   1534. -0.9187    84.4    99.2  33 A1   1506.
  33 B2   1621. -0.9968    99.4    99.4  34 B2   1584.
  34 A1   1641.  0.4649    21.6    94.8  27 A1   1296.
                -0.6772    45.9          30 A1   1363.
                 0.5190    26.9          35 A1   1600.
  35 A1   1661.  0.4405    19.4    97.6  30 A1   1363.
                 0.3729    13.9          33 A1   1506.
                 0.7883    62.1          35 A1   1600.
  36 A1   3148. -0.8471    71.8   100.0  39 A1   3009.
                -0.4335    18.8          41 A1   3052.
  37 B2   3149. -0.7788    60.7   100.0  40 B2   3017.
                -0.6267    39.3          42 B2   3058.
  38 A1   3165.  0.5665    32.1   100.0  38 A1   3004.
                 0.4740    22.5          39 A1   3009.
                -0.6562    43.1          41 A1   3052.
  39 B2   3170.  0.6255    39.1   100.0  40 B2   3017.
                -0.7764    60.3          42 B2   3058.
  40 A1   3189.  0.7592    57.6   100.0  38 A1   3004.
                 0.5797    33.6          41 A1   3052.
  41 A1   3638. -0.9080    82.5    99.7  36 A1   2487.
  42 B2   3759.  0.9958    99.2   100.3  37 B2   2669.
 nber times 1st assigned=           1           0
 nber times 1st assigned=           2           0
 nber times 1st assigned=           3           0
 nber times 1st assigned=           4           0
 nber times 1st assigned=           5           0
 nber times 1st assigned=           6           0
 nber times 1st assigned=           7           0
 nber times 1st assigned=           8           0
 nber times 1st assigned=           9           0
 nber times 1st assigned=          10           0
 nber times 1st assigned=          11           0
 nber times 1st assigned=          12           0
 nber times 1st assigned=          13           0
 nber times 1st assigned=          14           0
 nber times 1st assigned=          15           0
 nber times 1st assigned=          16           0
 nber times 1st assigned=          17           0
 nber times 1st assigned=          18           0
 nber times 1st assigned=          19           0
 nber times 1st assigned=          20           0
 nber times 1st assigned=          21           0
 nber times 1st assigned=          22           0
 nber times 1st assigned=          23           0
 nber times 1st assigned=          24           0
 nber times 1st assigned=          25           0
 nber times 1st assigned=          26           0
 nber times 1st assigned=          27           0
 nber times 1st assigned=          28           0
 nber times 1st assigned=          29           0
 nber times 1st assigned=          30           0
 nber times 1st assigned=          31           0
 nber times 1st assigned=          32           0
 nber times 1st assigned=          33           0
 nber times 1st assigned=          34           0
 nber times 1st assigned=          35           0
 nber times 1st assigned=          36           0
 nber times 1st assigned=          37           0
 nber times 1st assigned=          38           0
 nber times 1st assigned=          39           0
 nber times 1st assigned=          40           0
 nber times 1st assigned=          41           0
 nber times 1st assigned=          42           0
 modes represented=   35.5185065098202     
 p1=
    0.   -0.    0.   -0.    0.    0.   -0.   -0.   -0.    0.   -0.   -0.    3.   -0.    0.   -0.   -0.    1.   -0.   -0.
   -0.    1.    0.   -1.   -0.    0.    1.    1.   -0.   -0.    0.   -2.   -0.    2.    1.    0.   -0.   -0.    0.    1.
    3.   -0.
 p2=
    0.   -0.    0.    0.   -0.    0.   -0.    0.    0.    0.   -3.    0.   -0.    0.   -0.   -0.   -1.    0.   -0.    0.
   -1.    0.   -1.    0.   -0.   -1.   -2.    0.    0.    1.   -0.    0.   -2.    0.   -1.    1.    0.   -1.    1.   -0.
   -1.    0.

 Displacement: in terms of nc of 1 THEN of nc of 2

   1 B1  freq=  -439. Q=  0.000 lam=    -0.0 A1  freq=    -0. Q=  0.000 lam=    -0.0
   2 A1  freq=    -0. Q= -0.000 lam=    -0.0 B2  freq=    -0. Q= -0.000 lam=    -0.0
   3 B2  freq=    -0. Q=  0.000 lam=    -0.0 B1  freq=    -0. Q=  0.000 lam=    -0.0
   4 A2  freq=    -0. Q= -0.000 lam=    -0.0 B1  freq=     0. Q= -0.000 lam=     0.0
   5 B2  freq=    -0. Q=  0.000 lam=    -0.0 A2  freq=     0. Q=  0.000 lam=     0.0
   6 B1  freq=    -0. Q=  0.000 lam=    -0.0 B2  freq=     0. Q=  0.000 lam=     0.0
   7 B1  freq=    -0. Q= -0.000 lam=    -0.0 B1  freq=   212. Q= -0.000 lam=     0.0
   8 B1  freq=   219. Q= -0.000 lam=     0.0 B2  freq=   370. Q= -0.000 lam=     0.0
   9 A2  freq=   345. Q= -0.000 lam=     0.0 B1  freq=   426. Q= -0.000 lam=     0.0
  10 B2  freq=   379. Q=  0.000 lam=     0.0 A2  freq=   427. Q=  0.000 lam=     0.0
  11 A2  freq=   419. Q= -0.000 lam=     0.0 A1  freq=   523. Q= -0.291 lam=    22.1
  12 B1  freq=   515. Q= -0.000 lam=     0.0 A2  freq=   535. Q= -0.000 lam=     0.0
  13 A1  freq=   540. Q=  0.286 lam=    22.0 B2  freq=   623. Q=  0.000 lam=     0.0
  14 B2  freq=   636. Q= -0.000 lam=     0.0 B1  freq=   633. Q= -0.000 lam=     0.0
  15 B1  freq=   703. Q=  0.000 lam=     0.0 B1  freq=   705. Q=  0.000 lam=     0.0
  16 B1  freq=   758. Q= -0.000 lam=     0.0 A2  freq=   815. Q= -0.000 lam=     0.0
  17 A2  freq=   815. Q= -0.000 lam=     0.0 A1  freq=   822. Q= -0.059 lam=     1.4
  18 A1  freq=   836. Q=  0.069 lam=     2.0 B1  freq=   837. Q=  0.000 lam=     0.0
  19 B1  freq=   869. Q= -0.000 lam=     0.0 B1  freq=   934. Q= -0.000 lam=     0.0
  20 A2  freq=   955. Q= -0.000 lam=     0.0 A2  freq=   959. Q= -0.000 lam=     0.0
  21 B1  freq=   975. Q= -0.000 lam=     0.0 A1  freq=   965. Q= -0.176 lam=    15.0
  22 A1  freq=  1006. Q=  0.164 lam=    13.5 B2  freq=  1013. Q=  0.000 lam=     0.0
  23 B2  freq=  1023. Q=  0.000 lam=     0.0 A1  freq=  1036. Q=  0.130 lam=     8.8
  24 A1  freq=  1048. Q= -0.112 lam=     6.5 B2  freq=  1101. Q= -0.000 lam=     0.0
  25 B2  freq=  1121. Q= -0.000 lam=     0.0 B2  freq=  1147. Q= -0.000 lam=     0.0
  26 B2  freq=  1178. Q=  0.000 lam=     0.0 A1  freq=  1171. Q=  0.126 lam=     9.3
  27 A1  freq=  1200. Q=  0.123 lam=     9.0 A1  freq=  1296. Q=  0.362 lam=    84.9
  28 A1  freq=  1327. Q=  0.180 lam=    21.6 B2  freq=  1336. Q=  0.000 lam=     0.0
  29 B2  freq=  1342. Q= -0.000 lam=     0.0 B2  freq=  1346. Q= -0.000 lam=     0.0
  30 B2  freq=  1364. Q= -0.000 lam=     0.0 A1  freq=  1363. Q= -0.126 lam=    10.9
  31 B2  freq=  1499. Q=  0.000 lam=     0.0 B1  freq=  1402. Q=  0.000 lam=     0.0
  32 A1  freq=  1534. Q= -0.331 lam=    83.8 B2  freq=  1482. Q= -0.000 lam=     0.0
  33 B2  freq=  1621. Q= -0.000 lam=     0.0 A1  freq=  1506. Q= -0.348 lam=    91.4
  34 A1  freq=  1641. Q=  0.349 lam=   100.2 B2  freq=  1584. Q=  0.000 lam=     0.0
  35 A1  freq=  1661. Q=  0.182 lam=    27.5 A1  freq=  1600. Q=  0.224 lam=    40.0
  36 A1  freq=  3148. Q=  0.038 lam=     2.2 A1  freq=  2487. Q=  0.300 lam=   112.0
  37 B2  freq=  3149. Q= -0.000 lam=     0.0 B2  freq=  2669. Q= -0.000 lam=     0.0
  38 A1  freq=  3165. Q= -0.056 lam=     4.9 A1  freq=  3004. Q= -0.199 lam=    59.8
  39 B2  freq=  3170. Q=  0.000 lam=     0.0 A1  freq=  3009. Q=  0.179 lam=    48.4
  40 A1  freq=  3189. Q=  0.145 lam=    33.7 B2  freq=  3017. Q=  0.000 lam=     0.0
  41 A1  freq=  3638. Q=  0.646 lam=   759.2 A1  freq=  3052. Q=  0.223 lam=    75.7
  42 B2  freq=  3759. Q= -0.000 lam=     0.0 B2  freq=  3058. Q= -0.000 lam=     0.0

 total reorg energy (cm**-1, kcal/mol)=     1086.      580.      3.11      1.66
 Nber of molecules processed=           2
