 Enter ifcurve (0=recti, 1=orth curvi, 2=apprx curvi, -1 = skip
 And atom ordering flag, 0= never changes, 1= use the first order thenceforth,
  2= deduce it (does read on fail), 3= always read it
 Reading file: 
 ./conjugated_carbonyls_3_C0S0.log                                              
                                          
  Entering Gaussian System, Link 0=g16                                          
  
 Gaussian format, type: g94, g98, g03= F F F
  #P Geom=AllCheck Guess=TCheck SCRF=Check Test GenChk RB3LYP/6-311G(d,p    
 energy type= B3LYP   
 Original G94 input coords:
  8  1.363872 -3.241482  0.000000
  6  0.774434 -2.183936 -0.000002
  6 -0.774434 -2.183936  0.000002
  8 -1.363872 -3.241482  0.000000
  6 -1.464708 -0.870129  0.000000
  6 -2.864388 -0.871146  0.000000
  6 -3.574096  0.319070  0.000000
  6 -2.873340  1.525088  0.000000
  6 -1.483544  1.535933  0.000000
  6 -0.742396  0.344520  0.000000
  6  0.742396  0.344520  0.000000
  6  1.483544  1.535933  0.000000
  6  2.873340  1.525088  0.000000
  6  3.574096  0.319070  0.000000
  6  2.864388 -0.871146  0.000000
  6  1.464708 -0.870129  0.000000
  1 -3.367417 -1.830241  0.000001
  1 -4.657587  0.312973  0.000000
  1 -3.411718  2.466109 -0.000001
  1 -0.980437  2.493241  0.000000
  1  0.980437  2.493241  0.000000
  1  3.411718  2.466109  0.000001
  1  4.657587  0.312973  0.000000
  1  3.367417 -1.830241 -0.000001
 nber atoms=          24
  SCF Done:  E(RB3LYP) =  -688.925185200     A.U. after    1 cycles             
  
          23          40 "  -688.925185200"
After scan for Atom:   Atom  AN      X      Y      Z        X      Y      Z        X      Y      Z   
After scan for Atom:   Atom  AN      X      Y      Z        X      Y      Z        X      Y      Z   
After scan for Atom:   Atom  AN      X      Y      Z        X      Y      Z        X      Y      Z   
After scan for Atom:   Atom  AN      X      Y      Z        X      Y      Z        X      Y      Z   
After scan for Atom:   Atom  AN      X      Y      Z        X      Y      Z        X      Y      Z   
After scan for Atom:   Atom  AN      X      Y      Z        X      Y      Z        X      Y      Z   
After scan for Atom:   Atom  AN      X      Y      Z        X      Y      Z        X      Y      Z   
After scan for Atom:   Atom  AN      X      Y      Z        X      Y      Z        X      Y      Z   
After scan for Atom:   Atom  AN      X      Y      Z        X      Y      Z        X      Y      Z   
After scan for Atom:   Atom  AN      X      Y      Z        X      Y      Z        X      Y      Z   
After scan for Atom:   Atom  AN      X      Y      Z        X      Y      Z        X      Y      Z   
After scan for Atom:   Atom  AN      X      Y      Z        X      Y      Z        X      Y      Z   
After scan for Atom:   Atom  AN      X      Y      Z        X      Y      Z        X      Y      Z   
After scan for Atom:   Atom  AN      X      Y      Z        X      Y      Z        X      Y      Z   
After scan for Atom:   Atom  AN      X      Y      Z        X      Y      Z        X      Y      Z   
After scan for Atom:   Atom  AN      X      Y      Z        X      Y      Z        X      Y      Z   
After scan for Atom:   Atom  AN      X      Y      Z        X      Y      Z        X      Y      Z   
After scan for Atom:   Atom  AN      X      Y      Z        X      Y      Z        X      Y      Z   
After scan for Atom:   Atom  AN      X      Y      Z        X      Y      Z        X      Y      Z   
After scan for Atom:   Atom  AN      X      Y      Z        X      Y      Z        X      Y      Z   
After scan for Atom:   Atom  AN      X      Y      Z        X      Y      Z        X      Y      Z   
After scan for Atom:   Atom  AN      X      Y      Z        X      Y      Z        X      Y      Z   
 g94    frequencies=
     0.0    0.0    0.0    0.0    0.0    0.0   25.0   84.6  101.7  151.9
   243.0  259.0  318.7  366.1  386.1  389.2  401.2  430.6  448.9  463.2
   555.6  566.1  616.5  630.7  682.7  692.6  718.0  744.1  781.2  796.2
   797.0  843.9  897.1  905.4  937.0  981.7  988.2 1015.9 1016.3 1021.6
  1021.8 1072.2 1080.3 1113.6 1140.5 1186.3 1193.8 1239.3 1249.4 1289.7
  1301.7 1312.1 1333.5 1358.0 1471.3 1481.9 1508.2 1527.4 1601.9 1621.9
  1634.0 1641.4 1751.6 1776.5 3170.5 3171.5 3185.4 3186.9 3197.5 3201.6
  3202.3 3213.5
 g94    symmetries=
                                                 A      A      A      A
       A      A      A      A      A      A      A      A      A      A
       A      A      A      A      A      A      A      A      A      A
       A      A      A      A      A      A      A      A      A      A
       A      A      A      A      A      A      A      A      A      A
       A      A      A      A      A      A      A      A      A      A
       A      A      A      A      A      A      A      A      A      A
       A      A
 atomic masses:
 15.9949 12.0000 12.0000 15.9949 12.0000 12.0000 12.0000 12.0000 12.0000 12.0000
 12.0000 12.0000 12.0000 12.0000 12.0000 12.0000  1.0078  1.0078  1.0078  1.0078
  1.0078  1.0078  1.0078  1.0078
 looking for force constants in 
 ./conjugated_carbonyls_3_C0S0.fchk                                             
  
 Cartesian Force Constants                  R   N=        2628                  
  
 n3=          72        2628
 g94-fc frequencies=
    -4.1   -4.1   -1.9   -0.0   -0.0    0.0   25.0   84.6  101.7  151.9
   243.0  259.0  318.7  366.1  386.1  389.2  401.2  430.6  448.9  463.2
   555.6  566.1  616.5  630.7  682.7  692.6  718.0  744.2  781.2  796.3
   797.0  843.9  897.1  905.5  937.0  981.7  988.3 1015.9 1016.3 1021.7
  1021.9 1072.2 1080.3 1113.6 1140.5 1186.3 1193.9 1239.4 1249.4 1289.7
  1301.7 1312.1 1333.6 1358.0 1471.4 1481.9 1508.2 1527.5 1601.9 1621.9
  1634.0 1641.4 1751.7 1776.6 3170.5 3171.6 3185.4 3187.0 3197.6 3201.6
  3202.4 3213.6
 at 99999: n3=          72
 symm operator            1 :  F  nop=           0
 symm operator            2 :  T  nop=           1
 symm operator            3 :  F  nop=           1
 symm operator            4 :  F  nop=           1
 symm operator            5 :  T  nop=           2
 symm operator            6 :  F  nop=           2
 symm operator            7 :  T  nop=           3
 swap           2           3
   1   1.36387   0.00000  -3.24148
   2   0.77443  -0.00000  -2.18394
   3  -0.77443   0.00000  -2.18394
   4  -1.36387   0.00000  -3.24148
   5  -1.46471   0.00000  -0.87013
   6  -2.86439   0.00000  -0.87115
   7  -3.57410   0.00000   0.31907
   8  -2.87334   0.00000   1.52509
   9  -1.48354   0.00000   1.53593
  10  -0.74240   0.00000   0.34452
  11   0.74240   0.00000   0.34452
  12   1.48354   0.00000   1.53593
  13   2.87334   0.00000   1.52509
  14   3.57410   0.00000   0.31907
  15   2.86439   0.00000  -0.87115
  16   1.46471   0.00000  -0.87013
  17  -3.36742   0.00000  -1.83024
  18  -4.65759   0.00000   0.31297
  19  -3.41172  -0.00000   2.46611
  20  -0.98044   0.00000   2.49324
  21   0.98044   0.00000   2.49324
  22   3.41172   0.00000   2.46611
  23   4.65759   0.00000   0.31297
  24   3.36742  -0.00000  -1.83024
 The point group of the molecule is C2V
 enforcing symm op           1  jsymt=          -1          -1           1
 enforcing symm op           6  jsymt=           1          -1           1
 enforcing symm op           7  jsymt=          -1           1           1
 cartesian coord symmetries:
 A1 :   24 A2 :   12 B1 :   24 B2 :   12
 Symmetry rotation matrix:
   1.00000   0.00000   0.00000
   0.00000   0.00000   1.00000
   0.00000  -1.00000   0.00000

 Projecting out zero-frequency components
 generating redundant internal coords
         300        3600          24
 search for int coords
   1 str   2   1   1.211
   2 str   3   2   1.549
   3 str   4   3   1.211
   4 str   5   3   1.484
   5 str   6   5   1.400
   6 str   7   6   1.386
   7 str   8   7   1.395
   8 str   9   8   1.390
   9 str  10   5   1.413
  10 str  10   9   1.403
  11 str  11  10   1.485
  12 str  12  11   1.403
  13 str  13  12   1.390
  14 str  14  13   1.395
  15 str  15  14   1.386
  16 str  16   2   1.484
  17 str  16  11   1.413
  18 str  16  15   1.400
  19 str  17   6   1.083
  20 str  18   7   1.084
  21 str  19   8   1.084
  22 str  20   9   1.081
  23 str  21  12   1.081
  24 str  22  13   1.084
  25 str  23  14   1.084
  26 str  24  15   1.083
 nber stretches=          26
  27 ben   1   2   3
  28 prop tor   1   2   3   4
  29 prop tor   1   2   3   5
  30 ben   1   2  16
  31 prop tor   1   2  16  11
  32 prop tor   1   2  16  15
  33 ben   2   3   4
  34 ben   2   3   5
  35 prop tor   2   3   5   6
  36 prop tor   2   3   5  10
  37 ben   2  16  11
  38 ben   2  16  15
  39 ben   3   2  16
  40 prop tor   3   2  16  11
  41 prop tor   3   2  16  15
  42 ben   3   5   6
  43 prop tor   3   5   6   7
  44 prop tor   3   5   6  17
  45 ben   3   5  10
  46 prop tor   3   5  10   9
  47 prop tor   3   5  10  11
  48 ben   4   3   5
  49 prop tor   4   3   5   6
  50 prop tor   4   3   5  10
  51 ben   5   6   7
  52 prop tor   5   6   7   8
  53 prop tor   5   6   7  18
  54 ben   5   6  17
  55 ben   5  10   9
  56 ben   5  10  11
  57 prop tor   5  10  11  12
  58 prop tor   5  10  11  16
  59 ben   6   5  10
  60 prop tor   6   5  10   9
  61 prop tor   6   5  10  11
  62 ben   6   7   8
  63 prop tor   6   7   8   9
  64 prop tor   6   7   8  19
  65 ben   6   7  18
  66 ben   7   6  17
  67 ben   7   8   9
  68 prop tor   7   8   9  10
  69 prop tor   7   8   9  20
  70 ben   7   8  19
  71 ben   8   7  18
  72 ben   8   9  10
  73 prop tor   8   9  10   5
  74 prop tor   8   9  10  11
  75 ben   8   9  20
  76 ben   9   8  19
  77 ben   9  10  11
  78 prop tor   9  10  11  12
  79 prop tor   9  10  11  16
  80 prop tor  10   5   6   7
  81 prop tor  10   5   6  17
  82 ben  10   9  20
  83 ben  10  11  12
  84 prop tor  10  11  12  13
  85 prop tor  10  11  12  21
  86 ben  10  11  16
  87 prop tor  10  11  16   2
  88 prop tor  10  11  16  15
  89 ben  11  12  13
  90 prop tor  11  12  13  14
  91 prop tor  11  12  13  22
  92 ben  11  12  21
  93 ben  11  16  15
  94 ben  12  11  16
  95 prop tor  12  11  16   2
  96 prop tor  12  11  16  15
  97 ben  12  13  14
  98 prop tor  12  13  14  15
  99 prop tor  12  13  14  23
 100 ben  12  13  22
 101 ben  13  12  21
 102 ben  13  14  15
 103 prop tor  13  14  15  16
 104 prop tor  13  14  15  24
 105 ben  13  14  23
 106 ben  14  13  22
 107 ben  14  15  16
 108 prop tor  14  15  16   2
 109 prop tor  14  15  16  11
 110 ben  14  15  24
 111 ben  15  14  23
 112 prop tor  16   2   3   4
 113 prop tor  16   2   3   5
 114 prop tor  16  11  12  13
 115 prop tor  16  11  12  21
 116 ben  16  15  24
 117 prop tor  17   6   7   8
 118 prop tor  17   6   7  18
 119 prop tor  18   7   8   9
 120 prop tor  18   7   8  19
 121 prop tor  19   8   9  10
 122 prop tor  19   8   9  20
 123 prop tor  20   9  10   5
 124 prop tor  20   9  10  11
 125 prop tor  21  12  13  14
 126 prop tor  21  12  13  22
 127 prop tor  22  13  14  15
 128 prop tor  22  13  14  23
 129 prop tor  23  14  15  16
 130 prop tor  23  14  15  24
 131 prop tor  24  15  16   2
 132 prop tor  24  15  16  11
 nber bend=              42
 nber lin bend=           0
 nber prop tor=          64
 nber impr tor=           0
 nber tot redund int=         132
 Eigenvalues of G in red int coords
    Gval -0.00000000 -0.00000000 -0.00000000 -0.00000000 -0.00000000 -0.00000000 -0.00000000 -0.00000000
    Gval -0.00000000 -0.00000000 -0.00000000 -0.00000000 -0.00000000 -0.00000000 -0.00000000 -0.00000000
    Gval -0.00000000 -0.00000000 -0.00000000 -0.00000000 -0.00000000 -0.00000000 -0.00000000 -0.00000000
    Gval -0.00000000 -0.00000000 -0.00000000 -0.00000000 -0.00000000 -0.00000000 -0.00000000 -0.00000000
    Gval -0.00000000  0.00000000  0.00000000  0.00000000  0.00000000  0.00000000  0.00000000  0.00000000
    Gval  0.00000000  0.00000000  0.00000000  0.00000000  0.00000000  0.00000000  0.00000000  0.00000000
    Gval  0.00000000  0.00000000  0.00000000  0.00000000  0.00000000  0.00000000  0.00000000  0.00000000
    Gval  0.00000000  0.00000000  0.00000000  0.00000000  0.00000000  0.00000000  0.00000000  0.00000000
    Gval  0.00000000  0.00000000  0.00000686  0.00001102  0.00001192  0.00002011  0.00002200  0.00002623
    Gval  0.00003533  0.00004721  0.00004769  0.00004991  0.00005493  0.00005972  0.00006099  0.00007802
    Gval  0.00007842  0.00009775  0.00010118  0.00010940  0.00011330  0.00012793  0.00013005  0.00013491
    Gval  0.00015730  0.00020249  0.00023305  0.00026167  0.00026729  0.00029708  0.00031705  0.00037571
    Gval  0.00038107  0.00041828  0.00042011  0.00044024  0.00044636  0.00059320  0.00059324  0.00059736
    Gval  0.00059748  0.00061794  0.00062180  0.00062389  0.00065570  0.00065581  0.00068851  0.00089579
    Gval  0.00095020  0.00105465  0.00105574  0.00112174  0.00112207  0.00116069  0.00116086  0.00117396
    Gval  0.00117401  0.00118290  0.00167668  0.00183216  0.00186191  0.00216513  0.00264063  0.00281010
    Gval  0.00348561  0.00353633  0.00403128  0.00403475
  6.861249812505296E-006  6.861249812505296E-006
  1.102223483684036E-005  6.861249812505296E-006
  1.191807535952632E-005  6.861249812505296E-006
  2.010988833846924E-005  6.861249812505296E-006
  2.199979824408360E-005  6.861249812505296E-006
  2.622681071061957E-005  6.861249812505296E-006
  3.533032500857165E-005  6.861249812505296E-006
  4.720554796874094E-005  6.861249812505296E-006
  4.769261104030395E-005  6.861249812505296E-006
  4.991446427121520E-005  6.861249812505296E-006
  5.493236292850078E-005  6.861249812505296E-006
  5.971914301409298E-005  6.861249812505296E-006
  6.098741194842109E-005  6.861249812505296E-006
  7.802099092399766E-005  6.861249812505296E-006
  7.842196694045396E-005  6.861249812505296E-006
  9.774726383582650E-005  6.861249812505296E-006
  1.011808948502924E-004  6.861249812505296E-006
  1.093959268487255E-004  6.861249812505296E-006
  1.132975316400361E-004  6.861249812505296E-006
  1.279288471023734E-004  6.861249812505296E-006
  1.300454170294308E-004  6.861249812505296E-006
  1.349097833164786E-004  6.861249812505296E-006
  1.573030421394315E-004  6.861249812505296E-006
  2.024939795840825E-004  6.861249812505296E-006
  2.330485394528793E-004  6.861249812505296E-006
  2.616746095145004E-004  6.861249812505296E-006
  2.672853484288952E-004  6.861249812505296E-006
  2.970752677391333E-004  6.861249812505296E-006
  3.170478218935972E-004  6.861249812505296E-006
  3.757058096367059E-004  6.861249812505296E-006
  3.810661669016695E-004  6.861249812505296E-006
  4.182832710540819E-004  6.861249812505296E-006
  4.201103553610504E-004  6.861249812505296E-006
  4.402359220556926E-004  6.861249812505296E-006
  4.463613452227096E-004  6.861249812505296E-006
  5.932025642483152E-004  6.861249812505296E-006
  5.932427744800813E-004  6.861249812505296E-006
  5.973552035254136E-004  6.861249812505296E-006
  5.974806978432884E-004  6.861249812505296E-006
  6.179402004447021E-004  6.861249812505296E-006
  6.218004641894865E-004  6.861249812505296E-006
  6.238916821723503E-004  6.861249812505296E-006
  6.557027369305868E-004  6.861249812505296E-006
  6.558066568498977E-004  6.861249812505296E-006
  6.885119024405994E-004  6.861249812505296E-006
  8.957910566832952E-004  6.861249812505296E-006
  9.501968951594249E-004  6.861249812505296E-006
  1.054649163262470E-003  6.861249812505296E-006
  1.055742568939618E-003  6.861249812505296E-006
  1.121740124264401E-003  6.861249812505296E-006
  1.122071441940284E-003  6.861249812505296E-006
  1.160686377734766E-003  6.861249812505296E-006
  1.160856351532661E-003  6.861249812505296E-006
  1.173955539250099E-003  6.861249812505296E-006
  1.174007859396036E-003  6.861249812505296E-006
  1.182901646988172E-003  6.861249812505296E-006
  1.676677452286809E-003  6.861249812505296E-006
  1.832160124691505E-003  6.861249812505296E-006
  1.861909945493822E-003  6.861249812505296E-006
  2.165126016804277E-003  6.861249812505296E-006
  2.640634123806550E-003  6.861249812505296E-006
  2.810101086752139E-003  6.861249812505296E-006
  3.485608871373759E-003  6.861249812505296E-006
  3.536326148084063E-003  6.861249812505296E-006
  4.031280965335627E-003  6.861249812505296E-006
  4.034754860549770E-003  6.861249812505296E-006
 cut=1d-8, nber non-redundant internal coords=          66
 Check on Eigenvals of non-red overlap matrix:
  0.00000686  0.00001102  0.00001192  0.00002011  0.00002200  0.00002623  0.00003533  0.00004721
  0.00004769  0.00004991  0.00005493  0.00005972  0.00006099  0.00007802  0.00007842  0.00009775
  0.00010118  0.00010940  0.00011330  0.00012793  0.00013005  0.00013491  0.00015730  0.00020249
  0.00023305  0.00026167  0.00026729  0.00029708  0.00031705  0.00037571  0.00038107  0.00041828
  0.00042011  0.00044024  0.00044636  0.00059320  0.00059324  0.00059736  0.00059748  0.00061794
  0.00062180  0.00062389  0.00065570  0.00065581  0.00068851  0.00089579  0.00095020  0.00105465
  0.00105574  0.00112174  0.00112207  0.00116069  0.00116086  0.00117396  0.00117401  0.00118290
  0.00167668  0.00183216  0.00186191  0.00216513  0.00264063  0.00281010  0.00348561  0.00353633
  0.00403128  0.00403475
 Checking for correct frequencies
 recalc frequencies=
    -0.0   -0.0    0.0    0.0    0.0    0.0   25.0   84.6  101.7  151.9
   243.0  259.0  318.7  366.1  386.1  389.2  401.2  430.6  448.9  463.2
   555.6  566.1  616.5  630.7  682.7  692.6  718.0  744.2  781.2  796.3
   797.0  843.9  897.1  905.5  937.0  981.7  988.3 1015.9 1016.3 1021.7
  1021.9 1072.2 1080.3 1113.6 1140.5 1186.3 1193.9 1239.4 1249.4 1289.7
  1301.7 1312.1 1333.6 1358.0 1471.4 1481.9 1508.2 1527.5 1601.9 1621.9
  1634.0 1641.4 1751.7 1776.6 3170.5 3171.6 3185.4 3187.0 3197.6 3201.6
  3202.4 3213.6
 recalc symmetries=
     B1     B2     B1     A1     A2     B2     A2     B2     A2     B2 
     A1     A2     B1     A1     B2     B1     A1     A2     B2     A1 
     B2     A2     B1     B1     B1     A1     A2     B2     B2     A1 
     A2     A2     B2     A2     B1     A2     B2     B2     A2     A1 
     B1     B1     A1     A1     B1     B1     A1     B1     A1     A1 
     B1     A1     B1     A1     A1     B1     B1     A1     A1     B1 
     A1     B1     A1     B1     B1     A1     B1     A1     B1     A1 
     B1     A1 
 recalc freqs check OK
 Zero-point lengths:
 10.0000 10.0000 10.0000 10.0000 10.0000 10.0000 49.5673 26.9511 24.5823 20.1173
 15.9043 15.4053 13.8862 12.9560 12.6161 12.5666 12.3774 11.9465 11.7006 11.5191
 10.5178 10.4194  9.9845  9.8713  9.4883  9.4200  9.2521  9.0879  8.8699  8.7856
  8.7814  8.5341  8.2768  8.2387  8.0989  7.9122  7.8860  7.7781  7.7765  7.7561
  7.7553  7.5711  7.5426  7.4290  7.3408  7.1977  7.1750  7.0420  7.0137  6.9031
  6.8714  6.8441  6.7887  6.7274  6.4630  6.4399  6.3835  6.3432  6.1940  6.1557
  6.1329  6.1191  5.9234  5.8817  4.4028  4.4021  4.3925  4.3914  4.3841  4.3814
  4.3809  4.3732
 highest evec of mol 1
  0.0003  0.0000  0.0005
 -0.0000  0.0000 -0.0007
  0.0000  0.0000 -0.0007
 -0.0003  0.0000  0.0005
  0.0002  0.0000 -0.0014
  0.0080  0.0000 -0.0172
  0.0197  0.0000 -0.0023
  0.0304  0.0000  0.0436
 -0.0917  0.0000  0.1706
 -0.0038  0.0000 -0.0027
  0.0038  0.0000 -0.0027
  0.0917  0.0000  0.1706
 -0.0304  0.0000  0.0436
 -0.0197  0.0000 -0.0023
 -0.0080  0.0000 -0.0172
 -0.0002  0.0000 -0.0014
 -0.0286  0.0000  0.0536
 -0.0589  0.0000  0.0013
 -0.0814  0.0000 -0.1389
  0.3124  0.0000 -0.5729
 -0.3124  0.0000 -0.5729
  0.0814  0.0000 -0.1389
  0.0589  0.0000  0.0013
  0.0286  0.0000  0.0536
 generating redundant internal coords
         300        3600          24
 Adding extra bonds for z output only
           8           6           6           8           6           6
           6           6           6           6           6           6
           6           6           6           6           1           1
           1           1           1           1           1           1
 search for int coords
   1 str   2   1   1.211
   2 str   3   2   1.549
   3 str   4   3   1.211
   4 str   5   3   1.484
   5 str   6   5   1.400
   6 str   7   6   1.386
   7 str   8   7   1.395
   8 str   9   8   1.390
   9 str  10   5   1.413
  10 str  10   9   1.403
  11 str  11  10   1.485
  12 str  12  11   1.403
  13 str  13  12   1.390
  14 str  14  13   1.395
  15 str  15  14   1.386
  16 str  16   2   1.484
  17 str  16  11   1.413
  18 str  16  15   1.400
  19 str  17   6   1.083
  20 str  18   7   1.084
  21 str  19   8   1.084
  22 str  20   9   1.081
  23 str  21  12   1.081
  24 str  22  13   1.084
  25 str  23  14   1.084
  26 str  24  15   1.083
 nber stretches=          26
  27 ben   1   2   3
  28 prop tor   1   2   3   4
  29 prop tor   1   2   3   5
  30 ben   1   2  16
  31 prop tor   1   2  16  11
  32 prop tor   1   2  16  15
  33 ben   2   3   4
  34 ben   2   3   5
  35 prop tor   2   3   5   6
  36 prop tor   2   3   5  10
  37 ben   2  16  11
  38 ben   2  16  15
  39 ben   3   2  16
  40 prop tor   3   2  16  11
  41 prop tor   3   2  16  15
  42 ben   3   5   6
  43 prop tor   3   5   6   7
  44 prop tor   3   5   6  17
  45 ben   3   5  10
  46 prop tor   3   5  10   9
  47 prop tor   3   5  10  11
  48 ben   4   3   5
  49 prop tor   4   3   5   6
  50 prop tor   4   3   5  10
  51 ben   5   6   7
  52 prop tor   5   6   7   8
  53 prop tor   5   6   7  18
  54 ben   5   6  17
  55 ben   5  10   9
  56 ben   5  10  11
  57 prop tor   5  10  11  12
  58 prop tor   5  10  11  16
  59 ben   6   5  10
  60 prop tor   6   5  10   9
  61 prop tor   6   5  10  11
  62 ben   6   7   8
  63 prop tor   6   7   8   9
  64 prop tor   6   7   8  19
  65 ben   6   7  18
  66 ben   7   6  17
  67 ben   7   8   9
  68 prop tor   7   8   9  10
  69 prop tor   7   8   9  20
  70 ben   7   8  19
  71 ben   8   7  18
  72 ben   8   9  10
  73 prop tor   8   9  10   5
  74 prop tor   8   9  10  11
  75 ben   8   9  20
  76 ben   9   8  19
  77 ben   9  10  11
  78 prop tor   9  10  11  12
  79 prop tor   9  10  11  16
  80 prop tor  10   5   6   7
  81 prop tor  10   5   6  17
  82 ben  10   9  20
  83 ben  10  11  12
  84 prop tor  10  11  12  13
  85 prop tor  10  11  12  21
  86 ben  10  11  16
  87 prop tor  10  11  16   2
  88 prop tor  10  11  16  15
  89 ben  11  12  13
  90 prop tor  11  12  13  14
  91 prop tor  11  12  13  22
  92 ben  11  12  21
  93 ben  11  16  15
  94 ben  12  11  16
  95 prop tor  12  11  16   2
  96 prop tor  12  11  16  15
  97 ben  12  13  14
  98 prop tor  12  13  14  15
  99 prop tor  12  13  14  23
 100 ben  12  13  22
 101 ben  13  12  21
 102 ben  13  14  15
 103 prop tor  13  14  15  16
 104 prop tor  13  14  15  24
 105 ben  13  14  23
 106 ben  14  13  22
 107 ben  14  15  16
 108 prop tor  14  15  16   2
 109 prop tor  14  15  16  11
 110 ben  14  15  24
 111 ben  15  14  23
 112 prop tor  16   2   3   4
 113 prop tor  16   2   3   5
 114 prop tor  16  11  12  13
 115 prop tor  16  11  12  21
 116 ben  16  15  24
 117 prop tor  17   6   7   8
 118 prop tor  17   6   7  18
 119 prop tor  18   7   8   9
 120 prop tor  18   7   8  19
 121 prop tor  19   8   9  10
 122 prop tor  19   8   9  20
 123 prop tor  20   9  10   5
 124 prop tor  20   9  10  11
 125 prop tor  21  12  13  14
 126 prop tor  21  12  13  22
 127 prop tor  22  13  14  15
 128 prop tor  22  13  14  23
 129 prop tor  23  14  15  16
 130 prop tor  23  14  15  24
 131 prop tor  24  15  16   2
 132 prop tor  24  15  16  11
 nber bend=              42
 nber lin bend=           0
 nber prop tor=          64
 nber impr tor=           0
 nber tot redund int=         132
 Reading file: 
 ./conjugated_carbonyls_3_C-2S0.log                                             
                                          
  Entering Gaussian System, Link 0=g16                                          
  
 Gaussian format, type: g94, g98, g03= F F F
  #P Geom=AllCheck Guess=TCheck SCRF=Check Test GenChk UB3LYP/6-311G(d,p    
 energy type= B3LYP   
 Original G94 input coords:
  8  1.390846 -3.270405  0.000000
  6  0.737490 -2.191738  0.000000
  6 -0.737490 -2.191738  0.000000
  8 -1.390846 -3.270405  0.000000
  6 -1.442159 -0.883752  0.000000
  6 -2.838739 -0.882546  0.000000
  6 -3.588660  0.318621  0.000000
  6 -2.894356  1.532333  0.000000
  6 -1.502728  1.568389  0.000000
  6 -0.714453  0.359590  0.000000
  6  0.714453  0.359590  0.000000
  6  1.502728  1.568389  0.000000
  6  2.894356  1.532333  0.000000
  6  3.588660  0.318621  0.000000
  6  2.838739 -0.882546  0.000000
  6  1.442159 -0.883752  0.000000
  1 -3.321035 -1.855007  0.000000
  1 -4.677371  0.297371  0.000000
  1 -3.448024  2.474314  0.000000
  1 -1.005927  2.532829  0.000000
  1  1.005927  2.532829  0.000000
  1  3.448024  2.474314  0.000000
  1  4.677371  0.297371  0.000000
  1  3.321035 -1.855007  0.000000
 nber atoms=          24
  SCF Done:  E(UB3LYP) =  -688.849413207     A.U. after    1 cycles             
  
          23          40 "  -688.849413207"
After scan for Atom:   Atom  AN      X      Y      Z        X      Y      Z        X      Y      Z   
After scan for Atom:   Atom  AN      X      Y      Z        X      Y      Z        X      Y      Z   
After scan for Atom:   Atom  AN      X      Y      Z        X      Y      Z        X      Y      Z   
After scan for Atom:   Atom  AN      X      Y      Z        X      Y      Z        X      Y      Z   
After scan for Atom:   Atom  AN      X      Y      Z        X      Y      Z        X      Y      Z   
After scan for Atom:   Atom  AN      X      Y      Z        X      Y      Z        X      Y      Z   
After scan for Atom:   Atom  AN      X      Y      Z        X      Y      Z        X      Y      Z   
After scan for Atom:   Atom  AN      X      Y      Z        X      Y      Z        X      Y      Z   
After scan for Atom:   Atom  AN      X      Y      Z        X      Y      Z        X      Y      Z   
After scan for Atom:   Atom  AN      X      Y      Z        X      Y      Z        X      Y      Z   
After scan for Atom:   Atom  AN      X      Y      Z        X      Y      Z        X      Y      Z   
After scan for Atom:   Atom  AN      X      Y      Z        X      Y      Z        X      Y      Z   
After scan for Atom:   Atom  AN      X      Y      Z        X      Y      Z        X      Y      Z   
After scan for Atom:   Atom  AN      X      Y      Z        X      Y      Z        X      Y      Z   
After scan for Atom:   Atom  AN      X      Y      Z        X      Y      Z        X      Y      Z   
After scan for Atom:   Atom  AN      X      Y      Z        X      Y      Z        X      Y      Z   
After scan for Atom:   Atom  AN      X      Y      Z        X      Y      Z        X      Y      Z   
After scan for Atom:   Atom  AN      X      Y      Z        X      Y      Z        X      Y      Z   
After scan for Atom:   Atom  AN      X      Y      Z        X      Y      Z        X      Y      Z   
After scan for Atom:   Atom  AN      X      Y      Z        X      Y      Z        X      Y      Z   
After scan for Atom:   Atom  AN      X      Y      Z        X      Y      Z        X      Y      Z   
After scan for Atom:   Atom  AN      X      Y      Z        X      Y      Z        X      Y      Z   
 g94    frequencies=
     0.0    0.0    0.0    0.0    0.0    0.0   49.8   83.3   99.9  155.2
   240.2  247.5  316.9  371.3  380.2  385.1  409.1  414.1  450.8  455.6
   508.6  558.2  562.4  596.3  607.1  612.9  631.1  657.3  670.4  676.0
   691.9  704.6  753.0  788.9  839.5  845.0  847.3  851.1  916.8  990.8
  1023.1 1033.0 1051.2 1078.2 1087.3 1126.8 1142.7 1180.4 1215.6 1247.3
  1264.1 1329.0 1337.0 1356.1 1408.8 1440.6 1450.4 1461.3 1477.0 1489.6
  1512.6 1546.5 1558.8 1590.3 3051.3 3053.0 3097.1 3098.9 3137.6 3153.6
  3154.0 3159.3
 g94    symmetries=
                                                 A      A      A      A
       A      A      A      A      A      A      A      A      A      A
       A      A      A      A      A      A      A      A      A      A
       A      A      A      A      A      A      A      A      A      A
       A      A      A      A      A      A      A      A      A      A
       A      A      A      A      A      A      A      A      A      A
       A      A      A      A      A      A      A      A      A      A
       A      A
 atomic masses:
 15.9949 12.0000 12.0000 15.9949 12.0000 12.0000 12.0000 12.0000 12.0000 12.0000
 12.0000 12.0000 12.0000 12.0000 12.0000 12.0000  1.0078  1.0078  1.0078  1.0078
  1.0078  1.0078  1.0078  1.0078
 looking for force constants in 
 ./conjugated_carbonyls_3_C-2S0.fchk                                            
  
 Cartesian Force Constants                  R   N=        2628                  
  
 n3=          72        2628
 g94-fc frequencies=
    -3.2   -3.1   -1.2   -0.0   -0.0    0.0   49.8   83.3   99.9  155.2
   240.2  247.5  316.9  371.3  380.2  385.1  409.1  414.1  450.8  455.6
   508.6  558.3  562.4  596.3  607.1  612.9  631.1  657.3  670.4  676.0
   691.9  704.6  753.1  789.0  839.5  845.0  847.3  851.2  916.8  990.8
  1023.1 1033.0 1051.3 1078.2 1087.3 1126.8 1142.7 1180.4 1215.6 1247.3
  1264.2 1329.1 1337.1 1356.1 1408.8 1440.6 1450.4 1461.3 1477.1 1489.6
  1512.6 1546.5 1558.8 1590.3 3051.4 3053.0 3097.2 3098.9 3137.7 3153.7
  3154.1 3159.4
 at 99999: n3=          72
 symm operator            1 :  F  nop=           0
 symm operator            2 :  T  nop=           1
 symm operator            3 :  F  nop=           1
 symm operator            4 :  F  nop=           1
 symm operator            5 :  T  nop=           2
 symm operator            6 :  F  nop=           2
 symm operator            7 :  T  nop=           3
 swap           2           3
   1   1.39085   0.00000  -3.27040
   2   0.73749   0.00000  -2.19174
   3  -0.73749   0.00000  -2.19174
   4  -1.39085   0.00000  -3.27040
   5  -1.44216   0.00000  -0.88375
   6  -2.83874   0.00000  -0.88255
   7  -3.58866   0.00000   0.31862
   8  -2.89436   0.00000   1.53233
   9  -1.50273   0.00000   1.56839
  10  -0.71445   0.00000   0.35959
  11   0.71445   0.00000   0.35959
  12   1.50273   0.00000   1.56839
  13   2.89436   0.00000   1.53233
  14   3.58866   0.00000   0.31862
  15   2.83874   0.00000  -0.88255
  16   1.44216   0.00000  -0.88375
  17  -3.32104   0.00000  -1.85501
  18  -4.67737   0.00000   0.29737
  19  -3.44802   0.00000   2.47431
  20  -1.00593   0.00000   2.53283
  21   1.00593   0.00000   2.53283
  22   3.44802   0.00000   2.47431
  23   4.67737   0.00000   0.29737
  24   3.32104   0.00000  -1.85501
 swap           1           2
   1   0.00000   1.39085  -3.27040
   2   0.00000   0.73749  -2.19174
   3   0.00000  -0.73749  -2.19174
   4   0.00000  -1.39085  -3.27040
   5   0.00000  -1.44216  -0.88375
   6   0.00000  -2.83874  -0.88255
   7   0.00000  -3.58866   0.31862
   8   0.00000  -2.89436   1.53233
   9   0.00000  -1.50273   1.56839
  10   0.00000  -0.71445   0.35959
  11   0.00000   0.71445   0.35959
  12   0.00000   1.50273   1.56839
  13   0.00000   2.89436   1.53233
  14   0.00000   3.58866   0.31862
  15   0.00000   2.83874  -0.88255
  16   0.00000   1.44216  -0.88375
  17   0.00000  -3.32104  -1.85501
  18   0.00000  -4.67737   0.29737
  19   0.00000  -3.44802   2.47431
  20   0.00000  -1.00593   2.53283
  21   0.00000   1.00593   2.53283
  22   0.00000   3.44802   2.47431
  23   0.00000   4.67737   0.29737
  24   0.00000   3.32104  -1.85501
 The point group of the molecule is C2V
 enforcing symm op           1  jsymt=          -1          -1           1
 enforcing symm op           6  jsymt=           1          -1           1
 enforcing symm op           7  jsymt=          -1           1           1
 cartesian coord symmetries:
 A1 :   24 A2 :   12 B1 :   12 B2 :   24
 Symmetry rotation matrix:
   0.00000   0.00000   1.00000
  -1.00000   0.00000   0.00000
   0.00000  -1.00000   0.00000

 Projecting out zero-frequency components
 generating redundant internal coords
         300        3600          24
 search for int coords
   1 str   2   1   1.261
   2 str   3   2   1.475
   3 str   4   3   1.261
   4 str   5   3   1.486
   5 str   6   5   1.397
   6 str   7   6   1.416
   7 str   8   7   1.398
   8 str   9   8   1.392
   9 str  10   5   1.441
  10 str  10   9   1.443
  11 str  11  10   1.429
  12 str  12  11   1.443
  13 str  13  12   1.392
  14 str  14  13   1.398
  15 str  15  14   1.416
  16 str  16   2   1.486
  17 str  16  11   1.441
  18 str  16  15   1.397
  19 str  17   6   1.085
  20 str  18   7   1.089
  21 str  19   8   1.093
  22 str  20   9   1.085
  23 str  21  12   1.085
  24 str  22  13   1.093
  25 str  23  14   1.089
  26 str  24  15   1.085
 nber stretches=          26
  27 ben   1   2   3
  28 prop tor   1   2   3   4
  29 prop tor   1   2   3   5
  30 ben   1   2  16
  31 prop tor   1   2  16  11
  32 prop tor   1   2  16  15
  33 ben   2   3   4
  34 ben   2   3   5
  35 prop tor   2   3   5   6
  36 prop tor   2   3   5  10
  37 ben   2  16  11
  38 ben   2  16  15
  39 ben   3   2  16
  40 prop tor   3   2  16  11
  41 prop tor   3   2  16  15
  42 ben   3   5   6
  43 prop tor   3   5   6   7
  44 prop tor   3   5   6  17
  45 ben   3   5  10
  46 prop tor   3   5  10   9
  47 prop tor   3   5  10  11
  48 ben   4   3   5
  49 prop tor   4   3   5   6
  50 prop tor   4   3   5  10
  51 ben   5   6   7
  52 prop tor   5   6   7   8
  53 prop tor   5   6   7  18
  54 ben   5   6  17
  55 ben   5  10   9
  56 ben   5  10  11
  57 prop tor   5  10  11  12
  58 prop tor   5  10  11  16
  59 ben   6   5  10
  60 prop tor   6   5  10   9
  61 prop tor   6   5  10  11
  62 ben   6   7   8
  63 prop tor   6   7   8   9
  64 prop tor   6   7   8  19
  65 ben   6   7  18
  66 ben   7   6  17
  67 ben   7   8   9
  68 prop tor   7   8   9  10
  69 prop tor   7   8   9  20
  70 ben   7   8  19
  71 ben   8   7  18
  72 ben   8   9  10
  73 prop tor   8   9  10   5
  74 prop tor   8   9  10  11
  75 ben   8   9  20
  76 ben   9   8  19
  77 ben   9  10  11
  78 prop tor   9  10  11  12
  79 prop tor   9  10  11  16
  80 prop tor  10   5   6   7
  81 prop tor  10   5   6  17
  82 ben  10   9  20
  83 ben  10  11  12
  84 prop tor  10  11  12  13
  85 prop tor  10  11  12  21
  86 ben  10  11  16
  87 prop tor  10  11  16   2
  88 prop tor  10  11  16  15
  89 ben  11  12  13
  90 prop tor  11  12  13  14
  91 prop tor  11  12  13  22
  92 ben  11  12  21
  93 ben  11  16  15
  94 ben  12  11  16
  95 prop tor  12  11  16   2
  96 prop tor  12  11  16  15
  97 ben  12  13  14
  98 prop tor  12  13  14  15
  99 prop tor  12  13  14  23
 100 ben  12  13  22
 101 ben  13  12  21
 102 ben  13  14  15
 103 prop tor  13  14  15  16
 104 prop tor  13  14  15  24
 105 ben  13  14  23
 106 ben  14  13  22
 107 ben  14  15  16
 108 prop tor  14  15  16   2
 109 prop tor  14  15  16  11
 110 ben  14  15  24
 111 ben  15  14  23
 112 prop tor  16   2   3   4
 113 prop tor  16   2   3   5
 114 prop tor  16  11  12  13
 115 prop tor  16  11  12  21
 116 ben  16  15  24
 117 prop tor  17   6   7   8
 118 prop tor  17   6   7  18
 119 prop tor  18   7   8   9
 120 prop tor  18   7   8  19
 121 prop tor  19   8   9  10
 122 prop tor  19   8   9  20
 123 prop tor  20   9  10   5
 124 prop tor  20   9  10  11
 125 prop tor  21  12  13  14
 126 prop tor  21  12  13  22
 127 prop tor  22  13  14  15
 128 prop tor  22  13  14  23
 129 prop tor  23  14  15  16
 130 prop tor  23  14  15  24
 131 prop tor  24  15  16   2
 132 prop tor  24  15  16  11
 nber bend=              42
 nber lin bend=           0
 nber prop tor=          64
 nber impr tor=           0
 nber tot redund int=         132
 Eigenvalues of G in red int coords
    Gval -0.00000000 -0.00000000 -0.00000000 -0.00000000 -0.00000000 -0.00000000 -0.00000000 -0.00000000
    Gval -0.00000000 -0.00000000 -0.00000000 -0.00000000 -0.00000000 -0.00000000 -0.00000000 -0.00000000
    Gval -0.00000000 -0.00000000 -0.00000000 -0.00000000 -0.00000000 -0.00000000 -0.00000000 -0.00000000
    Gval -0.00000000 -0.00000000 -0.00000000 -0.00000000 -0.00000000 -0.00000000 -0.00000000 -0.00000000
    Gval -0.00000000  0.00000000  0.00000000  0.00000000  0.00000000  0.00000000  0.00000000  0.00000000
    Gval  0.00000000  0.00000000  0.00000000  0.00000000  0.00000000  0.00000000  0.00000000  0.00000000
    Gval  0.00000000  0.00000000  0.00000000  0.00000000  0.00000000  0.00000000  0.00000000  0.00000000
    Gval  0.00000000  0.00000000  0.00000000  0.00000000  0.00000000  0.00000000  0.00000000  0.00000000
    Gval  0.00000000  0.00000000  0.00000679  0.00001095  0.00001159  0.00002019  0.00002156  0.00002582
    Gval  0.00003561  0.00004712  0.00004760  0.00004933  0.00005470  0.00005951  0.00006070  0.00007770
    Gval  0.00007809  0.00009362  0.00010021  0.00010892  0.00011226  0.00012779  0.00012830  0.00013083
    Gval  0.00015499  0.00020155  0.00022891  0.00026045  0.00026429  0.00029382  0.00031909  0.00037036
    Gval  0.00037695  0.00040372  0.00042826  0.00042903  0.00045064  0.00059318  0.00059323  0.00059713
    Gval  0.00059734  0.00059947  0.00061689  0.00062122  0.00065307  0.00065351  0.00069817  0.00088076
    Gval  0.00095368  0.00104291  0.00104411  0.00111210  0.00111235  0.00114910  0.00114930  0.00116111
    Gval  0.00116114  0.00120150  0.00162903  0.00180734  0.00184456  0.00214420  0.00260651  0.00278457
    Gval  0.00344445  0.00350167  0.00398972  0.00399332
  6.792023272182236E-006  6.792023272182236E-006
  1.095340624737539E-005  6.792023272182236E-006
  1.159481325249906E-005  6.792023272182236E-006
  2.018867648494504E-005  6.792023272182236E-006
  2.155761530014714E-005  6.792023272182236E-006
  2.582394931005987E-005  6.792023272182236E-006
  3.560611648761237E-005  6.792023272182236E-006
  4.712103863095269E-005  6.792023272182236E-006
  4.760481071570090E-005  6.792023272182236E-006
  4.933499133055263E-005  6.792023272182236E-006
  5.469895477973783E-005  6.792023272182236E-006
  5.951312694238083E-005  6.792023272182236E-006
  6.070040721973849E-005  6.792023272182236E-006
  7.769697976973694E-005  6.792023272182236E-006
  7.808794471423112E-005  6.792023272182236E-006
  9.362228567754686E-005  6.792023272182236E-006
  1.002095744283499E-004  6.792023272182236E-006
  1.089223890271681E-004  6.792023272182236E-006
  1.122620695155688E-004  6.792023272182236E-006
  1.277919055178375E-004  6.792023272182236E-006
  1.283028508832835E-004  6.792023272182236E-006
  1.308326768678703E-004  6.792023272182236E-006
  1.549895942664950E-004  6.792023272182236E-006
  2.015462132017598E-004  6.792023272182236E-006
  2.289062220123836E-004  6.792023272182236E-006
  2.604479321620775E-004  6.792023272182236E-006
  2.642907853066749E-004  6.792023272182236E-006
  2.938231552297243E-004  6.792023272182236E-006
  3.190901674294222E-004  6.792023272182236E-006
  3.703560895396105E-004  6.792023272182236E-006
  3.769540180654857E-004  6.792023272182236E-006
  4.037225661123388E-004  6.792023272182236E-006
  4.282599582197591E-004  6.792023272182236E-006
  4.290268378571810E-004  6.792023272182236E-006
  4.506403435020946E-004  6.792023272182236E-006
  5.931814537111717E-004  6.792023272182236E-006
  5.932261209948759E-004  6.792023272182236E-006
  5.971269783682542E-004  6.792023272182236E-006
  5.973363511870120E-004  6.792023272182236E-006
  5.994707637846646E-004  6.792023272182236E-006
  6.168875161228642E-004  6.792023272182236E-006
  6.212226562912025E-004  6.792023272182236E-006
  6.530749467671406E-004  6.792023272182236E-006
  6.535139171276541E-004  6.792023272182236E-006
  6.981653254001837E-004  6.792023272182236E-006
  8.807604523279940E-004  6.792023272182236E-006
  9.536810335468611E-004  6.792023272182236E-006
  1.042914561907079E-003  6.792023272182236E-006
  1.044109109658180E-003  6.792023272182236E-006
  1.112102317661753E-003  6.792023272182236E-006
  1.112346228241165E-003  6.792023272182236E-006
  1.149095415049334E-003  6.792023272182236E-006
  1.149304404106494E-003  6.792023272182236E-006
  1.161106634067274E-003  6.792023272182236E-006
  1.161135724558001E-003  6.792023272182236E-006
  1.201500413089461E-003  6.792023272182236E-006
  1.629031616804808E-003  6.792023272182236E-006
  1.807335897767947E-003  6.792023272182236E-006
  1.844564867289166E-003  6.792023272182236E-006
  2.144195334781966E-003  6.792023272182236E-006
  2.606509830357253E-003  6.792023272182236E-006
  2.784567467243637E-003  6.792023272182236E-006
  3.444451481037135E-003  6.792023272182236E-006
  3.501673570404814E-003  6.792023272182236E-006
  3.989724395875795E-003  6.792023272182236E-006
  3.993323888581366E-003  6.792023272182236E-006
 cut=1d-8, nber non-redundant internal coords=          66
 Check on Eigenvals of non-red overlap matrix:
  0.00000679  0.00001095  0.00001159  0.00002019  0.00002156  0.00002582  0.00003561  0.00004712
  0.00004760  0.00004933  0.00005470  0.00005951  0.00006070  0.00007770  0.00007809  0.00009362
  0.00010021  0.00010892  0.00011226  0.00012779  0.00012830  0.00013083  0.00015499  0.00020155
  0.00022891  0.00026045  0.00026429  0.00029382  0.00031909  0.00037036  0.00037695  0.00040372
  0.00042826  0.00042903  0.00045064  0.00059318  0.00059323  0.00059713  0.00059734  0.00059947
  0.00061689  0.00062122  0.00065307  0.00065351  0.00069817  0.00088076  0.00095368  0.00104291
  0.00104411  0.00111210  0.00111235  0.00114910  0.00114930  0.00116111  0.00116114  0.00120150
  0.00162903  0.00180734  0.00184456  0.00214420  0.00260651  0.00278457  0.00344445  0.00350167
  0.00398972  0.00399332
 Checking for correct frequencies
 recalc frequencies=
    -0.0   -0.0   -0.0   -0.0    0.0    0.0   49.8   83.3   99.9  155.2
   240.2  247.5  316.9  371.3  380.2  385.1  409.1  414.1  450.8  455.6
   508.6  558.3  562.4  596.3  607.1  612.9  631.1  657.3  670.4  676.0
   691.9  704.6  753.1  789.0  839.5  845.0  847.3  851.2  916.8  990.8
  1023.1 1033.0 1051.3 1078.2 1087.3 1126.8 1142.7 1180.4 1215.6 1247.3
  1264.2 1329.1 1337.1 1356.1 1408.8 1440.6 1450.4 1461.3 1477.1 1489.6
  1512.6 1546.5 1558.8 1590.3 3051.4 3053.0 3097.2 3098.9 3137.7 3153.7
  3154.1 3159.4
 recalc symmetries=
     A1     B2     A2     B1     B1     B2     A2     B1     A2     B1 
     A1     A2     B2     A1     B1     B2     B1     A1     A2     A1 
     A2     A2     B1     B2     B1     B2     A2     B1     B2     A1 
     A2     B1     A2     A1     A2     B1     B1     A2     B2     B2 
     A1     B2     A1     A1     B2     B2     A1     B2     A1     B2 
     A1     A1     B2     A1     B2     B2     A1     B2     A1     B2 
     A1     A1     B2     A1     B2     A1     B2     A1     B2     B2 
     A1     A1 
 recalc freqs check OK
 Zero-point lengths:
 10.0000 10.0000 10.0000 10.0000 10.0000 10.0000 35.1193 27.1595 24.8070 19.8995
 15.9949 15.7586 13.9264 12.8659 12.7141 12.6333 12.2570 12.1829 11.6762 11.6148
 10.9929 10.4925 10.4540 10.1523 10.0618 10.0141  9.8684  9.6697  9.5750  9.5348
  9.4248  9.3397  9.0341  8.8261  8.5564  8.5283  8.5169  8.4975  8.1877  7.8759
  7.7507  7.7135  7.6461  7.5500  7.5184  7.3853  7.3337  7.2156  7.1105  7.0196
  6.9726  6.8002  6.7798  6.7321  6.6050  6.5316  6.5095  6.4853  6.4506  6.4233
  6.3743  6.3040  6.2791  6.2166  4.4879  4.4867  4.4546  4.4534  4.4258  4.4145
  4.4143  4.4106
 highest evec of mol 2
  0.0000  0.0008 -0.0009
  0.0000  0.0010  0.0020
  0.0000 -0.0010  0.0020
  0.0000 -0.0008 -0.0009
  0.0000  0.0017  0.0018
  0.0000  0.0307  0.0634
  0.0000  0.0283  0.0021
  0.0000  0.0186 -0.0289
  0.0000 -0.0839 -0.1599
  0.0000 -0.0049 -0.0004
  0.0000  0.0049 -0.0004
  0.0000  0.0839 -0.1599
  0.0000 -0.0186 -0.0289
  0.0000 -0.0283  0.0021
  0.0000 -0.0307  0.0634
  0.0000 -0.0017  0.0018
  0.0000 -0.1089 -0.2129
  0.0000 -0.0834 -0.0022
  0.0000 -0.0512  0.0841
  0.0000  0.2932  0.5483
  0.0000 -0.2932  0.5483
  0.0000  0.0512  0.0841
  0.0000  0.0834 -0.0022
  0.0000  0.1089 -0.2129
 Enter nber and list of atoms to keep of mol #2
 keep list:          24           1           2           3           4
           5           6           7           8           9          10
          11          12          13          14          15          16
          17          18          19          20          21          22
          23          24
 reordering atoms
           1   1.39084600000000     
           2  0.737490000000000     
           3 -0.737490000000000     
           4  -1.39084600000000     
           5  -1.44215900000000     
           6  -2.83873900000000     
           7  -3.58866000000000     
           8  -2.89435600000000     
           9  -1.50272800000000     
          10 -0.714453000000000     
          11  0.714453000000000     
          12   1.50272800000000     
          13   2.89435600000000     
          14   3.58866000000000     
          15   2.83873900000000     
          16   1.44215900000000     
          17  -3.32103500000000     
          18  -4.67737100000000     
          19  -3.44802400000000     
          20  -1.00592700000000     
          21   1.00592700000000     
          22   3.44802400000000     
          23   4.67737100000000     
          24   3.32103500000000     
           1           1
           2           2
           3           3
           4           4
           5           5
           6           6
           7           7
           8           8
           9           9
          10          10
          11          11
          12          12
          13          13
          14          14
          15          15
          16          16
          17          17
          18          18
          19          19
          20          20
          21          21
          22          22
          23          23
          24          24
 initial cartes coords mol 1
   8  -0.00000   2.69891  -1.36387
   6   0.00000   1.64136  -0.77443
   6  -0.00000   1.64136   0.77443
   8   0.00000   2.69891   1.36387
   6   0.00000   0.32756   1.46471
   6   0.00000   0.32857   2.86439
   6   0.00000  -0.86164   3.57410
   6   0.00000  -2.06766   2.87334
   6   0.00000  -2.07850   1.48354
   6   0.00000  -0.88709   0.74240
   6  -0.00000  -0.88709  -0.74240
   6  -0.00000  -2.07850  -1.48354
   6  -0.00000  -2.06766  -2.87334
   6  -0.00000  -0.86164  -3.57410
   6  -0.00000   0.32857  -2.86439
   6  -0.00000   0.32756  -1.46471
   1  -0.00000   1.28767   3.36742
   1   0.00000  -0.85554   4.65759
   1   0.00000  -3.00868   3.41172
   1   0.00000  -3.03581   0.98044
   1  -0.00000  -3.03581  -0.98044
   1  -0.00000  -3.00868  -3.41172
   1  -0.00000  -0.85554  -4.65759
   1   0.00000   1.28767  -3.36742
 initial cartes coords mol 2
   8   0.00000   2.72579   1.39085
   6   0.00000   1.64712   0.73749
   6   0.00000   1.64712  -0.73749
   8   0.00000   2.72579  -1.39085
   6   0.00000   0.33913  -1.44216
   6   0.00000   0.33793  -2.83874
   6   0.00000  -0.86324  -3.58866
   6   0.00000  -2.07695  -2.89436
   6   0.00000  -2.11301  -1.50273
   6   0.00000  -0.90421  -0.71445
   6   0.00000  -0.90421   0.71445
   6   0.00000  -2.11301   1.50273
   6   0.00000  -2.07695   2.89436
   6   0.00000  -0.86324   3.58866
   6   0.00000   0.33793   2.83874
   6   0.00000   0.33913   1.44216
   1   0.00000   1.31039  -3.32104
   1   0.00000  -0.84199  -4.67737
   1   0.00000  -3.01893  -3.44802
   1   0.00000  -3.07745  -1.00593
   1   0.00000  -3.07745   1.00593
   1   0.00000  -3.01893   3.44802
   1   0.00000  -0.84199   4.67737
   1   0.00000   1.31039   3.32104
 loop 1 0
 mod cartes coords mol 2
   8   0.00000   2.72579   1.39085
   6   0.00000   1.64712   0.73749
   6   0.00000   1.64712  -0.73749
   8   0.00000   2.72579  -1.39085
   6   0.00000   0.33913  -1.44216
   6   0.00000   0.33793  -2.83874
   6   0.00000  -0.86324  -3.58866
   6   0.00000  -2.07695  -2.89436
   6   0.00000  -2.11301  -1.50273
   6   0.00000  -0.90421  -0.71445
   6   0.00000  -0.90421   0.71445
   6   0.00000  -2.11301   1.50273
   6   0.00000  -2.07695   2.89436
   6   0.00000  -0.86324   3.58866
   6   0.00000   0.33793   2.83874
   6   0.00000   0.33913   1.44216
   1   0.00000   1.31039  -3.32104
   1   0.00000  -0.84199  -4.67737
   1   0.00000  -3.01893  -3.44802
   1   0.00000  -3.07745  -1.00593
   1   0.00000  -3.07745   1.00593
   1   0.00000  -3.01893   3.44802
   1   0.00000  -0.84199   4.67737
   1   0.00000   1.31039   3.32104
 read in order, maxerr=  9.33 for atom  18
 loop 1 1
 mod cartes coords mol 2
   8   0.00000   2.72579   1.39085
   6   0.00000   1.64712   0.73749
   6   0.00000   1.64712  -0.73749
   8   0.00000   2.72579  -1.39085
   6   0.00000   0.33913  -1.44216
   6   0.00000   0.33793  -2.83874
   6   0.00000  -0.86324  -3.58866
   6   0.00000  -2.07695  -2.89436
   6   0.00000  -2.11301  -1.50273
   6   0.00000  -0.90421  -0.71445
   6   0.00000  -0.90421   0.71445
   6   0.00000  -2.11301   1.50273
   6   0.00000  -2.07695   2.89436
   6   0.00000  -0.86324   3.58866
   6   0.00000   0.33793   2.83874
   6   0.00000   0.33913   1.44216
   1   0.00000   1.31039  -3.32104
   1   0.00000  -0.84199  -4.67737
   1   0.00000  -3.01893  -3.44802
   1   0.00000  -3.07745  -1.00593
   1   0.00000  -3.07745   1.00593
   1   0.00000  -3.01893   3.44802
   1   0.00000  -0.84199   4.67737
   1   0.00000   1.31039   3.32104
 read in order, maxerr=  9.33 for atom  18
 loop 1 2
 mod cartes coords mol 2
   8   0.00000  -2.72579   1.39085
   6   0.00000  -1.64712   0.73749
   6   0.00000  -1.64712  -0.73749
   8   0.00000  -2.72579  -1.39085
   6   0.00000  -0.33913  -1.44216
   6   0.00000  -0.33793  -2.83874
   6   0.00000   0.86324  -3.58866
   6   0.00000   2.07695  -2.89436
   6   0.00000   2.11301  -1.50273
   6   0.00000   0.90421  -0.71445
   6   0.00000   0.90421   0.71445
   6   0.00000   2.11301   1.50273
   6   0.00000   2.07695   2.89436
   6   0.00000   0.86324   3.58866
   6   0.00000  -0.33793   2.83874
   6   0.00000  -0.33913   1.44216
   1   0.00000  -1.31039  -3.32104
   1   0.00000   0.84199  -4.67737
   1   0.00000   3.01893  -3.44802
   1   0.00000   3.07745  -1.00593
   1   0.00000   3.07745   1.00593
   1   0.00000   3.01893   3.44802
   1   0.00000   0.84199   4.67737
   1   0.00000  -1.31039   3.32104
 read in order, maxerr=  9.49 for atom  18
 loop 1 3
 mod cartes coords mol 2
   8   0.00000  -2.72579   1.39085
   6   0.00000  -1.64712   0.73749
   6   0.00000  -1.64712  -0.73749
   8   0.00000  -2.72579  -1.39085
   6   0.00000  -0.33913  -1.44216
   6   0.00000  -0.33793  -2.83874
   6   0.00000   0.86324  -3.58866
   6   0.00000   2.07695  -2.89436
   6   0.00000   2.11301  -1.50273
   6   0.00000   0.90421  -0.71445
   6   0.00000   0.90421   0.71445
   6   0.00000   2.11301   1.50273
   6   0.00000   2.07695   2.89436
   6   0.00000   0.86324   3.58866
   6   0.00000  -0.33793   2.83874
   6   0.00000  -0.33913   1.44216
   1   0.00000  -1.31039  -3.32104
   1   0.00000   0.84199  -4.67737
   1   0.00000   3.01893  -3.44802
   1   0.00000   3.07745  -1.00593
   1   0.00000   3.07745   1.00593
   1   0.00000   3.01893   3.44802
   1   0.00000   0.84199   4.67737
   1   0.00000  -1.31039   3.32104
 read in order, maxerr=  9.49 for atom  18
 loop 1 4
 mod cartes coords mol 2
   8   0.00000   2.72579  -1.39085
   6   0.00000   1.64712  -0.73749
   6   0.00000   1.64712   0.73749
   8   0.00000   2.72579   1.39085
   6   0.00000   0.33913   1.44216
   6   0.00000   0.33793   2.83874
   6   0.00000  -0.86324   3.58866
   6   0.00000  -2.07695   2.89436
   6   0.00000  -2.11301   1.50273
   6   0.00000  -0.90421   0.71445
   6   0.00000  -0.90421  -0.71445
   6   0.00000  -2.11301  -1.50273
   6   0.00000  -2.07695  -2.89436
   6   0.00000  -0.86324  -3.58866
   6   0.00000   0.33793  -2.83874
   6   0.00000   0.33913  -1.44216
   1   0.00000   1.31039   3.32104
   1   0.00000  -0.84199   4.67737
   1   0.00000  -3.01893   3.44802
   1   0.00000  -3.07745   1.00593
   1   0.00000  -3.07745  -1.00593
   1   0.00000  -3.01893  -3.44802
   1   0.00000  -0.84199  -4.67737
   1   0.00000   1.31039  -3.32104
 read in order, maxerr=  0.05 for atom  17
 final axis swaps:           1           1          -1
 final xyz swap pattern=           1
 reorder list:
   1   2   3   4   5   6   7   8   9  10  11  12  13  14  15  16  17  18  19  20
  21  22  23  24
 axis signs=           1           1          -1
  8     0.000000  2.725787 -1.390846    -0.000000  2.698910 -1.363872
  6     0.000000  1.647120 -0.737490     0.000002  1.641364 -0.774434
  6     0.000000  1.647120  0.737490    -0.000002  1.641364  0.774434
  8     0.000000  2.725787  1.390846     0.000000  2.698910  1.363872
  6     0.000000  0.339134  1.442159     0.000000  0.327557  1.464708
  6     0.000000  0.337928  2.838739     0.000000  0.328574  2.864388
  6     0.000000 -0.863239  3.588660     0.000000 -0.861642  3.574096
  6     0.000000 -2.076951  2.894356     0.000000 -2.067660  2.873340
  6     0.000000 -2.113007  1.502728     0.000000 -2.078505  1.483544
  6     0.000000 -0.904208  0.714453     0.000000 -0.887092  0.742396
  6     0.000000 -0.904208 -0.714453    -0.000000 -0.887092 -0.742396
  6     0.000000 -2.113007 -1.502728    -0.000000 -2.078505 -1.483544
  6     0.000000 -2.076951 -2.894356    -0.000000 -2.067660 -2.873340
  6     0.000000 -0.863239 -3.588660    -0.000000 -0.861642 -3.574096
  6     0.000000  0.337928 -2.838739    -0.000000  0.328574 -2.864388
  6     0.000000  0.339134 -1.442159    -0.000000  0.327557 -1.464708
  1     0.000000  1.310389  3.321035    -0.000001  1.287669  3.367417
  1     0.000000 -0.841989  4.677371     0.000000 -0.855545  4.657587
  1     0.000000 -3.018932  3.448024     0.000001 -3.008681  3.411718
  1     0.000000 -3.077447  1.005927     0.000000 -3.035813  0.980437
  1     0.000000 -3.077447 -1.005927    -0.000000 -3.035813 -0.980437
  1     0.000000 -3.018932 -3.448024    -0.000001 -3.008681 -3.411718
  1     0.000000 -0.841989 -4.677371    -0.000000 -0.855545 -4.657587
  1     0.000000  1.310389 -3.321035     0.000001  1.287669 -3.367417
 generating redundant internal coords
         300        3600          24
 Adding extra bonds for z output only
           8           6           6           8           6           6
           6           6           6           6           6           6
           6           6           6           6           1           1
           1           1           1           1           1           1
 search for int coords
   1 str   2   1   1.261
   2 str   3   2   1.475
   3 str   4   3   1.261
   4 str   5   3   1.486
   5 str   6   5   1.397
   6 str   7   6   1.416
   7 str   8   7   1.398
   8 str   9   8   1.392
   9 str  10   5   1.441
  10 str  10   9   1.443
  11 str  11  10   1.429
  12 str  12  11   1.443
  13 str  13  12   1.392
  14 str  14  13   1.398
  15 str  15  14   1.416
  16 str  16   2   1.486
  17 str  16  11   1.441
  18 str  16  15   1.397
  19 str  17   6   1.085
  20 str  18   7   1.089
  21 str  19   8   1.093
  22 str  20   9   1.085
  23 str  21  12   1.085
  24 str  22  13   1.093
  25 str  23  14   1.089
  26 str  24  15   1.085
 nber stretches=          26
  27 ben   1   2   3
  28 prop tor   1   2   3   4
  29 prop tor   1   2   3   5
  30 ben   1   2  16
  31 prop tor   1   2  16  11
  32 prop tor   1   2  16  15
  33 ben   2   3   4
  34 ben   2   3   5
  35 prop tor   2   3   5   6
  36 prop tor   2   3   5  10
  37 ben   2  16  11
  38 ben   2  16  15
  39 ben   3   2  16
  40 prop tor   3   2  16  11
  41 prop tor   3   2  16  15
  42 ben   3   5   6
  43 prop tor   3   5   6   7
  44 prop tor   3   5   6  17
  45 ben   3   5  10
  46 prop tor   3   5  10   9
  47 prop tor   3   5  10  11
  48 ben   4   3   5
  49 prop tor   4   3   5   6
  50 prop tor   4   3   5  10
  51 ben   5   6   7
  52 prop tor   5   6   7   8
  53 prop tor   5   6   7  18
  54 ben   5   6  17
  55 ben   5  10   9
  56 ben   5  10  11
  57 prop tor   5  10  11  12
  58 prop tor   5  10  11  16
  59 ben   6   5  10
  60 prop tor   6   5  10   9
  61 prop tor   6   5  10  11
  62 ben   6   7   8
  63 prop tor   6   7   8   9
  64 prop tor   6   7   8  19
  65 ben   6   7  18
  66 ben   7   6  17
  67 ben   7   8   9
  68 prop tor   7   8   9  10
  69 prop tor   7   8   9  20
  70 ben   7   8  19
  71 ben   8   7  18
  72 ben   8   9  10
  73 prop tor   8   9  10   5
  74 prop tor   8   9  10  11
  75 ben   8   9  20
  76 ben   9   8  19
  77 ben   9  10  11
  78 prop tor   9  10  11  12
  79 prop tor   9  10  11  16
  80 prop tor  10   5   6   7
  81 prop tor  10   5   6  17
  82 ben  10   9  20
  83 ben  10  11  12
  84 prop tor  10  11  12  13
  85 prop tor  10  11  12  21
  86 ben  10  11  16
  87 prop tor  10  11  16   2
  88 prop tor  10  11  16  15
  89 ben  11  12  13
  90 prop tor  11  12  13  14
  91 prop tor  11  12  13  22
  92 ben  11  12  21
  93 ben  11  16  15
  94 ben  12  11  16
  95 prop tor  12  11  16   2
  96 prop tor  12  11  16  15
  97 ben  12  13  14
  98 prop tor  12  13  14  15
  99 prop tor  12  13  14  23
 100 ben  12  13  22
 101 ben  13  12  21
 102 ben  13  14  15
 103 prop tor  13  14  15  16
 104 prop tor  13  14  15  24
 105 ben  13  14  23
 106 ben  14  13  22
 107 ben  14  15  16
 108 prop tor  14  15  16   2
 109 prop tor  14  15  16  11
 110 ben  14  15  24
 111 ben  15  14  23
 112 prop tor  16   2   3   4
 113 prop tor  16   2   3   5
 114 prop tor  16  11  12  13
 115 prop tor  16  11  12  21
 116 ben  16  15  24
 117 prop tor  17   6   7   8
 118 prop tor  17   6   7  18
 119 prop tor  18   7   8   9
 120 prop tor  18   7   8  19
 121 prop tor  19   8   9  10
 122 prop tor  19   8   9  20
 123 prop tor  20   9  10   5
 124 prop tor  20   9  10  11
 125 prop tor  21  12  13  14
 126 prop tor  21  12  13  22
 127 prop tor  22  13  14  15
 128 prop tor  22  13  14  23
 129 prop tor  23  14  15  16
 130 prop tor  23  14  15  24
 131 prop tor  24  15  16   2
 132 prop tor  24  15  16  11
 nber bend=              42
 nber lin bend=           0
 nber prop tor=          64
 nber impr tor=           0
 nber tot redund int=         132
 generating redundant internal coords
         300        3600          24
 search for int coords
   1 str   2   1   1.211
   2 str   3   2   1.549
   3 str   4   3   1.211
   4 str   5   3   1.484
   5 str   6   5   1.400
   6 str   7   6   1.386
   7 str   8   7   1.395
   8 str   9   8   1.390
   9 str  10   5   1.413
  10 str  10   9   1.403
  11 str  11  10   1.485
  12 str  12  11   1.403
  13 str  13  12   1.390
  14 str  14  13   1.395
  15 str  15  14   1.386
  16 str  16   2   1.484
  17 str  16  11   1.413
  18 str  16  15   1.400
  19 str  17   6   1.083
  20 str  18   7   1.084
  21 str  19   8   1.084
  22 str  20   9   1.081
  23 str  21  12   1.081
  24 str  22  13   1.084
  25 str  23  14   1.084
  26 str  24  15   1.083
 nber stretches=          26
  27 ben   1   2   3
  28 prop tor   1   2   3   4
  29 prop tor   1   2   3   5
  30 ben   1   2  16
  31 prop tor   1   2  16  11
  32 prop tor   1   2  16  15
  33 ben   2   3   4
  34 ben   2   3   5
  35 prop tor   2   3   5   6
  36 prop tor   2   3   5  10
  37 ben   2  16  11
  38 ben   2  16  15
  39 ben   3   2  16
  40 prop tor   3   2  16  11
  41 prop tor   3   2  16  15
  42 ben   3   5   6
  43 prop tor   3   5   6   7
  44 prop tor   3   5   6  17
  45 ben   3   5  10
  46 prop tor   3   5  10   9
  47 prop tor   3   5  10  11
  48 ben   4   3   5
  49 prop tor   4   3   5   6
  50 prop tor   4   3   5  10
  51 ben   5   6   7
  52 prop tor   5   6   7   8
  53 prop tor   5   6   7  18
  54 ben   5   6  17
  55 ben   5  10   9
  56 ben   5  10  11
  57 prop tor   5  10  11  12
  58 prop tor   5  10  11  16
  59 ben   6   5  10
  60 prop tor   6   5  10   9
  61 prop tor   6   5  10  11
  62 ben   6   7   8
  63 prop tor   6   7   8   9
  64 prop tor   6   7   8  19
  65 ben   6   7  18
  66 ben   7   6  17
  67 ben   7   8   9
  68 prop tor   7   8   9  10
  69 prop tor   7   8   9  20
  70 ben   7   8  19
  71 ben   8   7  18
  72 ben   8   9  10
  73 prop tor   8   9  10   5
  74 prop tor   8   9  10  11
  75 ben   8   9  20
  76 ben   9   8  19
  77 ben   9  10  11
  78 prop tor   9  10  11  12
  79 prop tor   9  10  11  16
  80 prop tor  10   5   6   7
  81 prop tor  10   5   6  17
  82 ben  10   9  20
  83 ben  10  11  12
  84 prop tor  10  11  12  13
  85 prop tor  10  11  12  21
  86 ben  10  11  16
  87 prop tor  10  11  16   2
  88 prop tor  10  11  16  15
  89 ben  11  12  13
  90 prop tor  11  12  13  14
  91 prop tor  11  12  13  22
  92 ben  11  12  21
  93 ben  11  16  15
  94 ben  12  11  16
  95 prop tor  12  11  16   2
  96 prop tor  12  11  16  15
  97 ben  12  13  14
  98 prop tor  12  13  14  15
  99 prop tor  12  13  14  23
 100 ben  12  13  22
 101 ben  13  12  21
 102 ben  13  14  15
 103 prop tor  13  14  15  16
 104 prop tor  13  14  15  24
 105 ben  13  14  23
 106 ben  14  13  22
 107 ben  14  15  16
 108 prop tor  14  15  16   2
 109 prop tor  14  15  16  11
 110 ben  14  15  24
 111 ben  15  14  23
 112 prop tor  16   2   3   4
 113 prop tor  16   2   3   5
 114 prop tor  16  11  12  13
 115 prop tor  16  11  12  21
 116 ben  16  15  24
 117 prop tor  17   6   7   8
 118 prop tor  17   6   7  18
 119 prop tor  18   7   8   9
 120 prop tor  18   7   8  19
 121 prop tor  19   8   9  10
 122 prop tor  19   8   9  20
 123 prop tor  20   9  10   5
 124 prop tor  20   9  10  11
 125 prop tor  21  12  13  14
 126 prop tor  21  12  13  22
 127 prop tor  22  13  14  15
 128 prop tor  22  13  14  23
 129 prop tor  23  14  15  16
 130 prop tor  23  14  15  24
 131 prop tor  24  15  16   2
 132 prop tor  24  15  16  11
 nber bend=              42
 nber lin bend=           0
 nber prop tor=          64
 nber impr tor=           0
 nber tot redund int=         132
 Eigenvalues of G in red int coords
    Gval -0.00000000 -0.00000000 -0.00000000 -0.00000000 -0.00000000 -0.00000000 -0.00000000 -0.00000000
    Gval -0.00000000 -0.00000000 -0.00000000 -0.00000000 -0.00000000 -0.00000000 -0.00000000 -0.00000000
    Gval -0.00000000 -0.00000000 -0.00000000 -0.00000000 -0.00000000 -0.00000000 -0.00000000 -0.00000000
    Gval -0.00000000 -0.00000000 -0.00000000 -0.00000000  0.00000000  0.00000000  0.00000000  0.00000000
    Gval  0.00000000  0.00000000  0.00000000  0.00000000  0.00000000  0.00000000  0.00000000  0.00000000
    Gval  0.00000000  0.00000000  0.00000000  0.00000000  0.00000000  0.00000000  0.00000000  0.00000000
    Gval  0.00000000  0.00000000  0.00000000  0.00000000  0.00000000  0.00000000  0.00000000  0.00000000
    Gval  0.00000000  0.00000000  0.00000000  0.00000000  0.00000000  0.00000000  0.00000000  0.00000000
    Gval  0.00000000  0.00000000  0.00000686  0.00001102  0.00001192  0.00002011  0.00002200  0.00002623
    Gval  0.00003533  0.00004721  0.00004769  0.00004991  0.00005493  0.00005972  0.00006099  0.00007802
    Gval  0.00007842  0.00009775  0.00010118  0.00010940  0.00011330  0.00012793  0.00013005  0.00013491
    Gval  0.00015730  0.00020249  0.00023305  0.00026167  0.00026729  0.00029708  0.00031705  0.00037571
    Gval  0.00038107  0.00041828  0.00042011  0.00044024  0.00044636  0.00059320  0.00059324  0.00059736
    Gval  0.00059748  0.00061794  0.00062180  0.00062389  0.00065570  0.00065581  0.00068851  0.00089579
    Gval  0.00095020  0.00105465  0.00105574  0.00112174  0.00112207  0.00116069  0.00116086  0.00117396
    Gval  0.00117401  0.00118290  0.00167668  0.00183216  0.00186191  0.00216513  0.00264063  0.00281010
    Gval  0.00348561  0.00353633  0.00403128  0.00403475
  6.861249812505527E-006  6.861249812505527E-006
  1.102223483684036E-005  6.861249812505527E-006
  1.191807535952639E-005  6.861249812505527E-006
  2.010988833846937E-005  6.861249812505527E-006
  2.199979824408370E-005  6.861249812505527E-006
  2.622681071061976E-005  6.861249812505527E-006
  3.533032500857182E-005  6.861249812505527E-006
  4.720554796874152E-005  6.861249812505527E-006
  4.769261104030402E-005  6.861249812505527E-006
  4.991446427121525E-005  6.861249812505527E-006
  5.493236292850081E-005  6.861249812505527E-006
  5.971914301409302E-005  6.861249812505527E-006
  6.098741194842123E-005  6.861249812505527E-006
  7.802099092399763E-005  6.861249812505527E-006
  7.842196694045410E-005  6.861249812505527E-006
  9.774726383582656E-005  6.861249812505527E-006
  1.011808948502923E-004  6.861249812505527E-006
  1.093959268487254E-004  6.861249812505527E-006
  1.132975316400361E-004  6.861249812505527E-006
  1.279288471023735E-004  6.861249812505527E-006
  1.300454170294305E-004  6.861249812505527E-006
  1.349097833164791E-004  6.861249812505527E-006
  1.573030421394317E-004  6.861249812505527E-006
  2.024939795840824E-004  6.861249812505527E-006
  2.330485394528790E-004  6.861249812505527E-006
  2.616746095145008E-004  6.861249812505527E-006
  2.672853484288954E-004  6.861249812505527E-006
  2.970752677391331E-004  6.861249812505527E-006
  3.170478218935971E-004  6.861249812505527E-006
  3.757058096367059E-004  6.861249812505527E-006
  3.810661669016692E-004  6.861249812505527E-006
  4.182832710540822E-004  6.861249812505527E-006
  4.201103553610508E-004  6.861249812505527E-006
  4.402359220556924E-004  6.861249812505527E-006
  4.463613452227095E-004  6.861249812505527E-006
  5.932025642483167E-004  6.861249812505527E-006
  5.932427744800817E-004  6.861249812505527E-006
  5.973552035254135E-004  6.861249812505527E-006
  5.974806978432873E-004  6.861249812505527E-006
  6.179402004447030E-004  6.861249812505527E-006
  6.218004641894884E-004  6.861249812505527E-006
  6.238916821723507E-004  6.861249812505527E-006
  6.557027369305876E-004  6.861249812505527E-006
  6.558066568498974E-004  6.861249812505527E-006
  6.885119024406001E-004  6.861249812505527E-006
  8.957910566832953E-004  6.861249812505527E-006
  9.501968951594235E-004  6.861249812505527E-006
  1.054649163262469E-003  6.861249812505527E-006
  1.055742568939618E-003  6.861249812505527E-006
  1.121740124264401E-003  6.861249812505527E-006
  1.122071441940284E-003  6.861249812505527E-006
  1.160686377734768E-003  6.861249812505527E-006
  1.160856351532663E-003  6.861249812505527E-006
  1.173955539250099E-003  6.861249812505527E-006
  1.174007859396036E-003  6.861249812505527E-006
  1.182901646988173E-003  6.861249812505527E-006
  1.676677452286807E-003  6.861249812505527E-006
  1.832160124691505E-003  6.861249812505527E-006
  1.861909945493823E-003  6.861249812505527E-006
  2.165126016804277E-003  6.861249812505527E-006
  2.640634123806549E-003  6.861249812505527E-006
  2.810101086752142E-003  6.861249812505527E-006
  3.485608871373756E-003  6.861249812505527E-006
  3.536326148084060E-003  6.861249812505527E-006
  4.031280965335620E-003  6.861249812505527E-006
  4.034754860549763E-003  6.861249812505527E-006
 cut=1d-8, nber non-redundant internal coords=          66
 Check on Eigenvals of non-red overlap matrix:
  0.00000686  0.00001102  0.00001192  0.00002011  0.00002200  0.00002623  0.00003533  0.00004721
  0.00004769  0.00004991  0.00005493  0.00005972  0.00006099  0.00007802  0.00007842  0.00009775
  0.00010118  0.00010940  0.00011330  0.00012793  0.00013005  0.00013491  0.00015730  0.00020249
  0.00023305  0.00026167  0.00026729  0.00029708  0.00031705  0.00037571  0.00038107  0.00041828
  0.00042011  0.00044024  0.00044636  0.00059320  0.00059324  0.00059736  0.00059748  0.00061794
  0.00062180  0.00062389  0.00065570  0.00065581  0.00068851  0.00089579  0.00095020  0.00105465
  0.00105574  0.00112174  0.00112207  0.00116069  0.00116086  0.00117396  0.00117401  0.00118290
  0.00167668  0.00183216  0.00186191  0.00216513  0.00264063  0.00281010  0.00348561  0.00353633
  0.00403128  0.00403475
 generating redundant internal coords
         300        3600          24
 search for int coords
   1 str   2   1   1.261
   2 str   3   2   1.475
   3 str   4   3   1.261
   4 str   5   3   1.486
   5 str   6   5   1.397
   6 str   7   6   1.416
   7 str   8   7   1.398
   8 str   9   8   1.392
   9 str  10   5   1.441
  10 str  10   9   1.443
  11 str  11  10   1.429
  12 str  12  11   1.443
  13 str  13  12   1.392
  14 str  14  13   1.398
  15 str  15  14   1.416
  16 str  16   2   1.486
  17 str  16  11   1.441
  18 str  16  15   1.397
  19 str  17   6   1.085
  20 str  18   7   1.089
  21 str  19   8   1.093
  22 str  20   9   1.085
  23 str  21  12   1.085
  24 str  22  13   1.093
  25 str  23  14   1.089
  26 str  24  15   1.085
 nber stretches=          26
  27 ben   1   2   3
  28 prop tor   1   2   3   4
  29 prop tor   1   2   3   5
  30 ben   1   2  16
  31 prop tor   1   2  16  11
  32 prop tor   1   2  16  15
  33 ben   2   3   4
  34 ben   2   3   5
  35 prop tor   2   3   5   6
  36 prop tor   2   3   5  10
  37 ben   2  16  11
  38 ben   2  16  15
  39 ben   3   2  16
  40 prop tor   3   2  16  11
  41 prop tor   3   2  16  15
  42 ben   3   5   6
  43 prop tor   3   5   6   7
  44 prop tor   3   5   6  17
  45 ben   3   5  10
  46 prop tor   3   5  10   9
  47 prop tor   3   5  10  11
  48 ben   4   3   5
  49 prop tor   4   3   5   6
  50 prop tor   4   3   5  10
  51 ben   5   6   7
  52 prop tor   5   6   7   8
  53 prop tor   5   6   7  18
  54 ben   5   6  17
  55 ben   5  10   9
  56 ben   5  10  11
  57 prop tor   5  10  11  12
  58 prop tor   5  10  11  16
  59 ben   6   5  10
  60 prop tor   6   5  10   9
  61 prop tor   6   5  10  11
  62 ben   6   7   8
  63 prop tor   6   7   8   9
  64 prop tor   6   7   8  19
  65 ben   6   7  18
  66 ben   7   6  17
  67 ben   7   8   9
  68 prop tor   7   8   9  10
  69 prop tor   7   8   9  20
  70 ben   7   8  19
  71 ben   8   7  18
  72 ben   8   9  10
  73 prop tor   8   9  10   5
  74 prop tor   8   9  10  11
  75 ben   8   9  20
  76 ben   9   8  19
  77 ben   9  10  11
  78 prop tor   9  10  11  12
  79 prop tor   9  10  11  16
  80 prop tor  10   5   6   7
  81 prop tor  10   5   6  17
  82 ben  10   9  20
  83 ben  10  11  12
  84 prop tor  10  11  12  13
  85 prop tor  10  11  12  21
  86 ben  10  11  16
  87 prop tor  10  11  16   2
  88 prop tor  10  11  16  15
  89 ben  11  12  13
  90 prop tor  11  12  13  14
  91 prop tor  11  12  13  22
  92 ben  11  12  21
  93 ben  11  16  15
  94 ben  12  11  16
  95 prop tor  12  11  16   2
  96 prop tor  12  11  16  15
  97 ben  12  13  14
  98 prop tor  12  13  14  15
  99 prop tor  12  13  14  23
 100 ben  12  13  22
 101 ben  13  12  21
 102 ben  13  14  15
 103 prop tor  13  14  15  16
 104 prop tor  13  14  15  24
 105 ben  13  14  23
 106 ben  14  13  22
 107 ben  14  15  16
 108 prop tor  14  15  16   2
 109 prop tor  14  15  16  11
 110 ben  14  15  24
 111 ben  15  14  23
 112 prop tor  16   2   3   4
 113 prop tor  16   2   3   5
 114 prop tor  16  11  12  13
 115 prop tor  16  11  12  21
 116 ben  16  15  24
 117 prop tor  17   6   7   8
 118 prop tor  17   6   7  18
 119 prop tor  18   7   8   9
 120 prop tor  18   7   8  19
 121 prop tor  19   8   9  10
 122 prop tor  19   8   9  20
 123 prop tor  20   9  10   5
 124 prop tor  20   9  10  11
 125 prop tor  21  12  13  14
 126 prop tor  21  12  13  22
 127 prop tor  22  13  14  15
 128 prop tor  22  13  14  23
 129 prop tor  23  14  15  16
 130 prop tor  23  14  15  24
 131 prop tor  24  15  16   2
 132 prop tor  24  15  16  11
 nber bend=              42
 nber lin bend=           0
 nber prop tor=          64
 nber impr tor=           0
 nber tot redund int=         132
 Eigenvalues of G in red int coords
    Gval -0.00000000 -0.00000000 -0.00000000 -0.00000000 -0.00000000 -0.00000000 -0.00000000 -0.00000000
    Gval -0.00000000 -0.00000000 -0.00000000 -0.00000000 -0.00000000 -0.00000000 -0.00000000 -0.00000000
    Gval -0.00000000 -0.00000000 -0.00000000 -0.00000000 -0.00000000 -0.00000000 -0.00000000 -0.00000000
    Gval -0.00000000 -0.00000000 -0.00000000 -0.00000000 -0.00000000  0.00000000  0.00000000  0.00000000
    Gval  0.00000000  0.00000000  0.00000000  0.00000000  0.00000000  0.00000000  0.00000000  0.00000000
    Gval  0.00000000  0.00000000  0.00000000  0.00000000  0.00000000  0.00000000  0.00000000  0.00000000
    Gval  0.00000000  0.00000000  0.00000000  0.00000000  0.00000000  0.00000000  0.00000000  0.00000000
    Gval  0.00000000  0.00000000  0.00000000  0.00000000  0.00000000  0.00000000  0.00000000  0.00000000
    Gval  0.00000000  0.00000000  0.00000679  0.00001095  0.00001159  0.00002019  0.00002156  0.00002582
    Gval  0.00003561  0.00004712  0.00004760  0.00004933  0.00005470  0.00005951  0.00006070  0.00007770
    Gval  0.00007809  0.00009362  0.00010021  0.00010892  0.00011226  0.00012779  0.00012830  0.00013083
    Gval  0.00015499  0.00020155  0.00022891  0.00026045  0.00026429  0.00029382  0.00031909  0.00037036
    Gval  0.00037695  0.00040372  0.00042826  0.00042903  0.00045064  0.00059318  0.00059323  0.00059713
    Gval  0.00059734  0.00059947  0.00061689  0.00062122  0.00065307  0.00065351  0.00069817  0.00088076
    Gval  0.00095368  0.00104291  0.00104411  0.00111210  0.00111235  0.00114910  0.00114930  0.00116111
    Gval  0.00116114  0.00120150  0.00162903  0.00180734  0.00184456  0.00214420  0.00260651  0.00278457
    Gval  0.00344445  0.00350167  0.00398972  0.00399332
  6.792023272182249E-006  6.792023272182249E-006
  1.095340624737541E-005  6.792023272182249E-006
  1.159481325249908E-005  6.792023272182249E-006
  2.018867648494505E-005  6.792023272182249E-006
  2.155761530014722E-005  6.792023272182249E-006
  2.582394931005988E-005  6.792023272182249E-006
  3.560611648761231E-005  6.792023272182249E-006
  4.712103863095253E-005  6.792023272182249E-006
  4.760481071570090E-005  6.792023272182249E-006
  4.933499133055252E-005  6.792023272182249E-006
  5.469895477973777E-005  6.792023272182249E-006
  5.951312694238091E-005  6.792023272182249E-006
  6.070040721973854E-005  6.792023272182249E-006
  7.769697976973690E-005  6.792023272182249E-006
  7.808794471423100E-005  6.792023272182249E-006
  9.362228567754688E-005  6.792023272182249E-006
  1.002095744283498E-004  6.792023272182249E-006
  1.089223890271680E-004  6.792023272182249E-006
  1.122620695155690E-004  6.792023272182249E-006
  1.277919055178375E-004  6.792023272182249E-006
  1.283028508832834E-004  6.792023272182249E-006
  1.308326768678703E-004  6.792023272182249E-006
  1.549895942664951E-004  6.792023272182249E-006
  2.015462132017600E-004  6.792023272182249E-006
  2.289062220123833E-004  6.792023272182249E-006
  2.604479321620775E-004  6.792023272182249E-006
  2.642907853066749E-004  6.792023272182249E-006
  2.938231552297245E-004  6.792023272182249E-006
  3.190901674294219E-004  6.792023272182249E-006
  3.703560895396101E-004  6.792023272182249E-006
  3.769540180654849E-004  6.792023272182249E-006
  4.037225661123396E-004  6.792023272182249E-006
  4.282599582197586E-004  6.792023272182249E-006
  4.290268378571805E-004  6.792023272182249E-006
  4.506403435020935E-004  6.792023272182249E-006
  5.931814537111723E-004  6.792023272182249E-006
  5.932261209948764E-004  6.792023272182249E-006
  5.971269783682545E-004  6.792023272182249E-006
  5.973363511870123E-004  6.792023272182249E-006
  5.994707637846648E-004  6.792023272182249E-006
  6.168875161228635E-004  6.792023272182249E-006
  6.212226562912020E-004  6.792023272182249E-006
  6.530749467671407E-004  6.792023272182249E-006
  6.535139171276541E-004  6.792023272182249E-006
  6.981653254001835E-004  6.792023272182249E-006
  8.807604523279936E-004  6.792023272182249E-006
  9.536810335468612E-004  6.792023272182249E-006
  1.042914561907076E-003  6.792023272182249E-006
  1.044109109658177E-003  6.792023272182249E-006
  1.112102317661751E-003  6.792023272182249E-006
  1.112346228241163E-003  6.792023272182249E-006
  1.149095415049334E-003  6.792023272182249E-006
  1.149304404106494E-003  6.792023272182249E-006
  1.161106634067274E-003  6.792023272182249E-006
  1.161135724558001E-003  6.792023272182249E-006
  1.201500413089462E-003  6.792023272182249E-006
  1.629031616804808E-003  6.792023272182249E-006
  1.807335897767946E-003  6.792023272182249E-006
  1.844564867289164E-003  6.792023272182249E-006
  2.144195334781959E-003  6.792023272182249E-006
  2.606509830357238E-003  6.792023272182249E-006
  2.784567467243627E-003  6.792023272182249E-006
  3.444451481037129E-003  6.792023272182249E-006
  3.501673570404811E-003  6.792023272182249E-006
  3.989724395875794E-003  6.792023272182249E-006
  3.993323888581366E-003  6.792023272182249E-006
 cut=1d-8, nber non-redundant internal coords=          66
 Check on Eigenvals of non-red overlap matrix:
  0.00000679  0.00001095  0.00001159  0.00002019  0.00002156  0.00002582  0.00003561  0.00004712
  0.00004760  0.00004933  0.00005470  0.00005951  0.00006070  0.00007770  0.00007809  0.00009362
  0.00010021  0.00010892  0.00011226  0.00012779  0.00012830  0.00013083  0.00015499  0.00020155
  0.00022891  0.00026045  0.00026429  0.00029382  0.00031909  0.00037036  0.00037695  0.00040372
  0.00042826  0.00042903  0.00045064  0.00059318  0.00059323  0.00059713  0.00059734  0.00059947
  0.00061689  0.00062122  0.00065307  0.00065351  0.00069817  0.00088076  0.00095368  0.00104291
  0.00104411  0.00111210  0.00111235  0.00114910  0.00114930  0.00116111  0.00116114  0.00120150
  0.00162903  0.00180734  0.00184456  0.00214420  0.00260651  0.00278457  0.00344445  0.00350167
  0.00398972  0.00399332
 d1=
   3.2  -4.4   0.0   0.0   8.8  10.1   0.0  -0.0   0.0  -0.0  -2.6  -0.0  -5.9  -0.0  -7.1  -0.0  -0.2  -0.0   0.0   3.4
   5.6  -0.0   1.4  -0.0  -0.0  -0.0  -0.3  -0.8   0.0  -0.0   3.8   0.0   0.0  -4.2   0.0   0.5  -0.0   0.2  -0.0  -0.8
   0.0   0.0   0.7   0.0   0.0  -0.0  -0.0  -0.8  -0.0  -0.0  -0.3  -1.0   0.0   0.0   0.1   0.0  -0.0  -0.0   0.0   0.0
   0.0   0.0   0.0  -0.0   0.0  -0.0
 d2=
   3.6  -4.0   0.0   0.0  -6.5  11.3  -0.0   0.0  -0.0   0.0  -2.6  -0.0  -6.2  -0.0  -7.0   0.0  -0.1  -0.0   0.0  -6.6
  -0.3   0.0  -1.3  -0.0  -0.0  -0.3  -0.0   1.0   0.0  -0.0  -3.6  -0.0  -0.0   4.4  -0.0  -0.5  -0.0  -0.2  -0.0   0.0
  -0.7  -0.0  -0.7  -0.0  -0.0  -0.0  -0.0   0.8   0.0   0.0  -0.2  -1.0  -0.0   0.0   0.2   0.0  -0.0   0.0  -0.0  -0.0
  -0.0  -0.0  -0.0   0.0  -0.0   0.0
 curvilinear- renormalizn of Dush matrix done
  mol 1 sym            1  -> mol 2 sym            1
  mol 1 sym            2  -> mol 2 sym            2
  mol 1 sym            3  -> mol 2 sym            4
  mol 1 sym            4  -> mol 2 sym            3

 Dushinsky matrix, ncs 2 in terms of ncs 1

   mode   freq    coeff     %      %tot     of    at

   1 A1     -0. -0.0000     0.0     0.0  11 A1    243.
   2 B2     -0. -0.0000     0.0     0.0  13 B1    319.
   3 A2     -0.  0.0000     0.0     0.0   7 A2     25.
   4 B1     -0.  0.0000     0.0     0.0  10 B2    152.
   5 B1      0. -0.0000     0.0     0.0   8 B2     85.
   6 B2      0.  0.0000     0.0     0.0  13 B1    319.
   7 A2     50. -0.9411    88.6    98.1   7 A2     25.
                -0.3186    10.1           9 A2    102.
   8 B1     83. -0.9982    99.6    99.0   8 B2     85.
   9 A2    100.  0.3371    11.4    97.6   7 A2     25.
                -0.9039    81.7           9 A2    102.
  10 B1    155. -0.9974    99.5    97.6  10 B2    152.
  11 A1    240. -0.9982    99.6    98.3  11 A1    243.
  12 A2    247.  0.9537    90.9   101.7  12 A2    259.
  13 B2    317.  0.9995    99.9    95.5  13 B1    319.
  14 A1    371. -0.9990    99.8    96.2  14 A1    366.
  15 B1    380. -0.8069    65.1    98.7  15 B2    386.
                 0.5817    33.8          19 B2    449.
  16 B2    385.  0.9980    99.6   103.7  16 B1    389.
  17 B1    409. -0.5814    33.8    94.1  15 B2    386.
                -0.7992    63.9          19 B2    449.
  18 A1    414. -0.9930    98.6    97.2  17 A1    401.
  19 A2    451.  0.9040    81.7   102.2  18 A2    431.
                 0.3310    11.0          22 A2    566.
  20 A1    456. -0.9968    99.4    99.7  20 A1    463.
[...]
 nber times 1st assigned=          29           0
 nber times 1st assigned=          30           0
 nber times 1st assigned=          31           0
 nber times 1st assigned=          32           0
 nber times 1st assigned=          33           0
 nber times 1st assigned=          34           0
 nber times 1st assigned=          35           0
 nber times 1st assigned=          36           0
 nber times 1st assigned=          37           0
 nber times 1st assigned=          38           0
 nber times 1st assigned=          39           0
 nber times 1st assigned=          40           0
 nber times 1st assigned=          41           0
 nber times 1st assigned=          42           0
 nber times 1st assigned=          43           0
 nber times 1st assigned=          44           0
 nber times 1st assigned=          45           0
 nber times 1st assigned=          46           0
 nber times 1st assigned=          47           0
 nber times 1st assigned=          48           0
 nber times 1st assigned=          49           0
 nber times 1st assigned=          50           0
 nber times 1st assigned=          51           0
 nber times 1st assigned=          52           0
 nber times 1st assigned=          53           0
 nber times 1st assigned=          54           0
 nber times 1st assigned=          55           0
 nber times 1st assigned=          56           0
 nber times 1st assigned=          57           0
 nber times 1st assigned=          58           0
 nber times 1st assigned=          59           0
 nber times 1st assigned=          60           0
 nber times 1st assigned=          61           0
 nber times 1st assigned=          62           0
 nber times 1st assigned=          63           0
 nber times 1st assigned=          64           0
 nber times 1st assigned=          65           0
 nber times 1st assigned=          66           0
 nber times 1st assigned=          67           0
 nber times 1st assigned=          68           0
 nber times 1st assigned=          69           0
 nber times 1st assigned=          70           0
 nber times 1st assigned=          71           0
 nber times 1st assigned=          72           0
 Dushinsky matrix written to .out file
 modes represented=   65.4911293460054     

 Dushinsky matrix, ncs 1 in terms of ncs 2

   mode   freq    coeff     %      %tot     of    at

   7 A2     25. -0.9411    88.6    98.8   7 A2     50.
                 0.3371    11.4           9 A2    100.
   8 B2     85. -0.9982    99.6    99.2   8 B1     83.
   9 A2    102. -0.3186    10.1    97.4   7 A2     50.
                -0.9039    81.7           9 A2    100.
  10 B2    152. -0.9974    99.5    97.6  10 B1    155.
  11 A1    243. -0.9982    99.6    98.8  11 A1    240.
  12 A2    259.  0.9537    90.9   101.9  12 A2    247.
  13 B1    319.  0.9995    99.9    96.1  13 B2    317.
  14 A1    366. -0.9990    99.8    96.6  14 A1    371.
  15 B2    386. -0.8069    65.1    97.5  15 B1    380.
                -0.5814    33.8          17 B1    409.
  16 B1    389.  0.9980    99.6   104.9  16 B2    385.
  17 A1    401. -0.9930    98.6    97.9  18 A1    414.
  18 A2    431.  0.9040    81.7   101.1  19 A2    451.
                -0.3709    13.8          21 A2    509.
  19 B2    449.  0.5817    33.8    95.7  15 B1    380.
                -0.7992    63.9          17 B1    409.
  20 A1    463. -0.9968    99.4    99.6  20 A1    456.
  21 B2    556. -0.8776    77.0    96.8  23 B1    562.
                 0.4025    16.2          25 B1    607.
  22 A2    566.  0.3310    11.0   100.4  19 A2    451.
                 0.7906    62.5          21 A2    509.
                 0.4054    16.4          22 A2    558.
  23 B1    616. -0.7712    59.5   101.6  24 B2    596.
                -0.6456    41.7          26 B2    613.
  24 B1    631.  0.6293    39.6    97.0  24 B2    596.
                -0.7621    58.1          26 B2    613.
  25 B1    683.  0.9959    99.2    98.6  29 B2    670.
  26 A1    693. -0.9935    98.7    98.4  30 A1    676.
  27 A2    718. -0.4165    17.3   100.1  22 A2    558.
                 0.4443    19.7          27 A2    631.
                 0.7242    52.4          31 A2    692.
  28 B2    744.  0.3762    14.2    97.0  23 B1    562.
                 0.5073    25.7          25 B1    607.
                -0.6473    41.9          32 B1    705.
  29 B2    781.  0.3762    14.2    98.8  25 B1    607.
                -0.5598    31.3          28 B1    657.
                 0.6835    46.7          32 B1    705.
  30 A1    796.  0.9902    98.1    98.1  34 A1    789.
  31 A2    797. -0.7299    53.3    99.1  27 A2    631.
                 0.4727    22.3          31 A2    692.
                 0.3881    15.1          35 A2    839.
  32 A2    844. -0.4175    17.4   100.7  22 A2    558.
                -0.3583    12.8          31 A2    692.
                -0.7901    62.4          33 A2    753.
  33 B2    897.  0.5280    27.9    98.9  25 B1    607.
                 0.6939    48.2          28 B1    657.
                 0.4592    21.1          37 B1    847.
  34 A2    905. -0.6096    37.2    99.7  22 A2    558.
                 0.5380    28.9          33 A2    753.
                -0.4270    18.2          38 A2    851.
  35 B1    937. -0.9650    93.1   101.1  39 B2    917.
  36 A2    982.  0.7006    49.1    98.6  35 A2    839.
                 0.5744    33.0          38 A2    851.
  37 B2    988.  0.5445    29.6    98.7  36 B1    845.
                -0.7318    53.6          37 B1    847.
  38 B2   1016.  0.3643    13.3    98.9  25 B1    607.
                -0.7580    57.5          36 B1    845.
                -0.4740    22.5          37 B1    847.
  39 A2   1016. -0.3374    11.4    99.0  27 A2    631.
                -0.5715    32.7          35 A2    839.
                 0.6754    45.6          38 A2    851.
  40 A1   1022.  0.6513    42.4    97.6  41 A1   1023.
                -0.6056    36.7          43 A1   1051.
                -0.3536    12.5          44 A1   1078.
  41 B1   1022.  0.9657    93.3    98.6  40 B2    991.
  42 B1   1072. -0.9277    86.1    99.0  42 B2   1033.
                 0.3296    10.9          45 B2   1087.
  43 A1   1080.  0.6649    44.2    99.4  41 A1   1023.
                 0.6892    47.5          44 A1   1078.
  44 A1   1114.  0.3173    10.1    98.5  41 A1   1023.
                 0.7177    51.5          43 A1   1051.
                -0.5952    35.4          44 A1   1078.
  45 B1   1140.  0.3572    12.8    99.9  42 B2   1033.
                 0.9002    81.0          45 B2   1087.
  46 B1   1186. -0.9409    88.5    99.1  46 B2   1127.
  47 A1   1194.  0.9736    94.8    99.1  47 A1   1143.
  48 B1   1239.  0.9561    91.4   100.6  48 B2   1180.
  49 A1   1249.  0.9330    87.1    99.3  49 A1   1216.
  50 A1   1290.  0.7927    62.8    99.8  51 A1   1264.
                 0.4330    18.8          52 A1   1329.
  51 B1   1302. -0.8178    66.9    99.1  50 B2   1247.
                -0.5255    27.6          53 B2   1337.
  52 A1   1312.  0.4833    23.4    99.4  51 A1   1264.
                -0.7305    53.4          52 A1   1329.
  53 B1   1334.  0.4852    23.5   100.2  50 B2   1247.
                -0.7182    51.6          53 B2   1337.
                 0.4595    21.1          55 B2   1409.
  54 A1   1358. -0.8698    75.7    99.4  54 A1   1356.
  55 A1   1471. -0.9286    86.2    98.9  57 A1   1450.
  56 B1   1482. -0.3628    13.2    99.0  53 B2   1337.
                -0.5715    32.7          55 B2   1409.
                 0.4176    17.4          56 B2   1441.
                -0.5072    25.7          58 B2   1461.
  57 B1   1508. -0.4508    20.3    99.2  56 B2   1441.
                -0.4867    23.7          58 B2   1461.
                 0.7075    50.1          60 B2   1490.
  58 A1   1527.  0.8296    68.8    99.1  59 A1   1477.
                 0.3671    13.5          61 A1   1513.
  59 A1   1602.  0.3843    14.8    99.3  59 A1   1477.
                -0.8890    79.0          61 A1   1513.
  60 B1   1622.  0.5384    29.0    99.8  55 B2   1409.
                 0.5599    31.3          56 B2   1441.
                -0.4818    23.2          58 B2   1461.
  61 A1   1634.  0.9544    91.1    99.7  64 A1   1590.
  62 B1   1641.  0.4314    18.6    99.9  56 B2   1441.
                 0.3710    13.8          58 B2   1461.
                 0.5462    29.8          60 B2   1490.
                -0.5760    33.2          63 B2   1559.
  63 A1   1752. -0.9522    90.7   100.1  62 A1   1546.
  64 B1   1777.  0.3546    12.6   100.4  58 B2   1461.
                 0.7792    60.7          63 B2   1559.
  65 B1   3170. -0.9565    91.5   100.0  65 B2   3051.
  66 A1   3172.  0.9556    91.3   100.0  66 A1   3053.
  67 B1   3185.  0.9340    87.2   100.0  67 B2   3097.
  68 A1   3187. -0.9261    85.8   100.0  68 A1   3099.
  69 B1   3198. -0.9087    82.6   100.0  69 B2   3138.
                -0.3579    12.8          70 B2   3154.
  70 A1   3202. -0.9338    87.2   100.0  71 A1   3154.
  71 B1   3202. -0.3216    10.3   100.0  69 B2   3138.
                 0.9032    81.6          70 B2   3154.
  72 A1   3213. -0.9594    92.0   100.0  72 A1   3159.
 nber times 1st assigned=           1           0
 nber times 1st assigned=           2           0
 nber times 1st assigned=           3           0
 nber times 1st assigned=           4           0
 nber times 1st assigned=           5           0
 nber times 1st assigned=           6           0
 nber times 1st assigned=           7           0
 nber times 1st assigned=           8           0
 nber times 1st assigned=           9           0
 nber times 1st assigned=          10           0
 nber times 1st assigned=          11           0
 nber times 1st assigned=          12           0
 nber times 1st assigned=          13           0
 nber times 1st assigned=          14           0
 nber times 1st assigned=          15           0
 nber times 1st assigned=          16           0
 nber times 1st assigned=          17           0
 nber times 1st assigned=          18           0
 nber times 1st assigned=          19           0
 nber times 1st assigned=          20           0
 nber times 1st assigned=          21           0
 nber times 1st assigned=          22           0
 nber times 1st assigned=          23           0
 nber times 1st assigned=          24           0
 nber times 1st assigned=          25           0
 nber times 1st assigned=          26           0
 nber times 1st assigned=          27           0
 nber times 1st assigned=          28           0
 nber times 1st assigned=          29           0
 nber times 1st assigned=          30           0
 nber times 1st assigned=          31           0
 nber times 1st assigned=          32           0
 nber times 1st assigned=          33           0
 nber times 1st assigned=          34           0
 nber times 1st assigned=          35           0
 nber times 1st assigned=          36           0
 nber times 1st assigned=          37           0
 nber times 1st assigned=          38           0
 nber times 1st assigned=          39           0
 nber times 1st assigned=          40           0
 nber times 1st assigned=          41           0
 nber times 1st assigned=          42           0
 nber times 1st assigned=          43           0
 nber times 1st assigned=          44           0
 nber times 1st assigned=          45           0
 nber times 1st assigned=          46           0
 nber times 1st assigned=          47           0
 nber times 1st assigned=          48           0
 nber times 1st assigned=          49           0
 nber times 1st assigned=          50           0
 nber times 1st assigned=          51           0
 nber times 1st assigned=          52           0
 nber times 1st assigned=          53           0
 nber times 1st assigned=          54           0
 nber times 1st assigned=          55           0
 nber times 1st assigned=          56           0
 nber times 1st assigned=          57           0
 nber times 1st assigned=          58           0
 nber times 1st assigned=          59           0
 nber times 1st assigned=          60           0
 nber times 1st assigned=          61           0
 nber times 1st assigned=          62           0
 nber times 1st assigned=          63           0
 nber times 1st assigned=          64           0
 nber times 1st assigned=          65           0
 nber times 1st assigned=          66           0
 nber times 1st assigned=          67           0
 nber times 1st assigned=          68           0
 nber times 1st assigned=          69           0
 nber times 1st assigned=          70           0
 nber times 1st assigned=          71           0
 nber times 1st assigned=          72           0
 modes represented=   65.4911293460054     
 p1=
   -0.   -0.    0.    0.    0.    0.    0.    0.    0.   -0.    5.   -0.   -0.   -7.   -0.   -0.    2.   -0.   -0.  -11.
   -0.    0.    0.    0.    0.    0.    0.   -0.   -0.   -0.    0.   -0.    0.    0.    0.    0.    0.   -0.   -0.    8.
   -0.   -0.    2.    1.   -0.   -0.   -1.    0.    1.   -3.    0.    3.    0.    2.   -0.   -0.   -0.   -3.    1.    0.
   -3.   -0.   -8.   -0.   -0.   -0.    0.   -0.    0.    0.   -0.    0.
 p2=
    0.   -0.   -0.   -0.   -0.    0.    0.    0.   -0.   -0.    5.    0.   -0.   -7.   -0.    0.   -0.    1.    0.  -11.
   -0.    0.   -0.   -0.    0.   -0.   -0.   -0.    0.    1.   -0.    0.   -0.    0.   -0.   -0.   -0.    0.   -0.   -0.
   -6.    0.    4.    2.   -0.   -0.    1.    0.   -1.    0.    0.    2.    0.    3.    0.    0.   -1.    0.    1.   -0.
    0.  -10.    0.    3.   -0.    0.    0.   -0.   -0.    0.    0.    0.

 Displacement: in terms of nc of 1 THEN of nc of 2

   1 B1  freq=    -0. Q= -0.000 lam=    -0.0 A1  freq=    -0. Q= -0.000 lam=    -0.0
   2 B2  freq=    -0. Q= -0.000 lam=    -0.0 B2  freq=    -0. Q= -0.000 lam=    -0.0
   3 B1  freq=     0. Q=  0.000 lam=     0.0 A2  freq=    -0. Q=  0.000 lam=    -0.0
   4 A1  freq=     0. Q=  0.000 lam=     0.0 B1  freq=    -0. Q=  0.000 lam=    -0.0
   5 A2  freq=     0. Q=  0.000 lam=     0.0 B1  freq=     0. Q=  0.000 lam=     0.0
   6 B2  freq=     0. Q=  0.000 lam=     0.0 B2  freq=     0. Q=  0.000 lam=     0.0
   7 A2  freq=    25. Q=  0.000 lam=     0.0 A2  freq=    50. Q=  0.000 lam=     0.0
   8 B2  freq=    85. Q=  0.000 lam=     0.0 B1  freq=    83. Q=  0.000 lam=     0.0
   9 A2  freq=   102. Q=  0.000 lam=     0.0 A2  freq=   100. Q=  0.000 lam=     0.0
  10 B2  freq=   152. Q= -0.000 lam=     0.0 B1  freq=   155. Q= -0.000 lam=     0.0
  11 A1  freq=   243. Q=  0.324 lam=    12.8 A1  freq=   240. Q=  0.338 lam=    13.7
  12 A2  freq=   259. Q= -0.000 lam=     0.0 A2  freq=   247. Q= -0.000 lam=     0.0
  13 B1  freq=   319. Q= -0.000 lam=     0.0 B2  freq=   317. Q= -0.000 lam=     0.0
  14 A1  freq=   366. Q= -0.537 lam=    52.9 A1  freq=   371. Q= -0.567 lam=    59.6
  15 B2  freq=   386. Q= -0.000 lam=     0.0 B1  freq=   380. Q= -0.000 lam=     0.0
  16 B1  freq=   389. Q= -0.000 lam=     0.0 B2  freq=   385. Q= -0.000 lam=     0.0
  17 A1  freq=   401. Q=  0.124 lam=     3.1 B1  freq=   409. Q=  0.000 lam=     0.0
  18 A2  freq=   431. Q= -0.000 lam=     0.0 A1  freq=   414. Q= -0.123 lam=     3.1
  19 B2  freq=   449. Q= -0.000 lam=     0.0 A2  freq=   451. Q= -0.000 lam=     0.0
  20 A1  freq=   463. Q= -0.973 lam=   219.3 A1  freq=   456. Q= -0.950 lam=   205.5
  21 B2  freq=   556. Q= -0.000 lam=     0.0 A2  freq=   509. Q= -0.000 lam=     0.0
  22 A2  freq=   566. Q=  0.000 lam=     0.0 A2  freq=   558. Q=  0.000 lam=     0.0
  23 B1  freq=   616. Q=  0.000 lam=     0.0 B1  freq=   562. Q=  0.000 lam=     0.0
  24 B1  freq=   631. Q=  0.000 lam=     0.0 B2  freq=   596. Q=  0.000 lam=     0.0
  25 B1  freq=   683. Q=  0.000 lam=     0.0 B1  freq=   607. Q=  0.000 lam=     0.0
  26 A1  freq=   693. Q=  0.049 lam=     0.8 B2  freq=   613. Q=  0.000 lam=     0.0
  27 A2  freq=   718. Q=  0.000 lam=     0.0 A2  freq=   631. Q=  0.000 lam=     0.0
  28 B2  freq=   744. Q= -0.000 lam=     0.0 B1  freq=   657. Q= -0.000 lam=     0.0
  29 B2  freq=   781. Q= -0.000 lam=     0.0 B2  freq=   670. Q= -0.000 lam=     0.0
  30 A1  freq=   796. Q= -0.027 lam=     0.3 A1  freq=   676. Q= -0.065 lam=     1.4
  31 A2  freq=   797. Q=  0.000 lam=     0.0 A2  freq=   692. Q=  0.000 lam=     0.0
  32 A2  freq=   844. Q= -0.000 lam=     0.0 B1  freq=   705. Q= -0.000 lam=     0.0
  33 B2  freq=   897. Q=  0.000 lam=     0.0 A2  freq=   753. Q=  0.000 lam=     0.0
  34 A2  freq=   905. Q=  0.000 lam=     0.0 A1  freq=   789. Q=  0.037 lam=     0.5
  35 B1  freq=   937. Q=  0.000 lam=     0.0 A2  freq=   839. Q=  0.000 lam=     0.0
  36 A2  freq=   982. Q=  0.000 lam=     0.0 B1  freq=   845. Q=  0.000 lam=     0.0
  37 B2  freq=   988. Q=  0.000 lam=     0.0 B1  freq=   847. Q=  0.000 lam=     0.0
  38 B2  freq=  1016. Q= -0.000 lam=     0.0 A2  freq=   851. Q= -0.000 lam=     0.0
  39 A2  freq=  1016. Q= -0.000 lam=     0.0 B2  freq=   917. Q= -0.000 lam=     0.0
  40 A1  freq=  1022. Q=  0.985 lam=   496.0 B2  freq=   991. Q=  0.000 lam=     0.0
  41 B1  freq=  1022. Q= -0.000 lam=     0.0 A1  freq=  1023. Q= -0.803 lam=   329.6
  42 B1  freq=  1072. Q= -0.000 lam=     0.0 B2  freq=  1033. Q= -0.000 lam=     0.0
  43 A1  freq=  1080. Q=  0.249 lam=    33.6 A1  freq=  1051. Q=  0.489 lam=   125.9
  44 A1  freq=  1114. Q=  0.100 lam=     5.6 A1  freq=  1078. Q=  0.217 lam=    25.4
  45 B1  freq=  1140. Q= -0.000 lam=     0.0 B2  freq=  1087. Q= -0.000 lam=     0.0
  46 B1  freq=  1186. Q= -0.000 lam=     0.0 B2  freq=  1127. Q= -0.000 lam=     0.0
  47 A1  freq=  1194. Q= -0.207 lam=    25.5 A1  freq=  1143. Q= -0.189 lam=    20.3
  48 B1  freq=  1239. Q=  0.000 lam=     0.0 B2  freq=  1180. Q=  0.000 lam=     0.0
  49 A1  freq=  1249. Q=  0.155 lam=    15.0 A1  freq=  1216. Q=  0.201 lam=    24.5
  50 A1  freq=  1290. Q= -0.505 lam=   164.4 B2  freq=  1247. Q= -0.000 lam=     0.0
  51 B1  freq=  1302. Q=  0.000 lam=     0.0 A1  freq=  1264. Q=  0.017 lam=     0.2
  52 A1  freq=  1312. Q=  0.369 lam=    89.1 A1  freq=  1329. Q=  0.325 lam=    70.1
  53 B1  freq=  1334. Q=  0.000 lam=     0.0 B2  freq=  1337. Q=  0.000 lam=     0.0
  54 A1  freq=  1358. Q=  0.363 lam=    89.7 A1  freq=  1356. Q=  0.375 lam=    95.3
  55 A1  freq=  1471. Q= -0.063 lam=     2.9 B2  freq=  1409. Q= -0.000 lam=     0.0
  56 B1  freq=  1482. Q= -0.000 lam=     0.0 B2  freq=  1441. Q= -0.000 lam=     0.0
  57 B1  freq=  1508. Q= -0.000 lam=     0.0 A1  freq=  1450. Q= -0.100 lam=     7.3
  58 A1  freq=  1527. Q= -0.408 lam=   127.0 B2  freq=  1461. Q= -0.000 lam=     0.0
  59 A1  freq=  1602. Q=  0.130 lam=    13.6 A1  freq=  1477. Q=  0.120 lam=    10.6
  60 B1  freq=  1622. Q=  0.000 lam=     0.0 B2  freq=  1490. Q=  0.000 lam=     0.0
  61 A1  freq=  1634. Q= -0.495 lam=   200.0 A1  freq=  1513. Q= -0.020 lam=     0.3
  62 B1  freq=  1641. Q= -0.000 lam=     0.0 A1  freq=  1546. Q= -1.532 lam=  1814.3
  63 A1  freq=  1752. Q= -1.425 lam=  1778.8 B2  freq=  1559. Q= -0.000 lam=     0.0
  64 B1  freq=  1777. Q= -0.000 lam=     0.0 A1  freq=  1590. Q= -0.405 lam=   130.3
  65 B1  freq=  3170. Q= -0.000 lam=     0.0 B2  freq=  3051. Q= -0.000 lam=     0.0
  66 A1  freq=  3172. Q= -0.051 lam=     4.2 A1  freq=  3053. Q= -0.067 lam=     6.8
  67 B1  freq=  3185. Q=  0.000 lam=     0.0 B2  freq=  3097. Q=  0.000 lam=     0.0
  68 A1  freq=  3187. Q= -0.084 lam=    11.4 A1  freq=  3099. Q= -0.087 lam=    11.7
  69 B1  freq=  3198. Q=  0.000 lam=     0.0 B2  freq=  3138. Q=  0.000 lam=     0.0
  70 A1  freq=  3202. Q=  0.048 lam=     3.7 B2  freq=  3154. Q=  0.000 lam=     0.0
  71 B1  freq=  3202. Q= -0.000 lam=     0.0 A1  freq=  3154. Q= -0.018 lam=     0.5
  72 A1  freq=  3213. Q=  0.050 lam=     4.1 A1  freq=  3159. Q=  0.049 lam=     3.8

 total reorg energy (cm**-1, kcal/mol)=     3354.     2961.      9.59      8.47
 Nber of molecules processed=           2
