 Enter ifcurve (0=recti, 1=orth curvi, 2=apprx curvi, -1 = skip
 And atom ordering flag, 0= never changes, 1= use the first order thenceforth,
  2= deduce it (does read on fail), 3= always read it
 Reading file: 
 ./Phenyls_1_C0S0.log                                                           
                                          
  Entering Gaussian System, Link 0=g16                                          
  
 Gaussian format, type: g94, g98, g03= F F F
  #P Geom=AllCheck Guess=TCheck SCRF=Check GenChk RB3LYP/6-311G(d,p) Fre    
 energy type= B3LYP   
 Original G94 input coords:
  6  5.763809  0.000000  0.000000
  6  5.056323 -1.199114  0.000000
  6  3.665848 -1.197655  0.000000
  6  2.929576  0.000000  0.000000
  6  3.665848  1.197655  0.000000
  6  5.056323  1.199114  0.000000
  6  1.439533  0.000000  0.000000
  6  0.693544  1.189455  0.000000
  6 -0.693544  1.189455  0.000000
  6 -1.439533  0.000000  0.000000
  6 -0.693544 -1.189455  0.000000
  6  0.693544 -1.189455  0.000000
  6 -2.929576  0.000000  0.000000
  6 -3.665848  1.197655  0.000000
  6 -5.056323  1.199114  0.000000
  6 -5.763809  0.000000  0.000000
  6 -5.056323 -1.199114  0.000000
  6 -3.665848 -1.197655  0.000000
  1  6.847690  0.000000  0.000000
  1  5.587840 -2.144300  0.000000
  1  3.156449 -2.152050  0.000000
  1  3.156449  2.152050  0.000000
  1  5.587840  2.144300  0.000000
  1  1.193990  2.148565  0.000000
  1 -1.193990  2.148565  0.000000
  1 -1.193990 -2.148565  0.000000
  1  1.193990 -2.148565  0.000000
  1 -3.156449  2.152050  0.000000
  1 -5.587840  2.144300  0.000000
  1 -6.847690  0.000000  0.000000
  1 -5.587840 -2.144300  0.000000
  1 -3.156449 -2.152050  0.000000
 nber atoms=          32
 Original standard coords:
  6  0.000000  0.000000  5.763809
  6  0.000000  1.199114  5.056323
  6  0.000000  1.197655  3.665848
  6  0.000000  0.000000  2.929576
  6  0.000000 -1.197655  3.665848
  6  0.000000 -1.199114  5.056323
  6  0.000000  0.000000  1.439533
  6  0.000000 -1.189455  0.693544
  6  0.000000 -1.189455 -0.693544
  6  0.000000  0.000000 -1.439533
  6  0.000000  1.189455 -0.693544
  6  0.000000  1.189455  0.693544
  6  0.000000  0.000000 -2.929576
  6  0.000000 -1.197655 -3.665848
  6  0.000000 -1.199114 -5.056323
  6  0.000000  0.000000 -5.763809
  6  0.000000  1.199114 -5.056323
  6  0.000000  1.197655 -3.665848
  1  0.000000  0.000000  6.847690
  1  0.000000  2.144300  5.587840
  1  0.000000  2.152050  3.156449
  1  0.000000 -2.152050  3.156449
  1  0.000000 -2.144300  5.587840
  1  0.000000 -2.148565  1.193990
  1  0.000000 -2.148565 -1.193990
  1  0.000000  2.148565 -1.193990
  1  0.000000  2.148565  1.193990
  1  0.000000 -2.152050 -3.156449
  1  0.000000 -2.144300 -5.587840
  1  0.000000  0.000000 -6.847690
  1  0.000000  2.144300 -5.587840
  1  0.000000  2.152050 -3.156449
  SCF Done:  E(RB3LYP) =  -694.521564068     A.U. after    1 cycles             
  
          23          40 "  -694.521564068"
After scan for Atom:   Atom  AN      X      Y      Z        X      Y      Z        X      Y      Z   
After scan for Atom:   Atom  AN      X      Y      Z        X      Y      Z        X      Y      Z   
After scan for Atom:   Atom  AN      X      Y      Z        X      Y      Z        X      Y      Z   
After scan for Atom:   Atom  AN      X      Y      Z        X      Y      Z        X      Y      Z   
After scan for Atom:   Atom  AN      X      Y      Z        X      Y      Z        X      Y      Z   
After scan for Atom:   Atom  AN      X      Y      Z        X      Y      Z        X      Y      Z   
After scan for Atom:   Atom  AN      X      Y      Z        X      Y      Z        X      Y      Z   
After scan for Atom:   Atom  AN      X      Y      Z        X      Y      Z        X      Y      Z   
After scan for Atom:   Atom  AN      X      Y      Z        X      Y      Z        X      Y      Z   
After scan for Atom:   Atom  AN      X      Y      Z        X      Y      Z        X      Y      Z   
After scan for Atom:   Atom  AN      X      Y      Z        X      Y      Z        X      Y      Z   
After scan for Atom:   Atom  AN      X      Y      Z        X      Y      Z        X      Y      Z   
After scan for Atom:   Atom  AN      X      Y      Z        X      Y      Z        X      Y      Z   
After scan for Atom:   Atom  AN      X      Y      Z        X      Y      Z        X      Y      Z   
After scan for Atom:   Atom  AN      X      Y      Z        X      Y      Z        X      Y      Z   
After scan for Atom:   Atom  AN      X      Y      Z        X      Y      Z        X      Y      Z   
After scan for Atom:   Atom  AN      X      Y      Z        X      Y      Z        X      Y      Z   
After scan for Atom:   Atom  AN      X      Y      Z        X      Y      Z        X      Y      Z   
After scan for Atom:   Atom  AN      X      Y      Z        X      Y      Z        X      Y      Z   
After scan for Atom:   Atom  AN      X      Y      Z        X      Y      Z        X      Y      Z   
After scan for Atom:   Atom  AN      X      Y      Z        X      Y      Z        X      Y      Z   
After scan for Atom:   Atom  AN      X      Y      Z        X      Y      Z        X      Y      Z   
After scan for Atom:   Atom  AN      X      Y      Z        X      Y      Z        X      Y      Z   
After scan for Atom:   Atom  AN      X      Y      Z        X      Y      Z        X      Y      Z   
After scan for Atom:   Atom  AN      X      Y      Z        X      Y      Z        X      Y      Z   
After scan for Atom:   Atom  AN      X      Y      Z        X      Y      Z        X      Y      Z   
After scan for Atom:   Atom  AN      X      Y      Z        X      Y      Z        X      Y      Z   
After scan for Atom:   Atom  AN      X      Y      Z        X      Y      Z        X      Y      Z   
After scan for Atom:   Atom  AN      X      Y      Z        X      Y      Z        X      Y      Z   
After scan for Atom:   Atom  AN      X      Y      Z        X      Y      Z        X      Y      Z   
 g94    frequencies=
     0.0    0.0    0.0    0.0    0.0    0.0  -98.6  -58.1   38.4   98.1
   114.0  187.5  215.6  229.2  308.5  382.0  385.0  404.0  415.9  432.8
   454.0  461.2  528.2  558.4  625.7  629.4  635.9  664.3  693.3  696.6
   710.7  728.9  764.3  790.6  792.5  805.2  833.7  847.8  852.8  919.0
   919.1  945.8  955.5  970.2  975.5  997.2  997.9 1011.0 1015.5 1018.6
  1024.2 1052.7 1064.9 1065.3 1110.6 1112.7 1163.5 1185.3 1190.0 1207.3
  1219.9 1252.8 1286.8 1291.7 1301.7 1307.6 1320.9 1350.8 1366.9 1374.0
  1437.5 1472.3 1489.2 1518.5 1535.4 1568.3 1593.8 1621.4 1625.2 1637.7
  1644.7 1656.4 3161.3 3161.5 3169.4 3169.7 3181.0 3183.8 3184.8 3188.1
  3193.2 3196.0 3203.9 3205.2 3210.3 3212.8
 g94    symmetries=
                                                B1     AU     B3     B2
      B2     B3     B3     AG     B2     B2     AU     B1     AU     B1
      B3     B3     B2     B3     AG     B3     B2     B3     B2     B3
      B1     B2     B3     AG     B2     B1     AU     B1     B3     B3
      B2     AU     B2     B1     AU     B3     B2     AG     B1     B1
      AG     B1     B1     AG     B2     B3     B2     B3     B2     AG
      B1     AG     AG     B2     B1     B3     B2     B3     B3     B2
      B2     B3     B2     B1     AG     B1     B3     B2     B3     AG
      B1     AG     B1     AG     B3     B2     B1     B3     AG     B1
      B2     AG     B3     B1     B2     AG
 atomic masses:
 12.0000 12.0000 12.0000 12.0000 12.0000 12.0000 12.0000 12.0000 12.0000 12.0000
 12.0000 12.0000 12.0000 12.0000 12.0000 12.0000 12.0000 12.0000  1.0078  1.0078
  1.0078  1.0078  1.0078  1.0078  1.0078  1.0078  1.0078  1.0078  1.0078  1.0078
  1.0078  1.0078
 looking for force constants in 
 ./Phenyls_1_C0S0.fchk                                                          
  
 Cartesian Force Constants                  R   N=        4656                  
  
 n3=          96        4656
 g94-fc frequencies=
   -98.6  -58.1   -2.6   -1.7   -0.0   -0.0    0.0    0.7   38.4   98.1
   114.0  187.5  215.6  229.2  308.5  382.0  385.0  404.0  415.9  432.8
   454.0  461.2  528.3  558.4  625.7  629.4  635.9  664.3  693.4  696.6
   710.7  728.9  764.3  790.7  792.5  805.3  833.8  847.8  852.8  919.0
   919.1  945.8  955.5  970.2  975.5  997.3  997.9 1011.0 1015.5 1018.6
  1024.2 1052.7 1064.9 1065.3 1110.6 1112.7 1163.5 1185.3 1190.1 1207.3
  1219.9 1252.8 1286.8 1291.7 1301.7 1307.7 1320.9 1350.8 1366.9 1374.0
  1437.6 1472.3 1489.2 1518.5 1535.5 1568.4 1593.9 1621.4 1625.2 1637.8
  1644.7 1656.4 3161.4 3161.6 3169.5 3169.8 3181.0 3183.9 3184.9 3188.2
  3193.2 3196.1 3204.0 3205.3 3210.3 3212.9
 at 99999: n3=          96
 symm operator            1 :  T  nop=           1
 symm operator            2 :  T  nop=           2
 symm operator            3 :  T  nop=           3
 symm operator            4 :  T  nop=           4
 symm operator            5 :  T  nop=           5
 symm operator            6 :  T  nop=           6
 symm operator            7 :  T  nop=           7
 The point group of the molecule is D2H
 enforcing symm op           1  jsymt=          -1          -1           1
 enforcing symm op           2  jsymt=          -1           1          -1
 enforcing symm op           3  jsymt=           1          -1          -1
 enforcing symm op           4  jsymt=          -1          -1          -1
 enforcing symm op           5  jsymt=           1           1          -1
 enforcing symm op           6  jsymt=           1          -1           1
 enforcing symm op           7  jsymt=          -1           1           1
 cartesian coord symmetries:
 Ag :   16 Au :    6 B1g:    6 B1u:   16 B2g:   10 B2u:   16 B3g:   16 B3u:   10
 Symmetry rotation matrix:
   1.00000   0.00000   0.00000
   0.00000   1.00000   0.00000
   0.00000   0.00000   1.00000

 Projecting out zero-frequency components
 generating redundant internal coords
         300        3600          32
 search for int coords
   1 str   2   1   1.392
   2 str   3   2   1.390
   3 str   4   3   1.406
   4 str   5   4   1.406
   5 str   6   1   1.392
   6 str   6   5   1.390
   7 str   7   4   1.490
   8 str   8   7   1.404
   9 str   9   8   1.387
  10 str  10   9   1.404
  11 str  11  10   1.404
  12 str  12   7   1.404
  13 str  12  11   1.387
  14 str  13  10   1.490
  15 str  14  13   1.406
  16 str  15  14   1.390
  17 str  16  15   1.392
  18 str  17  16   1.392
  19 str  18  13   1.406
  20 str  18  17   1.390
  21 str  19   1   1.084
  22 str  20   2   1.084
  23 str  21   3   1.082
  24 str  22   5   1.082
  25 str  23   6   1.084
  26 str  24   8   1.082
  27 str  25   9   1.082
  28 str  26  11   1.082
  29 str  27  12   1.082
  30 str  28  14   1.082
  31 str  29  15   1.084
  32 str  30  16   1.084
  33 str  31  17   1.084
  34 str  32  18   1.082
 nber stretches=          34
  35 ben   1   2   3
  36 prop tor   1   2   3   4
  37 prop tor   1   2   3  21
  38 ben   1   2  20
  39 ben   1   6   5
  40 ben   1   6  23
  41 ben   2   1   6
  42 prop tor   2   1   6   5
  43 prop tor   2   1   6  23
  44 ben   2   1  19
  45 ben   2   3   4
  46 prop tor   2   3   4   5
  47 prop tor   2   3   4   7
  48 ben   2   3  21
  49 ben   3   2  20
  50 ben   3   4   5
  51 prop tor   3   4   5   6
  52 prop tor   3   4   5  22
  53 ben   3   4   7
  54 prop tor   3   4   7   8
  55 prop tor   3   4   7  12
  56 ben   4   3  21
  57 ben   4   5   6
  58 prop tor   4   5   6   1
  59 prop tor   4   5   6  23
  60 ben   4   5  22
  61 ben   4   7   8
  62 prop tor   4   7   8   9
  63 prop tor   4   7   8  24
  64 ben   4   7  12
  65 prop tor   4   7  12  11
  66 prop tor   4   7  12  27
  67 ben   5   4   7
  68 prop tor   5   4   7   8
  69 prop tor   5   4   7  12
  70 ben   5   6  23
  71 prop tor   6   1   2   3
  72 prop tor   6   1   2  20
  73 ben   6   1  19
  74 ben   6   5  22
  75 prop tor   7   4   5   6
  76 prop tor   7   4   5  22
  77 ben   7   8   9
  78 prop tor   7   8   9  10
  79 prop tor   7   8   9  25
  80 ben   7   8  24
  81 ben   7  12  11
  82 ben   7  12  27
  83 ben   8   7  12
  84 prop tor   8   7  12  11
  85 prop tor   8   7  12  27
  86 ben   8   9  10
  87 prop tor   8   9  10  11
  88 prop tor   8   9  10  13
  89 ben   8   9  25
  90 ben   9   8  24
  91 ben   9  10  11
  92 prop tor   9  10  11  12
  93 prop tor   9  10  11  26
  94 ben   9  10  13
  95 prop tor   9  10  13  14
  96 prop tor   9  10  13  18
  97 ben  10   9  25
  98 ben  10  11  12
  99 prop tor  10  11  12   7
 100 prop tor  10  11  12  27
 101 ben  10  11  26
 102 ben  10  13  14
 103 prop tor  10  13  14  15
 104 prop tor  10  13  14  28
 105 ben  10  13  18
 106 prop tor  10  13  18  17
 107 prop tor  10  13  18  32
 108 ben  11  10  13
 109 prop tor  11  10  13  14
 110 prop tor  11  10  13  18
 111 ben  11  12  27
 112 prop tor  12   7   8   9
 113 prop tor  12   7   8  24
 114 ben  12  11  26
 115 prop tor  13  10  11  12
 116 prop tor  13  10  11  26
 117 ben  13  14  15
 118 prop tor  13  14  15  16
 119 prop tor  13  14  15  29
 120 ben  13  14  28
 121 ben  13  18  17
 122 ben  13  18  32
 123 ben  14  13  18
 124 prop tor  14  13  18  17
 125 prop tor  14  13  18  32
 126 ben  14  15  16
 127 prop tor  14  15  16  17
 128 prop tor  14  15  16  30
 129 ben  14  15  29
 130 ben  15  14  28
 131 ben  15  16  17
 132 prop tor  15  16  17  18
 133 prop tor  15  16  17  31
 134 ben  15  16  30
 135 ben  16  15  29
 136 ben  16  17  18
 137 prop tor  16  17  18  13
 138 prop tor  16  17  18  32
 139 ben  16  17  31
 140 ben  17  16  30
 141 ben  17  18  32
 142 prop tor  18  13  14  15
 143 prop tor  18  13  14  28
 144 ben  18  17  31
 145 prop tor  19   1   2   3
 146 prop tor  19   1   2  20
 147 prop tor  19   1   6   5
 148 prop tor  19   1   6  23
 149 prop tor  20   2   3   4
 150 prop tor  20   2   3  21
 151 prop tor  21   3   4   5
 152 prop tor  21   3   4   7
 153 prop tor  22   5   6   1
 154 prop tor  22   5   6  23
 155 prop tor  24   8   9  10
 156 prop tor  24   8   9  25
 157 prop tor  25   9  10  11
 158 prop tor  25   9  10  13
 159 prop tor  26  11  12   7
 160 prop tor  26  11  12  27
 161 prop tor  28  14  15  16
 162 prop tor  28  14  15  29
 163 prop tor  29  15  16  17
 164 prop tor  29  15  16  30
 165 prop tor  30  16  17  18
 166 prop tor  30  16  17  31
 167 prop tor  31  17  18  13
 168 prop tor  31  17  18  32
 nber bend=              54
 nber lin bend=           0
 nber prop tor=          80
 nber impr tor=           0
 nber tot redund int=         168
 Eigenvalues of G in red int coords
    Gval -0.00000000 -0.00000000 -0.00000000 -0.00000000 -0.00000000 -0.00000000 -0.00000000 -0.00000000
    Gval -0.00000000 -0.00000000 -0.00000000 -0.00000000 -0.00000000 -0.00000000 -0.00000000 -0.00000000
    Gval -0.00000000 -0.00000000 -0.00000000 -0.00000000 -0.00000000 -0.00000000 -0.00000000 -0.00000000
    Gval -0.00000000 -0.00000000 -0.00000000 -0.00000000 -0.00000000 -0.00000000 -0.00000000 -0.00000000
    Gval -0.00000000 -0.00000000 -0.00000000 -0.00000000 -0.00000000 -0.00000000 -0.00000000  0.00000000
    Gval  0.00000000  0.00000000  0.00000000  0.00000000  0.00000000  0.00000000  0.00000000  0.00000000
    Gval  0.00000000  0.00000000  0.00000000  0.00000000  0.00000000  0.00000000  0.00000000  0.00000000
    Gval  0.00000000  0.00000000  0.00000000  0.00000000  0.00000000  0.00000000  0.00000000  0.00000000
    Gval  0.00000000  0.00000000  0.00000000  0.00000000  0.00000000  0.00000000  0.00000000  0.00000000
    Gval  0.00000000  0.00000000  0.00000000  0.00000000  0.00000000  0.00000000  0.00000137  0.00000359
    Gval  0.00000637  0.00000718  0.00001278  0.00002167  0.00002192  0.00002924  0.00004270  0.00004727
    Gval  0.00005048  0.00005100  0.00005781  0.00005782  0.00006142  0.00006151  0.00007102  0.00007425
    Gval  0.00008219  0.00009860  0.00010959  0.00011526  0.00011928  0.00012143  0.00012494  0.00013139
    Gval  0.00013892  0.00017997  0.00024014  0.00025954  0.00026768  0.00028440  0.00029527  0.00033216
    Gval  0.00035726  0.00036922  0.00038924  0.00040123  0.00042782  0.00052793  0.00054995  0.00059308
    Gval  0.00059308  0.00059338  0.00059349  0.00059746  0.00059976  0.00060406  0.00060407  0.00060930
    Gval  0.00061926  0.00062189  0.00062527  0.00064105  0.00065012  0.00066096  0.00066117  0.00080483
    Gval  0.00101730  0.00104133  0.00104147  0.00108029  0.00110964  0.00111091  0.00111233  0.00113890
    Gval  0.00113898  0.00115108  0.00116833  0.00116998  0.00117028  0.00117305  0.00117305  0.00142713
    Gval  0.00143381  0.00157729  0.00176893  0.00200334  0.00234483  0.00235174  0.00236676  0.00254178
    Gval  0.00311688  0.00316551  0.00360365  0.00366894  0.00370762  0.00370993  0.00406679  0.00406718
  1.365411421178792E-006  1.365411421178792E-006
  3.590509860629200E-006  1.365411421178792E-006
  6.365422774871355E-006  1.365411421178792E-006
  7.181223112963655E-006  1.365411421178792E-006
  1.277631404291881E-005  1.365411421178792E-006
  2.166539914217634E-005  1.365411421178792E-006
  2.191800896769582E-005  1.365411421178792E-006
  2.923613952055740E-005  1.365411421178792E-006
  4.270456951997155E-005  1.365411421178792E-006
  4.726892074231967E-005  1.365411421178792E-006
  5.048491995581373E-005  1.365411421178792E-006
  5.100471071397927E-005  1.365411421178792E-006
  5.781270694309783E-005  1.365411421178792E-006
  5.782495899288863E-005  1.365411421178792E-006
  6.141552393095269E-005  1.365411421178792E-006
  6.150643148859390E-005  1.365411421178792E-006
  7.101926818942926E-005  1.365411421178792E-006
  7.425238622103652E-005  1.365411421178792E-006
  8.219129277925510E-005  1.365411421178792E-006
  9.859769900275679E-005  1.365411421178792E-006
  1.095876429588862E-004  1.365411421178792E-006
  1.152591639448436E-004  1.365411421178792E-006
  1.192813627479156E-004  1.365411421178792E-006
  1.214272766722538E-004  1.365411421178792E-006
  1.249369001983337E-004  1.365411421178792E-006
  1.313890234524163E-004  1.365411421178792E-006
  1.389213650829748E-004  1.365411421178792E-006
  1.799725836300547E-004  1.365411421178792E-006
  2.401417661975542E-004  1.365411421178792E-006
  2.595353900087738E-004  1.365411421178792E-006
  2.676759470026987E-004  1.365411421178792E-006
  2.844026407785927E-004  1.365411421178792E-006
  2.952745318775711E-004  1.365411421178792E-006
  3.321616642915844E-004  1.365411421178792E-006
  3.572618982191660E-004  1.365411421178792E-006
  3.692172707368338E-004  1.365411421178792E-006
  3.892369725568983E-004  1.365411421178792E-006
  4.012346645480010E-004  1.365411421178792E-006
  4.278158332555164E-004  1.365411421178792E-006
  5.279331450516457E-004  1.365411421178792E-006
  5.499478289058505E-004  1.365411421178792E-006
  5.930754316899272E-004  1.365411421178792E-006
  5.930754695075084E-004  1.365411421178792E-006
  5.933751775413747E-004  1.365411421178792E-006
  5.934899692603122E-004  1.365411421178792E-006
  5.974624473189869E-004  1.365411421178792E-006
  5.997552419975170E-004  1.365411421178792E-006
  6.040591186548992E-004  1.365411421178792E-006
  6.040746306264421E-004  1.365411421178792E-006
  6.092992575199187E-004  1.365411421178792E-006
  6.192554964035567E-004  1.365411421178792E-006
  6.218852457421329E-004  1.365411421178792E-006
  6.252655843749378E-004  1.365411421178792E-006
  6.410502567714297E-004  1.365411421178792E-006
  6.501221399975943E-004  1.365411421178792E-006
  6.609621760462305E-004  1.365411421178792E-006
  6.611727586507667E-004  1.365411421178792E-006
  8.048284328514648E-004  1.365411421178792E-006
  1.017296033322209E-003  1.365411421178792E-006
  1.041325253194418E-003  1.365411421178792E-006
  1.041471333098406E-003  1.365411421178792E-006
  1.080291563773316E-003  1.365411421178792E-006
  1.109637511354802E-003  1.365411421178792E-006
  1.110906973445230E-003  1.365411421178792E-006
  1.112329543281043E-003  1.365411421178792E-006
  1.138899167588493E-003  1.365411421178792E-006
  1.138982276573343E-003  1.365411421178792E-006
  1.151079473910437E-003  1.365411421178792E-006
  1.168327309578035E-003  1.365411421178792E-006
  1.169977924108680E-003  1.365411421178792E-006
  1.170275940782701E-003  1.365411421178792E-006
  1.173050221905088E-003  1.365411421178792E-006
  1.173050230134769E-003  1.365411421178792E-006
  1.427134756367573E-003  1.365411421178792E-006
  1.433807583488868E-003  1.365411421178792E-006
  1.577293116483358E-003  1.365411421178792E-006
  1.768934875257030E-003  1.365411421178792E-006
  2.003343384784418E-003  1.365411421178792E-006
  2.344830690199493E-003  1.365411421178792E-006
  2.351742072784805E-003  1.365411421178792E-006
  2.366762736168185E-003  1.365411421178792E-006
  2.541784925910933E-003  1.365411421178792E-006
  3.116882128748528E-003  1.365411421178792E-006
  3.165510081887260E-003  1.365411421178792E-006
  3.603647814018447E-003  1.365411421178792E-006
  3.668936710558630E-003  1.365411421178792E-006
  3.707616542834379E-003  1.365411421178792E-006
  3.709931194830967E-003  1.365411421178792E-006
  4.066785686190183E-003  1.365411421178792E-006
  4.067181946540462E-003  1.365411421178792E-006
 cut=1d-8, nber non-redundant internal coords=          90
 Check on Eigenvals of non-red overlap matrix:
  0.00000137  0.00000359  0.00000637  0.00000718  0.00001278  0.00002167  0.00002192  0.00002924
  0.00004270  0.00004727  0.00005048  0.00005100  0.00005781  0.00005782  0.00006142  0.00006151
  0.00007102  0.00007425  0.00008219  0.00009860  0.00010959  0.00011526  0.00011928  0.00012143
  0.00012494  0.00013139  0.00013892  0.00017997  0.00024014  0.00025954  0.00026768  0.00028440
  0.00029527  0.00033216  0.00035726  0.00036922  0.00038924  0.00040123  0.00042782  0.00052793
  0.00054995  0.00059308  0.00059308  0.00059338  0.00059349  0.00059746  0.00059976  0.00060406
  0.00060407  0.00060930  0.00061926  0.00062189  0.00062527  0.00064105  0.00065012  0.00066096
  0.00066117  0.00080483  0.00101730  0.00104133  0.00104147  0.00108029  0.00110964  0.00111091
  0.00111233  0.00113890  0.00113898  0.00115108  0.00116833  0.00116998  0.00117028  0.00117305
  0.00117305  0.00142713  0.00143381  0.00157729  0.00176893  0.00200334  0.00234483  0.00235174
  0.00236676  0.00254178  0.00311688  0.00316551  0.00360365  0.00366894  0.00370762  0.00370993
  0.00406679  0.00406718
 Checking for correct frequencies
 recalc frequencies=
   -98.6  -58.1   -0.0   -0.0   -0.0   -0.0    0.0    0.0   38.4   98.1
   114.0  187.5  215.6  229.2  308.5  382.0  385.0  404.0  415.9  432.8
   454.0  461.2  528.3  558.4  625.7  629.4  635.9  664.3  693.4  696.6
   710.7  728.9  764.3  790.7  792.5  805.3  833.8  847.8  852.8  919.0
   919.1  945.8  955.5  970.2  975.5  997.3  997.9 1011.0 1015.5 1018.6
  1024.2 1052.7 1064.9 1065.3 1110.6 1112.7 1163.5 1185.3 1190.1 1207.3
  1219.9 1252.8 1286.8 1291.7 1301.7 1307.7 1320.9 1350.8 1366.9 1374.0
  1437.6 1472.3 1489.2 1518.5 1535.5 1568.4 1593.9 1621.4 1625.2 1637.8
  1644.7 1656.4 3161.4 3161.6 3169.5 3169.8 3181.0 3183.9 3184.9 3188.2
  3193.2 3196.1 3204.0 3205.3 3210.3 3212.9
 recalc symmetries=
     B1g    Au     B3g    B2g    B1g    B3u    B2u    B1u    B3u    B2u
     B2g    B3u    B3g    Ag     B2g    B2u    Au     B1g    Au     B1u
     B3u    B3g    B2g    B3u    Ag     B3g    B2u    B3g    B2g    B3u
     B1u    B2g    B3u    Ag     B2g    B1g    Au     B1g    B3u    B3u
     B2g    Au     B2g    B1g    Au     B3u    B2g    Ag     B1u    B1u
     Ag     B1u    B1u    Ag     B2u    B3g    B2u    B3g    B2u    Ag 
     B1u    Ag     Ag     B2u    B1u    B3g    B2u    B3g    B3g    B2u
     B2u    B3g    B2u    B1u    Ag     B1u    B3g    B2u    B3g    Ag 
     B1u    Ag     B1u    Ag     B3g    B2u    B1u    B3g    Ag     B1u
     B2u    Ag     B3g    B1u    B2u    Ag 
 recalc freqs check OK
 Zero-point lengths:
 24.9671 32.5106 10.0000 10.0000 10.0000 10.0000 10.0000 10.0000 39.9969 25.0258
 23.2183 18.1057 16.8851 16.3736 14.1140 12.6838 12.6354 12.3339 12.1558 11.9162
 11.6354 11.5439 10.7863 10.4908  9.9108  9.8817  9.8309  9.6185  9.4150  9.3927
  9.2995  9.1826  8.9674  8.8166  8.8061  8.7363  8.5857  8.5144  8.4894  8.1779
  8.1774  8.0612  8.0201  7.9592  7.9375  7.8504  7.8478  7.7969  7.7795  7.7677
  7.7463  7.6410  7.5970  7.5956  7.4389  7.4320  7.2679  7.2007  7.1864  7.1348
  7.0979  7.0040  6.9110  6.8979  6.8712  6.8556  6.8212  6.7453  6.7053  6.6881
  6.5385  6.4609  6.4242  6.3619  6.3267  6.2599  6.2097  6.1566  6.1495  6.1259
  6.1130  6.0913  4.4092  4.4090  4.4036  4.4033  4.3955  4.3936  4.3929  4.3906
  4.3871  4.3852  4.3798  4.3789  4.3754  4.3737
 highest evec of mol 1
  0.0000  0.0000 -0.0120
  0.0000 -0.0196 -0.0130
  0.0000 -0.0709  0.0381
  0.0000  0.0000  0.0028
  0.0000  0.0709  0.0381
  0.0000  0.0196 -0.0130
  0.0000  0.0000 -0.0054
  0.0000  0.1028 -0.0562
  0.0000  0.1028  0.0562
  0.0000  0.0000  0.0054
  0.0000 -0.1028  0.0562
  0.0000 -0.1028 -0.0562
  0.0000  0.0000 -0.0028
  0.0000  0.0709 -0.0381
  0.0000  0.0196  0.0130
  0.0000  0.0000  0.0120
  0.0000 -0.0196  0.0130
  0.0000 -0.0709 -0.0381
  0.0000  0.0000  0.0360
  0.0000  0.0619  0.0356
  0.0000  0.2371 -0.1316
  0.0000 -0.2371 -0.1316
  0.0000 -0.0619  0.0356
  0.0000 -0.3406  0.1841
  0.0000 -0.3406 -0.1841
  0.0000  0.3406 -0.1841
  0.0000  0.3406  0.1841
  0.0000 -0.2371  0.1316
  0.0000 -0.0619 -0.0356
  0.0000  0.0000 -0.0360
  0.0000  0.0619 -0.0356
  0.0000  0.2371  0.1316
 generating redundant internal coords
         300        3600          32
 Adding extra bonds for z output only
           6           6           6           6           6           6
           6           6           6           6           6           6
           6           6           6           6           6           6
           1           1           1           1           1           1
           1           1           1           1           1           1
           1           1
 search for int coords
   1 str   2   1   1.392
   2 str   3   2   1.390
   3 str   4   3   1.406
   4 str   5   4   1.406
   5 str   6   1   1.392
   6 str   6   5   1.390
   7 str   7   4   1.490
   8 str   8   7   1.404
   9 str   9   8   1.387
  10 str  10   9   1.404
  11 str  11  10   1.404
  12 str  12   7   1.404
  13 str  12  11   1.387
  14 str  13  10   1.490
  15 str  14  13   1.406
  16 str  15  14   1.390
  17 str  16  15   1.392
  18 str  17  16   1.392
  19 str  18  13   1.406
  20 str  18  17   1.390
  21 str  19   1   1.084
  22 str  20   2   1.084
  23 str  21   3   1.082
  24 str  22   5   1.082
  25 str  23   6   1.084
  26 str  24   8   1.082
  27 str  25   9   1.082
  28 str  26  11   1.082
  29 str  27  12   1.082
  30 str  28  14   1.082
  31 str  29  15   1.084
  32 str  30  16   1.084
  33 str  31  17   1.084
  34 str  32  18   1.082
 nber stretches=          34
  35 ben   1   2   3
  36 prop tor   1   2   3   4
  37 prop tor   1   2   3  21
  38 ben   1   2  20
  39 ben   1   6   5
  40 ben   1   6  23
  41 ben   2   1   6
  42 prop tor   2   1   6   5
  43 prop tor   2   1   6  23
  44 ben   2   1  19
  45 ben   2   3   4
  46 prop tor   2   3   4   5
  47 prop tor   2   3   4   7
  48 ben   2   3  21
  49 ben   3   2  20
  50 ben   3   4   5
  51 prop tor   3   4   5   6
  52 prop tor   3   4   5  22
  53 ben   3   4   7
  54 prop tor   3   4   7   8
  55 prop tor   3   4   7  12
  56 ben   4   3  21
  57 ben   4   5   6
  58 prop tor   4   5   6   1
  59 prop tor   4   5   6  23
  60 ben   4   5  22
  61 ben   4   7   8
  62 prop tor   4   7   8   9
  63 prop tor   4   7   8  24
  64 ben   4   7  12
  65 prop tor   4   7  12  11
  66 prop tor   4   7  12  27
  67 ben   5   4   7
  68 prop tor   5   4   7   8
  69 prop tor   5   4   7  12
  70 ben   5   6  23
  71 prop tor   6   1   2   3
  72 prop tor   6   1   2  20
  73 ben   6   1  19
  74 ben   6   5  22
  75 prop tor   7   4   5   6
  76 prop tor   7   4   5  22
  77 ben   7   8   9
  78 prop tor   7   8   9  10
  79 prop tor   7   8   9  25
  80 ben   7   8  24
  81 ben   7  12  11
  82 ben   7  12  27
  83 ben   8   7  12
  84 prop tor   8   7  12  11
  85 prop tor   8   7  12  27
  86 ben   8   9  10
  87 prop tor   8   9  10  11
  88 prop tor   8   9  10  13
  89 ben   8   9  25
  90 ben   9   8  24
  91 ben   9  10  11
  92 prop tor   9  10  11  12
  93 prop tor   9  10  11  26
  94 ben   9  10  13
  95 prop tor   9  10  13  14
  96 prop tor   9  10  13  18
  97 ben  10   9  25
  98 ben  10  11  12
  99 prop tor  10  11  12   7
 100 prop tor  10  11  12  27
 101 ben  10  11  26
 102 ben  10  13  14
 103 prop tor  10  13  14  15
 104 prop tor  10  13  14  28
 105 ben  10  13  18
 106 prop tor  10  13  18  17
 107 prop tor  10  13  18  32
 108 ben  11  10  13
 109 prop tor  11  10  13  14
 110 prop tor  11  10  13  18
 111 ben  11  12  27
 112 prop tor  12   7   8   9
 113 prop tor  12   7   8  24
 114 ben  12  11  26
 115 prop tor  13  10  11  12
 116 prop tor  13  10  11  26
 117 ben  13  14  15
 118 prop tor  13  14  15  16
 119 prop tor  13  14  15  29
 120 ben  13  14  28
 121 ben  13  18  17
 122 ben  13  18  32
 123 ben  14  13  18
 124 prop tor  14  13  18  17
 125 prop tor  14  13  18  32
 126 ben  14  15  16
 127 prop tor  14  15  16  17
 128 prop tor  14  15  16  30
 129 ben  14  15  29
 130 ben  15  14  28
 131 ben  15  16  17
 132 prop tor  15  16  17  18
 133 prop tor  15  16  17  31
 134 ben  15  16  30
 135 ben  16  15  29
 136 ben  16  17  18
 137 prop tor  16  17  18  13
 138 prop tor  16  17  18  32
 139 ben  16  17  31
 140 ben  17  16  30
 141 ben  17  18  32
 142 prop tor  18  13  14  15
 143 prop tor  18  13  14  28
 144 ben  18  17  31
 145 prop tor  19   1   2   3
 146 prop tor  19   1   2  20
 147 prop tor  19   1   6   5
 148 prop tor  19   1   6  23
 149 prop tor  20   2   3   4
 150 prop tor  20   2   3  21
 151 prop tor  21   3   4   5
 152 prop tor  21   3   4   7
 153 prop tor  22   5   6   1
 154 prop tor  22   5   6  23
 155 prop tor  24   8   9  10
 156 prop tor  24   8   9  25
 157 prop tor  25   9  10  11
 158 prop tor  25   9  10  13
 159 prop tor  26  11  12   7
 160 prop tor  26  11  12  27
 161 prop tor  28  14  15  16
 162 prop tor  28  14  15  29
 163 prop tor  29  15  16  17
 164 prop tor  29  15  16  30
 165 prop tor  30  16  17  18
 166 prop tor  30  16  17  31
 167 prop tor  31  17  18  13
 168 prop tor  31  17  18  32
 nber bend=              54
 nber lin bend=           0
 nber prop tor=          80
 nber impr tor=           0
 nber tot redund int=         168
 Reading file: 
 ./Phenyls_1_C-1S0.log                                                          
                                          
  Entering Gaussian System, Link 0=g16                                          
  
 Gaussian format, type: g94, g98, g03= F F F
  #P Geom=AllCheck Guess=TCheck SCRF=Check GenChk UB3LYP/6-311G(d,p) Fre    
 energy type= B3LYP   
 Original G94 input coords:
  6  5.794837  0.000000  0.000000
  6  5.068989 -1.198380  0.000000
  6  3.684027 -1.202825  0.000000
  6  2.915204  0.000000  0.000000
  6  3.684027  1.202825  0.000000
  6  5.068989  1.198380  0.000000
  6  1.465456  0.000000  0.000000
  6  0.687585  1.197670  0.000000
  6 -0.687585  1.197670  0.000000
  6 -1.465456  0.000000  0.000000
  6 -0.687585 -1.197670  0.000000
  6  0.687585 -1.197670  0.000000
  6 -2.915204  0.000000  0.000000
  6 -3.684027  1.202825  0.000000
  6 -5.068989  1.198380  0.000000
  6 -5.794837  0.000000  0.000000
  6 -5.068989 -1.198380  0.000000
  6 -3.684027 -1.202825  0.000000
  1  6.879432  0.000000  0.000000
  1  5.597600 -2.148568  0.000000
  1  3.177846 -2.160434  0.000000
  1  3.177846  2.160434  0.000000
  1  5.597600  2.148568  0.000000
  1  1.186971  2.160204  0.000000
  1 -1.186971  2.160204  0.000000
  1 -1.186971 -2.160204  0.000000
  1  1.186971 -2.160204  0.000000
  1 -3.177846  2.160434  0.000000
  1 -5.597600  2.148568  0.000000
  1 -6.879432  0.000000  0.000000
  1 -5.597600 -2.148568  0.000000
  1 -3.177846 -2.160434  0.000000
 nber atoms=          32
 Original standard coords:
  6  0.000000  0.000000  5.794837
  6  0.000000  1.198380  5.068989
  6  0.000000  1.202825  3.684027
  6  0.000000  0.000000  2.915204
  6  0.000000 -1.202825  3.684027
  6  0.000000 -1.198380  5.068989
  6  0.000000  0.000000  1.465456
  6  0.000000 -1.197670  0.687585
  6  0.000000 -1.197670 -0.687585
  6  0.000000  0.000000 -1.465456
  6  0.000000  1.197670 -0.687585
  6  0.000000  1.197670  0.687585
  6  0.000000  0.000000 -2.915204
  6  0.000000 -1.202825 -3.684027
  6  0.000000 -1.198380 -5.068989
  6  0.000000  0.000000 -5.794837
  6  0.000000  1.198380 -5.068989
  6  0.000000  1.202825 -3.684027
  1  0.000000  0.000000  6.879432
  1  0.000000  2.148568  5.597600
  1  0.000000  2.160434  3.177846
  1  0.000000 -2.160434  3.177846
  1  0.000000 -2.148568  5.597600
  1  0.000000 -2.160204  1.186971
  1  0.000000 -2.160204 -1.186971
  1  0.000000  2.160204 -1.186971
  1  0.000000  2.160204  1.186971
  1  0.000000 -2.160434 -3.177846
  1  0.000000 -2.148568 -5.597600
  1  0.000000  0.000000 -6.879432
  1  0.000000  2.148568 -5.597600
  1  0.000000  2.160434 -3.177846
  SCF Done:  E(UB3LYP) =  -694.534386272     A.U. after    1 cycles             
  
          23          40 "  -694.534386272"
After scan for Atom:   Atom  AN      X      Y      Z        X      Y      Z        X      Y      Z   
After scan for Atom:   Atom  AN      X      Y      Z        X      Y      Z        X      Y      Z   
After scan for Atom:   Atom  AN      X      Y      Z        X      Y      Z        X      Y      Z   
After scan for Atom:   Atom  AN      X      Y      Z        X      Y      Z        X      Y      Z   
After scan for Atom:   Atom  AN      X      Y      Z        X      Y      Z        X      Y      Z   
After scan for Atom:   Atom  AN      X      Y      Z        X      Y      Z        X      Y      Z   
After scan for Atom:   Atom  AN      X      Y      Z        X      Y      Z        X      Y      Z   
After scan for Atom:   Atom  AN      X      Y      Z        X      Y      Z        X      Y      Z   
After scan for Atom:   Atom  AN      X      Y      Z        X      Y      Z        X      Y      Z   
After scan for Atom:   Atom  AN      X      Y      Z        X      Y      Z        X      Y      Z   
After scan for Atom:   Atom  AN      X      Y      Z        X      Y      Z        X      Y      Z   
After scan for Atom:   Atom  AN      X      Y      Z        X      Y      Z        X      Y      Z   
After scan for Atom:   Atom  AN      X      Y      Z        X      Y      Z        X      Y      Z   
After scan for Atom:   Atom  AN      X      Y      Z        X      Y      Z        X      Y      Z   
After scan for Atom:   Atom  AN      X      Y      Z        X      Y      Z        X      Y      Z   
After scan for Atom:   Atom  AN      X      Y      Z        X      Y      Z        X      Y      Z   
After scan for Atom:   Atom  AN      X      Y      Z        X      Y      Z        X      Y      Z   
After scan for Atom:   Atom  AN      X      Y      Z        X      Y      Z        X      Y      Z   
After scan for Atom:   Atom  AN      X      Y      Z        X      Y      Z        X      Y      Z   
After scan for Atom:   Atom  AN      X      Y      Z        X      Y      Z        X      Y      Z   
After scan for Atom:   Atom  AN      X      Y      Z        X      Y      Z        X      Y      Z   
After scan for Atom:   Atom  AN      X      Y      Z        X      Y      Z        X      Y      Z   
After scan for Atom:   Atom  AN      X      Y      Z        X      Y      Z        X      Y      Z   
After scan for Atom:   Atom  AN      X      Y      Z        X      Y      Z        X      Y      Z   
After scan for Atom:   Atom  AN      X      Y      Z        X      Y      Z        X      Y      Z   
After scan for Atom:   Atom  AN      X      Y      Z        X      Y      Z        X      Y      Z   
After scan for Atom:   Atom  AN      X      Y      Z        X      Y      Z        X      Y      Z   
After scan for Atom:   Atom  AN      X      Y      Z        X      Y      Z        X      Y      Z   
After scan for Atom:   Atom  AN      X      Y      Z        X      Y      Z        X      Y      Z   
After scan for Atom:   Atom  AN      X      Y      Z        X      Y      Z        X      Y      Z   
 g94    frequencies=
     0.0    0.0    0.0    0.0    0.0    0.0  -61.8  -30.4   35.6   95.7
   108.8  156.0  209.1  228.1  262.5  383.1  393.8  416.8  418.5  428.0
   431.5  455.7  492.6  506.5  608.0  625.8  633.2  658.7  673.5  677.2
   689.0  700.7  705.7  730.9  748.0  768.2  783.0  784.0  799.4  817.5
   818.9  890.2  896.0  927.8  932.5  935.8  938.6  977.2  980.4  996.0
  1009.7 1025.3 1037.4 1040.0 1093.6 1095.7 1146.5 1160.6 1164.0 1194.8
  1203.9 1246.8 1271.9 1285.4 1325.7 1329.4 1330.2 1338.2 1352.5 1362.6
  1444.5 1460.5 1490.2 1490.3 1507.4 1516.6 1534.0 1546.7 1549.7 1612.0
  1636.4 1645.0 3121.2 3121.8 3126.4 3126.7 3144.5 3144.5 3161.0 3163.2
  3163.2 3168.3 3179.2 3182.5 3182.9 3186.6
 g94    symmetries=
                                                B1     AU     B3     B2
      B2     B3     B3     AG     B2     B2     B3     AU     B1     AU
      B1     B3     B2     B3     AG     B3     B2     B3     B2     B3
      B2     B1     B3     B2     B1     AG     B3     AU     B1     B3
      B2     AU     B2     B1     AU     B3     B2     AG     B1     B1
      AG     B1     B1     AG     B3     B2     B2     B3     B2     AG
      B1     AG     B3     B2     B1     B2     B3     AG     B3     B2
      B3     B2     B1     B2     B3     AG     B1     B3     B2     B1
      AG     AG     B1     AG     B3     B2     B1     B3     AG     B2
      B1     AG     B3     B1     B2     AG
 atomic masses:
 12.0000 12.0000 12.0000 12.0000 12.0000 12.0000 12.0000 12.0000 12.0000 12.0000
 12.0000 12.0000 12.0000 12.0000 12.0000 12.0000 12.0000 12.0000  1.0078  1.0078
  1.0078  1.0078  1.0078  1.0078  1.0078  1.0078  1.0078  1.0078  1.0078  1.0078
  1.0078  1.0078
 looking for force constants in 
 ./Phenyls_1_C-1S0.fchk                                                         
  
 Cartesian Force Constants                  R   N=        4656                  
  
 n3=          96        4656
 g94-fc frequencies=
   -61.8  -30.4   -3.5   -1.6    0.0    0.0    0.0    0.5   35.6   95.7
   108.8  156.0  209.1  228.1  262.5  383.1  393.8  416.8  418.5  428.0
   431.5  455.7  492.6  506.5  608.0  625.8  633.2  658.7  673.6  677.2
   689.1  700.7  705.7  730.9  748.0  768.2  783.0  784.0  799.4  817.5
   818.9  890.3  896.0  927.8  932.5  935.8  938.6  977.2  980.4  996.0
  1009.7 1025.4 1037.4 1040.0 1093.6 1095.7 1146.5 1160.7 1164.0 1194.9
  1204.0 1246.8 1271.9 1285.4 1325.7 1329.4 1330.2 1338.2 1352.6 1362.6
  1444.5 1460.6 1490.2 1490.3 1507.4 1516.6 1534.0 1546.7 1549.7 1612.0
  1636.4 1645.0 3121.3 3121.8 3126.5 3126.7 3144.5 3144.6 3161.1 3163.2
  3163.2 3168.4 3179.2 3182.6 3183.0 3186.7
 at 99999: n3=          96
 symm operator            1 :  T  nop=           1
 symm operator            2 :  T  nop=           2
 symm operator            3 :  T  nop=           3
 symm operator            4 :  T  nop=           4
 symm operator            5 :  T  nop=           5
 symm operator            6 :  T  nop=           6
 symm operator            7 :  T  nop=           7
 The point group of the molecule is D2H
 enforcing symm op           1  jsymt=          -1          -1           1
 enforcing symm op           2  jsymt=          -1           1          -1
 enforcing symm op           3  jsymt=           1          -1          -1
 enforcing symm op           4  jsymt=          -1          -1          -1
 enforcing symm op           5  jsymt=           1           1          -1
 enforcing symm op           6  jsymt=           1          -1           1
 enforcing symm op           7  jsymt=          -1           1           1
 cartesian coord symmetries:
 Ag :   16 Au :    6 B1g:    6 B1u:   16 B2g:   10 B2u:   16 B3g:   16 B3u:   10
 Symmetry rotation matrix:
   1.00000   0.00000   0.00000
   0.00000   1.00000   0.00000
   0.00000   0.00000   1.00000

 Projecting out zero-frequency components
 generating redundant internal coords
         300        3600          32
 search for int coords
   1 str   2   1   1.401
   2 str   3   2   1.385
   3 str   4   3   1.428
   4 str   5   4   1.428
   5 str   6   1   1.401
   6 str   6   5   1.385
   7 str   7   4   1.450
   8 str   8   7   1.428
   9 str   9   8   1.375
  10 str  10   9   1.428
  11 str  11  10   1.428
  12 str  12   7   1.428
  13 str  12  11   1.375
  14 str  13  10   1.450
  15 str  14  13   1.428
  16 str  15  14   1.385
  17 str  16  15   1.401
  18 str  17  16   1.401
  19 str  18  13   1.428
  20 str  18  17   1.385
  21 str  19   1   1.085
  22 str  20   2   1.087
  23 str  21   3   1.083
  24 str  22   5   1.083
  25 str  23   6   1.087
  26 str  24   8   1.084
  27 str  25   9   1.084
  28 str  26  11   1.084
  29 str  27  12   1.084
  30 str  28  14   1.083
  31 str  29  15   1.087
  32 str  30  16   1.085
  33 str  31  17   1.087
  34 str  32  18   1.083
 nber stretches=          34
  35 ben   1   2   3
  36 prop tor   1   2   3   4
  37 prop tor   1   2   3  21
  38 ben   1   2  20
  39 ben   1   6   5
  40 ben   1   6  23
  41 ben   2   1   6
  42 prop tor   2   1   6   5
  43 prop tor   2   1   6  23
  44 ben   2   1  19
  45 ben   2   3   4
  46 prop tor   2   3   4   5
  47 prop tor   2   3   4   7
  48 ben   2   3  21
  49 ben   3   2  20
  50 ben   3   4   5
  51 prop tor   3   4   5   6
  52 prop tor   3   4   5  22
  53 ben   3   4   7
  54 prop tor   3   4   7   8
  55 prop tor   3   4   7  12
  56 ben   4   3  21
  57 ben   4   5   6
  58 prop tor   4   5   6   1
  59 prop tor   4   5   6  23
  60 ben   4   5  22
  61 ben   4   7   8
  62 prop tor   4   7   8   9
  63 prop tor   4   7   8  24
  64 ben   4   7  12
  65 prop tor   4   7  12  11
  66 prop tor   4   7  12  27
  67 ben   5   4   7
  68 prop tor   5   4   7   8
  69 prop tor   5   4   7  12
  70 ben   5   6  23
  71 prop tor   6   1   2   3
  72 prop tor   6   1   2  20
  73 ben   6   1  19
  74 ben   6   5  22
  75 prop tor   7   4   5   6
  76 prop tor   7   4   5  22
  77 ben   7   8   9
  78 prop tor   7   8   9  10
  79 prop tor   7   8   9  25
  80 ben   7   8  24
  81 ben   7  12  11
  82 ben   7  12  27
  83 ben   8   7  12
  84 prop tor   8   7  12  11
  85 prop tor   8   7  12  27
  86 ben   8   9  10
  87 prop tor   8   9  10  11
  88 prop tor   8   9  10  13
  89 ben   8   9  25
  90 ben   9   8  24
  91 ben   9  10  11
  92 prop tor   9  10  11  12
  93 prop tor   9  10  11  26
  94 ben   9  10  13
  95 prop tor   9  10  13  14
  96 prop tor   9  10  13  18
  97 ben  10   9  25
  98 ben  10  11  12
  99 prop tor  10  11  12   7
 100 prop tor  10  11  12  27
 101 ben  10  11  26
 102 ben  10  13  14
 103 prop tor  10  13  14  15
 104 prop tor  10  13  14  28
 105 ben  10  13  18
 106 prop tor  10  13  18  17
 107 prop tor  10  13  18  32
 108 ben  11  10  13
 109 prop tor  11  10  13  14
 110 prop tor  11  10  13  18
 111 ben  11  12  27
 112 prop tor  12   7   8   9
 113 prop tor  12   7   8  24
 114 ben  12  11  26
 115 prop tor  13  10  11  12
 116 prop tor  13  10  11  26
 117 ben  13  14  15
 118 prop tor  13  14  15  16
 119 prop tor  13  14  15  29
 120 ben  13  14  28
 121 ben  13  18  17
 122 ben  13  18  32
 123 ben  14  13  18
 124 prop tor  14  13  18  17
 125 prop tor  14  13  18  32
 126 ben  14  15  16
 127 prop tor  14  15  16  17
 128 prop tor  14  15  16  30
 129 ben  14  15  29
 130 ben  15  14  28
 131 ben  15  16  17
 132 prop tor  15  16  17  18
 133 prop tor  15  16  17  31
 134 ben  15  16  30
 135 ben  16  15  29
 136 ben  16  17  18
 137 prop tor  16  17  18  13
 138 prop tor  16  17  18  32
 139 ben  16  17  31
 140 ben  17  16  30
 141 ben  17  18  32
 142 prop tor  18  13  14  15
 143 prop tor  18  13  14  28
 144 ben  18  17  31
 145 prop tor  19   1   2   3
 146 prop tor  19   1   2  20
 147 prop tor  19   1   6   5
 148 prop tor  19   1   6  23
 149 prop tor  20   2   3   4
 150 prop tor  20   2   3  21
 151 prop tor  21   3   4   5
 152 prop tor  21   3   4   7
 153 prop tor  22   5   6   1
 154 prop tor  22   5   6  23
 155 prop tor  24   8   9  10
 156 prop tor  24   8   9  25
 157 prop tor  25   9  10  11
 158 prop tor  25   9  10  13
 159 prop tor  26  11  12   7
 160 prop tor  26  11  12  27
 161 prop tor  28  14  15  16
 162 prop tor  28  14  15  29
 163 prop tor  29  15  16  17
 164 prop tor  29  15  16  30
 165 prop tor  30  16  17  18
 166 prop tor  30  16  17  31
 167 prop tor  31  17  18  13
 168 prop tor  31  17  18  32
 nber bend=              54
 nber lin bend=           0
 nber prop tor=          80
 nber impr tor=           0
 nber tot redund int=         168
 Eigenvalues of G in red int coords
    Gval -0.00000000 -0.00000000 -0.00000000 -0.00000000 -0.00000000 -0.00000000 -0.00000000 -0.00000000
    Gval -0.00000000 -0.00000000 -0.00000000 -0.00000000 -0.00000000 -0.00000000 -0.00000000 -0.00000000
    Gval -0.00000000 -0.00000000 -0.00000000 -0.00000000 -0.00000000 -0.00000000 -0.00000000 -0.00000000
    Gval -0.00000000 -0.00000000 -0.00000000 -0.00000000 -0.00000000 -0.00000000 -0.00000000 -0.00000000
    Gval -0.00000000 -0.00000000  0.00000000  0.00000000  0.00000000  0.00000000  0.00000000  0.00000000
    Gval  0.00000000  0.00000000  0.00000000  0.00000000  0.00000000  0.00000000  0.00000000  0.00000000
    Gval  0.00000000  0.00000000  0.00000000  0.00000000  0.00000000  0.00000000  0.00000000  0.00000000
    Gval  0.00000000  0.00000000  0.00000000  0.00000000  0.00000000  0.00000000  0.00000000  0.00000000
    Gval  0.00000000  0.00000000  0.00000000  0.00000000  0.00000000  0.00000000  0.00000000  0.00000000
    Gval  0.00000000  0.00000000  0.00000000  0.00000000  0.00000000  0.00000000  0.00000136  0.00000356
    Gval  0.00000648  0.00000712  0.00001268  0.00002172  0.00002213  0.00002920  0.00004273  0.00004739
    Gval  0.00005069  0.00005180  0.00005740  0.00005786  0.00006110  0.00006149  0.00007049  0.00007417
    Gval  0.00008224  0.00009898  0.00011018  0.00011491  0.00011923  0.00012060  0.00012622  0.00013094
    Gval  0.00014024  0.00018228  0.00024151  0.00025395  0.00026340  0.00028511  0.00028932  0.00033405
    Gval  0.00035286  0.00036427  0.00038335  0.00041038  0.00043594  0.00054572  0.00056645  0.00058315
    Gval  0.00059308  0.00059308  0.00059331  0.00059343  0.00059741  0.00059939  0.00060357  0.00060358
    Gval  0.00062188  0.00062567  0.00063792  0.00064219  0.00064841  0.00065959  0.00065977  0.00081224
    Gval  0.00101564  0.00103738  0.00103755  0.00107377  0.00110103  0.00110364  0.00110424  0.00113631
    Gval  0.00113640  0.00114610  0.00116177  0.00116380  0.00116401  0.00116915  0.00116915  0.00141958
    Gval  0.00142852  0.00155997  0.00175647  0.00201166  0.00231103  0.00232131  0.00233109  0.00253555
    Gval  0.00311191  0.00316968  0.00357784  0.00362334  0.00366345  0.00366568  0.00405442  0.00405481
  1.355433211738157E-006  1.355433211738157E-006
  3.560963054691794E-006  1.355433211738157E-006
  6.479759802431008E-006  1.355433211738157E-006
  7.120215403639858E-006  1.355433211738157E-006
  1.268249399897718E-005  1.355433211738157E-006
  2.171551551487820E-005  1.355433211738157E-006
  2.212932795174825E-005  1.355433211738157E-006
  2.920466764430974E-005  1.355433211738157E-006
  4.272808800632771E-005  1.355433211738157E-006
  4.738731329899917E-005  1.355433211738157E-006
  5.069135145900548E-005  1.355433211738157E-006
  5.180336973653114E-005  1.355433211738157E-006
  5.740222390499945E-005  1.355433211738157E-006
  5.785667733899925E-005  1.355433211738157E-006
  6.110120938123945E-005  1.355433211738157E-006
  6.148815109047354E-005  1.355433211738157E-006
  7.048632201501298E-005  1.355433211738157E-006
  7.417237699192723E-005  1.355433211738157E-006
  8.224070272854504E-005  1.355433211738157E-006
  9.898064619400528E-005  1.355433211738157E-006
  1.101770092435399E-004  1.355433211738157E-006
  1.149051073245426E-004  1.355433211738157E-006
  1.192262963626970E-004  1.355433211738157E-006
  1.206020875585553E-004  1.355433211738157E-006
  1.262161708331326E-004  1.355433211738157E-006
  1.309390558397417E-004  1.355433211738157E-006
  1.402422486676372E-004  1.355433211738157E-006
  1.822796911033469E-004  1.355433211738157E-006
  2.415102192995165E-004  1.355433211738157E-006
  2.539456126779769E-004  1.355433211738157E-006
  2.633951688536155E-004  1.355433211738157E-006
  2.851101102539553E-004  1.355433211738157E-006
  2.893203131832390E-004  1.355433211738157E-006
  3.340493594273978E-004  1.355433211738157E-006
  3.528557778994625E-004  1.355433211738157E-006
  3.642732700689755E-004  1.355433211738157E-006
  3.833506003080884E-004  1.355433211738157E-006
  4.103792591101516E-004  1.355433211738157E-006
  4.359408890505032E-004  1.355433211738157E-006
  5.457178973724096E-004  1.355433211738157E-006
  5.664495379343583E-004  1.355433211738157E-006
  5.831536706248575E-004  1.355433211738157E-006
  5.930784221085667E-004  1.355433211738157E-006
  5.930784575878396E-004  1.355433211738157E-006
  5.933053205693809E-004  1.355433211738157E-006
  5.934330711991158E-004  1.355433211738157E-006
  5.974059086019315E-004  1.355433211738157E-006
  5.993948622802324E-004  1.355433211738157E-006
  6.035693979868553E-004  1.355433211738157E-006
  6.035822492006630E-004  1.355433211738157E-006
  6.218844014872533E-004  1.355433211738157E-006
  6.256653698033413E-004  1.355433211738157E-006
  6.379197464484014E-004  1.355433211738157E-006
  6.421934718246017E-004  1.355433211738157E-006
  6.484055846338378E-004  1.355433211738157E-006
  6.595944489589528E-004  1.355433211738157E-006
  6.597675236104865E-004  1.355433211738157E-006
  8.122447321739464E-004  1.355433211738157E-006
  1.015638556481902E-003  1.355433211738157E-006
  1.037380381634518E-003  1.355433211738157E-006
  1.037554689420883E-003  1.355433211738157E-006
  1.073769616340570E-003  1.355433211738157E-006
  1.101034194094338E-003  1.355433211738157E-006
  1.103639423659382E-003  1.355433211738157E-006
  1.104241081000501E-003  1.355433211738157E-006
  1.136310161935826E-003  1.355433211738157E-006
  1.136401221921130E-003  1.355433211738157E-006
  1.146104334339602E-003  1.355433211738157E-006
  1.161774947881646E-003  1.355433211738157E-006
  1.163795355701464E-003  1.355433211738157E-006
  1.164010101445885E-003  1.355433211738157E-006
  1.169146758129958E-003  1.355433211738157E-006
  1.169146762973524E-003  1.355433211738157E-006
  1.419581959952001E-003  1.355433211738157E-006
  1.428522224338101E-003  1.355433211738157E-006
  1.559966913990610E-003  1.355433211738157E-006
  1.756473277887904E-003  1.355433211738157E-006
  2.011657700470233E-003  1.355433211738157E-006
  2.311031866702099E-003  1.355433211738157E-006
  2.321309809069906E-003  1.355433211738157E-006
  2.331091387724943E-003  1.355433211738157E-006
  2.535552770670673E-003  1.355433211738157E-006
  3.111911513178816E-003  1.355433211738157E-006
  3.169675321849529E-003  1.355433211738157E-006
  3.577840187155415E-003  1.355433211738157E-006
  3.623337050636416E-003  1.355433211738157E-006
  3.663454008636392E-003  1.355433211738157E-006
  3.665677099720796E-003  1.355433211738157E-006
  4.054420201981230E-003  1.355433211738157E-006
  4.054810112289289E-003  1.355433211738157E-006
 cut=1d-8, nber non-redundant internal coords=          90
 Check on Eigenvals of non-red overlap matrix:
  0.00000136  0.00000356  0.00000648  0.00000712  0.00001268  0.00002172  0.00002213  0.00002920
  0.00004273  0.00004739  0.00005069  0.00005180  0.00005740  0.00005786  0.00006110  0.00006149
  0.00007049  0.00007417  0.00008224  0.00009898  0.00011018  0.00011491  0.00011923  0.00012060
  0.00012622  0.00013094  0.00014024  0.00018228  0.00024151  0.00025395  0.00026340  0.00028511
  0.00028932  0.00033405  0.00035286  0.00036427  0.00038335  0.00041038  0.00043594  0.00054572
  0.00056645  0.00058315  0.00059308  0.00059308  0.00059331  0.00059343  0.00059741  0.00059939
  0.00060357  0.00060358  0.00062188  0.00062567  0.00063792  0.00064219  0.00064841  0.00065959
  0.00065977  0.00081224  0.00101564  0.00103738  0.00103755  0.00107377  0.00110103  0.00110364
  0.00110424  0.00113631  0.00113640  0.00114610  0.00116177  0.00116380  0.00116401  0.00116915
  0.00116915  0.00141958  0.00142852  0.00155997  0.00175647  0.00201166  0.00231103  0.00232131
  0.00233109  0.00253555  0.00311191  0.00316968  0.00357784  0.00362334  0.00366345  0.00366568
  0.00405442  0.00405481
 Checking for correct frequencies
 recalc frequencies=
   -61.8  -30.4   -0.0   -0.0   -0.0   -0.0    0.0    0.0   35.6   95.7
   108.8  156.0  209.1  228.1  262.5  383.1  393.8  416.8  418.5  428.0
   431.5  455.7  492.6  506.5  608.0  625.8  633.2  658.7  673.6  677.2
   689.1  700.7  705.7  730.9  748.0  768.2  783.0  784.0  799.4  817.5
   818.9  890.3  896.0  927.8  932.5  935.8  938.6  977.2  980.4  996.0
  1009.7 1025.4 1037.4 1040.0 1093.6 1095.7 1146.5 1160.7 1164.0 1194.9
  1204.0 1246.8 1271.9 1285.4 1325.7 1329.4 1330.2 1338.2 1352.6 1362.6
  1444.5 1460.6 1490.2 1490.3 1507.4 1516.6 1534.0 1546.7 1549.7 1612.0
  1636.4 1645.0 3121.3 3121.8 3126.5 3126.7 3144.5 3144.6 3161.1 3163.2
  3163.2 3168.4 3179.2 3182.6 3183.0 3186.7
 recalc symmetries=
     B1g    Au     B3g    B3u    B2g    B1g    B2u    B1u    B3u    B2u
     B2g    B3u    B3g    Ag     B2g    B2u    B3u    Au     B1g    Au 
     B1u    B3g    B2g    B3u    Ag     B3g    B2u    B3g    B2g    B3u
     B2g    B1u    B3u    B2g    B1g    Ag     B3u    Au     B1g    B3u
     B2g    Au     B2g    B1g    Au     B3u    B2g    Ag     B1u    B1u
     Ag     B1u    B1u    Ag     B3g    B2u    B2u    B3g    B2u    Ag 
     B1u    Ag     B3g    B2u    B1u    B2u    B3g    Ag     B3g    B2u
     B3g    B2u    B1u    B2u    B3g    Ag     B1u    B3g    B2u    B1u
     Ag     Ag     B1u    Ag     B3g    B2u    B1u    B3g    Ag     B2u
     B1u    Ag     B3g    B1u    B2u    Ag 
 recalc freqs check OK
 Zero-point lengths:
 31.5473 44.9650 10.0000 10.0000 10.0000 10.0000 10.0000 10.0000 41.5405 25.3430
 23.7642 19.8457 17.1457 16.4137 15.3000 12.6654 12.4929 12.1426 12.1180 11.9832
 11.9342 11.6135 11.1702 11.0151 10.0538  9.9099  9.8520  9.6592  9.5523  9.5264
  9.4443  9.3653  9.3320  9.1697  9.0645  8.9443  8.8597  8.8538  8.7680  8.6706
  8.6631  8.3088  8.2823  8.1388  8.1184  8.1040  8.0919  7.9305  7.9177  7.8553
  7.8019  7.7421  7.6970  7.6874  7.4966  7.4894  7.3217  7.2768  7.2663  7.1719
  7.1448  7.0209  6.9513  6.9147  6.8089  6.7993  6.7973  6.7770  6.7409  6.7160
  6.5228  6.4868  6.4221  6.4217  6.3852  6.3658  6.3297  6.3037  6.2975  6.1746
  6.1284  6.1124  4.4374  4.4370  4.4337  4.4335  4.4210  4.4209  4.4094  4.4079
  4.4079  4.4043  4.3968  4.3945  4.3942  4.3916
 highest evec of mol 2
  0.0000  0.0000 -0.0289
  0.0000 -0.0275 -0.0178
  0.0000 -0.0978  0.0531
  0.0000  0.0000  0.0044
  0.0000  0.0978  0.0531
  0.0000  0.0275 -0.0178
  0.0000  0.0000 -0.0036
  0.0000  0.0715 -0.0394
  0.0000  0.0715  0.0394
  0.0000  0.0000  0.0036
  0.0000 -0.0715  0.0394
  0.0000 -0.0715 -0.0394
  0.0000  0.0000 -0.0044
  0.0000  0.0978 -0.0531
  0.0000  0.0275  0.0178
  0.0000  0.0000  0.0289
  0.0000 -0.0275  0.0178
  0.0000 -0.0978 -0.0531
  0.0000  0.0000  0.0905
  0.0000  0.0855  0.0483
  0.0000  0.3300 -0.1796
  0.0000 -0.3300 -0.1796
  0.0000 -0.0855  0.0483
  0.0000 -0.2403  0.1297
  0.0000 -0.2403 -0.1297
  0.0000  0.2403 -0.1297
  0.0000  0.2403  0.1297
  0.0000 -0.3300  0.1796
  0.0000 -0.0855 -0.0483
  0.0000  0.0000 -0.0905
  0.0000  0.0855 -0.0483
  0.0000  0.3300  0.1796
 Enter nber and list of atoms to keep of mol #2
 keep list:          32           1           2           3           4
           5           6           7           8           9          10
          11          12          13          14          15          16
          17          18          19          20          21          22
          23          24          25          26          27          28
          29          30          31          32
 reordering atoms
           1   5.79483700000000     
           2   5.06898900000000     
           3   3.68402700000000     
           4   2.91520400000000     
           5   3.68402700000000     
           6   5.06898900000000     
           7   1.46545600000000     
           8  0.687585000000000     
           9 -0.687585000000000     
          10  -1.46545600000000     
          11 -0.687585000000000     
          12  0.687585000000000     
          13  -2.91520400000000     
          14  -3.68402700000000     
          15  -5.06898900000000     
          16  -5.79483700000000     
          17  -5.06898900000000     
          18  -3.68402700000000     
          19   6.87943200000000     
          20   5.59760000000000     
          21   3.17784600000000     
          22   3.17784600000000     
          23   5.59760000000000     
          24   1.18697100000000     
          25  -1.18697100000000     
          26  -1.18697100000000     
          27   1.18697100000000     
          28  -3.17784600000000     
          29  -5.59760000000000     
          30  -6.87943200000000     
          31  -5.59760000000000     
          32  -3.17784600000000     
           1           1
           2           2
           3           3
           4           4
           5           5
           6           6
           7           7
           8           8
           9           9
          10          10
          11          11
          12          12
          13          13
          14          14
          15          15
          16          16
          17          17
          18          18
          19          19
          20          20
          21          21
          22          22
          23          23
          24          24
          25          25
          26          26
          27          27
          28          28
          29          29
          30          30
          31          31
          32          32
 initial cartes coords mol 1
   6   0.00000   0.00000   5.76381
   6   0.00000  -1.19911   5.05632
   6   0.00000  -1.19765   3.66585
   6   0.00000   0.00000   2.92958
   6   0.00000   1.19765   3.66585
   6   0.00000   1.19911   5.05632
   6   0.00000   0.00000   1.43953
   6   0.00000   1.18945   0.69354
   6   0.00000   1.18945  -0.69354
   6   0.00000   0.00000  -1.43953
   6   0.00000  -1.18945  -0.69354
   6   0.00000  -1.18945   0.69354
   6   0.00000   0.00000  -2.92958
   6   0.00000   1.19765  -3.66585
   6   0.00000   1.19911  -5.05632
   6   0.00000   0.00000  -5.76381
   6   0.00000  -1.19911  -5.05632
   6   0.00000  -1.19765  -3.66585
   1   0.00000   0.00000   6.84769
   1   0.00000  -2.14430   5.58784
   1   0.00000  -2.15205   3.15645
   1   0.00000   2.15205   3.15645
   1   0.00000   2.14430   5.58784
   1   0.00000   2.14857   1.19399
   1   0.00000   2.14857  -1.19399
   1   0.00000  -2.14857  -1.19399
   1   0.00000  -2.14857   1.19399
   1   0.00000   2.15205  -3.15645
   1   0.00000   2.14430  -5.58784
   1   0.00000   0.00000  -6.84769
   1   0.00000  -2.14430  -5.58784
   1   0.00000  -2.15205  -3.15645
 initial cartes coords mol 2
   6   0.00000   0.00000   5.79484
   6   0.00000   1.19838   5.06899
   6   0.00000   1.20283   3.68403
   6   0.00000   0.00000   2.91520
   6   0.00000  -1.20283   3.68403
   6   0.00000  -1.19838   5.06899
   6   0.00000   0.00000   1.46546
   6   0.00000  -1.19767   0.68758
   6   0.00000  -1.19767  -0.68759
   6   0.00000   0.00000  -1.46546
   6   0.00000   1.19767  -0.68759
   6   0.00000   1.19767   0.68758
   6   0.00000   0.00000  -2.91520
   6   0.00000  -1.20283  -3.68403
   6   0.00000  -1.19838  -5.06899
   6   0.00000   0.00000  -5.79484
   6   0.00000   1.19838  -5.06899
   6   0.00000   1.20283  -3.68403
   1   0.00000   0.00000   6.87943
   1   0.00000   2.14857   5.59760
   1   0.00000   2.16043   3.17785
   1   0.00000  -2.16043   3.17785
   1   0.00000  -2.14857   5.59760
   1   0.00000  -2.16020   1.18697
   1   0.00000  -2.16020  -1.18697
   1   0.00000   2.16020  -1.18697
   1   0.00000   2.16020   1.18697
   1   0.00000  -2.16043  -3.17785
   1   0.00000  -2.14857  -5.59760
   1   0.00000   0.00000  -6.87943
   1   0.00000   2.14857  -5.59760
   1   0.00000   2.16043  -3.17785
 loop 1 0
 mod cartes coords mol 2
   6   0.00000   0.00000   5.79484
   6   0.00000   1.19838   5.06899
   6   0.00000   1.20283   3.68403
   6   0.00000   0.00000   2.91520
   6   0.00000  -1.20283   3.68403
   6   0.00000  -1.19838   5.06899
   6   0.00000   0.00000   1.46546
   6   0.00000  -1.19767   0.68758
   6   0.00000  -1.19767  -0.68759
   6   0.00000   0.00000  -1.46546
   6   0.00000   1.19767  -0.68759
   6   0.00000   1.19767   0.68758
   6   0.00000   0.00000  -2.91520
   6   0.00000  -1.20283  -3.68403
   6   0.00000  -1.19838  -5.06899
   6   0.00000   0.00000  -5.79484
   6   0.00000   1.19838  -5.06899
   6   0.00000   1.20283  -3.68403
   1   0.00000   0.00000   6.87943
   1   0.00000   2.14857   5.59760
   1   0.00000   2.16043   3.17785
   1   0.00000  -2.16043   3.17785
   1   0.00000  -2.14857   5.59760
   1   0.00000  -2.16020   1.18697
   1   0.00000  -2.16020  -1.18697
   1   0.00000   2.16020  -1.18697
   1   0.00000   2.16020   1.18697
   1   0.00000  -2.16043  -3.17785
   1   0.00000  -2.14857  -5.59760
   1   0.00000   0.00000  -6.87943
   1   0.00000   2.14857  -5.59760
   1   0.00000   2.16043  -3.17785
 read in order, maxerr=  4.31 for atom  21
 loop 1 1
 mod cartes coords mol 2
   6   0.00000   0.00000   5.79484
   6   0.00000   1.19838   5.06899
   6   0.00000   1.20283   3.68403
   6   0.00000   0.00000   2.91520
   6   0.00000  -1.20283   3.68403
   6   0.00000  -1.19838   5.06899
   6   0.00000   0.00000   1.46546
   6   0.00000  -1.19767   0.68758
   6   0.00000  -1.19767  -0.68759
   6   0.00000   0.00000  -1.46546
   6   0.00000   1.19767  -0.68759
   6   0.00000   1.19767   0.68758
   6   0.00000   0.00000  -2.91520
   6   0.00000  -1.20283  -3.68403
   6   0.00000  -1.19838  -5.06899
   6   0.00000   0.00000  -5.79484
   6   0.00000   1.19838  -5.06899
   6   0.00000   1.20283  -3.68403
   1   0.00000   0.00000   6.87943
   1   0.00000   2.14857   5.59760
   1   0.00000   2.16043   3.17785
   1   0.00000  -2.16043   3.17785
   1   0.00000  -2.14857   5.59760
   1   0.00000  -2.16020   1.18697
   1   0.00000  -2.16020  -1.18697
   1   0.00000   2.16020  -1.18697
   1   0.00000   2.16020   1.18697
   1   0.00000  -2.16043  -3.17785
   1   0.00000  -2.14857  -5.59760
   1   0.00000   0.00000  -6.87943
   1   0.00000   2.14857  -5.59760
   1   0.00000   2.16043  -3.17785
 read in order, maxerr=  4.31 for atom  21
 loop 1 2
 mod cartes coords mol 2
   6   0.00000   0.00000   5.79484
   6   0.00000  -1.19838   5.06899
   6   0.00000  -1.20283   3.68403
   6   0.00000   0.00000   2.91520
   6   0.00000   1.20283   3.68403
   6   0.00000   1.19838   5.06899
   6   0.00000   0.00000   1.46546
   6   0.00000   1.19767   0.68758
   6   0.00000   1.19767  -0.68759
   6   0.00000   0.00000  -1.46546
   6   0.00000  -1.19767  -0.68759
   6   0.00000  -1.19767   0.68758
   6   0.00000   0.00000  -2.91520
   6   0.00000   1.20283  -3.68403
   6   0.00000   1.19838  -5.06899
   6   0.00000   0.00000  -5.79484
   6   0.00000  -1.19838  -5.06899
   6   0.00000  -1.20283  -3.68403
   1   0.00000   0.00000   6.87943
   1   0.00000  -2.14857   5.59760
   1   0.00000  -2.16043   3.17785
   1   0.00000   2.16043   3.17785
   1   0.00000   2.14857   5.59760
   1   0.00000   2.16020   1.18697
   1   0.00000   2.16020  -1.18697
   1   0.00000  -2.16020  -1.18697
   1   0.00000  -2.16020   1.18697
   1   0.00000   2.16043  -3.17785
   1   0.00000   2.14857  -5.59760
   1   0.00000   0.00000  -6.87943
   1   0.00000  -2.14857  -5.59760
   1   0.00000  -2.16043  -3.17785
 read in order, maxerr=  0.03 for atom  19
 final axis swaps:           1          -1           1
 final xyz swap pattern=           1
 reorder list:
   1   2   3   4   5   6   7   8   9  10  11  12  13  14  15  16  17  18  19  20
  21  22  23  24  25  26  27  28  29  30  31  32
 axis signs=           1          -1           1
  6     0.000000  0.000000  5.794837     0.000000  0.000000  5.763809
  6     0.000000 -1.198380  5.068989     0.000000 -1.199114  5.056323
  6     0.000000 -1.202825  3.684027     0.000000 -1.197655  3.665848
  6     0.000000  0.000000  2.915204     0.000000  0.000000  2.929576
  6     0.000000  1.202825  3.684027     0.000000  1.197655  3.665848
  6     0.000000  1.198380  5.068989     0.000000  1.199114  5.056323
  6     0.000000  0.000000  1.465456     0.000000  0.000000  1.439533
  6     0.000000  1.197670  0.687585     0.000000  1.189455  0.693544
  6     0.000000  1.197670 -0.687585     0.000000  1.189455 -0.693544
  6     0.000000  0.000000 -1.465456     0.000000  0.000000 -1.439533
  6     0.000000 -1.197670 -0.687585     0.000000 -1.189455 -0.693544
  6     0.000000 -1.197670  0.687585     0.000000 -1.189455  0.693544
  6     0.000000  0.000000 -2.915204     0.000000  0.000000 -2.929576
  6     0.000000  1.202825 -3.684027     0.000000  1.197655 -3.665848
  6     0.000000  1.198380 -5.068989     0.000000  1.199114 -5.056323
  6     0.000000  0.000000 -5.794837     0.000000  0.000000 -5.763809
  6     0.000000 -1.198380 -5.068989     0.000000 -1.199114 -5.056323
  6     0.000000 -1.202825 -3.684027     0.000000 -1.197655 -3.665848
  1     0.000000  0.000000  6.879432     0.000000  0.000000  6.847690
  1     0.000000 -2.148568  5.597600     0.000000 -2.144300  5.587840
  1     0.000000 -2.160434  3.177846     0.000000 -2.152050  3.156449
  1     0.000000  2.160434  3.177846     0.000000  2.152050  3.156449
  1     0.000000  2.148568  5.597600     0.000000  2.144300  5.587840
  1     0.000000  2.160204  1.186971     0.000000  2.148565  1.193990
  1     0.000000  2.160204 -1.186971     0.000000  2.148565 -1.193990
  1     0.000000 -2.160204 -1.186971     0.000000 -2.148565 -1.193990
  1     0.000000 -2.160204  1.186971     0.000000 -2.148565  1.193990
  1     0.000000  2.160434 -3.177846     0.000000  2.152050 -3.156449
  1     0.000000  2.148568 -5.597600     0.000000  2.144300 -5.587840
  1     0.000000  0.000000 -6.879432     0.000000  0.000000 -6.847690
  1     0.000000 -2.148568 -5.597600     0.000000 -2.144300 -5.587840
  1     0.000000 -2.160434 -3.177846     0.000000 -2.152050 -3.156449
 generating redundant internal coords
         300        3600          32
 Adding extra bonds for z output only
           6           6           6           6           6           6
           6           6           6           6           6           6
           6           6           6           6           6           6
           1           1           1           1           1           1
           1           1           1           1           1           1
           1           1
 search for int coords
   1 str   2   1   1.401
   2 str   3   2   1.385
   3 str   4   3   1.428
   4 str   5   4   1.428
   5 str   6   1   1.401
   6 str   6   5   1.385
   7 str   7   4   1.450
   8 str   8   7   1.428
   9 str   9   8   1.375
  10 str  10   9   1.428
  11 str  11  10   1.428
  12 str  12   7   1.428
  13 str  12  11   1.375
  14 str  13  10   1.450
  15 str  14  13   1.428
  16 str  15  14   1.385
  17 str  16  15   1.401
  18 str  17  16   1.401
  19 str  18  13   1.428
  20 str  18  17   1.385
  21 str  19   1   1.085
  22 str  20   2   1.087
  23 str  21   3   1.083
  24 str  22   5   1.083
  25 str  23   6   1.087
  26 str  24   8   1.084
  27 str  25   9   1.084
  28 str  26  11   1.084
  29 str  27  12   1.084
  30 str  28  14   1.083
  31 str  29  15   1.087
  32 str  30  16   1.085
  33 str  31  17   1.087
  34 str  32  18   1.083
 nber stretches=          34
  35 ben   1   2   3
  36 prop tor   1   2   3   4
  37 prop tor   1   2   3  21
  38 ben   1   2  20
  39 ben   1   6   5
  40 ben   1   6  23
  41 ben   2   1   6
  42 prop tor   2   1   6   5
  43 prop tor   2   1   6  23
  44 ben   2   1  19
  45 ben   2   3   4
  46 prop tor   2   3   4   5
  47 prop tor   2   3   4   7
  48 ben   2   3  21
  49 ben   3   2  20
  50 ben   3   4   5
  51 prop tor   3   4   5   6
  52 prop tor   3   4   5  22
  53 ben   3   4   7
  54 prop tor   3   4   7   8
  55 prop tor   3   4   7  12
  56 ben   4   3  21
  57 ben   4   5   6
  58 prop tor   4   5   6   1
  59 prop tor   4   5   6  23
  60 ben   4   5  22
  61 ben   4   7   8
  62 prop tor   4   7   8   9
  63 prop tor   4   7   8  24
  64 ben   4   7  12
  65 prop tor   4   7  12  11
  66 prop tor   4   7  12  27
  67 ben   5   4   7
  68 prop tor   5   4   7   8
  69 prop tor   5   4   7  12
  70 ben   5   6  23
  71 prop tor   6   1   2   3
  72 prop tor   6   1   2  20
  73 ben   6   1  19
  74 ben   6   5  22
  75 prop tor   7   4   5   6
  76 prop tor   7   4   5  22
  77 ben   7   8   9
  78 prop tor   7   8   9  10
  79 prop tor   7   8   9  25
  80 ben   7   8  24
  81 ben   7  12  11
  82 ben   7  12  27
  83 ben   8   7  12
  84 prop tor   8   7  12  11
  85 prop tor   8   7  12  27
  86 ben   8   9  10
  87 prop tor   8   9  10  11
  88 prop tor   8   9  10  13
  89 ben   8   9  25
  90 ben   9   8  24
  91 ben   9  10  11
  92 prop tor   9  10  11  12
  93 prop tor   9  10  11  26
  94 ben   9  10  13
  95 prop tor   9  10  13  14
  96 prop tor   9  10  13  18
  97 ben  10   9  25
  98 ben  10  11  12
  99 prop tor  10  11  12   7
 100 prop tor  10  11  12  27
 101 ben  10  11  26
 102 ben  10  13  14
 103 prop tor  10  13  14  15
 104 prop tor  10  13  14  28
 105 ben  10  13  18
 106 prop tor  10  13  18  17
 107 prop tor  10  13  18  32
 108 ben  11  10  13
 109 prop tor  11  10  13  14
 110 prop tor  11  10  13  18
 111 ben  11  12  27
 112 prop tor  12   7   8   9
 113 prop tor  12   7   8  24
 114 ben  12  11  26
 115 prop tor  13  10  11  12
 116 prop tor  13  10  11  26
 117 ben  13  14  15
 118 prop tor  13  14  15  16
 119 prop tor  13  14  15  29
 120 ben  13  14  28
 121 ben  13  18  17
 122 ben  13  18  32
 123 ben  14  13  18
 124 prop tor  14  13  18  17
 125 prop tor  14  13  18  32
 126 ben  14  15  16
 127 prop tor  14  15  16  17
 128 prop tor  14  15  16  30
 129 ben  14  15  29
 130 ben  15  14  28
 131 ben  15  16  17
 132 prop tor  15  16  17  18
 133 prop tor  15  16  17  31
 134 ben  15  16  30
 135 ben  16  15  29
 136 ben  16  17  18
 137 prop tor  16  17  18  13
 138 prop tor  16  17  18  32
 139 ben  16  17  31
 140 ben  17  16  30
 141 ben  17  18  32
 142 prop tor  18  13  14  15
 143 prop tor  18  13  14  28
 144 ben  18  17  31
 145 prop tor  19   1   2   3
 146 prop tor  19   1   2  20
 147 prop tor  19   1   6   5
 148 prop tor  19   1   6  23
 149 prop tor  20   2   3   4
 150 prop tor  20   2   3  21
 151 prop tor  21   3   4   5
 152 prop tor  21   3   4   7
 153 prop tor  22   5   6   1
 154 prop tor  22   5   6  23
 155 prop tor  24   8   9  10
 156 prop tor  24   8   9  25
 157 prop tor  25   9  10  11
 158 prop tor  25   9  10  13
 159 prop tor  26  11  12   7
 160 prop tor  26  11  12  27
 161 prop tor  28  14  15  16
 162 prop tor  28  14  15  29
 163 prop tor  29  15  16  17
 164 prop tor  29  15  16  30
 165 prop tor  30  16  17  18
 166 prop tor  30  16  17  31
 167 prop tor  31  17  18  13
 168 prop tor  31  17  18  32
 nber bend=              54
 nber lin bend=           0
 nber prop tor=          80
 nber impr tor=           0
 nber tot redund int=         168
 generating redundant internal coords
         300        3600          32
 search for int coords
   1 str   2   1   1.392
   2 str   3   2   1.390
   3 str   4   3   1.406
   4 str   5   4   1.406
   5 str   6   1   1.392
   6 str   6   5   1.390
   7 str   7   4   1.490
   8 str   8   7   1.404
   9 str   9   8   1.387
  10 str  10   9   1.404
  11 str  11  10   1.404
  12 str  12   7   1.404
  13 str  12  11   1.387
  14 str  13  10   1.490
  15 str  14  13   1.406
  16 str  15  14   1.390
  17 str  16  15   1.392
  18 str  17  16   1.392
  19 str  18  13   1.406
  20 str  18  17   1.390
  21 str  19   1   1.084
  22 str  20   2   1.084
  23 str  21   3   1.082
  24 str  22   5   1.082
  25 str  23   6   1.084
  26 str  24   8   1.082
  27 str  25   9   1.082
  28 str  26  11   1.082
  29 str  27  12   1.082
  30 str  28  14   1.082
  31 str  29  15   1.084
  32 str  30  16   1.084
  33 str  31  17   1.084
  34 str  32  18   1.082
 nber stretches=          34
  35 ben   1   2   3
  36 prop tor   1   2   3   4
  37 prop tor   1   2   3  21
  38 ben   1   2  20
  39 ben   1   6   5
  40 ben   1   6  23
  41 ben   2   1   6
  42 prop tor   2   1   6   5
  43 prop tor   2   1   6  23
  44 ben   2   1  19
  45 ben   2   3   4
  46 prop tor   2   3   4   5
  47 prop tor   2   3   4   7
  48 ben   2   3  21
  49 ben   3   2  20
  50 ben   3   4   5
  51 prop tor   3   4   5   6
  52 prop tor   3   4   5  22
  53 ben   3   4   7
  54 prop tor   3   4   7   8
  55 prop tor   3   4   7  12
  56 ben   4   3  21
  57 ben   4   5   6
  58 prop tor   4   5   6   1
  59 prop tor   4   5   6  23
  60 ben   4   5  22
  61 ben   4   7   8
  62 prop tor   4   7   8   9
  63 prop tor   4   7   8  24
  64 ben   4   7  12
  65 prop tor   4   7  12  11
  66 prop tor   4   7  12  27
  67 ben   5   4   7
  68 prop tor   5   4   7   8
  69 prop tor   5   4   7  12
  70 ben   5   6  23
  71 prop tor   6   1   2   3
  72 prop tor   6   1   2  20
  73 ben   6   1  19
  74 ben   6   5  22
  75 prop tor   7   4   5   6
  76 prop tor   7   4   5  22
  77 ben   7   8   9
  78 prop tor   7   8   9  10
  79 prop tor   7   8   9  25
  80 ben   7   8  24
  81 ben   7  12  11
  82 ben   7  12  27
  83 ben   8   7  12
  84 prop tor   8   7  12  11
  85 prop tor   8   7  12  27
  86 ben   8   9  10
  87 prop tor   8   9  10  11
  88 prop tor   8   9  10  13
  89 ben   8   9  25
  90 ben   9   8  24
  91 ben   9  10  11
  92 prop tor   9  10  11  12
  93 prop tor   9  10  11  26
  94 ben   9  10  13
  95 prop tor   9  10  13  14
  96 prop tor   9  10  13  18
  97 ben  10   9  25
  98 ben  10  11  12
  99 prop tor  10  11  12   7
 100 prop tor  10  11  12  27
 101 ben  10  11  26
 102 ben  10  13  14
 103 prop tor  10  13  14  15
 104 prop tor  10  13  14  28
 105 ben  10  13  18
 106 prop tor  10  13  18  17
 107 prop tor  10  13  18  32
 108 ben  11  10  13
 109 prop tor  11  10  13  14
 110 prop tor  11  10  13  18
 111 ben  11  12  27
 112 prop tor  12   7   8   9
 113 prop tor  12   7   8  24
 114 ben  12  11  26
 115 prop tor  13  10  11  12
 116 prop tor  13  10  11  26
 117 ben  13  14  15
 118 prop tor  13  14  15  16
 119 prop tor  13  14  15  29
 120 ben  13  14  28
 121 ben  13  18  17
 122 ben  13  18  32
 123 ben  14  13  18
 124 prop tor  14  13  18  17
 125 prop tor  14  13  18  32
 126 ben  14  15  16
 127 prop tor  14  15  16  17
 128 prop tor  14  15  16  30
 129 ben  14  15  29
 130 ben  15  14  28
 131 ben  15  16  17
 132 prop tor  15  16  17  18
 133 prop tor  15  16  17  31
 134 ben  15  16  30
 135 ben  16  15  29
 136 ben  16  17  18
 137 prop tor  16  17  18  13
 138 prop tor  16  17  18  32
 139 ben  16  17  31
 140 ben  17  16  30
 141 ben  17  18  32
 142 prop tor  18  13  14  15
 143 prop tor  18  13  14  28
 144 ben  18  17  31
 145 prop tor  19   1   2   3
 146 prop tor  19   1   2  20
 147 prop tor  19   1   6   5
 148 prop tor  19   1   6  23
 149 prop tor  20   2   3   4
 150 prop tor  20   2   3  21
 151 prop tor  21   3   4   5
 152 prop tor  21   3   4   7
 153 prop tor  22   5   6   1
 154 prop tor  22   5   6  23
 155 prop tor  24   8   9  10
 156 prop tor  24   8   9  25
 157 prop tor  25   9  10  11
 158 prop tor  25   9  10  13
 159 prop tor  26  11  12   7
 160 prop tor  26  11  12  27
 161 prop tor  28  14  15  16
 162 prop tor  28  14  15  29
 163 prop tor  29  15  16  17
 164 prop tor  29  15  16  30
 165 prop tor  30  16  17  18
 166 prop tor  30  16  17  31
 167 prop tor  31  17  18  13
 168 prop tor  31  17  18  32
 nber bend=              54
 nber lin bend=           0
 nber prop tor=          80
 nber impr tor=           0
 nber tot redund int=         168
 Eigenvalues of G in red int coords
    Gval -0.00000000 -0.00000000 -0.00000000 -0.00000000 -0.00000000 -0.00000000 -0.00000000 -0.00000000
    Gval -0.00000000 -0.00000000 -0.00000000 -0.00000000 -0.00000000 -0.00000000 -0.00000000 -0.00000000
    Gval -0.00000000 -0.00000000 -0.00000000 -0.00000000 -0.00000000 -0.00000000 -0.00000000 -0.00000000
    Gval -0.00000000 -0.00000000 -0.00000000 -0.00000000 -0.00000000 -0.00000000 -0.00000000 -0.00000000
    Gval -0.00000000 -0.00000000 -0.00000000 -0.00000000 -0.00000000  0.00000000  0.00000000  0.00000000
    Gval  0.00000000  0.00000000  0.00000000  0.00000000  0.00000000  0.00000000  0.00000000  0.00000000
    Gval  0.00000000  0.00000000  0.00000000  0.00000000  0.00000000  0.00000000  0.00000000  0.00000000
    Gval  0.00000000  0.00000000  0.00000000  0.00000000  0.00000000  0.00000000  0.00000000  0.00000000
    Gval  0.00000000  0.00000000  0.00000000  0.00000000  0.00000000  0.00000000  0.00000000  0.00000000
    Gval  0.00000000  0.00000000  0.00000000  0.00000000  0.00000000  0.00000000  0.00000137  0.00000359
    Gval  0.00000637  0.00000718  0.00001278  0.00002167  0.00002192  0.00002924  0.00004270  0.00004727
    Gval  0.00005048  0.00005100  0.00005781  0.00005782  0.00006142  0.00006151  0.00007102  0.00007425
    Gval  0.00008219  0.00009860  0.00010959  0.00011526  0.00011928  0.00012143  0.00012494  0.00013139
    Gval  0.00013892  0.00017997  0.00024014  0.00025954  0.00026768  0.00028440  0.00029527  0.00033216
    Gval  0.00035726  0.00036922  0.00038924  0.00040123  0.00042782  0.00052793  0.00054995  0.00059308
    Gval  0.00059308  0.00059338  0.00059349  0.00059746  0.00059976  0.00060406  0.00060407  0.00060930
    Gval  0.00061926  0.00062189  0.00062527  0.00064105  0.00065012  0.00066096  0.00066117  0.00080483
    Gval  0.00101730  0.00104133  0.00104147  0.00108029  0.00110964  0.00111091  0.00111233  0.00113890
    Gval  0.00113898  0.00115108  0.00116833  0.00116998  0.00117028  0.00117305  0.00117305  0.00142713
    Gval  0.00143381  0.00157729  0.00176893  0.00200334  0.00234483  0.00235174  0.00236676  0.00254178
    Gval  0.00311688  0.00316551  0.00360365  0.00366894  0.00370762  0.00370993  0.00406679  0.00406718
  1.365411421178540E-006  1.365411421178540E-006
  3.590509860629184E-006  1.365411421178540E-006
  6.365422774871356E-006  1.365411421178540E-006
  7.181223112963586E-006  1.365411421178540E-006
  1.277631404291862E-005  1.365411421178540E-006
  2.166539914217618E-005  1.365411421178540E-006
  2.191800896769556E-005  1.365411421178540E-006
  2.923613952055717E-005  1.365411421178540E-006
  4.270456951997139E-005  1.365411421178540E-006
  4.726892074231945E-005  1.365411421178540E-006
  5.048491995581358E-005  1.365411421178540E-006
  5.100471071397947E-005  1.365411421178540E-006
  5.781270694309765E-005  1.365411421178540E-006
  5.782495899288858E-005  1.365411421178540E-006
  6.141552393095250E-005  1.365411421178540E-006
  6.150643148859383E-005  1.365411421178540E-006
  7.101926818942927E-005  1.365411421178540E-006
  7.425238622103625E-005  1.365411421178540E-006
  8.219129277925486E-005  1.365411421178540E-006
  9.859769900275676E-005  1.365411421178540E-006
  1.095876429588862E-004  1.365411421178540E-006
  1.152591639448433E-004  1.365411421178540E-006
  1.192813627479153E-004  1.365411421178540E-006
  1.214272766722536E-004  1.365411421178540E-006
  1.249369001983335E-004  1.365411421178540E-006
  1.313890234524161E-004  1.365411421178540E-006
[...]
  20 B1u   433.  0.9991    99.8    99.0  21 B1u   432.
  21 B3u   454.  0.9711    94.3    95.7  17 B3u   394.
  22 B3g   461. -0.9993    99.9   103.9  22 B3g   456.
  23 B2g   528. -0.9897    97.9   100.9  23 B2g   493.
  24 B3u   558.  0.9694    94.0   100.8  24 B3u   507.
  25 Ag    626. -0.9993    99.9    96.9  25 Ag    608.
  26 B3g   629. -0.9985    99.7   100.6  26 B3g   626.
  27 B2u   636.  0.9996    99.9   100.5  27 B2u   633.
  28 B3g   664.  0.9984    99.7   100.4  28 B3g   659.
  29 B2g   693.  0.9354    87.5    99.9  29 B2g   674.
  30 B3u   697.  0.9843    96.9    99.8  30 B3u   677.
  31 B1u   711. -0.9967    99.3    97.7  32 B1u   701.
  32 B2g   729.  0.9469    89.7    98.7  31 B2g   689.
  33 B3u   764.  0.9131    83.4    99.0  33 B3u   706.
  34 Ag    791. -0.9953    99.1    97.3  36 Ag    768.
  35 B2g   793. -0.8757    76.7   100.1  34 B2g   731.
                 0.3874    15.0          41 B2g   819.
  36 B1g   805.  0.9922    98.5    98.5  35 B1g   748.
  37 Au    834. -0.9941    98.8    98.8  38 Au    784.
  38 B1g   848.  0.9907    98.2    98.6  39 B1g   799.
  39 B3u   853.  0.9625    92.6    99.6  37 B3u   783.
  40 B3u   919.  0.9005    81.1    99.8  40 B3u   817.
  41 B2g   919. -0.8967    80.4    99.9  41 B2g   819.
  42 Au    946.  0.9893    97.9    99.0  42 Au    890.
  43 B2g   955. -0.9688    93.9    99.2  43 B2g   896.
  44 B1g   970.  0.9979    99.6    99.0  44 B1g   928.
  45 Au    975.  0.9937    98.7    99.0  45 Au    932.
  46 B3u   997.  0.9408    88.5    99.5  46 B3u   936.
  47 B2g   998.  0.9280    86.1    99.5  47 B2g   939.
  48 Ag   1011. -0.9504    90.3   100.0  48 Ag    977.
  49 B1u  1015.  0.7943    63.1    99.5  49 B1u   980.
                 0.4801    23.0          50 B1u   996.
                -0.3239    10.5          52 B1u  1025.
  50 B1u  1019. -0.5873    34.5    99.4  49 B1u   980.
                 0.6902    47.6          50 B1u   996.
                -0.3980    15.8          52 B1u  1025.
  51 Ag   1024.  0.9684    93.8    99.5  51 Ag   1010.
  52 B1u  1053. -0.4399    19.4   100.1  50 B1u   996.
                -0.8256    68.2          52 B1u  1025.
                -0.3552    12.6          53 B1u  1037.
  53 B1u  1065.  0.9197    84.6    99.9  53 B1u  1037.
  54 Ag   1065.  0.9825    96.5   100.1  54 Ag   1040.
  55 B2u  1111.  0.9726    94.6    99.4  56 B2u  1096.
  56 B3g  1113.  0.9905    98.1    99.3  55 B3g  1094.
  57 B2u  1164.  0.8827    77.9    99.3  57 B2u  1146.
                 0.3831    14.7          59 B2u  1164.
  58 B3g  1185.  0.9762    95.3    99.7  58 B3g  1161.
  59 B2u  1190. -0.3865    14.9    99.5  57 B2u  1146.
                 0.9017    81.3          59 B2u  1164.
  60 Ag   1207.  0.9962    99.2   100.0  60 Ag   1195.
  61 B1u  1220.  0.9858    97.2    99.9  61 B1u  1204.
  62 Ag   1253. -0.9752    95.1   100.2  62 Ag   1247.
  63 Ag   1287.  0.9701    94.1    99.8  68 Ag   1338.
  64 B2u  1292. -0.9198    84.6    99.6  64 B2u  1285.
  65 B1u  1302. -0.9854    97.1    99.7  65 B1u  1326.
  66 B3g  1308.  0.8165    66.7    99.6  63 B3g  1272.
                 0.3170    10.0          67 B3g  1330.
                 0.3755    14.1          69 B3g  1353.
  67 B2u  1321.  0.9117    83.1   100.1  66 B2u  1329.
  68 B3g  1351. -0.8771    76.9    99.7  67 B3g  1330.
                 0.4505    20.3          69 B3g  1353.
  69 B3g  1367. -0.4434    19.7    99.6  63 B3g  1272.
                 0.3203    10.3          67 B3g  1330.
                 0.7875    62.0          69 B3g  1353.
  70 B2u  1374. -0.9694    94.0    99.8  70 B2u  1363.
  71 B2u  1438. -0.8054    64.9    99.2  72 B2u  1461.
                -0.4412    19.5          74 B2u  1490.
  72 B3g  1472. -0.8594    73.9    99.5  71 B3g  1445.
                 0.4283    18.3          75 B3g  1507.
  73 B2u  1489.  0.4648    21.6    99.7  72 B2u  1461.
                -0.8477    71.9          74 B2u  1490.
  74 B1u  1518.  0.9826    96.5    99.5  73 B1u  1490.
  75 Ag   1535. -0.9953    99.1    99.6  76 Ag   1517.
  76 B1u  1568. -0.9599    92.1    99.5  77 B1u  1534.
  77 B3g  1594. -0.4271    18.2    99.6  71 B3g  1445.
                -0.8125    66.0          75 B3g  1507.
  78 B2u  1621. -0.9584    91.9    99.6  79 B2u  1550.
  79 B3g  1625. -0.9486    90.0    99.7  78 B3g  1547.
  80 Ag   1638.  0.8667    75.1   100.0  81 Ag   1636.
                 0.4953    24.5          82 Ag   1645.
  81 B1u  1645.  0.9755    95.2   100.1  80 B1u  1612.
  82 Ag   1656. -0.4948    24.5   100.0  81 Ag   1636.
                 0.8662    75.0          82 Ag   1645.
  83 B1u  3161. -0.9765    95.3   100.0  83 B1u  3121.
  84 Ag   3162.  0.9763    95.3   100.0  84 Ag   3122.
  85 B3g  3169.  0.9935    98.7   100.0  85 B3g  3126.
  86 B2u  3170. -0.9959    99.2   100.0  86 B2u  3127.
  87 B1u  3181. -0.8828    77.9   100.0  87 B1u  3144.
                 0.4452    19.8          91 B1u  3163.
  88 B3g  3184.  0.9731    94.7   100.0  88 B3g  3145.
  89 Ag   3185.  0.9578    91.7   100.0  89 Ag   3161.
  90 B1u  3188.  0.4406    19.4   100.0  87 B1u  3144.
                 0.8710    75.9          91 B1u  3163.
  91 B2u  3193.  0.9412    88.6   100.0  90 B2u  3163.
                 0.3268    10.7          95 B2u  3183.
  92 Ag   3196.  0.9152    83.8   100.0  92 Ag   3168.
                -0.3228    10.4          96 Ag   3187.
  93 B3g  3204.  0.9745    95.0   100.0  93 B3g  3179.
  94 B1u  3205.  0.9820    96.4   100.0  94 B1u  3183.
  95 B2u  3210. -0.3301    10.9   100.0  90 B2u  3163.
                 0.9435    89.0          95 B2u  3183.
  96 Ag   3213.  0.9427    88.9   100.0  96 Ag   3187.
 nber times 1st assigned=           1           0
 nber times 1st assigned=           2           0
 nber times 1st assigned=           3           0
 nber times 1st assigned=           4           0
 nber times 1st assigned=           5           0
 nber times 1st assigned=           6           0
 nber times 1st assigned=           7           0
 nber times 1st assigned=           8           0
 nber times 1st assigned=           9           0
 nber times 1st assigned=          10           0
 nber times 1st assigned=          11           0
 nber times 1st assigned=          12           0
 nber times 1st assigned=          13           0
 nber times 1st assigned=          14           0
 nber times 1st assigned=          15           0
 nber times 1st assigned=          16           0
 nber times 1st assigned=          17           0
 nber times 1st assigned=          18           0
 nber times 1st assigned=          19           0
 nber times 1st assigned=          20           0
 nber times 1st assigned=          21           0
 nber times 1st assigned=          22           0
 nber times 1st assigned=          23           0
 nber times 1st assigned=          24           0
 nber times 1st assigned=          25           0
 nber times 1st assigned=          26           0
 nber times 1st assigned=          27           0
 nber times 1st assigned=          28           0
 nber times 1st assigned=          29           0
 nber times 1st assigned=          30           0
 nber times 1st assigned=          31           0
 nber times 1st assigned=          32           0
 nber times 1st assigned=          33           0
 nber times 1st assigned=          34           0
 nber times 1st assigned=          35           0
 nber times 1st assigned=          36           0
 nber times 1st assigned=          37           0
 nber times 1st assigned=          38           0
 nber times 1st assigned=          39           0
 nber times 1st assigned=          40           0
 nber times 1st assigned=          41           0
 nber times 1st assigned=          42           0
 nber times 1st assigned=          43           0
 nber times 1st assigned=          44           0
 nber times 1st assigned=          45           0
 nber times 1st assigned=          46           0
 nber times 1st assigned=          47           0
 nber times 1st assigned=          48           0
 nber times 1st assigned=          49           0
 nber times 1st assigned=          50           0
 nber times 1st assigned=          51           0
 nber times 1st assigned=          52           0
 nber times 1st assigned=          53           0
 nber times 1st assigned=          54           0
 nber times 1st assigned=          55           0
 nber times 1st assigned=          56           0
 nber times 1st assigned=          57           0
 nber times 1st assigned=          58           0
 nber times 1st assigned=          59           0
 nber times 1st assigned=          60           0
 nber times 1st assigned=          61           0
 nber times 1st assigned=          62           0
 nber times 1st assigned=          63           0
 nber times 1st assigned=          64           0
 nber times 1st assigned=          65           0
 nber times 1st assigned=          66           0
 nber times 1st assigned=          67           0
 nber times 1st assigned=          68           0
 nber times 1st assigned=          69           0
 nber times 1st assigned=          70           0
 nber times 1st assigned=          71           0
 nber times 1st assigned=          72           0
 nber times 1st assigned=          73           0
 nber times 1st assigned=          74           0
 nber times 1st assigned=          75           0
 nber times 1st assigned=          76           0
 nber times 1st assigned=          77           0
 nber times 1st assigned=          78           0
 nber times 1st assigned=          79           0
 nber times 1st assigned=          80           0
 nber times 1st assigned=          81           0
 nber times 1st assigned=          82           0
 nber times 1st assigned=          83           0
 nber times 1st assigned=          84           0
 nber times 1st assigned=          85           0
 nber times 1st assigned=          86           0
 nber times 1st assigned=          87           0
 nber times 1st assigned=          88           0
 nber times 1st assigned=          89           0
 nber times 1st assigned=          90           0
 nber times 1st assigned=          91           0
 nber times 1st assigned=          92           0
 nber times 1st assigned=          93           0
 nber times 1st assigned=          94           0
 nber times 1st assigned=          95           0
 nber times 1st assigned=          96           0
 modes represented=   89.9004889292668     
 p1=
   -0.    0.   -0.    0.    0.    0.   -0.    0.   -0.   -0.   -0.    0.    0.    8.   -0.   -0.   -0.    0.    0.    0.
   -0.    0.    0.   -0.   -2.    0.    0.   -0.   -0.   -0.   -0.   -0.    0.    0.   -0.   -0.    0.   -0.   -0.    0.
    0.    0.    0.    0.    0.    0.   -0.   -2.    0.   -0.    2.   -0.    0.   -2.   -0.    0.    0.   -0.   -0.    0.
    0.   -4.    4.    0.   -0.    0.   -0.   -0.    0.    0.   -0.    0.    0.   -0.   -2.    0.    0.   -0.    0.   -5.
   -0.   -1.    0.    0.    0.   -0.   -0.   -0.    0.    0.    0.   -0.    0.    0.   -0.    0.
 p2=
   -0.   -0.   -0.   -0.   -0.   -0.   -0.    0.    0.    0.   -0.   -0.    0.    9.   -0.    0.    0.   -0.    0.    0.
    0.    0.    0.    0.   -2.   -0.   -0.   -0.    0.    0.    0.   -0.   -0.   -0.    0.    1.    0.    0.    0.   -0.
    0.   -0.    0.   -0.   -0.   -0.    0.   -1.   -0.    0.   -2.    0.   -0.    2.    0.    0.   -0.    0.    0.    0.
   -0.   -3.    0.   -0.   -0.    0.   -0.   -4.   -0.    0.    0.    0.    0.    0.    0.   -2.   -0.   -0.   -0.    0.
    4.    3.    0.   -0.    0.   -0.   -0.   -0.   -0.    0.   -0.   -0.   -0.   -0.    0.   -0.

 Displacement: in terms of nc of 1 THEN of nc of 2

   1 B1g freq=   -99. Q= -0.000 lam=    -0.0 B1g freq=   -62. Q= -0.000 lam=    -0.0
   2 Au  freq=   -58. Q=  0.000 lam=    -0.0 Au  freq=   -30. Q=  0.000 lam=    -0.0
   3 B3g freq=    -0. Q= -0.000 lam=    -0.0 B3g freq=    -0. Q= -0.000 lam=    -0.0
   4 B2g freq=    -0. Q=  0.000 lam=    -0.0 B3u freq=    -0. Q=  0.000 lam=    -0.0
   5 B1g freq=    -0. Q=  0.000 lam=    -0.0 B2g freq=    -0. Q=  0.000 lam=    -0.0
   6 B3u freq=    -0. Q=  0.000 lam=    -0.0 B1g freq=    -0. Q=  0.000 lam=    -0.0
   7 B2u freq=     0. Q= -0.000 lam=     0.0 B2u freq=     0. Q= -0.000 lam=     0.0
   8 B1u freq=     0. Q=  0.000 lam=     0.0 B1u freq=     0. Q=  0.000 lam=     0.0
   9 B3u freq=    38. Q= -0.000 lam=     0.0 B3u freq=    36. Q= -0.000 lam=     0.0
  10 B2u freq=    98. Q= -0.000 lam=     0.0 B2u freq=    96. Q= -0.000 lam=     0.0
  11 B2g freq=   114. Q= -0.000 lam=     0.0 B2g freq=   109. Q= -0.000 lam=     0.0
  12 B3u freq=   187. Q=  0.000 lam=     0.0 B3u freq=   156. Q=  0.000 lam=     0.0
  13 B3g freq=   216. Q=  0.000 lam=     0.0 B3g freq=   209. Q=  0.000 lam=     0.0
  14 Ag  freq=   229. Q=  0.494 lam=    28.0 Ag  freq=   228. Q=  0.525 lam=    31.4
  15 B2g freq=   309. Q= -0.000 lam=     0.0 B2g freq=   263. Q= -0.000 lam=     0.0
  16 B2u freq=   382. Q= -0.000 lam=     0.0 B2u freq=   383. Q= -0.000 lam=     0.0
  17 Au  freq=   385. Q= -0.000 lam=     0.0 B3u freq=   394. Q= -0.000 lam=     0.0
  18 B1g freq=   404. Q=  0.000 lam=     0.0 Au  freq=   417. Q=  0.000 lam=     0.0
  19 Au  freq=   416. Q=  0.000 lam=     0.0 B1g freq=   419. Q=  0.000 lam=     0.0
  20 B1u freq=   433. Q=  0.000 lam=     0.0 Au  freq=   428. Q=  0.000 lam=     0.0
  21 B3u freq=   454. Q= -0.000 lam=     0.0 B1u freq=   432. Q= -0.000 lam=     0.0
  22 B3g freq=   461. Q=  0.000 lam=     0.0 B3g freq=   456. Q=  0.000 lam=     0.0
  23 B2g freq=   528. Q=  0.000 lam=     0.0 B2g freq=   493. Q=  0.000 lam=     0.0
  24 B3u freq=   558. Q= -0.000 lam=     0.0 B3u freq=   507. Q= -0.000 lam=     0.0
  25 Ag  freq=   626. Q= -0.227 lam=    16.2 Ag  freq=   608. Q= -0.230 lam=    16.1
  26 B3g freq=   629. Q=  0.000 lam=     0.0 B3g freq=   626. Q=  0.000 lam=     0.0
  27 B2u freq=   636. Q=  0.000 lam=     0.0 B2u freq=   633. Q=  0.000 lam=     0.0
  28 B3g freq=   664. Q= -0.000 lam=     0.0 B3g freq=   659. Q= -0.000 lam=     0.0
  29 B2g freq=   693. Q= -0.000 lam=     0.0 B2g freq=   674. Q= -0.000 lam=     0.0
  30 B3u freq=   697. Q= -0.000 lam=     0.0 B3u freq=   677. Q= -0.000 lam=     0.0
  31 B1u freq=   711. Q= -0.000 lam=     0.0 B2g freq=   689. Q= -0.000 lam=     0.0
  32 B2g freq=   729. Q= -0.000 lam=     0.0 B1u freq=   701. Q= -0.000 lam=     0.0
  33 B3u freq=   764. Q=  0.000 lam=     0.0 B3u freq=   706. Q=  0.000 lam=     0.0
  34 Ag  freq=   791. Q=  0.030 lam=     0.4 B2g freq=   731. Q=  0.000 lam=     0.0
  35 B2g freq=   793. Q= -0.000 lam=     0.0 B1g freq=   748. Q= -0.000 lam=     0.0
  36 B1g freq=   805. Q= -0.000 lam=     0.0 Ag  freq=   768. Q= -0.084 lam=     2.7
  37 Au  freq=   834. Q=  0.000 lam=     0.0 B3u freq=   783. Q=  0.000 lam=     0.0
  38 B1g freq=   848. Q= -0.000 lam=     0.0 Au  freq=   784. Q= -0.000 lam=     0.0
  39 B3u freq=   853. Q= -0.000 lam=     0.0 B1g freq=   799. Q= -0.000 lam=     0.0
  40 B3u freq=   919. Q=  0.000 lam=     0.0 B3u freq=   817. Q=  0.000 lam=     0.0
  41 B2g freq=   919. Q=  0.000 lam=     0.0 B2g freq=   819. Q=  0.000 lam=     0.0
  42 Au  freq=   946. Q=  0.000 lam=     0.0 Au  freq=   890. Q=  0.000 lam=     0.0
  43 B2g freq=   955. Q=  0.000 lam=     0.0 B2g freq=   896. Q=  0.000 lam=     0.0
  44 B1g freq=   970. Q=  0.000 lam=     0.0 B1g freq=   928. Q=  0.000 lam=     0.0
  45 Au  freq=   975. Q=  0.000 lam=     0.0 Au  freq=   932. Q=  0.000 lam=     0.0
  46 B3u freq=   997. Q=  0.000 lam=     0.0 B3u freq=   936. Q=  0.000 lam=     0.0
  47 B2g freq=   998. Q= -0.000 lam=     0.0 B2g freq=   939. Q= -0.000 lam=     0.0
  48 Ag  freq=  1011. Q= -0.280 lam=    39.7 Ag  freq=   977. Q= -0.186 lam=    16.9
  49 B1u freq=  1015. Q=  0.000 lam=     0.0 B1u freq=   980. Q=  0.000 lam=     0.0
  50 B1u freq=  1019. Q= -0.000 lam=     0.0 B1u freq=   996. Q= -0.000 lam=     0.0
  51 Ag  freq=  1024. Q=  0.231 lam=    27.3 Ag  freq=  1010. Q=  0.302 lam=    46.0
  52 B1u freq=  1053. Q= -0.000 lam=     0.0 B1u freq=  1025. Q= -0.000 lam=     0.0
  53 B1u freq=  1065. Q=  0.000 lam=     0.0 B1u freq=  1037. Q=  0.000 lam=     0.0
  54 Ag  freq=  1065. Q= -0.212 lam=    23.9 Ag  freq=  1040. Q= -0.232 lam=    28.1
  55 B2u freq=  1111. Q= -0.000 lam=     0.0 B3g freq=  1094. Q= -0.000 lam=     0.0
  56 B3g freq=  1113. Q=  0.000 lam=     0.0 B2u freq=  1096. Q=  0.000 lam=     0.0
  57 B2u freq=  1164. Q=  0.000 lam=     0.0 B2u freq=  1146. Q=  0.000 lam=     0.0
  58 B3g freq=  1185. Q= -0.000 lam=     0.0 B3g freq=  1161. Q= -0.000 lam=     0.0
  59 B2u freq=  1190. Q= -0.000 lam=     0.0 B2u freq=  1164. Q= -0.000 lam=     0.0
  60 Ag  freq=  1207. Q=  0.037 lam=     0.8 Ag  freq=  1195. Q=  0.004 lam=     0.0
  61 B1u freq=  1220. Q=  0.000 lam=     0.0 B1u freq=  1204. Q=  0.000 lam=     0.0
  62 Ag  freq=  1253. Q= -0.635 lam=   252.4 Ag  freq=  1247. Q= -0.466 lam=   135.2
  63 Ag  freq=  1287. Q=  0.520 lam=   173.7 B3g freq=  1272. Q=  0.000 lam=     0.0
  64 B2u freq=  1292. Q=  0.000 lam=     0.0 B2u freq=  1285. Q=  0.000 lam=     0.0
  65 B1u freq=  1302. Q= -0.000 lam=     0.0 B1u freq=  1326. Q= -0.000 lam=     0.0
  66 B3g freq=  1308. Q=  0.000 lam=     0.0 B2u freq=  1329. Q=  0.000 lam=     0.0
  67 B2u freq=  1321. Q= -0.000 lam=     0.0 B3g freq=  1330. Q= -0.000 lam=     0.0
  68 B3g freq=  1351. Q= -0.000 lam=     0.0 Ag  freq=  1338. Q= -0.609 lam=   248.5
  69 B3g freq=  1367. Q=  0.000 lam=     0.0 B3g freq=  1353. Q=  0.000 lam=     0.0
  70 B2u freq=  1374. Q=  0.000 lam=     0.0 B2u freq=  1363. Q=  0.000 lam=     0.0
  71 B2u freq=  1438. Q= -0.000 lam=     0.0 B3g freq=  1445. Q= -0.000 lam=     0.0
  72 B3g freq=  1472. Q=  0.000 lam=     0.0 B2u freq=  1461. Q=  0.000 lam=     0.0
  73 B2u freq=  1489. Q=  0.000 lam=     0.0 B1u freq=  1490. Q=  0.000 lam=     0.0
  74 B1u freq=  1518. Q= -0.000 lam=     0.0 B2u freq=  1490. Q= -0.000 lam=     0.0
  75 Ag  freq=  1535. Q= -0.245 lam=    46.0 B3g freq=  1507. Q= -0.000 lam=     0.0
  76 B1u freq=  1568. Q=  0.000 lam=     0.0 Ag  freq=  1517. Q=  0.300 lam=    68.1
  77 B3g freq=  1594. Q=  0.000 lam=     0.0 B1u freq=  1534. Q=  0.000 lam=     0.0
  78 B2u freq=  1621. Q= -0.000 lam=     0.0 B3g freq=  1547. Q= -0.000 lam=     0.0
  79 B3g freq=  1625. Q=  0.000 lam=     0.0 B2u freq=  1550. Q=  0.000 lam=     0.0
  80 Ag  freq=  1638. Q= -0.795 lam=   517.4 B1u freq=  1612. Q= -0.000 lam=     0.0
  81 B1u freq=  1645. Q= -0.000 lam=     0.0 Ag  freq=  1636. Q= -0.616 lam=   310.0
  82 Ag  freq=  1656. Q= -0.198 lam=    32.5 Ag  freq=  1645. Q= -0.544 lam=   243.7
  83 B1u freq=  3161. Q=  0.000 lam=     0.0 B1u freq=  3121. Q=  0.000 lam=     0.0
  84 Ag  freq=  3162. Q=  0.037 lam=     2.2 Ag  freq=  3122. Q=  0.040 lam=     2.5
  85 B3g freq=  3169. Q=  0.000 lam=     0.0 B3g freq=  3126. Q=  0.000 lam=     0.0
  86 B2u freq=  3170. Q= -0.000 lam=     0.0 B2u freq=  3127. Q= -0.000 lam=     0.0
  87 B1u freq=  3181. Q= -0.000 lam=     0.0 B1u freq=  3144. Q= -0.000 lam=     0.0
  88 B3g freq=  3184. Q= -0.000 lam=     0.0 B3g freq=  3145. Q= -0.000 lam=     0.0
  89 Ag  freq=  3185. Q=  0.024 lam=     0.9 Ag  freq=  3161. Q=  0.021 lam=     0.7
  90 B1u freq=  3188. Q=  0.000 lam=     0.0 B2u freq=  3163. Q=  0.000 lam=     0.0
  91 B2u freq=  3193. Q=  0.000 lam=     0.0 B1u freq=  3163. Q=  0.000 lam=     0.0
  92 Ag  freq=  3196. Q= -0.010 lam=     0.1 Ag  freq=  3168. Q= -0.003 lam=     0.0
  93 B3g freq=  3204. Q=  0.000 lam=     0.0 B3g freq=  3179. Q=  0.000 lam=     0.0
  94 B1u freq=  3205. Q=  0.000 lam=     0.0 B1u freq=  3183. Q=  0.000 lam=     0.0
  95 B2u freq=  3210. Q= -0.000 lam=     0.0 B2u freq=  3183. Q= -0.000 lam=     0.0
  96 Ag  freq=  3213. Q=  0.036 lam=     2.1 Ag  freq=  3187. Q=  0.036 lam=     2.1

 total reorg energy (cm**-1, kcal/mol)=     1164.     1152.      3.33      3.29
 Nber of molecules processed=           2
