 Enter ifcurve (0=recti, 1=orth curvi, 2=apprx curvi, -1 = skip
 And atom ordering flag, 0= never changes, 1= use the first order thenceforth,
  2= deduce it (does read on fail), 3= always read it
 Reading file: 
 ./CDT-BT_1_C0S1.log                                                            
                                          
  Entering Gaussian System, Link 0=g16                                          
  
 Gaussian format, type: g94, g98, g03= F F F
  #P Geom=AllCheck Guess=TCheck SCRF=Check GenChk RB3LYP TD(FC,Read)/6-3    
 energy type= TD      
 Original G94 input coords:
  6  0.504054  1.437561 -0.218225
  6 -0.338715  1.375489  0.894464
  6 -1.684849  0.977975  0.787166
  7 -2.299101  0.626798 -0.335011
  6 -3.595093  0.294525 -0.121244
  6 -4.504949 -0.120419 -1.118847
  6 -5.804214 -0.431350 -0.764364
  6 -6.234298 -0.341154  0.573026
  6 -5.361126  0.064891  1.579824
  6 -4.052443  0.379564  1.232145
 16 -2.735967  0.912619  2.250608
  6  1.842948  1.817798 -0.209107
  6  2.735869  1.895553 -1.312725
  6  4.001144  2.309772 -0.958344
  6  5.321251  2.572213 -1.660172
  6  6.199946  3.004796 -0.503477
  6  7.530732  3.412063 -0.315123
  6  7.807512  3.700152  1.005099
 16  6.425955  3.474868  2.054735
  6  5.462006  2.985388  0.692581
  6  4.140923  2.570246  0.434888
 16  2.677938  2.296072  1.317916
  1  0.074195  1.164107 -1.176867
  1  0.038099  1.637693  1.877043
  1 -4.160412 -0.185298 -2.143590
  1 -6.506435 -0.750330 -1.526253
  1 -7.258553 -0.590652  0.824814
  1 -5.698196  0.132323  2.607266
  1  2.409883  1.644681 -2.313902
  1  5.704981  1.675497 -2.160791
  1  5.230579  3.350509 -2.426966
  1  8.272892  3.498222 -1.098353
  1  8.740684  4.032710  1.433105
 nber atoms=          33
  Total Energy, E(TD-HF/TD-DFT) =  -1941.98571360                               
  
          32          49 "  -1941.98571360"
After scan for Atom:   Atom  AN      X      Y      Z        X      Y      Z        X      Y      Z   
After scan for Atom:   Atom  AN      X      Y      Z        X      Y      Z        X      Y      Z   
After scan for Atom:   Atom  AN      X      Y      Z        X      Y      Z        X      Y      Z   
After scan for Atom:   Atom  AN      X      Y      Z        X      Y      Z        X      Y      Z   
After scan for Atom:   Atom  AN      X      Y      Z        X      Y      Z        X      Y      Z   
After scan for Atom:   Atom  AN      X      Y      Z        X      Y      Z        X      Y      Z   
After scan for Atom:   Atom  AN      X      Y      Z        X      Y      Z        X      Y      Z   
After scan for Atom:   Atom  AN      X      Y      Z        X      Y      Z        X      Y      Z   
After scan for Atom:   Atom  AN      X      Y      Z        X      Y      Z        X      Y      Z   
After scan for Atom:   Atom  AN      X      Y      Z        X      Y      Z        X      Y      Z   
After scan for Atom:   Atom  AN      X      Y      Z        X      Y      Z        X      Y      Z   
After scan for Atom:   Atom  AN      X      Y      Z        X      Y      Z        X      Y      Z   
After scan for Atom:   Atom  AN      X      Y      Z        X      Y      Z        X      Y      Z   
After scan for Atom:   Atom  AN      X      Y      Z        X      Y      Z        X      Y      Z   
After scan for Atom:   Atom  AN      X      Y      Z        X      Y      Z        X      Y      Z   
After scan for Atom:   Atom  AN      X      Y      Z        X      Y      Z        X      Y      Z   
After scan for Atom:   Atom  AN      X      Y      Z        X      Y      Z        X      Y      Z   
After scan for Atom:   Atom  AN      X      Y      Z        X      Y      Z        X      Y      Z   
After scan for Atom:   Atom  AN      X      Y      Z        X      Y      Z        X      Y      Z   
After scan for Atom:   Atom  AN      X      Y      Z        X      Y      Z        X      Y      Z   
After scan for Atom:   Atom  AN      X      Y      Z        X      Y      Z        X      Y      Z   
After scan for Atom:   Atom  AN      X      Y      Z        X      Y      Z        X      Y      Z   
After scan for Atom:   Atom  AN      X      Y      Z        X      Y      Z        X      Y      Z   
After scan for Atom:   Atom  AN      X      Y      Z        X      Y      Z        X      Y      Z   
After scan for Atom:   Atom  AN      X      Y      Z        X      Y      Z        X      Y      Z   
After scan for Atom:   Atom  AN      X      Y      Z        X      Y      Z        X      Y      Z   
After scan for Atom:   Atom  AN      X      Y      Z        X      Y      Z        X      Y      Z   
After scan for Atom:   Atom  AN      X      Y      Z        X      Y      Z        X      Y      Z   
After scan for Atom:   Atom  AN      X      Y      Z        X      Y      Z        X      Y      Z   
After scan for Atom:   Atom  AN      X      Y      Z        X      Y      Z        X      Y      Z   
After scan for Atom:   Atom  AN      X      Y      Z        X      Y      Z        X      Y      Z   
 g94    frequencies=
     0.0    0.0    0.0    0.0    0.0    0.0   19.1   33.5   33.9   58.3
   101.4  112.4  136.4  179.7  185.6  189.3  218.3  236.6  267.5  298.5
   319.4  345.4  419.0  435.2  435.8  445.7  468.8  489.3  503.2  533.8
   539.3  553.4  562.9  575.4  603.3  609.6  627.1  642.3  654.4  676.8
   705.6  708.3  725.6  768.3  786.9  789.9  803.1  810.2  855.7  872.6
   906.2  913.3  938.7  941.5  946.1  980.2  980.4  996.6 1030.8 1063.2
  1100.4 1115.0 1143.4 1153.3 1155.2 1181.2 1196.0 1203.7 1240.8 1264.2
  1270.9 1277.6 1328.6 1337.4 1357.1 1358.4 1400.1 1446.4 1451.1 1455.3
  1464.3 1477.9 1492.6 1504.0 1508.5 1563.0 1571.1 1616.9 3012.6 3034.8
  3163.1 3166.6 3171.9 3177.7 3189.5 3196.9 3198.2 3200.5 3243.5
 g94    symmetries=
                                                 A      A      A      A
       A      A      A      A      A      A      A      A      A      A
       A      A      A      A      A      A      A      A      A      A
       A      A      A      A      A      A      A      A      A      A
       A      A      A      A      A      A      A      A      A      A
       A      A      A      A      A      A      A      A      A      A
       A      A      A      A      A      A      A      A      A      A
       A      A      A      A      A      A      A      A      A      A
       A      A      A      A      A      A      A      A      A      A
       A      A      A      A      A      A      A      A      A
 atomic masses:
 12.0000 12.0000 12.0000 14.0031 12.0000 12.0000 12.0000 12.0000 12.0000 12.0000
 31.9721 12.0000 12.0000 12.0000 12.0000 12.0000 12.0000 12.0000 31.9721 12.0000
 12.0000 31.9721  1.0078  1.0078  1.0078  1.0078  1.0078  1.0078  1.0078  1.0078
  1.0078  1.0078  1.0078
 looking for force constants in 
 ./CDT-BT_1_C0S1.fchk                                                           
  
 Cartesian Force Constants                  R   N=        4950                  
  
 n3=          99        4950
 g94-fc frequencies=
    -1.2   -0.0   -0.0    0.0    0.6    1.8   19.1   33.5   33.9   58.3
   101.4  112.4  136.4  179.7  185.6  189.3  218.3  236.6  267.5  298.5
   319.4  345.4  419.0  435.2  435.8  445.8  468.8  489.3  503.2  533.8
   539.3  553.4  562.9  575.4  603.3  609.6  627.1  642.3  654.4  676.8
   705.6  708.3  725.6  768.3  786.9  789.9  803.1  810.2  855.7  872.6
   906.3  913.3  938.7  941.5  946.1  980.2  980.4  996.6 1030.8 1063.2
  1100.4 1115.1 1143.4 1153.3 1155.2 1181.2 1196.0 1203.7 1240.8 1264.3
  1270.9 1277.6 1328.7 1337.5 1357.1 1358.4 1400.1 1446.4 1451.1 1455.3
  1464.4 1477.9 1492.6 1504.0 1508.5 1563.0 1571.2 1616.9 3012.7 3034.9
  3163.2 3166.7 3172.0 3177.7 3189.5 3196.9 3198.3 3200.6 3243.6
 at 99999: n3=          99
 symm operator            1 :  F  nop=           0
 symm operator            2 :  F  nop=           0
 symm operator            3 :  F  nop=           0
 symm operator            4 :  F  nop=           0
 symm operator            5 :  F  nop=           0
 symm operator            6 :  F  nop=           0
 symm operator            7 :  F  nop=           0
 The point group of the molecule is  C1
 Symmetry rotation matrix:
   1.00000   0.00000   0.00000
   0.00000   1.00000   0.00000
   0.00000   0.00000   1.00000

 Projecting out zero-frequency components
 generating redundant internal coords
         300        3600          33
 search for int coords
   1 str   2   1   1.397
   2 str   3   2   1.408
   3 str   4   3   1.327
   4 str   5   4   1.355
   5 str   6   5   1.413
   6 str   7   6   1.382
   7 str   8   7   1.408
   8 str   9   8   1.393
   9 str  10   5   1.431
  10 str  10   9   1.390
  11 str  11   3   1.803
  12 str  11  10   1.748
  13 str  12   1   1.392
  14 str  13  12   1.422
  15 str  14  13   1.378
  16 str  15  14   1.518
  17 str  16  15   1.516
  18 str  17  16   1.404
  19 str  18  17   1.379
  20 str  19  18   1.750
  21 str  20  16   1.406
  22 str  20  19   1.739
  23 str  21  14   1.424
  24 str  21  20   1.409
  25 str  22  12   1.805
  26 str  22  21   1.731
  27 str  23   1   1.086
  28 str  24   2   1.085
  29 str  25   6   1.083
  30 str  26   7   1.084
  31 str  27   8   1.084
  32 str  28   9   1.083
  33 str  29  13   1.082
  34 str  30  15   1.096
  35 str  31  15   1.096
  36 str  32  17   1.082
  37 str  33  18   1.079
 nber stretches=          37
  38 ben   1   2   3
  39 prop tor   1   2   3   4
  40 prop tor   1   2   3  11
  41 ben   1   2  24
  42 ben   1  12  13
  43 prop tor   1  12  13  14
  44 prop tor   1  12  13  29
  45 ben   1  12  22
  46 prop tor   1  12  22  21
  47 ben   2   1  12
  48 prop tor   2   1  12  13
  49 prop tor   2   1  12  22
  50 ben   2   1  23
  51 ben   2   3   4
  52 prop tor   2   3   4   5
  53 ben   2   3  11
  54 prop tor   2   3  11  10
  55 ben   3   2  24
  56 ben   3   4   5
  57 prop tor   3   4   5   6
  58 prop tor   3   4   5  10
  59 ben   3  11  10
  60 ben   4   3  11
  61 prop tor   4   3  11  10
  62 ben   4   5   6
  63 prop tor   4   5   6   7
  64 prop tor   4   5   6  25
  65 ben   4   5  10
  66 prop tor   4   5  10   9
  67 prop tor   4   5  10  11
  68 ben   5   6   7
  69 prop tor   5   6   7   8
  70 prop tor   5   6   7  26
  71 ben   5   6  25
  72 ben   5  10   9
  73 ben   5  10  11
  74 prop tor   5  10  11   3
  75 ben   6   5  10
  76 prop tor   6   5  10   9
  77 prop tor   6   5  10  11
  78 ben   6   7   8
  79 prop tor   6   7   8   9
  80 prop tor   6   7   8  27
  81 ben   6   7  26
  82 ben   7   6  25
  83 ben   7   8   9
  84 prop tor   7   8   9  10
  85 prop tor   7   8   9  28
  86 ben   7   8  27
  87 ben   8   7  26
  88 ben   8   9  10
  89 prop tor   8   9  10   5
  90 prop tor   8   9  10  11
  91 ben   8   9  28
  92 ben   9   8  27
  93 ben   9  10  11
  94 prop tor   9  10  11   3
  95 prop tor  10   5   6   7
  96 prop tor  10   5   6  25
  97 ben  10   9  28
  98 prop tor  11   3   4   5
  99 prop tor  12   1   2   3
 100 prop tor  12   1   2  24
 101 ben  12   1  23
 102 ben  12  13  14
 103 prop tor  12  13  14  15
 104 prop tor  12  13  14  21
 105 ben  12  13  29
 106 ben  12  22  21
 107 ben  13  12  22
 108 prop tor  13  12  22  21
 109 ben  13  14  15
 110 prop tor  13  14  15  16
 111 prop tor  13  14  15  30
 112 prop tor  13  14  15  31
 113 ben  13  14  21
 114 prop tor  13  14  21  20
 115 prop tor  13  14  21  22
 116 ben  14  13  29
 117 ben  14  15  16
 118 prop tor  14  15  16  17
 119 prop tor  14  15  16  20
 120 ben  14  15  30
 121 ben  14  15  31
 122 ben  14  21  20
 123 ben  14  21  22
 124 prop tor  14  21  22  12
 125 ben  15  14  21
 126 prop tor  15  14  21  20
 127 prop tor  15  14  21  22
 128 ben  15  16  17
 129 prop tor  15  16  17  18
 130 prop tor  15  16  17  32
 131 ben  15  16  20
 132 prop tor  15  16  20  19
 133 prop tor  15  16  20  21
 134 ben  16  15  30
 135 ben  16  15  31
 136 ben  16  17  18
 137 prop tor  16  17  18  19
 138 prop tor  16  17  18  33
 139 ben  16  17  32
 140 ben  16  20  19
 141 ben  16  20  21
 142 prop tor  16  20  21  14
 143 prop tor  16  20  21  22
 144 ben  17  16  20
 145 prop tor  17  16  20  19
 146 prop tor  17  16  20  21
 147 ben  17  18  19
 148 prop tor  17  18  19  20
 149 ben  17  18  33
 150 ben  18  17  32
 151 ben  18  19  20
 152 prop tor  18  19  20  16
 153 prop tor  18  19  20  21
 154 ben  19  18  33
 155 ben  19  20  21
 156 prop tor  19  20  21  14
 157 prop tor  19  20  21  22
 158 prop tor  20  16  17  18
 159 prop tor  20  16  17  32
 160 ben  20  21  22
 161 prop tor  20  21  22  12
 162 prop tor  21  14  15  16
 163 prop tor  21  14  15  30
 164 prop tor  21  14  15  31
 165 prop tor  22  12  13  14
 166 prop tor  22  12  13  29
 167 prop tor  23   1   2   3
 168 prop tor  23   1   2  24
 169 prop tor  23   1  12  13
 170 prop tor  23   1  12  22
 171 prop tor  24   2   3   4
 172 prop tor  24   2   3  11
 173 prop tor  25   6   7   8
 174 prop tor  25   6   7  26
 175 prop tor  26   7   8   9
 176 prop tor  26   7   8  27
 177 prop tor  27   8   9  10
 178 prop tor  27   8   9  28
 179 prop tor  28   9  10   5
 180 prop tor  28   9  10  11
 181 prop tor  29  13  14  15
 182 prop tor  29  13  14  21
 183 prop tor  30  15  16  17
 184 prop tor  30  15  16  20
 185 ben  30  15  31
 186 prop tor  31  15  16  17
 187 prop tor  31  15  16  20
 188 prop tor  32  17  18  19
 189 prop tor  32  17  18  33
 190 prop tor  33  18  19  20
 nber bend=              61
 nber lin bend=           0
 nber prop tor=          92
 nber impr tor=           0
 nber tot redund int=         190
 Eigenvalues of G in red int coords
    Gval -0.00000000 -0.00000000 -0.00000000 -0.00000000 -0.00000000 -0.00000000 -0.00000000 -0.00000000
    Gval -0.00000000 -0.00000000 -0.00000000 -0.00000000 -0.00000000 -0.00000000 -0.00000000 -0.00000000
    Gval -0.00000000 -0.00000000 -0.00000000 -0.00000000 -0.00000000 -0.00000000 -0.00000000 -0.00000000
    Gval -0.00000000 -0.00000000 -0.00000000 -0.00000000 -0.00000000 -0.00000000 -0.00000000 -0.00000000
    Gval -0.00000000 -0.00000000 -0.00000000 -0.00000000 -0.00000000 -0.00000000 -0.00000000 -0.00000000
    Gval -0.00000000 -0.00000000 -0.00000000 -0.00000000 -0.00000000  0.00000000  0.00000000  0.00000000
    Gval  0.00000000  0.00000000  0.00000000  0.00000000  0.00000000  0.00000000  0.00000000  0.00000000
    Gval  0.00000000  0.00000000  0.00000000  0.00000000  0.00000000  0.00000000  0.00000000  0.00000000
    Gval  0.00000000  0.00000000  0.00000000  0.00000000  0.00000000  0.00000000  0.00000000  0.00000000
    Gval  0.00000000  0.00000000  0.00000000  0.00000000  0.00000000  0.00000000  0.00000000  0.00000000
    Gval  0.00000000  0.00000000  0.00000000  0.00000000  0.00000000  0.00000000  0.00000000  0.00000000
    Gval  0.00000000  0.00000000  0.00000000  0.00000000  0.00000000  0.00000000  0.00000000  0.00000000
    Gval  0.00000000  0.00000045  0.00000156  0.00000193  0.00000414  0.00000716  0.00000906  0.00001644
    Gval  0.00001737  0.00001969  0.00002365  0.00002717  0.00003302  0.00003600  0.00003916  0.00004258
    Gval  0.00004818  0.00005191  0.00005520  0.00006224  0.00006285  0.00006589  0.00007439  0.00007941
    Gval  0.00008659  0.00009161  0.00009315  0.00010138  0.00010586  0.00012391  0.00012681  0.00013033
    Gval  0.00013441  0.00015479  0.00015601  0.00016428  0.00020408  0.00020794  0.00022535  0.00026775
    Gval  0.00028528  0.00029659  0.00030610  0.00030916  0.00031847  0.00035425  0.00036502  0.00036626
    Gval  0.00038521  0.00039690  0.00040825  0.00042816  0.00042992  0.00058338  0.00059314  0.00059635
    Gval  0.00059674  0.00059747  0.00061263  0.00061829  0.00062261  0.00062537  0.00065414  0.00065525
    Gval  0.00065940  0.00078514  0.00092066  0.00105143  0.00105398  0.00107295  0.00108155  0.00111281
    Gval  0.00112152  0.00113961  0.00116095  0.00116264  0.00117084  0.00118189  0.00132435  0.00138588
    Gval  0.00162321  0.00166234  0.00179923  0.00195287  0.00208024  0.00263254  0.00269428  0.00281015
    Gval  0.00302272  0.00323823  0.00356279  0.00375755  0.00401536  0.00406428
  4.450158204641081E-007  4.450158204641081E-007
  1.557883240174419E-006  4.450158204641081E-007
  1.925553940355726E-006  4.450158204641081E-007
  4.141385001602245E-006  4.450158204641081E-007
  7.158886029313058E-006  4.450158204641081E-007
  9.056072944890216E-006  4.450158204641081E-007
  1.644273884367652E-005  4.450158204641081E-007
  1.737343193425450E-005  4.450158204641081E-007
  1.968604282745188E-005  4.450158204641081E-007
  2.364712332918927E-005  4.450158204641081E-007
  2.717086312482993E-005  4.450158204641081E-007
  3.301676453799709E-005  4.450158204641081E-007
  3.600266207709319E-005  4.450158204641081E-007
  3.916016026366907E-005  4.450158204641081E-007
  4.257603167575610E-005  4.450158204641081E-007
  4.818370718729045E-005  4.450158204641081E-007
  5.191394938145574E-005  4.450158204641081E-007
  5.520251238672705E-005  4.450158204641081E-007
  6.224085254607448E-005  4.450158204641081E-007
  6.285096234290359E-005  4.450158204641081E-007
  6.589121365961653E-005  4.450158204641081E-007
  7.439066318642416E-005  4.450158204641081E-007
  7.941131041378779E-005  4.450158204641081E-007
  8.659009463952794E-005  4.450158204641081E-007
  9.161131954801191E-005  4.450158204641081E-007
  9.314922879335295E-005  4.450158204641081E-007
  1.013800577157768E-004  4.450158204641081E-007
  1.058601599592303E-004  4.450158204641081E-007
  1.239070557785037E-004  4.450158204641081E-007
  1.268087681783897E-004  4.450158204641081E-007
  1.303287444059253E-004  4.450158204641081E-007
  1.344054666061331E-004  4.450158204641081E-007
  1.547885822789057E-004  4.450158204641081E-007
  1.560137261273143E-004  4.450158204641081E-007
  1.642772291868959E-004  4.450158204641081E-007
  2.040788843067460E-004  4.450158204641081E-007
  2.079416983200959E-004  4.450158204641081E-007
  2.253453960763520E-004  4.450158204641081E-007
  2.677472817105879E-004  4.450158204641081E-007
  2.852756976777950E-004  4.450158204641081E-007
  2.965908567900459E-004  4.450158204641081E-007
  3.061040194139147E-004  4.450158204641081E-007
  3.091577906922061E-004  4.450158204641081E-007
  3.184709903278801E-004  4.450158204641081E-007
  3.542455283007461E-004  4.450158204641081E-007
  3.650235919568418E-004  4.450158204641081E-007
  3.662597112742306E-004  4.450158204641081E-007
  3.852091164205566E-004  4.450158204641081E-007
  3.968952329716897E-004  4.450158204641081E-007
  4.082514464123490E-004  4.450158204641081E-007
  4.281556033637175E-004  4.450158204641081E-007
  4.299166524923956E-004  4.450158204641081E-007
  5.833840338277561E-004  4.450158204641081E-007
  5.931443014598555E-004  4.450158204641081E-007
  5.963499848335797E-004  4.450158204641081E-007
  5.967379524893634E-004  4.450158204641081E-007
  5.974674818289620E-004  4.450158204641081E-007
  6.126316156239224E-004  4.450158204641081E-007
  6.182920897741794E-004  4.450158204641081E-007
  6.226109111398116E-004  4.450158204641081E-007
  6.253720565313249E-004  4.450158204641081E-007
  6.541393452211602E-004  4.450158204641081E-007
  6.552491844740673E-004  4.450158204641081E-007
  6.594016633196193E-004  4.450158204641081E-007
  7.851448673521482E-004  4.450158204641081E-007
  9.206583621169234E-004  4.450158204641081E-007
  1.051425566446891E-003  4.450158204641081E-007
  1.053984878005955E-003  4.450158204641081E-007
  1.072953430620488E-003  4.450158204641081E-007
  1.081545744635222E-003  4.450158204641081E-007
  1.112814020124542E-003  4.450158204641081E-007
  1.121518791416459E-003  4.450158204641081E-007
  1.139610850418128E-003  4.450158204641081E-007
  1.160947239698051E-003  4.450158204641081E-007
  1.162636147546699E-003  4.450158204641081E-007
  1.170844527229072E-003  4.450158204641081E-007
  1.181885546116998E-003  4.450158204641081E-007
  1.324345817882974E-003  4.450158204641081E-007
  1.385882166138734E-003  4.450158204641081E-007
  1.623213113953849E-003  4.450158204641081E-007
  1.662336150085162E-003  4.450158204641081E-007
  1.799234807687085E-003  4.450158204641081E-007
  1.952873804294633E-003  4.450158204641081E-007
  2.080242329196728E-003  4.450158204641081E-007
  2.632544752413929E-003  4.450158204641081E-007
  2.694284161655111E-003  4.450158204641081E-007
  2.810149989290546E-003  4.450158204641081E-007
  3.022719764959316E-003  4.450158204641081E-007
  3.238230958587337E-003  4.450158204641081E-007
  3.562791097989999E-003  4.450158204641081E-007
  3.757553369568254E-003  4.450158204641081E-007
  4.015360013170824E-003  4.450158204641081E-007
  4.064278746569505E-003  4.450158204641081E-007
 cut=1d-8, nber non-redundant internal coords=          93
 Check on Eigenvals of non-red overlap matrix:
  0.00000045  0.00000156  0.00000193  0.00000414  0.00000716  0.00000906  0.00001644  0.00001737
  0.00001969  0.00002365  0.00002717  0.00003302  0.00003600  0.00003916  0.00004258  0.00004818
  0.00005191  0.00005520  0.00006224  0.00006285  0.00006589  0.00007439  0.00007941  0.00008659
  0.00009161  0.00009315  0.00010138  0.00010586  0.00012391  0.00012681  0.00013033  0.00013441
  0.00015479  0.00015601  0.00016428  0.00020408  0.00020794  0.00022535  0.00026775  0.00028528
  0.00029659  0.00030610  0.00030916  0.00031847  0.00035425  0.00036502  0.00036626  0.00038521
  0.00039690  0.00040825  0.00042816  0.00042992  0.00058338  0.00059314  0.00059635  0.00059674
  0.00059747  0.00061263  0.00061829  0.00062261  0.00062537  0.00065414  0.00065525  0.00065940
  0.00078514  0.00092066  0.00105143  0.00105398  0.00107295  0.00108155  0.00111281  0.00112152
  0.00113961  0.00116095  0.00116264  0.00117084  0.00118189  0.00132435  0.00138588  0.00162321
  0.00166234  0.00179923  0.00195287  0.00208024  0.00263254  0.00269428  0.00281015  0.00302272
  0.00323823  0.00356279  0.00375755  0.00401536  0.00406428
 Checking for correct frequencies
 recalc frequencies=
    -0.0   -0.0    0.0    0.0    0.0    0.0   19.1   33.5   33.9   58.3
   101.4  112.4  136.4  179.7  185.6  189.3  218.3  236.6  267.5  298.5
   319.4  345.4  419.0  435.2  435.8  445.8  468.8  489.3  503.2  533.8
   539.3  553.4  562.9  575.4  603.3  609.6  627.1  642.3  654.4  676.8
   705.6  708.3  725.6  768.3  786.9  789.9  803.1  810.2  855.7  872.6
   906.3  913.3  938.7  941.5  946.1  980.2  980.4  996.6 1030.8 1063.2
  1100.4 1115.1 1143.4 1153.3 1155.2 1181.2 1196.0 1203.7 1240.8 1264.3
  1270.9 1277.6 1328.7 1337.5 1357.1 1358.4 1400.1 1446.4 1451.1 1455.3
  1464.4 1477.9 1492.6 1504.0 1508.5 1563.0 1571.2 1616.9 3012.7 3034.9
  3163.2 3166.7 3172.0 3177.7 3189.5 3196.9 3198.3 3200.6 3243.6
 recalc symmetries=
                                                                       
                                                                       
                                                                       
                                                                       
                                                                       
                                                                       
                                                                       
                                                                       
                                                                       
                                                                
 recalc freqs check OK
 Zero-point lengths:
 10.0000 10.0000 10.0000 10.0000 10.0000 10.0000 56.6643 42.8078 42.5629 32.4755
 24.6186 23.3873 21.2239 18.4922 18.1954 18.0176 16.7786 16.1177 15.1587 14.3486
 13.8724 13.3393 12.1114 11.8842 11.8751 11.7422 11.4494 11.2073 11.0511 10.7299
 10.6756 10.5386 10.4488 10.3349 10.0929 10.0406  9.8999  9.7816  9.6908  9.5293
  9.3331  9.3152  9.2034  8.9440  8.8375  8.8209  8.7479  8.7096  8.4748  8.3923
  8.2351  8.2033  8.0917  8.0795  8.0599  7.9184  7.9175  7.8531  7.7217  7.6029
  7.4733  7.4241  7.3315  7.2999  7.2940  7.2134  7.1686  7.1456  7.0380  6.9723
  6.9541  6.9357  6.8012  6.7789  6.7295  6.7263  6.6254  6.5185  6.5080  6.4986
  6.4784  6.4487  6.4168  6.3925  6.3830  6.2706  6.2544  6.1653  4.5167  4.5001
  4.4079  4.4055  4.4018  4.3978  4.3897  4.3846  4.3837  4.3821  4.3529
 highest evec of mol 1
 -0.0001  0.0000  0.0003
  0.0002  0.0001  0.0001
 -0.0002 -0.0001 -0.0001
  0.0000  0.0000  0.0000
 -0.0000 -0.0000  0.0000
  0.0000 -0.0000 -0.0001
 -0.0001 -0.0001 -0.0002
 -0.0001 -0.0000  0.0001
 -0.0001  0.0000  0.0002
  0.0000  0.0000  0.0000
  0.0000 -0.0000 -0.0000
  0.0002  0.0001  0.0000
  0.0001  0.0001  0.0006
 -0.0002 -0.0001 -0.0003
 -0.0002 -0.0001 -0.0002
  0.0064  0.0018  0.0002
 -0.0364 -0.0015  0.0556
 -0.2442 -0.0892 -0.1255
  0.0014  0.0002 -0.0015
  0.0030  0.0011  0.0013
 -0.0001  0.0000  0.0002
  0.0000 -0.0000 -0.0001
 -0.0003 -0.0002 -0.0006
 -0.0002 -0.0001 -0.0005
 -0.0001  0.0000  0.0004
  0.0004  0.0002  0.0005
  0.0004  0.0001 -0.0001
  0.0002 -0.0000 -0.0005
 -0.0005 -0.0004 -0.0015
 -0.0005  0.0004  0.0002
 -0.0002 -0.0005  0.0003
  0.1201  0.0133 -0.1306
  0.8100  0.2892  0.3752
 generating redundant internal coords
         300        3600          33
 Adding extra bonds for z output only
           6           6           6           7           6           6
           6           6           6           6          16           6
           6           6           6           6           6           6
          16           6           6          16           1           1
           1           1           1           1           1           1
           1           1           1
 search for int coords
   1 str   2   1   1.397
   2 str   3   2   1.408
   3 str   4   3   1.327
   4 str   5   4   1.355
   5 str   6   5   1.413
   6 str   7   6   1.382
   7 str   8   7   1.408
   8 str   9   8   1.393
   9 str  10   5   1.431
  10 str  10   9   1.390
  11 str  11   3   1.803
  12 str  11  10   1.748
  13 str  12   1   1.392
  14 str  13  12   1.422
  15 str  14  13   1.378
  16 str  15  14   1.518
  17 str  16  15   1.516
  18 str  17  16   1.404
  19 str  18  17   1.379
  20 str  19  18   1.750
  21 str  20  16   1.406
  22 str  20  19   1.739
  23 str  21  14   1.424
  24 str  21  20   1.409
  25 str  22  12   1.805
  26 str  22  21   1.731
  27 str  23   1   1.086
  28 str  24   2   1.085
  29 str  25   6   1.083
  30 str  26   7   1.084
  31 str  27   8   1.084
  32 str  28   9   1.083
  33 str  29  13   1.082
  34 str  30  15   1.096
  35 str  31  15   1.096
  36 str  32  17   1.082
  37 str  33  18   1.079
 nber stretches=          37
  38 ben   1   2   3
  39 prop tor   1   2   3   4
  40 prop tor   1   2   3  11
  41 ben   1   2  24
  42 ben   1  12  13
  43 prop tor   1  12  13  14
  44 prop tor   1  12  13  29
  45 ben   1  12  22
  46 prop tor   1  12  22  21
  47 ben   2   1  12
  48 prop tor   2   1  12  13
  49 prop tor   2   1  12  22
  50 ben   2   1  23
  51 ben   2   3   4
  52 prop tor   2   3   4   5
  53 ben   2   3  11
  54 prop tor   2   3  11  10
  55 ben   3   2  24
  56 ben   3   4   5
  57 prop tor   3   4   5   6
  58 prop tor   3   4   5  10
  59 ben   3  11  10
  60 ben   4   3  11
  61 prop tor   4   3  11  10
  62 ben   4   5   6
  63 prop tor   4   5   6   7
  64 prop tor   4   5   6  25
  65 ben   4   5  10
  66 prop tor   4   5  10   9
  67 prop tor   4   5  10  11
  68 ben   5   6   7
  69 prop tor   5   6   7   8
  70 prop tor   5   6   7  26
  71 ben   5   6  25
  72 ben   5  10   9
  73 ben   5  10  11
  74 prop tor   5  10  11   3
  75 ben   6   5  10
  76 prop tor   6   5  10   9
  77 prop tor   6   5  10  11
  78 ben   6   7   8
  79 prop tor   6   7   8   9
  80 prop tor   6   7   8  27
  81 ben   6   7  26
  82 ben   7   6  25
  83 ben   7   8   9
  84 prop tor   7   8   9  10
  85 prop tor   7   8   9  28
  86 ben   7   8  27
  87 ben   8   7  26
  88 ben   8   9  10
  89 prop tor   8   9  10   5
  90 prop tor   8   9  10  11
  91 ben   8   9  28
  92 ben   9   8  27
  93 ben   9  10  11
  94 prop tor   9  10  11   3
  95 prop tor  10   5   6   7
  96 prop tor  10   5   6  25
  97 ben  10   9  28
  98 prop tor  11   3   4   5
  99 prop tor  12   1   2   3
 100 prop tor  12   1   2  24
 101 ben  12   1  23
 102 ben  12  13  14
 103 prop tor  12  13  14  15
 104 prop tor  12  13  14  21
 105 ben  12  13  29
 106 ben  12  22  21
 107 ben  13  12  22
 108 prop tor  13  12  22  21
 109 ben  13  14  15
 110 prop tor  13  14  15  16
 111 prop tor  13  14  15  30
 112 prop tor  13  14  15  31
 113 ben  13  14  21
 114 prop tor  13  14  21  20
 115 prop tor  13  14  21  22
 116 ben  14  13  29
 117 ben  14  15  16
 118 prop tor  14  15  16  17
 119 prop tor  14  15  16  20
 120 ben  14  15  30
 121 ben  14  15  31
 122 ben  14  21  20
 123 ben  14  21  22
 124 prop tor  14  21  22  12
 125 ben  15  14  21
 126 prop tor  15  14  21  20
 127 prop tor  15  14  21  22
 128 ben  15  16  17
 129 prop tor  15  16  17  18
 130 prop tor  15  16  17  32
 131 ben  15  16  20
 132 prop tor  15  16  20  19
 133 prop tor  15  16  20  21
 134 ben  16  15  30
 135 ben  16  15  31
 136 ben  16  17  18
 137 prop tor  16  17  18  19
 138 prop tor  16  17  18  33
 139 ben  16  17  32
 140 ben  16  20  19
 141 ben  16  20  21
 142 prop tor  16  20  21  14
 143 prop tor  16  20  21  22
 144 ben  17  16  20
 145 prop tor  17  16  20  19
 146 prop tor  17  16  20  21
 147 ben  17  18  19
 148 prop tor  17  18  19  20
 149 ben  17  18  33
 150 ben  18  17  32
 151 ben  18  19  20
 152 prop tor  18  19  20  16
 153 prop tor  18  19  20  21
 154 ben  19  18  33
 155 ben  19  20  21
 156 prop tor  19  20  21  14
 157 prop tor  19  20  21  22
 158 prop tor  20  16  17  18
 159 prop tor  20  16  17  32
 160 ben  20  21  22
 161 prop tor  20  21  22  12
 162 prop tor  21  14  15  16
 163 prop tor  21  14  15  30
 164 prop tor  21  14  15  31
 165 prop tor  22  12  13  14
 166 prop tor  22  12  13  29
 167 prop tor  23   1   2   3
 168 prop tor  23   1   2  24
 169 prop tor  23   1  12  13
 170 prop tor  23   1  12  22
 171 prop tor  24   2   3   4
 172 prop tor  24   2   3  11
 173 prop tor  25   6   7   8
 174 prop tor  25   6   7  26
 175 prop tor  26   7   8   9
 176 prop tor  26   7   8  27
 177 prop tor  27   8   9  10
 178 prop tor  27   8   9  28
 179 prop tor  28   9  10   5
 180 prop tor  28   9  10  11
 181 prop tor  29  13  14  15
 182 prop tor  29  13  14  21
 183 prop tor  30  15  16  17
 184 prop tor  30  15  16  20
 185 ben  30  15  31
 186 prop tor  31  15  16  17
 187 prop tor  31  15  16  20
 188 prop tor  32  17  18  19
 189 prop tor  32  17  18  33
 190 prop tor  33  18  19  20
 nber bend=              61
 nber lin bend=           0
 nber prop tor=          92
 nber impr tor=           0
 nber tot redund int=         190
 Reading file: 
 ./CDT-BT_1_C0S0.log                                                            
                                          
  Entering Gaussian System, Link 0=g16                                          
  
 Gaussian format, type: g94, g98, g03= F F F
  #P Geom=AllCheck Guess=TCheck SCRF=Check GenChk RB3LYP/6-311G(d,p) Fre    
 energy type= B3LYP   
 Original G94 input coords:
  6  0.495836  1.447728 -0.138543
  6 -0.350570  1.376009  0.915039
  6 -1.729030  0.964431  0.775629
  7 -2.315579  0.622318 -0.332493
  6 -3.633615  0.282286 -0.131844
  6 -4.525114 -0.128968 -1.133620
  6 -5.830531 -0.442630 -0.789829
  6 -6.267875 -0.353939  0.541423
  6 -5.403570  0.050974  1.551592
  6 -4.090135  0.366804  1.207153
 16 -2.773324  0.900977  2.227295
  6  1.873118  1.838705 -0.128938
  6  2.714140  1.901140 -1.230855
  6  4.016240  2.320960 -0.908888
  6  5.318476  2.572636 -1.641129
  6  6.228371  3.010218 -0.512038
  6  7.577019  3.416357 -0.362186
  6  7.881322  3.710606  0.941265
 16  6.520586  3.496448  2.015391
  6  5.532584  3.004088  0.685188
  6  4.178895  2.582554  0.443618
 16  2.731846  2.316835  1.346786
  1  0.097957  1.180183 -1.113695
  1 -0.014991  1.629898  1.915282
  1 -4.173717 -0.192729 -2.156141
  1 -6.525579 -0.761227 -1.558135
  1 -7.293440 -0.604277  0.786881
  1 -5.744798  0.118167  2.577552
  1  2.368266  1.645029 -2.224408
  1  5.688899  1.671174 -2.141686
  1  5.214767  3.347110 -2.409130
  1  8.297944  3.492429 -1.165595
  1  8.822843  4.042587  1.350377
 nber atoms=          33
  SCF Done:  E(RB3LYP) =  -1942.08391136     A.U. after    1 cycles             
  
          23          40 "  -1942.08391136"
After scan for Atom:   Atom  AN      X      Y      Z        X      Y      Z        X      Y      Z   
After scan for Atom:   Atom  AN      X      Y      Z        X      Y      Z        X      Y      Z   
After scan for Atom:   Atom  AN      X      Y      Z        X      Y      Z        X      Y      Z   
After scan for Atom:   Atom  AN      X      Y      Z        X      Y      Z        X      Y      Z   
After scan for Atom:   Atom  AN      X      Y      Z        X      Y      Z        X      Y      Z   
After scan for Atom:   Atom  AN      X      Y      Z        X      Y      Z        X      Y      Z   
After scan for Atom:   Atom  AN      X      Y      Z        X      Y      Z        X      Y      Z   
After scan for Atom:   Atom  AN      X      Y      Z        X      Y      Z        X      Y      Z   
After scan for Atom:   Atom  AN      X      Y      Z        X      Y      Z        X      Y      Z   
After scan for Atom:   Atom  AN      X      Y      Z        X      Y      Z        X      Y      Z   
After scan for Atom:   Atom  AN      X      Y      Z        X      Y      Z        X      Y      Z   
After scan for Atom:   Atom  AN      X      Y      Z        X      Y      Z        X      Y      Z   
After scan for Atom:   Atom  AN      X      Y      Z        X      Y      Z        X      Y      Z   
After scan for Atom:   Atom  AN      X      Y      Z        X      Y      Z        X      Y      Z   
After scan for Atom:   Atom  AN      X      Y      Z        X      Y      Z        X      Y      Z   
After scan for Atom:   Atom  AN      X      Y      Z        X      Y      Z        X      Y      Z   
After scan for Atom:   Atom  AN      X      Y      Z        X      Y      Z        X      Y      Z   
After scan for Atom:   Atom  AN      X      Y      Z        X      Y      Z        X      Y      Z   
After scan for Atom:   Atom  AN      X      Y      Z        X      Y      Z        X      Y      Z   
After scan for Atom:   Atom  AN      X      Y      Z        X      Y      Z        X      Y      Z   
After scan for Atom:   Atom  AN      X      Y      Z        X      Y      Z        X      Y      Z   
After scan for Atom:   Atom  AN      X      Y      Z        X      Y      Z        X      Y      Z   
After scan for Atom:   Atom  AN      X      Y      Z        X      Y      Z        X      Y      Z   
After scan for Atom:   Atom  AN      X      Y      Z        X      Y      Z        X      Y      Z   
After scan for Atom:   Atom  AN      X      Y      Z        X      Y      Z        X      Y      Z   
After scan for Atom:   Atom  AN      X      Y      Z        X      Y      Z        X      Y      Z   
After scan for Atom:   Atom  AN      X      Y      Z        X      Y      Z        X      Y      Z   
After scan for Atom:   Atom  AN      X      Y      Z        X      Y      Z        X      Y      Z   
After scan for Atom:   Atom  AN      X      Y      Z        X      Y      Z        X      Y      Z   
After scan for Atom:   Atom  AN      X      Y      Z        X      Y      Z        X      Y      Z   
After scan for Atom:   Atom  AN      X      Y      Z        X      Y      Z        X      Y      Z   
 g94    frequencies=
     0.0    0.0    0.0    0.0    0.0    0.0   22.3   26.1   34.1   62.8
   103.7  122.4  142.3  179.8  184.1  194.0  218.1  236.1  255.1  311.0
   343.9  346.4  419.2  437.7  439.3  468.5  470.1  509.2  515.0  544.9
   553.6  570.1  578.4  603.0  626.0  630.5  635.3  657.6  679.0  701.4
   714.6  715.4  736.4  771.3  802.5  821.2  837.8  863.3  865.4  880.0
   918.4  937.6  949.0  949.6  987.8  988.0 1001.9 1010.4 1036.7 1072.1
  1110.2 1118.8 1145.3 1150.5 1165.5 1183.5 1201.0 1234.9 1263.6 1273.8
  1298.9 1316.4 1331.1 1343.6 1364.0 1405.4 1423.3 1440.5 1458.0 1459.6
  1465.9 1487.8 1520.9 1529.4 1550.9 1593.6 1636.4 1647.1 3029.7 3057.7
  3153.9 3164.1 3167.3 3179.0 3190.1 3197.1 3197.4 3201.4 3246.2
 g94    symmetries=
                                                 A      A      A      A
       A      A      A      A      A      A      A      A      A      A
       A      A      A      A      A      A      A      A      A      A
       A      A      A      A      A      A      A      A      A      A
       A      A      A      A      A      A      A      A      A      A
       A      A      A      A      A      A      A      A      A      A
       A      A      A      A      A      A      A      A      A      A
       A      A      A      A      A      A      A      A      A      A
       A      A      A      A      A      A      A      A      A      A
       A      A      A      A      A      A      A      A      A
 atomic masses:
 12.0000 12.0000 12.0000 14.0031 12.0000 12.0000 12.0000 12.0000 12.0000 12.0000
 31.9721 12.0000 12.0000 12.0000 12.0000 12.0000 12.0000 12.0000 31.9721 12.0000
 12.0000 31.9721  1.0078  1.0078  1.0078  1.0078  1.0078  1.0078  1.0078  1.0078
  1.0078  1.0078  1.0078
 looking for force constants in 
 ./CDT-BT_1_C0S0.fchk                                                           
  
 Cartesian Force Constants                  R   N=        4950                  
  
 n3=          99        4950
 g94-fc frequencies=
    -0.6    0.0    0.0    0.0    1.0    2.9   22.3   26.1   34.1   62.8
   103.7  122.4  142.3  179.8  184.1  194.0  218.1  236.1  255.1  311.0
   343.9  346.4  419.2  437.7  439.3  468.5  470.1  509.2  515.0  544.9
   553.6  570.1  578.4  603.0  626.0  630.5  635.3  657.6  679.1  701.5
   714.6  715.4  736.4  771.3  802.5  821.2  837.8  863.3  865.4  880.0
   918.4  937.6  949.0  949.6  987.8  988.0 1001.9 1010.5 1036.8 1072.1
  1110.2 1118.8 1145.3 1150.5 1165.5 1183.5 1201.0 1235.0 1263.7 1273.8
  1298.9 1316.5 1331.1 1343.6 1364.0 1405.4 1423.3 1440.5 1458.0 1459.7
  1465.9 1487.8 1520.9 1529.4 1550.9 1593.6 1636.5 1647.2 3029.8 3057.8
  3154.0 3164.2 3167.4 3179.0 3190.1 3197.2 3197.4 3201.4 3246.3
 at 99999: n3=          99
 symm operator            1 :  F  nop=           0
 symm operator            2 :  F  nop=           0
 symm operator            3 :  F  nop=           0
 symm operator            4 :  F  nop=           0
 symm operator            5 :  F  nop=           0
 symm operator            6 :  F  nop=           0
 symm operator            7 :  F  nop=           0
 The point group of the molecule is  C1
 Symmetry rotation matrix:
   1.00000   0.00000   0.00000
   0.00000   1.00000   0.00000
   0.00000   0.00000   1.00000

 Projecting out zero-frequency components
 generating redundant internal coords
         300        3600          33
 search for int coords
   1 str   2   1   1.353
   2 str   3   2   1.445
   3 str   4   3   1.300
   4 str   5   4   1.376
   5 str   6   5   1.403
   6 str   7   6   1.386
   7 str   8   7   1.404
   8 str   9   8   1.390
   9 str  10   5   1.417
  10 str  10   9   1.394
  11 str  11   3   1.789
  12 str  11  10   1.749
  13 str  12   1   1.432
  14 str  13  12   1.388
  15 str  14  13   1.405
  16 str  15  14   1.515
  17 str  16  15   1.515
  18 str  17  16   1.416
  19 str  18  17   1.370
  20 str  19  18   1.747
  21 str  20  16   1.385
  22 str  20  19   1.729
  23 str  21  14   1.387
  24 str  21  20   1.438
  25 str  22  12   1.773
  26 str  22  21   1.726
  27 str  23   1   1.087
  28 str  24   2   1.085
  29 str  25   6   1.083
  30 str  26   7   1.084
  31 str  27   8   1.084
  32 str  28   9   1.083
  33 str  29  13   1.083
  34 str  30  15   1.096
  35 str  31  15   1.096
  36 str  32  17   1.082
  37 str  33  18   1.079
 nber stretches=          37
  38 ben   1   2   3
  39 prop tor   1   2   3   4
  40 prop tor   1   2   3  11
  41 ben   1   2  24
  42 ben   1  12  13
  43 prop tor   1  12  13  14
  44 prop tor   1  12  13  29
  45 ben   1  12  22
  46 prop tor   1  12  22  21
  47 ben   2   1  12
  48 prop tor   2   1  12  13
  49 prop tor   2   1  12  22
  50 ben   2   1  23
  51 ben   2   3   4
  52 prop tor   2   3   4   5
  53 ben   2   3  11
  54 prop tor   2   3  11  10
  55 ben   3   2  24
  56 ben   3   4   5
  57 prop tor   3   4   5   6
  58 prop tor   3   4   5  10
  59 ben   3  11  10
  60 ben   4   3  11
  61 prop tor   4   3  11  10
  62 ben   4   5   6
  63 prop tor   4   5   6   7
  64 prop tor   4   5   6  25
  65 ben   4   5  10
  66 prop tor   4   5  10   9
  67 prop tor   4   5  10  11
  68 ben   5   6   7
  69 prop tor   5   6   7   8
  70 prop tor   5   6   7  26
  71 ben   5   6  25
  72 ben   5  10   9
  73 ben   5  10  11
  74 prop tor   5  10  11   3
  75 ben   6   5  10
  76 prop tor   6   5  10   9
  77 prop tor   6   5  10  11
  78 ben   6   7   8
  79 prop tor   6   7   8   9
  80 prop tor   6   7   8  27
  81 ben   6   7  26
  82 ben   7   6  25
  83 ben   7   8   9
  84 prop tor   7   8   9  10
  85 prop tor   7   8   9  28
  86 ben   7   8  27
  87 ben   8   7  26
  88 ben   8   9  10
  89 prop tor   8   9  10   5
  90 prop tor   8   9  10  11
  91 ben   8   9  28
  92 ben   9   8  27
  93 ben   9  10  11
  94 prop tor   9  10  11   3
  95 prop tor  10   5   6   7
  96 prop tor  10   5   6  25
  97 ben  10   9  28
  98 prop tor  11   3   4   5
  99 prop tor  12   1   2   3
 100 prop tor  12   1   2  24
 101 ben  12   1  23
 102 ben  12  13  14
 103 prop tor  12  13  14  15
 104 prop tor  12  13  14  21
 105 ben  12  13  29
 106 ben  12  22  21
 107 ben  13  12  22
 108 prop tor  13  12  22  21
 109 ben  13  14  15
 110 prop tor  13  14  15  16
 111 prop tor  13  14  15  30
 112 prop tor  13  14  15  31
 113 ben  13  14  21
 114 prop tor  13  14  21  20
 115 prop tor  13  14  21  22
 116 ben  14  13  29
 117 ben  14  15  16
 118 prop tor  14  15  16  17
 119 prop tor  14  15  16  20
 120 ben  14  15  30
 121 ben  14  15  31
 122 ben  14  21  20
 123 ben  14  21  22
 124 prop tor  14  21  22  12
 125 ben  15  14  21
 126 prop tor  15  14  21  20
 127 prop tor  15  14  21  22
 128 ben  15  16  17
 129 prop tor  15  16  17  18
 130 prop tor  15  16  17  32
 131 ben  15  16  20
 132 prop tor  15  16  20  19
 133 prop tor  15  16  20  21
 134 ben  16  15  30
 135 ben  16  15  31
 136 ben  16  17  18
 137 prop tor  16  17  18  19
 138 prop tor  16  17  18  33
 139 ben  16  17  32
 140 ben  16  20  19
 141 ben  16  20  21
 142 prop tor  16  20  21  14
 143 prop tor  16  20  21  22
 144 ben  17  16  20
 145 prop tor  17  16  20  19
 146 prop tor  17  16  20  21
 147 ben  17  18  19
 148 prop tor  17  18  19  20
 149 ben  17  18  33
 150 ben  18  17  32
 151 ben  18  19  20
 152 prop tor  18  19  20  16
 153 prop tor  18  19  20  21
 154 ben  19  18  33
 155 ben  19  20  21
 156 prop tor  19  20  21  14
 157 prop tor  19  20  21  22
 158 prop tor  20  16  17  18
 159 prop tor  20  16  17  32
 160 ben  20  21  22
 161 prop tor  20  21  22  12
 162 prop tor  21  14  15  16
 163 prop tor  21  14  15  30
 164 prop tor  21  14  15  31
 165 prop tor  22  12  13  14
 166 prop tor  22  12  13  29
 167 prop tor  23   1   2   3
 168 prop tor  23   1   2  24
 169 prop tor  23   1  12  13
 170 prop tor  23   1  12  22
 171 prop tor  24   2   3   4
 172 prop tor  24   2   3  11
 173 prop tor  25   6   7   8
 174 prop tor  25   6   7  26
 175 prop tor  26   7   8   9
 176 prop tor  26   7   8  27
 177 prop tor  27   8   9  10
 178 prop tor  27   8   9  28
 179 prop tor  28   9  10   5
 180 prop tor  28   9  10  11
 181 prop tor  29  13  14  15
 182 prop tor  29  13  14  21
 183 prop tor  30  15  16  17
 184 prop tor  30  15  16  20
 185 ben  30  15  31
 186 prop tor  31  15  16  17
 187 prop tor  31  15  16  20
 188 prop tor  32  17  18  19
 189 prop tor  32  17  18  33
 190 prop tor  33  18  19  20
 nber bend=              61
 nber lin bend=           0
 nber prop tor=          92
 nber impr tor=           0
 nber tot redund int=         190
 Eigenvalues of G in red int coords
    Gval -0.00000000 -0.00000000 -0.00000000 -0.00000000 -0.00000000 -0.00000000 -0.00000000 -0.00000000
    Gval -0.00000000 -0.00000000 -0.00000000 -0.00000000 -0.00000000 -0.00000000 -0.00000000 -0.00000000
    Gval -0.00000000 -0.00000000 -0.00000000 -0.00000000 -0.00000000 -0.00000000 -0.00000000 -0.00000000
    Gval -0.00000000 -0.00000000 -0.00000000 -0.00000000 -0.00000000 -0.00000000 -0.00000000 -0.00000000
    Gval -0.00000000 -0.00000000 -0.00000000 -0.00000000 -0.00000000 -0.00000000 -0.00000000 -0.00000000
    Gval -0.00000000 -0.00000000 -0.00000000 -0.00000000 -0.00000000 -0.00000000 -0.00000000  0.00000000
    Gval  0.00000000  0.00000000  0.00000000  0.00000000  0.00000000  0.00000000  0.00000000  0.00000000
    Gval  0.00000000  0.00000000  0.00000000  0.00000000  0.00000000  0.00000000  0.00000000  0.00000000
    Gval  0.00000000  0.00000000  0.00000000  0.00000000  0.00000000  0.00000000  0.00000000  0.00000000
    Gval  0.00000000  0.00000000  0.00000000  0.00000000  0.00000000  0.00000000  0.00000000  0.00000000
    Gval  0.00000000  0.00000000  0.00000000  0.00000000  0.00000000  0.00000000  0.00000000  0.00000000
    Gval  0.00000000  0.00000000  0.00000000  0.00000000  0.00000000  0.00000000  0.00000000  0.00000000
    Gval  0.00000000  0.00000045  0.00000158  0.00000192  0.00000407  0.00000726  0.00000908  0.00001644
    Gval  0.00001703  0.00001958  0.00002372  0.00002740  0.00003305  0.00003593  0.00003925  0.00004274
    Gval  0.00004831  0.00005178  0.00005541  0.00006242  0.00006347  0.00006554  0.00007440  0.00007927
    Gval  0.00008666  0.00009204  0.00009347  0.00010177  0.00010632  0.00012403  0.00012801  0.00013047
    Gval  0.00013433  0.00015538  0.00015592  0.00016442  0.00020542  0.00020919  0.00022418  0.00026867
    Gval  0.00028807  0.00029978  0.00030412  0.00030935  0.00031850  0.00035389  0.00037048  0.00037233
    Gval  0.00038560  0.00039846  0.00040699  0.00042791  0.00044578  0.00058329  0.00059315  0.00059607
    Gval  0.00059676  0.00059750  0.00061306  0.00061830  0.00062269  0.00062521  0.00065425  0.00065543
    Gval  0.00065753  0.00078843  0.00093062  0.00104799  0.00105431  0.00106625  0.00108148  0.00110433
    Gval  0.00112230  0.00113915  0.00116221  0.00116300  0.00117149  0.00118428  0.00133511  0.00138640
    Gval  0.00163323  0.00166112  0.00180127  0.00195220  0.00208337  0.00262952  0.00270004  0.00279525
    Gval  0.00302617  0.00321406  0.00356738  0.00372983  0.00402109  0.00408022
  4.460516029928685E-007  4.460516029928685E-007
  1.575403322910828E-006  4.460516029928685E-007
  1.919907084968148E-006  4.460516029928685E-007
  4.065399960051452E-006  4.460516029928685E-007
  7.261537911571453E-006  4.460516029928685E-007
  9.083465267288522E-006  4.460516029928685E-007
  1.644304812943461E-005  4.460516029928685E-007
  1.702838337371391E-005  4.460516029928685E-007
  1.958407951267903E-005  4.460516029928685E-007
  2.372239872723980E-005  4.460516029928685E-007
  2.739648937552899E-005  4.460516029928685E-007
  3.304618826274766E-005  4.460516029928685E-007
  3.593457415058652E-005  4.460516029928685E-007
  3.925245468283307E-005  4.460516029928685E-007
  4.274235887651347E-005  4.460516029928685E-007
  4.831435409320362E-005  4.460516029928685E-007
  5.178460173364126E-005  4.460516029928685E-007
  5.541167524451797E-005  4.460516029928685E-007
  6.241887073295474E-005  4.460516029928685E-007
  6.347361290791234E-005  4.460516029928685E-007
  6.553995343150891E-005  4.460516029928685E-007
  7.440217664223995E-005  4.460516029928685E-007
  7.927081533411002E-005  4.460516029928685E-007
  8.666247011804802E-005  4.460516029928685E-007
  9.204277409473041E-005  4.460516029928685E-007
  9.346715696633636E-005  4.460516029928685E-007
  1.017695163646941E-004  4.460516029928685E-007
  1.063176245390337E-004  4.460516029928685E-007
  1.240264175858932E-004  4.460516029928685E-007
  1.280066622292640E-004  4.460516029928685E-007
  1.304722139419296E-004  4.460516029928685E-007
  1.343295498190400E-004  4.460516029928685E-007
  1.553782897179225E-004  4.460516029928685E-007
  1.559220022009360E-004  4.460516029928685E-007
  1.644204797822075E-004  4.460516029928685E-007
  2.054224217062619E-004  4.460516029928685E-007
  2.091932698769602E-004  4.460516029928685E-007
  2.241790834602025E-004  4.460516029928685E-007
  2.686683038417717E-004  4.460516029928685E-007
  2.880748419150129E-004  4.460516029928685E-007
  2.997805142006325E-004  4.460516029928685E-007
  3.041156976289414E-004  4.460516029928685E-007
  3.093529451284535E-004  4.460516029928685E-007
  3.185015832817369E-004  4.460516029928685E-007
  3.538937400049821E-004  4.460516029928685E-007
  3.704767213153642E-004  4.460516029928685E-007
  3.723278302814470E-004  4.460516029928685E-007
  3.856016949065272E-004  4.460516029928685E-007
  3.984611467743634E-004  4.460516029928685E-007
  4.069942027774615E-004  4.460516029928685E-007
  4.279133386603560E-004  4.460516029928685E-007
  4.457760617050698E-004  4.460516029928685E-007
  5.832924582485329E-004  4.460516029928685E-007
  5.931532867766019E-004  4.460516029928685E-007
  5.960730225602503E-004  4.460516029928685E-007
  5.967612075815742E-004  4.460516029928685E-007
  5.975026912793094E-004  4.460516029928685E-007
  6.130576884035298E-004  4.460516029928685E-007
  6.183038115446903E-004  4.460516029928685E-007
  6.226889134425326E-004  4.460516029928685E-007
  6.252122686332403E-004  4.460516029928685E-007
  6.542523207200490E-004  4.460516029928685E-007
  6.554312600054332E-004  4.460516029928685E-007
  6.575340364133802E-004  4.460516029928685E-007
  7.884298520861059E-004  4.460516029928685E-007
  9.306249002607980E-004  4.460516029928685E-007
  1.047992686487956E-003  4.460516029928685E-007
  1.054312153732217E-003  4.460516029928685E-007
  1.066249593215859E-003  4.460516029928685E-007
  1.081483801006248E-003  4.460516029928685E-007
  1.104332099400407E-003  4.460516029928685E-007
  1.122297402575384E-003  4.460516029928685E-007
  1.139145216600183E-003  4.460516029928685E-007
  1.162205522000445E-003  4.460516029928685E-007
  1.162995717890023E-003  4.460516029928685E-007
  1.171494375561133E-003  4.460516029928685E-007
  1.184278197869028E-003  4.460516029928685E-007
  1.335113041434296E-003  4.460516029928685E-007
  1.386404263220756E-003  4.460516029928685E-007
  1.633231107386857E-003  4.460516029928685E-007
  1.661121894204135E-003  4.460516029928685E-007
  1.801270495272225E-003  4.460516029928685E-007
  1.952196730001208E-003  4.460516029928685E-007
  2.083367150633776E-003  4.460516029928685E-007
  2.629522091857632E-003  4.460516029928685E-007
  2.700037483491167E-003  4.460516029928685E-007
  2.795246342354134E-003  4.460516029928685E-007
  3.026168995442426E-003  4.460516029928685E-007
  3.214058860521862E-003  4.460516029928685E-007
  3.567376507100615E-003  4.460516029928685E-007
  3.729826271091907E-003  4.460516029928685E-007
  4.021085418902174E-003  4.460516029928685E-007
  4.080220401539891E-003  4.460516029928685E-007
 cut=1d-8, nber non-redundant internal coords=          93
 Check on Eigenvals of non-red overlap matrix:
  0.00000045  0.00000158  0.00000192  0.00000407  0.00000726  0.00000908  0.00001644  0.00001703
  0.00001958  0.00002372  0.00002740  0.00003305  0.00003593  0.00003925  0.00004274  0.00004831
  0.00005178  0.00005541  0.00006242  0.00006347  0.00006554  0.00007440  0.00007927  0.00008666
  0.00009204  0.00009347  0.00010177  0.00010632  0.00012403  0.00012801  0.00013047  0.00013433
  0.00015538  0.00015592  0.00016442  0.00020542  0.00020919  0.00022418  0.00026867  0.00028807
  0.00029978  0.00030412  0.00030935  0.00031850  0.00035389  0.00037048  0.00037233  0.00038560
  0.00039846  0.00040699  0.00042791  0.00044578  0.00058329  0.00059315  0.00059607  0.00059676
  0.00059750  0.00061306  0.00061830  0.00062269  0.00062521  0.00065425  0.00065543  0.00065753
  0.00078843  0.00093062  0.00104799  0.00105431  0.00106625  0.00108148  0.00110433  0.00112230
  0.00113915  0.00116221  0.00116300  0.00117149  0.00118428  0.00133511  0.00138640  0.00163323
  0.00166112  0.00180127  0.00195220  0.00208337  0.00262952  0.00270004  0.00279525  0.00302617
  0.00321406  0.00356738  0.00372983  0.00402109  0.00408022
 Checking for correct frequencies
 recalc frequencies=
    -0.0   -0.0   -0.0   -0.0    0.0    0.0   22.3   26.1   34.1   62.8
   103.7  122.4  142.3  179.8  184.1  194.0  218.1  236.1  255.1  311.0
   343.9  346.4  419.2  437.7  439.3  468.5  470.1  509.2  515.0  544.9
   553.6  570.1  578.4  603.0  626.0  630.5  635.3  657.6  679.1  701.5
   714.6  715.4  736.4  771.3  802.5  821.2  837.8  863.3  865.4  880.0
   918.4  937.6  949.0  949.6  987.8  988.0 1001.9 1010.5 1036.8 1072.1
  1110.2 1118.8 1145.3 1150.5 1165.5 1183.5 1201.0 1235.0 1263.7 1273.8
  1298.9 1316.5 1331.1 1343.6 1364.0 1405.4 1423.3 1440.5 1458.0 1459.7
  1465.9 1487.8 1520.9 1529.4 1550.9 1593.6 1636.5 1647.2 3029.8 3057.8
  3154.0 3164.2 3167.4 3179.0 3190.1 3197.2 3197.4 3201.4 3246.3
 recalc symmetries=
                                                                       
                                                                       
                                                                       
                                                                       
                                                                       
                                                                       
                                                                       
                                                                       
                                                                       
                                                                
 recalc freqs check OK
 Zero-point lengths:
 10.0000 10.0000 10.0000 10.0000 10.0000 10.0000 52.4498 48.5183 42.4818 31.2735
 24.3485 22.4106 20.7816 18.4862 18.2708 17.7983 16.7866 16.1336 15.5221 14.0575
 13.3677 13.3201 12.1084 11.8499 11.8277 11.4533 11.4339 10.9861 10.9243 10.6202
 10.5361 10.3829 10.3081 10.0959  9.9082  9.8729  9.8360  9.6673  9.5135  9.3604
  9.2741  9.2686  9.1356  8.9267  8.7514  8.6509  8.5650  8.4376  8.4274  8.3571
  8.1804  8.0962  8.0475  8.0449  7.8878  7.8871  7.8322  7.7990  7.6994  7.5714
  7.4402  7.4118  7.3256  7.3088  7.2616  7.2063  7.1537  7.0545  6.9740  6.9461
  6.8787  6.8326  6.7949  6.7632  6.7125  6.6129  6.5711  6.5318  6.4925  6.4889
  6.4750  6.4272  6.3569  6.3391  6.2951  6.2102  6.1284  6.1084  4.5039  4.4832
  4.4144  4.4072  4.4050  4.3969  4.3893  4.3844  4.3842  4.3815  4.3511
 highest evec of mol 2
  0.0002  0.0001  0.0001
 -0.0001 -0.0000  0.0001
  0.0001  0.0000 -0.0000
 -0.0000 -0.0000 -0.0000
 -0.0000 -0.0000 -0.0000
 -0.0000  0.0000  0.0001
  0.0000  0.0000  0.0001
  0.0000  0.0000 -0.0000
  0.0000  0.0000 -0.0001
 -0.0000 -0.0000 -0.0000
 -0.0000  0.0000  0.0000
 -0.0002 -0.0001 -0.0001
  0.0001  0.0000  0.0002
  0.0001  0.0001  0.0003
  0.0002  0.0001 -0.0000
 -0.0065 -0.0018  0.0005
  0.0366  0.0008 -0.0602
  0.2467  0.0893  0.1215
 -0.0014 -0.0001  0.0017
 -0.0029 -0.0011 -0.0017
 -0.0001 -0.0001 -0.0004
  0.0001  0.0000 -0.0000
 -0.0001 -0.0001 -0.0003
 -0.0000 -0.0000 -0.0001
  0.0001 -0.0000 -0.0002
 -0.0001 -0.0001 -0.0002
 -0.0001 -0.0000  0.0000
 -0.0001  0.0000  0.0002
 -0.0002 -0.0001 -0.0004
  0.0002  0.0002  0.0002
  0.0002  0.0000  0.0002
 -0.1232 -0.0124  0.1412
 -0.8154 -0.2881 -0.3580
 Enter nber and list of atoms to keep of mol #2
 keep list:          33           1           2           3           4
           5           6           7           8           9          10
          11          12          13          14          15          16
          17          18          19          20          21          22
          23          24          25          26          27          28
          29          30          31          32          33
 reordering atoms
           1 -0.602591708773264     
           2  -1.44269065109142     
           3  -2.88029605637884     
           4  -3.53134712237822     
           5  -4.89332012762667     
           6  -5.85724188941665     
           7  -7.20072961842740     
           8  -7.60517599121213     
           9  -6.66919592313092     
          10  -5.31739918033071     
          11  -3.91088052144321     
          12  0.829029357055832     
          13   1.66170257674409     
          14   3.02701050497965     
          15   4.35282985581939     
          16   5.34087573735271     
          17   6.74825266446077     
          18   7.11355127450421     
          19   5.73966043965092     
          20   4.66272129033262     
          21   3.24683764812025     
          22   1.77685661997022     
          23  -1.05257829086549     
          24  -1.05651407725740     
          25  -5.53051065239602     
          26  -7.95176210329012     
          27  -8.66157304053239     
          28  -6.98522818642581     
          29   1.26497642045217     
          30   4.46768564436523     
          31   4.46744613991320     
          32   7.46733649786966     
          33   8.10748329000566     
           1           1
           2           2
           3           3
           4           4
           5           5
           6           6
           7           7
           8           8
           9           9
          10          10
          11          11
          12          12
          13          13
          14          14
          15          15
          16          16
          17          17
          18          18
          19          19
          20          20
          21          21
          22          22
          23          23
          24          24
          25          25
          26          26
          27          27
          28          28
          29          29
          30          30
          31          31
          32          32
          33          33
 initial cartes coords mol 1
   6   0.00085  -0.76900  -0.58491
   6   0.00089   0.35087  -1.42042
   6   0.00059   0.23279  -2.82315
   7   0.00014  -0.90696  -3.50203
   6  -0.00031  -0.69979  -4.84098
   6  -0.00087  -1.71558  -5.82251
   6  -0.00128  -1.36606  -7.15977
   6  -0.00115  -0.01591  -7.55830
   6  -0.00061   1.00892  -6.61455
   6  -0.00019   0.66635  -5.26725
  16   0.00058   1.70610  -3.86246
   6   0.00082  -0.75026   0.80684
   6   0.00073  -1.86059   1.69481
   6   0.00063  -1.49302   3.02258
   6   0.00040  -2.19374   4.36909
   6  -0.00021  -1.01702   5.32434
   6  -0.00111  -0.81685   6.71440
   6  -0.00159   0.52104   7.05002
  16  -0.00079   1.57316   5.65209
   6   0.00002   0.18792   4.60074
   6   0.00056  -0.08229   3.21835
  16   0.00083   0.80076   1.72991
   1   0.00074  -1.74202  -1.06634
   1   0.00104   1.34774  -0.99326
   1  -0.00096  -2.74999  -5.50157
   1  -0.00171  -2.14189  -7.91702
   1  -0.00147   0.23164  -8.61350
   1  -0.00052   2.04612  -6.92763
   1   0.00068  -2.87593   1.31977
   1   0.88116  -2.83363   4.49861
   1  -0.87997  -2.83425   4.49809
   1  -0.00145  -1.60403   7.45739
   1  -0.00227   0.96084   8.03550
 initial cartes coords mol 2
   6   0.00091  -0.68715  -0.60259
   6   0.00124   0.37390  -1.44269
   6   0.00085   0.22465  -2.88030
   7   0.00048  -0.90014  -3.53135
   6  -0.00015  -0.70487  -4.89332
   6  -0.00064  -1.72384  -5.85724
   6  -0.00126  -1.38365  -7.20073
   6  -0.00139  -0.03911  -7.60518
   6  -0.00091   0.98820  -6.66920
   6  -0.00029   0.64740  -5.31740
  16   0.00045   1.68746  -3.91088
   6   0.00090  -0.66920   0.82903
   6   0.00063  -1.77920   1.66170
   6   0.00033  -1.44557   3.02701
   6   0.00015  -2.17874   4.35283
   6  -0.00015  -1.03070   5.34088
   6  -0.00102  -0.87087   6.74825
   6  -0.00142   0.45001   7.11355
  16  -0.00082   1.52873   5.73966
   6   0.00008   0.17662   4.66272
   6   0.00033  -0.07595   3.24684
  16   0.00083   0.82927   1.77686
   1   0.00053  -1.67625  -1.05258
   1   0.00167   1.38801  -1.05651
   1  -0.00053  -2.75648  -5.53051
   1  -0.00165  -2.16522  -7.95176
   1  -0.00188   0.20323  -8.66157
   1  -0.00103   2.02438  -6.98523
   1   0.00056  -2.78666   1.26498
   1   0.88130  -2.81967   4.46769
   1  -0.88083  -2.81993   4.46745
   1  -0.00130  -1.67951   7.46734
   1  -0.00194   0.86971   8.10748
 loop 1 0
 mod cartes coords mol 2
   6   0.00091  -0.68715  -0.60259
   6   0.00124   0.37390  -1.44269
   6   0.00085   0.22465  -2.88030
   7   0.00048  -0.90014  -3.53135
   6  -0.00015  -0.70487  -4.89332
   6  -0.00064  -1.72384  -5.85724
   6  -0.00126  -1.38365  -7.20073
   6  -0.00139  -0.03911  -7.60518
   6  -0.00091   0.98820  -6.66920
   6  -0.00029   0.64740  -5.31740
  16   0.00045   1.68746  -3.91088
   6   0.00090  -0.66920   0.82903
   6   0.00063  -1.77920   1.66170
   6   0.00033  -1.44557   3.02701
   6   0.00015  -2.17874   4.35283
   6  -0.00015  -1.03070   5.34088
   6  -0.00102  -0.87087   6.74825
   6  -0.00142   0.45001   7.11355
  16  -0.00082   1.52873   5.73966
   6   0.00008   0.17662   4.66272
   6   0.00033  -0.07595   3.24684
  16   0.00083   0.82927   1.77686
   1   0.00053  -1.67625  -1.05258
   1   0.00167   1.38801  -1.05651
   1  -0.00053  -2.75648  -5.53051
   1  -0.00165  -2.16522  -7.95176
   1  -0.00188   0.20323  -8.66157
   1  -0.00103   2.02438  -6.98523
   1   0.00056  -2.78666   1.26498
   1   0.88130  -2.81967   4.46769
   1  -0.88083  -2.81993   4.46745
   1  -0.00130  -1.67951   7.46734
   1  -0.00194   0.86971   8.10748
 read in order, maxerr=  0.12 for atom  33
 final axis swaps:           1           1           1
 final xyz swap pattern=           1
 reorder list:
   1   2   3   4   5   6   7   8   9  10  11  12  13  14  15  16  17  18  19  20
  21  22  23  24  25  26  27  28  29  30  31  32  33
 axis signs=           1           1           1
  6     0.000914 -0.687149 -0.602592     0.000848 -0.768998 -0.584908
  6     0.001242  0.373895 -1.442691     0.000888  0.350873 -1.420418
  6     0.000848  0.224650 -2.880296     0.000595  0.232794 -2.823153
  7     0.000483 -0.900138 -3.531347     0.000137 -0.906958 -3.502033
  6    -0.000150 -0.704869 -4.893320    -0.000309 -0.699792 -4.840980
  6    -0.000642 -1.723844 -5.857242    -0.000871 -1.715578 -5.822514
  6    -0.001259 -1.383653 -7.200730    -0.001281 -1.366059 -7.159773
  6    -0.001389 -0.039112 -7.605176    -0.001147 -0.015912 -7.558296
  6    -0.000907  0.988195 -6.669196    -0.000605  1.008920 -6.614546
  6    -0.000294  0.647397 -5.317399    -0.000195  0.666353 -5.267253
 16     0.000453  1.687458 -3.910881     0.000583  1.706099 -3.862457
  6     0.000904 -0.669202  0.829029     0.000823 -0.750263  0.806836
  6     0.000630 -1.779199  1.661703     0.000729 -1.860591  1.694809
  6     0.000327 -1.445567  3.027011     0.000631 -1.493017  3.022579
  6     0.000149 -2.178737  4.352830     0.000398 -2.193745  4.369094
  6    -0.000150 -1.030696  5.340876    -0.000215 -1.017024  5.324345
  6    -0.001018 -0.870867  6.748253    -0.001106 -0.816855  6.714404
  6    -0.001419  0.450013  7.113551    -0.001587  0.521035  7.050022
 16    -0.000821  1.528733  5.739660    -0.000789  1.573165  5.652091
  6     0.000080  0.176621  4.662721     0.000023  0.187917  4.600740
  6     0.000329 -0.075955  3.246838     0.000560 -0.082289  3.218351
 16     0.000834  0.829266  1.776857     0.000829  0.800764  1.729912
  1     0.000526 -1.676250 -1.052578     0.000738 -1.742023 -1.066335
  1     0.001667  1.388009 -1.056514     0.001035  1.347736 -0.993259
  1    -0.000528 -2.756482 -5.530511    -0.000964 -2.749991 -5.501574
  1    -0.001647 -2.165215 -7.951762    -0.001709 -2.141887 -7.917024
  1    -0.001882  0.203225 -8.661573    -0.001474  0.231636 -8.613505
  1    -0.001029  2.024375 -6.985228    -0.000525  2.046119 -6.927625
  1     0.000563 -2.786659  1.264976     0.000676 -2.875926  1.319771
  1     0.881298 -2.819665  4.467686     0.881158 -2.833631  4.498611
  1    -0.880828 -2.819935  4.467446    -0.879970 -2.834254  4.498086
  1    -0.001301 -1.679510  7.467336    -0.001453 -1.604034  7.457387
  1    -0.001935  0.869709  8.107483    -0.002273  0.960839  8.035499
 generating redundant internal coords
         300        3600          33
 Adding extra bonds for z output only
           6           6           6           7           6           6
           6           6           6           6          16           6
           6           6           6           6           6           6
          16           6           6          16           1           1
           1           1           1           1           1           1
           1           1           1
 search for int coords
   1 str   2   1   1.353
   2 str   3   2   1.445
   3 str   4   3   1.300
   4 str   5   4   1.376
   5 str   6   5   1.403
   6 str   7   6   1.386
   7 str   8   7   1.404
   8 str   9   8   1.390
   9 str  10   5   1.417
  10 str  10   9   1.394
  11 str  11   3   1.789
  12 str  11  10   1.749
  13 str  12   1   1.432
  14 str  13  12   1.388
  15 str  14  13   1.405
  16 str  15  14   1.515
  17 str  16  15   1.515
  18 str  17  16   1.416
  19 str  18  17   1.370
  20 str  19  18   1.747
  21 str  20  16   1.385
  22 str  20  19   1.729
  23 str  21  14   1.387
  24 str  21  20   1.438
  25 str  22  12   1.773
  26 str  22  21   1.726
  27 str  23   1   1.087
  28 str  24   2   1.085
  29 str  25   6   1.083
  30 str  26   7   1.084
  31 str  27   8   1.084
  32 str  28   9   1.083
  33 str  29  13   1.083
  34 str  30  15   1.096
  35 str  31  15   1.096
  36 str  32  17   1.082
  37 str  33  18   1.079
 nber stretches=          37
  38 ben   1   2   3
  39 prop tor   1   2   3   4
  40 prop tor   1   2   3  11
  41 ben   1   2  24
  42 ben   1  12  13
  43 prop tor   1  12  13  14
  44 prop tor   1  12  13  29
  45 ben   1  12  22
  46 prop tor   1  12  22  21
  47 ben   2   1  12
  48 prop tor   2   1  12  13
  49 prop tor   2   1  12  22
  50 ben   2   1  23
  51 ben   2   3   4
  52 prop tor   2   3   4   5
  53 ben   2   3  11
  54 prop tor   2   3  11  10
  55 ben   3   2  24
  56 ben   3   4   5
  57 prop tor   3   4   5   6
  58 prop tor   3   4   5  10
  59 ben   3  11  10
  60 ben   4   3  11
  61 prop tor   4   3  11  10
  62 ben   4   5   6
  63 prop tor   4   5   6   7
  64 prop tor   4   5   6  25
  65 ben   4   5  10
  66 prop tor   4   5  10   9
  67 prop tor   4   5  10  11
  68 ben   5   6   7
  69 prop tor   5   6   7   8
  70 prop tor   5   6   7  26
  71 ben   5   6  25
  72 ben   5  10   9
  73 ben   5  10  11
  74 prop tor   5  10  11   3
  75 ben   6   5  10
  76 prop tor   6   5  10   9
  77 prop tor   6   5  10  11
  78 ben   6   7   8
  79 prop tor   6   7   8   9
  80 prop tor   6   7   8  27
  81 ben   6   7  26
  82 ben   7   6  25
  83 ben   7   8   9
  84 prop tor   7   8   9  10
  85 prop tor   7   8   9  28
  86 ben   7   8  27
  87 ben   8   7  26
  88 ben   8   9  10
  89 prop tor   8   9  10   5
  90 prop tor   8   9  10  11
  91 ben   8   9  28
  92 ben   9   8  27
  93 ben   9  10  11
  94 prop tor   9  10  11   3
  95 prop tor  10   5   6   7
  96 prop tor  10   5   6  25
  97 ben  10   9  28
  98 prop tor  11   3   4   5
  99 prop tor  12   1   2   3
 100 prop tor  12   1   2  24
 101 ben  12   1  23
 102 ben  12  13  14
 103 prop tor  12  13  14  15
 104 prop tor  12  13  14  21
 105 ben  12  13  29
 106 ben  12  22  21
 107 ben  13  12  22
 108 prop tor  13  12  22  21
 109 ben  13  14  15
 110 prop tor  13  14  15  16
 111 prop tor  13  14  15  30
 112 prop tor  13  14  15  31
 113 ben  13  14  21
 114 prop tor  13  14  21  20
 115 prop tor  13  14  21  22
 116 ben  14  13  29
 117 ben  14  15  16
 118 prop tor  14  15  16  17
 119 prop tor  14  15  16  20
 120 ben  14  15  30
 121 ben  14  15  31
 122 ben  14  21  20
 123 ben  14  21  22
 124 prop tor  14  21  22  12
 125 ben  15  14  21
 126 prop tor  15  14  21  20
 127 prop tor  15  14  21  22
 128 ben  15  16  17
 129 prop tor  15  16  17  18
 130 prop tor  15  16  17  32
 131 ben  15  16  20
 132 prop tor  15  16  20  19
 133 prop tor  15  16  20  21
 134 ben  16  15  30
 135 ben  16  15  31
 136 ben  16  17  18
 137 prop tor  16  17  18  19
 138 prop tor  16  17  18  33
 139 ben  16  17  32
 140 ben  16  20  19
 141 ben  16  20  21
 142 prop tor  16  20  21  14
 143 prop tor  16  20  21  22
 144 ben  17  16  20
 145 prop tor  17  16  20  19
 146 prop tor  17  16  20  21
 147 ben  17  18  19
 148 prop tor  17  18  19  20
 149 ben  17  18  33
 150 ben  18  17  32
 151 ben  18  19  20
 152 prop tor  18  19  20  16
 153 prop tor  18  19  20  21
 154 ben  19  18  33
 155 ben  19  20  21
 156 prop tor  19  20  21  14
 157 prop tor  19  20  21  22
 158 prop tor  20  16  17  18
 159 prop tor  20  16  17  32
 160 ben  20  21  22
 161 prop tor  20  21  22  12
 162 prop tor  21  14  15  16
 163 prop tor  21  14  15  30
 164 prop tor  21  14  15  31
 165 prop tor  22  12  13  14
 166 prop tor  22  12  13  29
 167 prop tor  23   1   2   3
 168 prop tor  23   1   2  24
 169 prop tor  23   1  12  13
 170 prop tor  23   1  12  22
 171 prop tor  24   2   3   4
 172 prop tor  24   2   3  11
 173 prop tor  25   6   7   8
 174 prop tor  25   6   7  26
 175 prop tor  26   7   8   9
 176 prop tor  26   7   8  27
 177 prop tor  27   8   9  10
 178 prop tor  27   8   9  28
 179 prop tor  28   9  10   5
 180 prop tor  28   9  10  11
 181 prop tor  29  13  14  15
 182 prop tor  29  13  14  21
 183 prop tor  30  15  16  17
 184 prop tor  30  15  16  20
 185 ben  30  15  31
 186 prop tor  31  15  16  17
 187 prop tor  31  15  16  20
 188 prop tor  32  17  18  19
 189 prop tor  32  17  18  33
 190 prop tor  33  18  19  20
 nber bend=              61
 nber lin bend=           0
 nber prop tor=          92
 nber impr tor=           0
 nber tot redund int=         190
 generating redundant internal coords
         300        3600          33
 search for int coords
   1 str   2   1   1.397
   2 str   3   2   1.408
   3 str   4   3   1.327
   4 str   5   4   1.355
   5 str   6   5   1.413
   6 str   7   6   1.382
   7 str   8   7   1.408
   8 str   9   8   1.393
   9 str  10   5   1.431
  10 str  10   9   1.390
  11 str  11   3   1.803
  12 str  11  10   1.748
  13 str  12   1   1.392
  14 str  13  12   1.422
  15 str  14  13   1.378
  16 str  15  14   1.518
  17 str  16  15   1.516
  18 str  17  16   1.404
  19 str  18  17   1.379
  20 str  19  18   1.750
  21 str  20  16   1.406
  22 str  20  19   1.739
  23 str  21  14   1.424
  24 str  21  20   1.409
  25 str  22  12   1.805
  26 str  22  21   1.731
  27 str  23   1   1.086
  28 str  24   2   1.085
  29 str  25   6   1.083
  30 str  26   7   1.084
  31 str  27   8   1.084
  32 str  28   9   1.083
  33 str  29  13   1.082
  34 str  30  15   1.096
  35 str  31  15   1.096
  36 str  32  17   1.082
  37 str  33  18   1.079
 nber stretches=          37
  38 ben   1   2   3
  39 prop tor   1   2   3   4
  40 prop tor   1   2   3  11
  41 ben   1   2  24
  42 ben   1  12  13
  43 prop tor   1  12  13  14
  44 prop tor   1  12  13  29
  45 ben   1  12  22
  46 prop tor   1  12  22  21
  47 ben   2   1  12
  48 prop tor   2   1  12  13
  49 prop tor   2   1  12  22
  50 ben   2   1  23
  51 ben   2   3   4
  52 prop tor   2   3   4   5
  53 ben   2   3  11
  54 prop tor   2   3  11  10
  55 ben   3   2  24
  56 ben   3   4   5
  57 prop tor   3   4   5   6
  58 prop tor   3   4   5  10
  59 ben   3  11  10
  60 ben   4   3  11
  61 prop tor   4   3  11  10
  62 ben   4   5   6
  63 prop tor   4   5   6   7
  64 prop tor   4   5   6  25
  65 ben   4   5  10
  66 prop tor   4   5  10   9
  67 prop tor   4   5  10  11
  68 ben   5   6   7
  69 prop tor   5   6   7   8
  70 prop tor   5   6   7  26
  71 ben   5   6  25
  72 ben   5  10   9
  73 ben   5  10  11
  74 prop tor   5  10  11   3
  75 ben   6   5  10
  76 prop tor   6   5  10   9
  77 prop tor   6   5  10  11
  78 ben   6   7   8
  79 prop tor   6   7   8   9
  80 prop tor   6   7   8  27
  81 ben   6   7  26
  82 ben   7   6  25
  83 ben   7   8   9
  84 prop tor   7   8   9  10
  85 prop tor   7   8   9  28
  86 ben   7   8  27
  87 ben   8   7  26
  88 ben   8   9  10
  89 prop tor   8   9  10   5
  90 prop tor   8   9  10  11
  91 ben   8   9  28
  92 ben   9   8  27
  93 ben   9  10  11
  94 prop tor   9  10  11   3
  95 prop tor  10   5   6   7
  96 prop tor  10   5   6  25
  97 ben  10   9  28
  98 prop tor  11   3   4   5
  99 prop tor  12   1   2   3
 100 prop tor  12   1   2  24
 101 ben  12   1  23
 102 ben  12  13  14
 103 prop tor  12  13  14  15
 104 prop tor  12  13  14  21
 105 ben  12  13  29
 106 ben  12  22  21
 107 ben  13  12  22
 108 prop tor  13  12  22  21
 109 ben  13  14  15
 110 prop tor  13  14  15  16
 111 prop tor  13  14  15  30
 112 prop tor  13  14  15  31
 113 ben  13  14  21
 114 prop tor  13  14  21  20
 115 prop tor  13  14  21  22
 116 ben  14  13  29
 117 ben  14  15  16
 118 prop tor  14  15  16  17
 119 prop tor  14  15  16  20
 120 ben  14  15  30
 121 ben  14  15  31
 122 ben  14  21  20
 123 ben  14  21  22
 124 prop tor  14  21  22  12
 125 ben  15  14  21
 126 prop tor  15  14  21  20
 127 prop tor  15  14  21  22
 128 ben  15  16  17
 129 prop tor  15  16  17  18
 130 prop tor  15  16  17  32
 131 ben  15  16  20
 132 prop tor  15  16  20  19
 133 prop tor  15  16  20  21
 134 ben  16  15  30
 135 ben  16  15  31
 136 ben  16  17  18
 137 prop tor  16  17  18  19
 138 prop tor  16  17  18  33
 139 ben  16  17  32
 140 ben  16  20  19
 141 ben  16  20  21
 142 prop tor  16  20  21  14
 143 prop tor  16  20  21  22
 144 ben  17  16  20
 145 prop tor  17  16  20  19
 146 prop tor  17  16  20  21
 147 ben  17  18  19
 148 prop tor  17  18  19  20
 149 ben  17  18  33
 150 ben  18  17  32
 151 ben  18  19  20
 152 prop tor  18  19  20  16
 153 prop tor  18  19  20  21
 154 ben  19  18  33
 155 ben  19  20  21
 156 prop tor  19  20  21  14
 157 prop tor  19  20  21  22
 158 prop tor  20  16  17  18
 159 prop tor  20  16  17  32
 160 ben  20  21  22
 161 prop tor  20  21  22  12
 162 prop tor  21  14  15  16
 163 prop tor  21  14  15  30
 164 prop tor  21  14  15  31
 165 prop tor  22  12  13  14
 166 prop tor  22  12  13  29
 167 prop tor  23   1   2   3
 168 prop tor  23   1   2  24
 169 prop tor  23   1  12  13
 170 prop tor  23   1  12  22
 171 prop tor  24   2   3   4
 172 prop tor  24   2   3  11
 173 prop tor  25   6   7   8
 174 prop tor  25   6   7  26
 175 prop tor  26   7   8   9
 176 prop tor  26   7   8  27
 177 prop tor  27   8   9  10
 178 prop tor  27   8   9  28
 179 prop tor  28   9  10   5
 180 prop tor  28   9  10  11
 181 prop tor  29  13  14  15
 182 prop tor  29  13  14  21
 183 prop tor  30  15  16  17
 184 prop tor  30  15  16  20
 185 ben  30  15  31
 186 prop tor  31  15  16  17
 187 prop tor  31  15  16  20
 188 prop tor  32  17  18  19
 189 prop tor  32  17  18  33
 190 prop tor  33  18  19  20
 nber bend=              61
 nber lin bend=           0
 nber prop tor=          92
 nber impr tor=           0
 nber tot redund int=         190
 Eigenvalues of G in red int coords
    Gval -0.00000000 -0.00000000 -0.00000000 -0.00000000 -0.00000000 -0.00000000 -0.00000000 -0.00000000
    Gval -0.00000000 -0.00000000 -0.00000000 -0.00000000 -0.00000000 -0.00000000 -0.00000000 -0.00000000
    Gval -0.00000000 -0.00000000 -0.00000000 -0.00000000 -0.00000000 -0.00000000 -0.00000000 -0.00000000
    Gval -0.00000000 -0.00000000 -0.00000000 -0.00000000 -0.00000000 -0.00000000 -0.00000000 -0.00000000
    Gval -0.00000000 -0.00000000 -0.00000000 -0.00000000 -0.00000000 -0.00000000 -0.00000000 -0.00000000
    Gval -0.00000000 -0.00000000 -0.00000000 -0.00000000 -0.00000000 -0.00000000 -0.00000000  0.00000000
    Gval  0.00000000  0.00000000  0.00000000  0.00000000  0.00000000  0.00000000  0.00000000  0.00000000
    Gval  0.00000000  0.00000000  0.00000000  0.00000000  0.00000000  0.00000000  0.00000000  0.00000000
    Gval  0.00000000  0.00000000  0.00000000  0.00000000  0.00000000  0.00000000  0.00000000  0.00000000
    Gval  0.00000000  0.00000000  0.00000000  0.00000000  0.00000000  0.00000000  0.00000000  0.00000000
    Gval  0.00000000  0.00000000  0.00000000  0.00000000  0.00000000  0.00000000  0.00000000  0.00000000
    Gval  0.00000000  0.00000000  0.00000000  0.00000000  0.00000000  0.00000000  0.00000000  0.00000000
    Gval  0.00000000  0.00000045  0.00000156  0.00000193  0.00000414  0.00000716  0.00000906  0.00001644
    Gval  0.00001737  0.00001969  0.00002365  0.00002717  0.00003302  0.00003600  0.00003916  0.00004258
    Gval  0.00004818  0.00005191  0.00005520  0.00006224  0.00006285  0.00006589  0.00007439  0.00007941
    Gval  0.00008659  0.00009161  0.00009315  0.00010138  0.00010586  0.00012391  0.00012681  0.00013033
    Gval  0.00013441  0.00015479  0.00015601  0.00016428  0.00020408  0.00020794  0.00022535  0.00026775
    Gval  0.00028528  0.00029659  0.00030610  0.00030916  0.00031847  0.00035425  0.00036502  0.00036626
    Gval  0.00038521  0.00039690  0.00040825  0.00042816  0.00042992  0.00058338  0.00059314  0.00059635
    Gval  0.00059674  0.00059747  0.00061263  0.00061829  0.00062261  0.00062537  0.00065414  0.00065525
    Gval  0.00065940  0.00078514  0.00092066  0.00105143  0.00105398  0.00107295  0.00108155  0.00111281
    Gval  0.00112152  0.00113961  0.00116095  0.00116264  0.00117084  0.00118189  0.00132435  0.00138588
    Gval  0.00162321  0.00166234  0.00179923  0.00195287  0.00208024  0.00263254  0.00269428  0.00281015
    Gval  0.00302272  0.00323823  0.00356279  0.00375755  0.00401536  0.00406428
  4.450158204640872E-007  4.450158204640872E-007
  1.557883240174384E-006  4.450158204640872E-007
  1.925553940355781E-006  4.450158204640872E-007
  4.141385001602226E-006  4.450158204640872E-007
  7.158886029313083E-006  4.450158204640872E-007
  9.056072944890301E-006  4.450158204640872E-007
  1.644273884367656E-005  4.450158204640872E-007
  1.737343193425394E-005  4.450158204640872E-007
  1.968604282745187E-005  4.450158204640872E-007
  2.364712332918923E-005  4.450158204640872E-007
  2.717086312482992E-005  4.450158204640872E-007
  3.301676453799702E-005  4.450158204640872E-007
  3.600266207709319E-005  4.450158204640872E-007
  3.916016026366909E-005  4.450158204640872E-007
  4.257603167575607E-005  4.450158204640872E-007
  4.818370718729042E-005  4.450158204640872E-007
  5.191394938145565E-005  4.450158204640872E-007
  5.520251238672696E-005  4.450158204640872E-007
  6.224085254607447E-005  4.450158204640872E-007
  6.285096234290325E-005  4.450158204640872E-007
  6.589121365961650E-005  4.450158204640872E-007
  7.439066318642437E-005  4.450158204640872E-007
  7.941131041378782E-005  4.450158204640872E-007
  8.659009463952808E-005  4.450158204640872E-007
  9.161131954801199E-005  4.450158204640872E-007
  9.314922879335301E-005  4.450158204640872E-007
  1.013800577157767E-004  4.450158204640872E-007
  1.058601599592302E-004  4.450158204640872E-007
  1.239070557785038E-004  4.450158204640872E-007
  1.268087681783897E-004  4.450158204640872E-007
  1.303287444059257E-004  4.450158204640872E-007
  1.344054666061331E-004  4.450158204640872E-007
  1.547885822789057E-004  4.450158204640872E-007
  1.560137261273143E-004  4.450158204640872E-007
  1.642772291868959E-004  4.450158204640872E-007
  2.040788843067459E-004  4.450158204640872E-007
  2.079416983200956E-004  4.450158204640872E-007
  2.253453960763519E-004  4.450158204640872E-007
  2.677472817105877E-004  4.450158204640872E-007
  2.852756976777951E-004  4.450158204640872E-007
  2.965908567900458E-004  4.450158204640872E-007
  3.061040194139146E-004  4.450158204640872E-007
  3.091577906922061E-004  4.450158204640872E-007
[...]
  41       706.  0.8656    74.9   100.3  41       715.
                 0.4822    23.3          42       715.
  42       708.  0.4861    23.6   100.2  41       715.
                -0.8727    76.2          42       715.
  43       726. -0.9979    99.6   100.2  43       736.
  44       768. -0.9976    99.5   100.3  44       771.
  45       787.  0.9837    96.8   101.4  45       802.
  46       790. -0.7878    62.1   100.7  47       838.
                -0.5271    27.8          48       863.
  47       803.  0.5973    35.7    99.7  47       838.
                -0.7062    49.9          48       863.
  48       810.  0.9876    97.5   100.5  46       821.
  49       856. -0.3222    10.4   100.3  48       863.
                 0.9387    88.1          49       865.
  50       873.  0.9807    96.2   100.6  50       880.
  51       906. -0.4767    22.7    98.6  55       988.
                -0.8093    65.5          56       988.
  52       913.  0.9910    98.2   101.3  51       918.
  53       939.  0.9923    98.5   100.1  53       949.
  54       941. -0.9927    98.6   101.5  54       950.
  55       946.  0.9895    97.9   100.1  52       938.
  56       980.  0.8541    72.9   100.1  55       988.
                -0.4959    24.6          56       988.
  57       980.  0.9021    81.4   100.2  57      1002.
                -0.3880    15.1          58      1010.
  58       997.  0.3953    15.6    99.1  57      1002.
                 0.9079    82.4          58      1010.
  59      1031. -0.9975    99.5   100.2  59      1037.
  60      1063.  0.9925    98.5    99.8  60      1072.
  61      1100.  0.9931    98.6   100.0  61      1110.
  62      1115.  0.9587    91.9    99.6  62      1119.
  63      1143.  0.9851    97.0   100.0  63      1145.
  64      1153. -0.9997    99.9   100.2  64      1151.
  65      1155. -0.8807    77.6   100.0  65      1166.
                 0.3547    12.6          68      1235.
  66      1181. -0.9920    98.4   100.0  66      1183.
  67      1196. -0.4194    17.6   100.9  65      1166.
                 0.3702    13.7          67      1201.
                -0.7512    56.4          68      1235.
  68      1204.  0.8471    71.8   100.1  67      1201.
                 0.3954    15.6          68      1235.
  69      1241.  0.3659    13.4   100.6  71      1299.
                -0.7459    55.6          73      1331.
  70      1264.  0.9542    91.0   100.1  69      1264.
  71      1271.  0.4803    23.1    99.5  70      1274.
                -0.6780    46.0          71      1299.
                -0.3380    11.4          73      1331.
  72      1278. -0.8135    66.2    99.9  70      1274.
                -0.4588    21.0          71      1299.
  73      1329.  0.7737    59.9    99.7  75      1364.
                 0.3204    10.3          76      1405.
  74      1337. -0.7836    61.4   100.0  72      1316.
                 0.5838    34.1          74      1344.
  75      1357. -0.4147    17.2   100.0  72      1316.
                -0.6727    45.3          74      1344.
  76      1358. -0.7600    57.8    99.5  77      1423.
  77      1400. -0.3551    12.6    99.9  78      1441.
                -0.3402    11.6          80      1460.
                -0.5842    34.1          83      1521.
  78      1446.  0.3267    10.7   100.1  76      1405.
                -0.7055    49.8          78      1441.
                 0.3882    15.1          79      1458.
                 0.3715    13.8          84      1529.
  79      1451. -0.7938    63.0   100.4  76      1405.
  80      1455.  0.3669    13.5   100.0  79      1458.
                -0.7864    61.8          80      1460.
  81      1464.  0.4179    17.5   100.3  78      1441.
                 0.5116    26.2          79      1458.
                 0.3836    14.7          80      1460.
                -0.3828    14.7          81      1466.
  82      1478.  0.4661    21.7   100.3  81      1466.
                -0.7291    53.2          82      1488.
  83      1493. -0.4154    17.3   100.1  79      1458.
                 0.7529    56.7          84      1529.
  84      1504. -0.5798    33.6   100.9  81      1466.
                -0.3541    12.5          82      1488.
                 0.5293    28.0          83      1521.
  85      1508. -0.3368    11.3   100.3  82      1488.
                -0.8290    68.7          85      1551.
  86      1563.  0.3642    13.3   100.5  79      1458.
                 0.7838    61.4          88      1647.
  87      1571. -0.9633    92.8   100.0  86      1594.
  88      1617. -0.9759    95.2   100.2  87      1636.
  89      3013.  1.0000   100.0   100.0  89      3030.
  90      3035.  1.0000   100.0   100.0  90      3058.
  91      3163.  0.9837    96.8   100.0  91      3154.
  92      3167. -0.9976    99.5   100.0  93      3167.
  93      3172. -0.9846    96.9   100.0  92      3164.
  94      3178. -0.9968    99.4   100.0  94      3179.
  95      3189.  0.9972    99.4   100.0  95      3190.
  96      3197. -0.9960    99.2   100.0  96      3197.
  97      3198.  0.9984    99.7   100.0  98      3201.
  98      3201. -0.9965    99.3   100.0  97      3197.
  99      3244. -0.9999   100.0   100.0  99      3246.
 nber times 1st assigned=           1           0
 nber times 1st assigned=           2           0
 nber times 1st assigned=           3           0
 nber times 1st assigned=           4           0
 nber times 1st assigned=           5           0
 nber times 1st assigned=           6           0
 nber times 1st assigned=           7           0
 nber times 1st assigned=           8           0
 nber times 1st assigned=           9           0
 nber times 1st assigned=          10           0
 nber times 1st assigned=          11           0
 nber times 1st assigned=          12           0
 nber times 1st assigned=          13           0
 nber times 1st assigned=          14           0
 nber times 1st assigned=          15           0
 nber times 1st assigned=          16           0
 nber times 1st assigned=          17           0
 nber times 1st assigned=          18           0
 nber times 1st assigned=          19           0
 nber times 1st assigned=          20           0
 nber times 1st assigned=          21           0
 nber times 1st assigned=          22           0
 nber times 1st assigned=          23           0
 nber times 1st assigned=          24           0
 nber times 1st assigned=          25           0
 nber times 1st assigned=          26           0
 nber times 1st assigned=          27           0
 nber times 1st assigned=          28           0
 nber times 1st assigned=          29           0
 nber times 1st assigned=          30           0
 nber times 1st assigned=          31           0
 nber times 1st assigned=          32           0
 nber times 1st assigned=          33           0
 nber times 1st assigned=          34           0
 nber times 1st assigned=          35           0
 nber times 1st assigned=          36           0
 nber times 1st assigned=          37           0
 nber times 1st assigned=          38           0
 nber times 1st assigned=          39           0
 nber times 1st assigned=          40           0
 nber times 1st assigned=          41           0
 nber times 1st assigned=          42           0
 nber times 1st assigned=          43           0
 nber times 1st assigned=          44           0
 nber times 1st assigned=          45           0
 nber times 1st assigned=          46           0
 nber times 1st assigned=          47           0
 nber times 1st assigned=          48           0
 nber times 1st assigned=          49           0
 nber times 1st assigned=          50           0
 nber times 1st assigned=          51           0
 nber times 1st assigned=          52           0
 nber times 1st assigned=          53           0
 nber times 1st assigned=          54           0
 nber times 1st assigned=          55           0
 nber times 1st assigned=          56           0
 nber times 1st assigned=          57           0
 nber times 1st assigned=          58           0
 nber times 1st assigned=          59           0
 nber times 1st assigned=          60           0
 nber times 1st assigned=          61           0
 nber times 1st assigned=          62           0
 nber times 1st assigned=          63           0
 nber times 1st assigned=          64           0
 nber times 1st assigned=          65           0
 nber times 1st assigned=          66           0
 nber times 1st assigned=          67           0
 nber times 1st assigned=          68           0
 nber times 1st assigned=          69           0
 nber times 1st assigned=          70           0
 nber times 1st assigned=          71           0
 nber times 1st assigned=          72           0
 nber times 1st assigned=          73           0
 nber times 1st assigned=          74           0
 nber times 1st assigned=          75           0
 nber times 1st assigned=          76           0
 nber times 1st assigned=          77           0
 nber times 1st assigned=          78           0
 nber times 1st assigned=          79           0
 nber times 1st assigned=          80           0
 nber times 1st assigned=          81           0
 nber times 1st assigned=          82           0
 nber times 1st assigned=          83           0
 nber times 1st assigned=          84           0
 nber times 1st assigned=          85           0
 nber times 1st assigned=          86           0
 nber times 1st assigned=          87           0
 nber times 1st assigned=          88           0
 nber times 1st assigned=          89           0
 nber times 1st assigned=          90           0
 nber times 1st assigned=          91           0
 nber times 1st assigned=          92           0
 nber times 1st assigned=          93           0
 nber times 1st assigned=          94           0
 nber times 1st assigned=          95           0
 nber times 1st assigned=          96           0
 nber times 1st assigned=          97           0
 nber times 1st assigned=          98           0
 nber times 1st assigned=          99           0
 modes represented=   93.4554362763726     
 p1=
    0.    0.    0.   -0.   -0.   -0.   -0.  -33.    3.   -0.   33.   -0.    0.    0.    8.   -0.   -1.   -0.   -0.   -0.
    0.    2.    4.    0.    4.    0.   -1.   -0.   -2.   -0.   -1.   -4.    0.    2.    0.    5.    0.   -3.    3.    0.
    1.    1.    0.   -0.    0.   -0.   -0.   -1.   -0.    0.   -0.    1.   -0.   -0.    0.   -0.   -1.    0.   -0.    1.
    0.    1.    1.   -0.    1.    0.   -1.    2.    3.   -1.   -1.   -1.    2.   -1.   -2.   -1.    2.   -0.   -2.    1.
   -0.    2.   -0.   -4.    1.   -2.   -0.   -0.   -0.   -0.   -0.    0.   -0.   -0.    0.    0.   -0.   -0.    0.
 p2=
    0.    0.    0.    0.   -0.    0.    0.   -0.   32.    0.  -32.   -0.   -0.    0.   -8.   -0.   -2.    0.   -0.    0.
    2.   -0.    4.   -4.    0.   -0.   -1.   -2.   -0.    1.    0.   -2.   -0.   -4.   -0.   -4.   -0.    1.    5.    0.
   -1.    1.    0.   -0.    0.    1.   -0.   -0.   -0.   -0.   -1.   -0.    0.   -1.    0.    0.    1.   -1.   -0.   -1.
   -0.    1.   -1.    0.    1.   -0.    0.   -1.    0.   -0.   -3.   -2.    1.   -0.   -2.   -2.   -4.   -1.   -1.    2.
   -3.    1.    2.    1.   -1.   -0.   -0.    3.    0.    0.    0.    0.    0.   -0.   -0.    0.   -0.    0.    0.

 Displacement: in terms of nc of 1 THEN of nc of 2

   1     freq=    -0. Q=  0.000 lam=    -0.0     freq=    -0. Q=  0.000 lam=    -0.0
   2     freq=    -0. Q=  0.000 lam=    -0.0     freq=    -0. Q=  0.000 lam=    -0.0
   3     freq=     0. Q=  0.000 lam=     0.0     freq=    -0. Q=  0.000 lam=    -0.0
   4     freq=     0. Q= -0.000 lam=     0.0     freq=    -0. Q= -0.000 lam=    -0.0
   5     freq=     0. Q= -0.000 lam=     0.0     freq=     0. Q= -0.000 lam=     0.0
   6     freq=     0. Q= -0.000 lam=     0.0     freq=     0. Q= -0.000 lam=     0.0
   7     freq=    19. Q= -0.001 lam=     0.0     freq=    22. Q= -0.001 lam=     0.0
   8     freq=    34. Q= -0.765 lam=     9.8     freq=    26. Q= -0.001 lam=     0.0
   9     freq=    34. Q=  0.081 lam=     0.1     freq=    34. Q=  0.754 lam=     9.7
  10     freq=    58. Q= -0.006 lam=     0.0     freq=    63. Q= -0.005 lam=     0.0
  11     freq=   101. Q=  1.346 lam=    91.9     freq=   104. Q=  1.312 lam=    89.2
  12     freq=   112. Q= -0.002 lam=     0.0     freq=   122. Q= -0.000 lam=     0.0
  13     freq=   136. Q=  0.002 lam=     0.0     freq=   142. Q=  0.002 lam=     0.0
  14     freq=   180. Q=  0.002 lam=     0.0     freq=   180. Q=  0.001 lam=     0.0
  15     freq=   186. Q=  0.418 lam=    16.2     freq=   184. Q=  0.428 lam=    16.8
  16     freq=   189. Q= -0.001 lam=     0.0     freq=   194. Q= -0.001 lam=     0.0
  17     freq=   218. Q= -0.044 lam=     0.2     freq=   218. Q= -0.102 lam=     1.1
  18     freq=   237. Q= -0.001 lam=     0.0     freq=   236. Q= -0.001 lam=     0.0
  19     freq=   267. Q= -0.000 lam=     0.0     freq=   255. Q= -0.001 lam=     0.0
  20     freq=   299. Q= -0.001 lam=     0.0     freq=   311. Q= -0.002 lam=     0.0
  21     freq=   319. Q=  0.003 lam=     0.0     freq=   344. Q=  0.155 lam=     4.2
  22     freq=   345. Q=  0.156 lam=     4.2     freq=   346. Q=  0.002 lam=     0.0
  23     freq=   419. Q=  0.316 lam=    21.0     freq=   419. Q=  0.316 lam=    20.9
  24     freq=   435. Q=  0.002 lam=     0.0     freq=   438. Q=  0.331 lam=    23.9
  25     freq=   436. Q=  0.348 lam=    26.4     freq=   439. Q=  0.001 lam=     0.0
  26     freq=   446. Q=  0.002 lam=     0.0     freq=   469. Q=  0.002 lam=     0.0
  27     freq=   469. Q= -0.055 lam=     0.7     freq=   470. Q= -0.048 lam=     0.5
  28     freq=   489. Q= -0.000 lam=     0.0     freq=   509. Q= -0.165 lam=     6.9
  29     freq=   503. Q= -0.154 lam=     6.0     freq=   515. Q= -0.000 lam=     0.0
  30     freq=   534. Q= -0.000 lam=     0.0     freq=   545. Q= -0.051 lam=     0.7
  31     freq=   539. Q= -0.095 lam=     2.5     freq=   554. Q= -0.000 lam=     0.0
  32     freq=   553. Q= -0.361 lam=    36.1     freq=   570. Q= -0.189 lam=    10.2
  33     freq=   563. Q=  0.001 lam=     0.0     freq=   578. Q=  0.000 lam=     0.0
  34     freq=   575. Q=  0.241 lam=    16.7     freq=   603. Q=  0.442 lam=    59.0
  35     freq=   603. Q=  0.000 lam=     0.0     freq=   626. Q=  0.001 lam=     0.0
  36     freq=   610. Q=  0.514 lam=    80.5     freq=   631. Q=  0.361 lam=    41.2
  37     freq=   627. Q=  0.000 lam=     0.0     freq=   635. Q=  0.000 lam=     0.0
  38     freq=   642. Q= -0.328 lam=    34.6     freq=   658. Q= -0.087 lam=     2.5
  39     freq=   654. Q=  0.286 lam=    26.7     freq=   679. Q=  0.555 lam=   104.7
  40     freq=   677. Q=  0.000 lam=     0.0     freq=   701. Q=  0.000 lam=     0.0
  41     freq=   706. Q=  0.073 lam=     1.9     freq=   715. Q=  0.143 lam=     7.3
  42     freq=   708. Q=  0.149 lam=     7.8     freq=   715. Q=  0.089 lam=     2.9
  43     freq=   726. Q=  0.000 lam=     0.0     freq=   736. Q=  0.000 lam=     0.0
  44     freq=   768. Q= -0.000 lam=     0.0     freq=   771. Q= -0.000 lam=     0.0
  45     freq=   787. Q=  0.004 lam=     0.0     freq=   802. Q=  0.010 lam=     0.0
  46     freq=   790. Q= -0.000 lam=     0.0     freq=   821. Q= -0.094 lam=     3.6
  47     freq=   803. Q= -0.000 lam=     0.0     freq=   838. Q= -0.000 lam=     0.0
  48     freq=   810. Q= -0.097 lam=     3.8     freq=   863. Q= -0.000 lam=     0.0
  49     freq=   856. Q= -0.000 lam=     0.0     freq=   865. Q= -0.000 lam=     0.0
  50     freq=   873. Q=  0.000 lam=     0.0     freq=   880. Q=  0.000 lam=     0.0
  51     freq=   906. Q= -0.000 lam=     0.0     freq=   918. Q= -0.118 lam=     6.4
  52     freq=   913. Q=  0.131 lam=     7.9     freq=   938. Q=  0.000 lam=     0.0
  53     freq=   939. Q= -0.000 lam=     0.0     freq=   949. Q= -0.000 lam=     0.0
  54     freq=   941. Q= -0.053 lam=     1.3     freq=   950. Q= -0.074 lam=     2.6
  55     freq=   946. Q=  0.000 lam=     0.0     freq=   988. Q=  0.000 lam=     0.0
  56     freq=   980. Q= -0.000 lam=     0.0     freq=   988. Q= -0.000 lam=     0.0
  57     freq=   980. Q= -0.150 lam=    11.0     freq=  1002. Q= -0.119 lam=     7.1
  58     freq=   997. Q=  0.045 lam=     1.0     freq=  1010. Q=  0.172 lam=    14.9
  59     freq=  1031. Q= -0.055 lam=     1.6     freq=  1037. Q= -0.049 lam=     1.2
  60     freq=  1063. Q=  0.134 lam=     9.6     freq=  1072. Q=  0.160 lam=    13.7
  61     freq=  1100. Q=  0.009 lam=     0.0     freq=  1110. Q=  0.033 lam=     0.6
  62     freq=  1115. Q=  0.084 lam=     3.9     freq=  1119. Q=  0.068 lam=     2.6
  63     freq=  1143. Q=  0.098 lam=     5.5     freq=  1145. Q=  0.089 lam=     4.5
  64     freq=  1153. Q= -0.002 lam=     0.0     freq=  1151. Q= -0.000 lam=     0.0
  65     freq=  1155. Q=  0.170 lam=    16.8     freq=  1166. Q=  0.107 lam=     6.6
  66     freq=  1181. Q=  0.007 lam=     0.0     freq=  1183. Q=  0.005 lam=     0.0
  67     freq=  1196. Q= -0.099 lam=     5.9     freq=  1201. Q= -0.010 lam=     0.1
  68     freq=  1204. Q=  0.252 lam=    38.3     freq=  1235. Q=  0.154 lam=    14.7
  69     freq=  1241. Q=  0.478 lam=   141.5     freq=  1264. Q=  0.041 lam=     1.1
  70     freq=  1264. Q= -0.115 lam=     8.4     freq=  1274. Q= -0.043 lam=     1.2
  71     freq=  1271. Q= -0.205 lam=    26.7     freq=  1299. Q= -0.391 lam=    99.1
  72     freq=  1278. Q= -0.149 lam=    14.2     freq=  1316. Q= -0.226 lam=    33.7
  73     freq=  1329. Q=  0.280 lam=    52.2     freq=  1331. Q=  0.205 lam=    28.0
  74     freq=  1337. Q= -0.121 lam=     9.8     freq=  1344. Q= -0.074 lam=     3.7
  75     freq=  1357. Q= -0.367 lam=    91.4     freq=  1364. Q= -0.324 lam=    71.4
  76     freq=  1358. Q= -0.124 lam=    10.4     freq=  1405. Q= -0.313 lam=    68.9
  77     freq=  1400. Q=  0.297 lam=    61.7     freq=  1423. Q=  0.537 lam=   205.2
  78     freq=  1446. Q= -0.037 lam=     1.0     freq=  1441. Q= -0.078 lam=     4.4
  79     freq=  1451. Q= -0.341 lam=    84.3     freq=  1458. Q= -0.141 lam=    14.5
  80     freq=  1455. Q=  0.084 lam=     5.1     freq=  1460. Q=  0.286 lam=    59.9
  81     freq=  1464. Q= -0.074 lam=     4.0     freq=  1466. Q= -0.439 lam=   141.1
  82     freq=  1478. Q=  0.350 lam=    90.4     freq=  1488. Q=  0.097 lam=     7.0
  83     freq=  1493. Q= -0.063 lam=     3.0     freq=  1521. Q= -0.375 lam=   106.7
  84     freq=  1504. Q= -0.600 lam=   270.4     freq=  1529. Q= -0.190 lam=    27.6
  85     freq=  1508. Q=  0.156 lam=    18.3     freq=  1551. Q=  0.131 lam=    13.4
  86     freq=  1563. Q= -0.253 lam=    50.1     freq=  1594. Q= -0.010 lam=     0.1
  87     freq=  1571. Q= -0.057 lam=     2.5     freq=  1636. Q= -0.016 lam=     0.2
  88     freq=  1617. Q= -0.013 lam=     0.1     freq=  1647. Q= -0.539 lam=   239.1
  89     freq=  3013. Q= -0.002 lam=     0.0     freq=  3030. Q= -0.007 lam=     0.1
  90     freq=  3035. Q= -0.000 lam=     0.0     freq=  3058. Q= -0.000 lam=     0.0
  91     freq=  3163. Q= -0.009 lam=     0.1     freq=  3154. Q= -0.020 lam=     0.6
  92     freq=  3167. Q=  0.002 lam=     0.0     freq=  3164. Q=  0.006 lam=     0.1
  93     freq=  3172. Q= -0.009 lam=     0.1     freq=  3167. Q= -0.001 lam=     0.0
  94     freq=  3178. Q= -0.002 lam=     0.0     freq=  3179. Q= -0.001 lam=     0.0
  95     freq=  3189. Q=  0.000 lam=     0.0     freq=  3190. Q=  0.000 lam=     0.0
  96     freq=  3197. Q=  0.003 lam=     0.0     freq=  3197. Q=  0.004 lam=     0.0
  97     freq=  3198. Q= -0.002 lam=     0.0     freq=  3197. Q= -0.012 lam=     0.2
  98     freq=  3201. Q= -0.013 lam=     0.3     freq=  3201. Q= -0.002 lam=     0.0
  99     freq=  3244. Q=  0.002 lam=     0.0     freq=  3246. Q=  0.001 lam=     0.0

 total reorg energy (cm**-1, kcal/mol)=     1436.     1608.      4.11      4.60
 Nber of molecules processed=           2
