 Enter ifcurve (0=recti, 1=orth curvi, 2=apprx curvi, -1 = skip
 And atom ordering flag, 0= never changes, 1= use the first order thenceforth,
  2= deduce it (does read on fail), 3= always read it
 Reading file: 
 ./TT_0_C1S0.log                                                                
                                          
  Entering Gaussian System, Link 0=g16                                          
  
 Gaussian format, type: g94, g98, g03= F F F
  #P Geom=AllCheck Guess=TCheck SCRF=Check GenChk UB3LYP/6-311G(d,p) Fre    
 energy type= B3LYP   
 Original G94 input coords:
  6 -2.268074 -0.007488 -0.000769
  6 -1.402220 -1.119005 -0.001425
  6 -0.083834 -0.702758 -0.001019
 16  1.481496 -1.510139 -0.001408
  6  2.262634  0.014327 -0.000309
  6  1.396784  1.125838  0.000344
  6  0.078394  0.709596 -0.000062
 16 -1.486936  1.516988  0.000326
  1 -3.349477 -0.047698 -0.000904
  1 -1.756381 -2.140540 -0.002143
  1  3.344036  0.054547 -0.000173
  1  1.750949  2.147372  0.001062
 nber atoms=          12
  SCF Done:  E(UB3LYP) =  -1027.22028207     A.U. after    1 cycles             
  
          23          40 "  -1027.22028207"
After scan for Atom:   Atom  AN      X      Y      Z        X      Y      Z        X      Y      Z   
After scan for Atom:   Atom  AN      X      Y      Z        X      Y      Z        X      Y      Z   
After scan for Atom:   Atom  AN      X      Y      Z        X      Y      Z        X      Y      Z   
After scan for Atom:   Atom  AN      X      Y      Z        X      Y      Z        X      Y      Z   
After scan for Atom:   Atom  AN      X      Y      Z        X      Y      Z        X      Y      Z   
After scan for Atom:   Atom  AN      X      Y      Z        X      Y      Z        X      Y      Z   
After scan for Atom:   Atom  AN      X      Y      Z        X      Y      Z        X      Y      Z   
After scan for Atom:   Atom  AN      X      Y      Z        X      Y      Z        X      Y      Z   
After scan for Atom:   Atom  AN      X      Y      Z        X      Y      Z        X      Y      Z   
After scan for Atom:   Atom  AN      X      Y      Z        X      Y      Z        X      Y      Z   
 g94    frequencies=
     0.0    0.0    0.0    0.0    0.0    0.0  187.4  213.4  354.1  421.9
   443.9  461.1  519.9  631.7  646.9  762.6  764.0  770.8  784.2  862.0
   906.9  909.0  922.0 1085.2 1092.7 1174.8 1263.0 1337.4 1357.8 1377.0
  1472.8 1532.7 3221.9 3222.3 3233.8 3234.3
 g94    symmetries=
                                                 A      A      A      A
       A      A      A      A      A      A      A      A      A      A
       A      A      A      A      A      A      A      A      A      A
       A      A      A      A      A      A
 atomic masses:
 12.0000 12.0000 12.0000 31.9721 12.0000 12.0000 12.0000 31.9721  1.0078  1.0078
  1.0078  1.0078
 looking for force constants in 
 ./TT_0_C1S0.fchk                                                               
  
 Cartesian Force Constants                  R   N=         666                  
  
 n3=          36         666
 g94-fc frequencies=
    -3.8   -0.0   -0.0    0.0    4.0    9.4  187.4  213.4  354.1  422.0
   443.9  461.2  519.9  631.7  646.9  762.7  764.0  770.9  784.2  862.1
   906.9  909.0  922.1 1085.2 1092.7 1174.9 1263.0 1337.4 1357.8 1377.0
  1472.8 1532.7 3221.9 3222.3 3233.9 3234.4
 at 99999: n3=          36
 symm operator            1 :  F  nop=           0
 symm operator            2 :  F  nop=           0
 symm operator            3 :  F  nop=           0
 symm operator            4 :  F  nop=           0
 symm operator            5 :  F  nop=           0
 symm operator            6 :  F  nop=           0
 symm operator            7 :  F  nop=           0
 The point group of the molecule is  C1
 Symmetry rotation matrix:
   1.00000   0.00000   0.00000
   0.00000   1.00000   0.00000
   0.00000   0.00000   1.00000

 Projecting out zero-frequency components
 generating redundant internal coords
         300        3600          12
 search for int coords
   1 str   2   1   1.409
   2 str   3   2   1.383
   3 str   4   3   1.761
   4 str   5   4   1.713
   5 str   6   5   1.409
   6 str   7   3   1.422
   7 str   7   6   1.383
   8 str   8   1   1.713
   9 str   8   7   1.761
  10 str   9   1   1.082
  11 str  10   2   1.081
  12 str  11   5   1.082
  13 str  12   6   1.081
 nber stretches=          13
  14 ben   1   2   3
  15 prop tor   1   2   3   4
  16 prop tor   1   2   3   7
  17 ben   1   2  10
  18 ben   1   8   7
  19 ben   2   1   8
  20 prop tor   2   1   8   7
  21 ben   2   1   9
  22 ben   2   3   4
  23 prop tor   2   3   4   5
  24 ben   2   3   7
  25 prop tor   2   3   7   6
  26 prop tor   2   3   7   8
  27 ben   3   2  10
  28 ben   3   4   5
  29 prop tor   3   4   5   6
  30 prop tor   3   4   5  11
  31 ben   3   7   6
  32 ben   3   7   8
  33 prop tor   3   7   8   1
  34 ben   4   3   7
  35 prop tor   4   3   7   6
  36 prop tor   4   3   7   8
  37 ben   4   5   6
  38 prop tor   4   5   6   7
  39 prop tor   4   5   6  12
  40 ben   4   5  11
  41 ben   5   6   7
  42 prop tor   5   6   7   3
  43 prop tor   5   6   7   8
  44 ben   5   6  12
  45 ben   6   5  11
  46 ben   6   7   8
  47 prop tor   6   7   8   1
  48 prop tor   7   3   4   5
  49 ben   7   6  12
  50 prop tor   8   1   2   3
  51 prop tor   8   1   2  10
  52 ben   8   1   9
  53 prop tor   9   1   2   3
  54 prop tor   9   1   2  10
  55 prop tor   9   1   8   7
  56 prop tor  10   2   3   4
  57 prop tor  10   2   3   7
  58 prop tor  11   5   6   7
  59 prop tor  11   5   6  12
  60 prop tor  12   6   7   3
  61 prop tor  12   6   7   8
 nber bend=              20
 nber lin bend=           0
 nber prop tor=          28
 nber impr tor=           0
 nber tot redund int=          61
 Eigenvalues of G in red int coords
    Gval -0.00000000 -0.00000000 -0.00000000 -0.00000000 -0.00000000 -0.00000000 -0.00000000 -0.00000000
    Gval -0.00000000 -0.00000000 -0.00000000 -0.00000000 -0.00000000  0.00000000  0.00000000  0.00000000
    Gval  0.00000000  0.00000000  0.00000000  0.00000000  0.00000000  0.00000000  0.00000000  0.00000000
    Gval  0.00000000  0.00000000  0.00000000  0.00000000  0.00000000  0.00000000  0.00000000  0.00001796
    Gval  0.00002732  0.00003502  0.00004584  0.00005211  0.00007913  0.00009979  0.00010838  0.00011105
    Gval  0.00015230  0.00016166  0.00022905  0.00029188  0.00030328  0.00036887  0.00038263  0.00059646
    Gval  0.00059665  0.00062091  0.00062562  0.00062958  0.00107983  0.00108110  0.00117604  0.00117884
    Gval  0.00126449  0.00200214  0.00212272  0.00392271  0.00393706
  1.795550658774886E-005  1.795550658774886E-005
  2.731651167244994E-005  1.795550658774886E-005
  3.501929883154966E-005  1.795550658774886E-005
  4.583647915916962E-005  1.795550658774886E-005
  5.210846245797722E-005  1.795550658774886E-005
  7.912963340729463E-005  1.795550658774886E-005
  9.979116294037352E-005  1.795550658774886E-005
  1.083821709973722E-004  1.795550658774886E-005
  1.110507418801117E-004  1.795550658774886E-005
  1.523034232656485E-004  1.795550658774886E-005
  1.616597392081912E-004  1.795550658774886E-005
  2.290488432803003E-004  1.795550658774886E-005
  2.918788863182503E-004  1.795550658774886E-005
  3.032801383008016E-004  1.795550658774886E-005
  3.688702868801658E-004  1.795550658774886E-005
  3.826273298078005E-004  1.795550658774886E-005
  5.964600740602067E-004  1.795550658774886E-005
  5.966451004584764E-004  1.795550658774886E-005
  6.209135720075637E-004  1.795550658774886E-005
  6.256190704398601E-004  1.795550658774886E-005
  6.295802957474087E-004  1.795550658774886E-005
  1.079831294167028E-003  1.795550658774886E-005
  1.081100407405900E-003  1.795550658774886E-005
  1.176035730826441E-003  1.795550658774886E-005
  1.178844876325204E-003  1.795550658774886E-005
  1.264494629027834E-003  1.795550658774886E-005
  2.002143008112555E-003  1.795550658774886E-005
  2.122718698985548E-003  1.795550658774886E-005
  3.922712409749059E-003  1.795550658774886E-005
  3.937057536193048E-003  1.795550658774886E-005
 cut=1d-8, nber non-redundant internal coords=          30
 Check on Eigenvals of non-red overlap matrix:
  0.00001796  0.00002732  0.00003502  0.00004584  0.00005211  0.00007913  0.00009979  0.00010838
  0.00011105  0.00015230  0.00016166  0.00022905  0.00029188  0.00030328  0.00036887  0.00038263
  0.00059646  0.00059665  0.00062091  0.00062562  0.00062958  0.00107983  0.00108110  0.00117604
  0.00117884  0.00126449  0.00200214  0.00212272  0.00392271  0.00393706
 Checking for correct frequencies
 recalc frequencies=
    -0.0   -0.0   -0.0    0.0    0.0    0.0  187.4  213.4  354.1  422.0
   443.9  461.2  519.9  631.7  646.9  762.7  764.0  770.9  784.2  862.1
   906.9  909.0  922.1 1085.2 1092.7 1174.9 1263.0 1337.4 1357.8 1377.0
  1472.8 1532.7 3221.9 3222.3 3233.9 3234.4
 recalc symmetries=
                                                                       
                                                                       
                                                                       
                                           
 recalc freqs check OK
 Zero-point lengths:
 10.0000 10.0000 10.0000 10.0000 10.0000 10.0000 18.1114 16.9697 13.1752 12.0688
 11.7665 11.5444 10.8726  9.8639  9.7472  8.9770  8.9688  8.9291  8.8530  8.4436
  8.2322  8.2226  8.1643  7.5256  7.4996  7.2327  6.9757  6.7790  6.7278  6.6808
  6.4598  6.3323  4.3675  4.3673  4.3595  4.3591
 highest evec of mol 1
  0.1329 -0.0030  0.0000
  0.0525  0.1600  0.0001
 -0.0123 -0.0049 -0.0000
 -0.0005 -0.0019 -0.0000
  0.1316 -0.0029  0.0000
  0.0519  0.1584  0.0001
 -0.0123 -0.0049 -0.0000
 -0.0005 -0.0019 -0.0000
 -0.4213 -0.0132 -0.0001
 -0.1729 -0.5011 -0.0004
 -0.4174 -0.0131 -0.0001
 -0.1712 -0.4961 -0.0003
 generating redundant internal coords
         300        3600          12
 Adding extra bonds for z output only
           6           6           6          16           6           6
           6          16           1           1           1           1
 search for int coords
   1 str   2   1   1.409
   2 str   3   2   1.383
   3 str   4   3   1.761
   4 str   5   4   1.713
   5 str   6   5   1.409
   6 str   7   3   1.422
   7 str   7   6   1.383
   8 str   8   1   1.713
   9 str   8   7   1.761
  10 str   9   1   1.082
  11 str  10   2   1.081
  12 str  11   5   1.082
  13 str  12   6   1.081
 nber stretches=          13
  14 ben   1   2   3
  15 prop tor   1   2   3   4
  16 prop tor   1   2   3   7
  17 ben   1   2  10
  18 ben   1   8   7
  19 ben   2   1   8
  20 prop tor   2   1   8   7
  21 ben   2   1   9
  22 ben   2   3   4
  23 prop tor   2   3   4   5
  24 ben   2   3   7
  25 prop tor   2   3   7   6
  26 prop tor   2   3   7   8
  27 ben   3   2  10
  28 ben   3   4   5
  29 prop tor   3   4   5   6
  30 prop tor   3   4   5  11
  31 ben   3   7   6
  32 ben   3   7   8
  33 prop tor   3   7   8   1
  34 ben   4   3   7
  35 prop tor   4   3   7   6
  36 prop tor   4   3   7   8
  37 ben   4   5   6
  38 prop tor   4   5   6   7
  39 prop tor   4   5   6  12
  40 ben   4   5  11
  41 ben   5   6   7
  42 prop tor   5   6   7   3
  43 prop tor   5   6   7   8
  44 ben   5   6  12
  45 ben   6   5  11
  46 ben   6   7   8
  47 prop tor   6   7   8   1
  48 prop tor   7   3   4   5
  49 ben   7   6  12
  50 prop tor   8   1   2   3
  51 prop tor   8   1   2  10
  52 ben   8   1   9
  53 prop tor   9   1   2   3
  54 prop tor   9   1   2  10
  55 prop tor   9   1   8   7
  56 prop tor  10   2   3   4
  57 prop tor  10   2   3   7
  58 prop tor  11   5   6   7
  59 prop tor  11   5   6  12
  60 prop tor  12   6   7   3
  61 prop tor  12   6   7   8
 nber bend=              20
 nber lin bend=           0
 nber prop tor=          28
 nber impr tor=           0
 nber tot redund int=          61
 Reading file: 
 ./TT_0_C0S0.log                                                                
                                          
  Entering Gaussian System, Link 0=g16                                          
  
 Gaussian format, type: g94, g98, g03= F F F
  #P Geom=AllCheck Guess=TCheck SCRF=Check GenChk RB3LYP/6-311G(d,p) Fre    
 energy type= B3LYP   
 Original G94 input coords:
  6 -2.294379 -0.043997 -0.000797
  6 -1.445641 -1.110761 -0.001425
  6 -0.085649 -0.685890 -0.001007
 16  1.460598 -1.490273 -0.001392
  6  2.288942  0.050839 -0.000284
  6  1.440205  1.117600  0.000346
  6  0.080208  0.692743 -0.000072
 16 -1.466049  1.497103  0.000313
  1 -3.373458 -0.056942 -0.000912
  1 -1.776858 -2.139791 -0.002145
  1  3.368017  0.063777 -0.000170
  1  1.771433  2.146633  0.001066
 nber atoms=          12
  SCF Done:  E(RB3LYP) =  -1027.50831478     A.U. after    1 cycles             
  
          23          40 "  -1027.50831478"
After scan for Atom:   Atom  AN      X      Y      Z        X      Y      Z        X      Y      Z   
After scan for Atom:   Atom  AN      X      Y      Z        X      Y      Z        X      Y      Z   
After scan for Atom:   Atom  AN      X      Y      Z        X      Y      Z        X      Y      Z   
After scan for Atom:   Atom  AN      X      Y      Z        X      Y      Z        X      Y      Z   
After scan for Atom:   Atom  AN      X      Y      Z        X      Y      Z        X      Y      Z   
After scan for Atom:   Atom  AN      X      Y      Z        X      Y      Z        X      Y      Z   
After scan for Atom:   Atom  AN      X      Y      Z        X      Y      Z        X      Y      Z   
After scan for Atom:   Atom  AN      X      Y      Z        X      Y      Z        X      Y      Z   
After scan for Atom:   Atom  AN      X      Y      Z        X      Y      Z        X      Y      Z   
After scan for Atom:   Atom  AN      X      Y      Z        X      Y      Z        X      Y      Z   
 g94    frequencies=
     0.0    0.0    0.0    0.0    0.0    0.0  192.3  213.0  351.5  446.8
   453.5  511.1  552.3  622.0  631.2  668.0  734.1  755.1  779.2  858.9
   875.5  879.3  929.5 1100.4 1121.7 1197.0 1213.5 1360.6 1379.4 1455.5
  1496.1 1536.9 3212.1 3212.4 3243.5 3243.7
 g94    symmetries=
                                                 A      A      A      A
       A      A      A      A      A      A      A      A      A      A
       A      A      A      A      A      A      A      A      A      A
       A      A      A      A      A      A
 atomic masses:
 12.0000 12.0000 12.0000 31.9721 12.0000 12.0000 12.0000 31.9721  1.0078  1.0078
  1.0078  1.0078
 looking for force constants in 
 ./TT_0_C0S0.fchk                                                               
  
 Cartesian Force Constants                  R   N=         666                  
  
 n3=          36         666
 g94-fc frequencies=
    -0.5   -0.0   -0.0   -0.0    5.7   11.4  192.3  213.0  351.5  446.8
   453.5  511.1  552.3  622.0  631.2  668.0  734.2  755.1  779.2  858.9
   875.6  879.3  929.6 1100.4 1121.7 1197.1 1213.5 1360.7 1379.4 1455.5
  1496.2 1537.0 3212.2 3212.4 3243.6 3243.7
 at 99999: n3=          36
 symm operator            1 :  F  nop=           0
 symm operator            2 :  F  nop=           0
 symm operator            3 :  F  nop=           0
 symm operator            4 :  F  nop=           0
 symm operator            5 :  F  nop=           0
 symm operator            6 :  F  nop=           0
 symm operator            7 :  F  nop=           0
 The point group of the molecule is  C1
 Symmetry rotation matrix:
   1.00000   0.00000   0.00000
   0.00000   1.00000   0.00000
   0.00000   0.00000   1.00000

 Projecting out zero-frequency components
 generating redundant internal coords
         300        3600          12
 search for int coords
   1 str   2   1   1.363
   2 str   3   2   1.425
   3 str   4   3   1.743
   4 str   5   4   1.750
   5 str   6   5   1.363
   6 str   7   3   1.389
   7 str   7   6   1.425
   8 str   8   1   1.750
   9 str   8   7   1.743
  10 str   9   1   1.079
  11 str  10   2   1.081
  12 str  11   5   1.079
  13 str  12   6   1.081
 nber stretches=          13
  14 ben   1   2   3
  15 prop tor   1   2   3   4
  16 prop tor   1   2   3   7
  17 ben   1   2  10
  18 ben   1   8   7
  19 ben   2   1   8
  20 prop tor   2   1   8   7
  21 ben   2   1   9
  22 ben   2   3   4
  23 prop tor   2   3   4   5
  24 ben   2   3   7
  25 prop tor   2   3   7   6
  26 prop tor   2   3   7   8
  27 ben   3   2  10
  28 ben   3   4   5
  29 prop tor   3   4   5   6
  30 prop tor   3   4   5  11
  31 ben   3   7   6
  32 ben   3   7   8
  33 prop tor   3   7   8   1
  34 ben   4   3   7
  35 prop tor   4   3   7   6
  36 prop tor   4   3   7   8
  37 ben   4   5   6
  38 prop tor   4   5   6   7
  39 prop tor   4   5   6  12
  40 ben   4   5  11
  41 ben   5   6   7
  42 prop tor   5   6   7   3
  43 prop tor   5   6   7   8
  44 ben   5   6  12
  45 ben   6   5  11
  46 ben   6   7   8
  47 prop tor   6   7   8   1
  48 prop tor   7   3   4   5
  49 ben   7   6  12
  50 prop tor   8   1   2   3
  51 prop tor   8   1   2  10
  52 ben   8   1   9
  53 prop tor   9   1   2   3
  54 prop tor   9   1   2  10
  55 prop tor   9   1   8   7
  56 prop tor  10   2   3   4
  57 prop tor  10   2   3   7
  58 prop tor  11   5   6   7
  59 prop tor  11   5   6  12
  60 prop tor  12   6   7   3
  61 prop tor  12   6   7   8
 nber bend=              20
 nber lin bend=           0
 nber prop tor=          28
 nber impr tor=           0
 nber tot redund int=          61
 Eigenvalues of G in red int coords
    Gval -0.00000000 -0.00000000 -0.00000000 -0.00000000 -0.00000000 -0.00000000 -0.00000000 -0.00000000
    Gval -0.00000000 -0.00000000 -0.00000000 -0.00000000 -0.00000000 -0.00000000 -0.00000000 -0.00000000
    Gval  0.00000000  0.00000000  0.00000000  0.00000000  0.00000000  0.00000000  0.00000000  0.00000000
    Gval  0.00000000  0.00000000  0.00000000  0.00000000  0.00000000  0.00000000  0.00000000  0.00001787
    Gval  0.00002709  0.00003478  0.00004582  0.00005227  0.00007851  0.00009815  0.00010877  0.00011051
    Gval  0.00015442  0.00016115  0.00023437  0.00028987  0.00030763  0.00037153  0.00038416  0.00059652
    Gval  0.00059669  0.00061195  0.00062065  0.00062522  0.00108038  0.00108189  0.00118565  0.00118784
    Gval  0.00127454  0.00202507  0.00214620  0.00397142  0.00397944
  1.786553222800266E-005  1.786553222800266E-005
  2.709296600979178E-005  1.786553222800266E-005
  3.478125046904640E-005  1.786553222800266E-005
  4.582165377170035E-005  1.786553222800266E-005
  5.226841261500249E-005  1.786553222800266E-005
  7.851065214273011E-005  1.786553222800266E-005
  9.815456647275337E-005  1.786553222800266E-005
  1.087730519892042E-004  1.786553222800266E-005
  1.105079908045699E-004  1.786553222800266E-005
  1.544224721447600E-004  1.786553222800266E-005
  1.611486198185825E-004  1.786553222800266E-005
  2.343692582852103E-004  1.786553222800266E-005
  2.898720230074193E-004  1.786553222800266E-005
  3.076341521846931E-004  1.786553222800266E-005
  3.715330046069805E-004  1.786553222800266E-005
  3.841595276831605E-004  1.786553222800266E-005
  5.965205068200745E-004  1.786553222800266E-005
  5.966897589033175E-004  1.786553222800266E-005
  6.119475477924021E-004  1.786553222800266E-005
  6.206508484543980E-004  1.786553222800266E-005
  6.252214792128761E-004  1.786553222800266E-005
  1.080378844485440E-003  1.786553222800266E-005
  1.081891769872678E-003  1.786553222800266E-005
  1.185651164078387E-003  1.786553222800266E-005
  1.187836451116534E-003  1.786553222800266E-005
  1.274544285642770E-003  1.786553222800266E-005
  2.025067584122280E-003  1.786553222800266E-005
  2.146200963706737E-003  1.786553222800266E-005
  3.971419054365585E-003  1.786553222800266E-005
  3.979437539828050E-003  1.786553222800266E-005
 cut=1d-8, nber non-redundant internal coords=          30
 Check on Eigenvals of non-red overlap matrix:
  0.00001787  0.00002709  0.00003478  0.00004582  0.00005227  0.00007851  0.00009815  0.00010877
  0.00011051  0.00015442  0.00016115  0.00023437  0.00028987  0.00030763  0.00037153  0.00038416
  0.00059652  0.00059669  0.00061195  0.00062065  0.00062522  0.00108038  0.00108189  0.00118565
  0.00118784  0.00127454  0.00202507  0.00214620  0.00397142  0.00397944
 Checking for correct frequencies
 recalc frequencies=
    -0.0   -0.0   -0.0    0.0    0.0    0.0  192.3  213.0  351.5  446.8
   453.5  511.1  552.3  622.0  631.2  668.0  734.2  755.1  779.2  858.9
   875.6  879.3  929.6 1100.4 1121.7 1197.1 1213.5 1360.7 1379.4 1455.5
  1496.2 1537.0 3212.2 3212.4 3243.6 3243.7
 recalc symmetries=
                                                                       
                                                                       
                                                                       
                                           
 recalc freqs check OK
 Zero-point lengths:
 10.0000 10.0000 10.0000 10.0000 10.0000 10.0000 17.8795 16.9865 13.2229 11.7281
 11.6414 10.9656 10.5492  9.9402  9.8675  9.5920  9.1495  9.0217  8.8812  8.4589
  8.3783  8.3604  8.1313  7.4734  7.4021  7.1653  7.1166  6.7208  6.6750  6.4981
  6.4092  6.3236  4.3742  4.3740  4.3530  4.3528
 highest evec of mol 2
 -0.1867  0.0078 -0.0000
 -0.0112 -0.0659 -0.0000
  0.0073  0.0020  0.0000
  0.0002  0.0017  0.0000
 -0.2120  0.0088 -0.0000
 -0.0125 -0.0742 -0.0001
  0.0076  0.0022  0.0000
  0.0001  0.0015  0.0000
  0.6014  0.0045  0.0001
  0.0564  0.1808  0.0001
  0.6831  0.0052  0.0001
  0.0635  0.2036  0.0001
 Enter nber and list of atoms to keep of mol #2
 keep list:          12           1           2           3           4
           5           6           7           8           9          10
          11          12
 reordering atoms
           1  -2.05622164322857     
           2 -0.835757870685214     
           3  0.216604377209519     
           4   1.95797786173910     
           5   2.05622629856002     
           6  0.835764701348437     
           7 -0.216608001905514     
           8  -1.95798081230139     
           9  -3.02841126124600     
          10 -0.700328503465411     
          11   3.02841525531293     
          12  0.700344030663968     
           1           1
           2           2
           3           3
           4           4
           5           5
           6           6
           7           7
           8           8
           9           9
          10          10
          11          11
          12          12
 initial cartes coords mol 1
   6  -0.00000   1.02990  -2.01773
   6   0.00000   1.63241  -0.74409
   6   0.00000   0.66705   0.24559
  16  -0.00000   0.68301   2.00680
   6   0.00000  -1.02990   2.01774
   6  -0.00000  -1.63240   0.74410
   6  -0.00000  -0.66704  -0.24559
  16   0.00000  -0.68302  -2.00681
   1  -0.00000   1.55279  -2.96517
   1   0.00000   2.70399  -0.60028
   1   0.00001  -1.55280   2.96516
   1  -0.00000  -2.70398   0.60029
 initial cartes coords mol 2
   6  -0.00000   1.01286  -2.05622
   6  -0.00000   1.62016  -0.83576
   6   0.00000   0.65963   0.21660
  16   0.00000   0.73399   1.95798
   6  -0.00000  -1.01287   2.05623
   6   0.00000  -1.62017   0.83576
   6  -0.00000  -0.65964  -0.21661
  16   0.00000  -0.73398  -1.95798
   1  -0.00000   1.48129  -3.02841
   1  -0.00000   2.69267  -0.70033
   1  -0.00000  -1.48129   3.02842
   1   0.00000  -2.69268   0.70034
 loop 1 0
 mod cartes coords mol 2
   6  -0.00000   1.01286  -2.05622
   6  -0.00000   1.62016  -0.83576
   6   0.00000   0.65963   0.21660
  16   0.00000   0.73399   1.95798
   6  -0.00000  -1.01287   2.05623
   6   0.00000  -1.62017   0.83576
   6  -0.00000  -0.65964  -0.21661
  16   0.00000  -0.73398  -1.95798
   1  -0.00000   1.48129  -3.02841
   1  -0.00000   2.69267  -0.70033
   1  -0.00000  -1.48129   3.02842
   1   0.00000  -2.69268   0.70034
 read in order, maxerr=  0.10 for atom  12
 final axis swaps:           1           1           1
 final xyz swap pattern=           1
 reorder list:
   1   2   3   4   5   6   7   8   9  10  11  12
 axis signs=           1           1           1
  6    -0.000000  1.012863 -2.056222    -0.000000  1.029902 -2.017734
  6    -0.000000  1.620161 -0.835758     0.000002  1.632411 -0.744095
  6     0.000001  0.659626  0.216604     0.000001  0.667049  0.245591
 16     0.000000  0.733992  1.957978    -0.000001  0.683010  2.006803
  6    -0.000001 -1.012870  2.056226     0.000003 -1.029899  2.017735
  6     0.000001 -1.620165  0.835765    -0.000002 -1.632404  0.744102
  6    -0.000000 -0.659641 -0.216608    -0.000001 -0.667044 -0.245590
 16     0.000000 -0.733982 -1.957981     0.000000 -0.683015 -2.006807
  1    -0.000001  1.481293 -3.028411    -0.000003  1.552795 -2.965169
  1    -0.000001  2.692666 -0.700329     0.000001  2.703990 -0.600282
  1    -0.000002 -1.481292  3.028415     0.000007 -1.552800  2.965165
  1     0.000002 -2.692678  0.700344    -0.000001 -2.703984  0.600293
 generating redundant internal coords
         300        3600          12
 Adding extra bonds for z output only
           6           6           6          16           6           6
           6          16           1           1           1           1
 search for int coords
   1 str   2   1   1.363
   2 str   3   2   1.425
   3 str   4   3   1.743
   4 str   5   4   1.750
   5 str   6   5   1.363
   6 str   7   3   1.389
   7 str   7   6   1.425
   8 str   8   1   1.750
   9 str   8   7   1.743
  10 str   9   1   1.079
  11 str  10   2   1.081
  12 str  11   5   1.079
  13 str  12   6   1.081
 nber stretches=          13
  14 ben   1   2   3
  15 prop tor   1   2   3   4
  16 prop tor   1   2   3   7
  17 ben   1   2  10
  18 ben   1   8   7
  19 ben   2   1   8
  20 prop tor   2   1   8   7
  21 ben   2   1   9
  22 ben   2   3   4
  23 prop tor   2   3   4   5
  24 ben   2   3   7
  25 prop tor   2   3   7   6
  26 prop tor   2   3   7   8
  27 ben   3   2  10
  28 ben   3   4   5
  29 prop tor   3   4   5   6
  30 prop tor   3   4   5  11
  31 ben   3   7   6
  32 ben   3   7   8
  33 prop tor   3   7   8   1
  34 ben   4   3   7
  35 prop tor   4   3   7   6
  36 prop tor   4   3   7   8
  37 ben   4   5   6
  38 prop tor   4   5   6   7
  39 prop tor   4   5   6  12
  40 ben   4   5  11
  41 ben   5   6   7
  42 prop tor   5   6   7   3
  43 prop tor   5   6   7   8
  44 ben   5   6  12
  45 ben   6   5  11
  46 ben   6   7   8
  47 prop tor   6   7   8   1
  48 prop tor   7   3   4   5
  49 ben   7   6  12
  50 prop tor   8   1   2   3
  51 prop tor   8   1   2  10
  52 ben   8   1   9
  53 prop tor   9   1   2   3
  54 prop tor   9   1   2  10
  55 prop tor   9   1   8   7
  56 prop tor  10   2   3   4
  57 prop tor  10   2   3   7
  58 prop tor  11   5   6   7
  59 prop tor  11   5   6  12
  60 prop tor  12   6   7   3
  61 prop tor  12   6   7   8
 nber bend=              20
 nber lin bend=           0
 nber prop tor=          28
 nber impr tor=           0
 nber tot redund int=          61
 generating redundant internal coords
         300        3600          12
 search for int coords
   1 str   2   1   1.409
   2 str   3   2   1.383
   3 str   4   3   1.761
   4 str   5   4   1.713
   5 str   6   5   1.409
   6 str   7   3   1.422
   7 str   7   6   1.383
   8 str   8   1   1.713
   9 str   8   7   1.761
  10 str   9   1   1.082
  11 str  10   2   1.081
  12 str  11   5   1.082
  13 str  12   6   1.081
 nber stretches=          13
  14 ben   1   2   3
  15 prop tor   1   2   3   4
  16 prop tor   1   2   3   7
  17 ben   1   2  10
  18 ben   1   8   7
  19 ben   2   1   8
  20 prop tor   2   1   8   7
  21 ben   2   1   9
  22 ben   2   3   4
  23 prop tor   2   3   4   5
  24 ben   2   3   7
  25 prop tor   2   3   7   6
  26 prop tor   2   3   7   8
  27 ben   3   2  10
  28 ben   3   4   5
  29 prop tor   3   4   5   6
  30 prop tor   3   4   5  11
  31 ben   3   7   6
  32 ben   3   7   8
  33 prop tor   3   7   8   1
  34 ben   4   3   7
  35 prop tor   4   3   7   6
  36 prop tor   4   3   7   8
  37 ben   4   5   6
  38 prop tor   4   5   6   7
  39 prop tor   4   5   6  12
  40 ben   4   5  11
  41 ben   5   6   7
  42 prop tor   5   6   7   3
  43 prop tor   5   6   7   8
  44 ben   5   6  12
  45 ben   6   5  11
  46 ben   6   7   8
  47 prop tor   6   7   8   1
  48 prop tor   7   3   4   5
  49 ben   7   6  12
  50 prop tor   8   1   2   3
  51 prop tor   8   1   2  10
  52 ben   8   1   9
  53 prop tor   9   1   2   3
  54 prop tor   9   1   2  10
  55 prop tor   9   1   8   7
  56 prop tor  10   2   3   4
  57 prop tor  10   2   3   7
  58 prop tor  11   5   6   7
  59 prop tor  11   5   6  12
  60 prop tor  12   6   7   3
  61 prop tor  12   6   7   8
 nber bend=              20
 nber lin bend=           0
 nber prop tor=          28
 nber impr tor=           0
 nber tot redund int=          61
 Eigenvalues of G in red int coords
    Gval -0.00000000 -0.00000000 -0.00000000 -0.00000000 -0.00000000 -0.00000000 -0.00000000 -0.00000000
    Gval -0.00000000 -0.00000000 -0.00000000 -0.00000000 -0.00000000 -0.00000000  0.00000000  0.00000000
    Gval  0.00000000  0.00000000  0.00000000  0.00000000  0.00000000  0.00000000  0.00000000  0.00000000
    Gval  0.00000000  0.00000000  0.00000000  0.00000000  0.00000000  0.00000000  0.00000000  0.00001796
    Gval  0.00002732  0.00003502  0.00004584  0.00005211  0.00007913  0.00009979  0.00010838  0.00011105
    Gval  0.00015230  0.00016166  0.00022905  0.00029188  0.00030328  0.00036887  0.00038263  0.00059646
    Gval  0.00059665  0.00062091  0.00062562  0.00062958  0.00107983  0.00108110  0.00117604  0.00117884
    Gval  0.00126449  0.00200214  0.00212272  0.00392271  0.00393706
  1.795550658774883E-005  1.795550658774883E-005
  2.731651167244990E-005  1.795550658774883E-005
  3.501929883154966E-005  1.795550658774883E-005
  4.583647915916960E-005  1.795550658774883E-005
  5.210846245797715E-005  1.795550658774883E-005
  7.912963340729459E-005  1.795550658774883E-005
  9.979116294037320E-005  1.795550658774883E-005
  1.083821709973720E-004  1.795550658774883E-005
  1.110507418801116E-004  1.795550658774883E-005
  1.523034232656483E-004  1.795550658774883E-005
  1.616597392081909E-004  1.795550658774883E-005
  2.290488432803011E-004  1.795550658774883E-005
  2.918788863182505E-004  1.795550658774883E-005
  3.032801383008018E-004  1.795550658774883E-005
  3.688702868801655E-004  1.795550658774883E-005
  3.826273298078007E-004  1.795550658774883E-005
  5.964600740602058E-004  1.795550658774883E-005
  5.966451004584762E-004  1.795550658774883E-005
  6.209135720075632E-004  1.795550658774883E-005
  6.256190704398598E-004  1.795550658774883E-005
  6.295802957474101E-004  1.795550658774883E-005
  1.079831294167029E-003  1.795550658774883E-005
  1.081100407405900E-003  1.795550658774883E-005
  1.176035730826441E-003  1.795550658774883E-005
  1.178844876325204E-003  1.795550658774883E-005
  1.264494629027835E-003  1.795550658774883E-005
  2.002143008112556E-003  1.795550658774883E-005
  2.122718698985550E-003  1.795550658774883E-005
  3.922712409749054E-003  1.795550658774883E-005
  3.937057536193044E-003  1.795550658774883E-005
 cut=1d-8, nber non-redundant internal coords=          30
 Check on Eigenvals of non-red overlap matrix:
  0.00001796  0.00002732  0.00003502  0.00004584  0.00005211  0.00007913  0.00009979  0.00010838
  0.00011105  0.00015230  0.00016166  0.00022905  0.00029188  0.00030328  0.00036887  0.00038263
  0.00059646  0.00059665  0.00062091  0.00062562  0.00062958  0.00107983  0.00108110  0.00117604
  0.00117884  0.00126449  0.00200214  0.00212272  0.00392271  0.00393706
 generating redundant internal coords
         300        3600          12
 search for int coords
   1 str   2   1   1.363
   2 str   3   2   1.425
   3 str   4   3   1.743
   4 str   5   4   1.750
   5 str   6   5   1.363
   6 str   7   3   1.389
   7 str   7   6   1.425
   8 str   8   1   1.750
   9 str   8   7   1.743
  10 str   9   1   1.079
  11 str  10   2   1.081
  12 str  11   5   1.079
  13 str  12   6   1.081
 nber stretches=          13
  14 ben   1   2   3
  15 prop tor   1   2   3   4
  16 prop tor   1   2   3   7
  17 ben   1   2  10
  18 ben   1   8   7
  19 ben   2   1   8
  20 prop tor   2   1   8   7
  21 ben   2   1   9
  22 ben   2   3   4
  23 prop tor   2   3   4   5
  24 ben   2   3   7
  25 prop tor   2   3   7   6
  26 prop tor   2   3   7   8
  27 ben   3   2  10
  28 ben   3   4   5
  29 prop tor   3   4   5   6
  30 prop tor   3   4   5  11
  31 ben   3   7   6
  32 ben   3   7   8
  33 prop tor   3   7   8   1
  34 ben   4   3   7
  35 prop tor   4   3   7   6
  36 prop tor   4   3   7   8
  37 ben   4   5   6
  38 prop tor   4   5   6   7
  39 prop tor   4   5   6  12
  40 ben   4   5  11
  41 ben   5   6   7
  42 prop tor   5   6   7   3
  43 prop tor   5   6   7   8
  44 ben   5   6  12
  45 ben   6   5  11
  46 ben   6   7   8
  47 prop tor   6   7   8   1
  48 prop tor   7   3   4   5
  49 ben   7   6  12
  50 prop tor   8   1   2   3
  51 prop tor   8   1   2  10
  52 ben   8   1   9
  53 prop tor   9   1   2   3
  54 prop tor   9   1   2  10
  55 prop tor   9   1   8   7
  56 prop tor  10   2   3   4
  57 prop tor  10   2   3   7
  58 prop tor  11   5   6   7
  59 prop tor  11   5   6  12
  60 prop tor  12   6   7   3
  61 prop tor  12   6   7   8
 nber bend=              20
 nber lin bend=           0
 nber prop tor=          28
 nber impr tor=           0
 nber tot redund int=          61
 Eigenvalues of G in red int coords
    Gval -0.00000000 -0.00000000 -0.00000000 -0.00000000 -0.00000000 -0.00000000 -0.00000000 -0.00000000
    Gval -0.00000000 -0.00000000 -0.00000000 -0.00000000 -0.00000000 -0.00000000 -0.00000000 -0.00000000
    Gval -0.00000000 -0.00000000 -0.00000000  0.00000000  0.00000000  0.00000000  0.00000000  0.00000000
    Gval  0.00000000  0.00000000  0.00000000  0.00000000  0.00000000  0.00000000  0.00000000  0.00001787
    Gval  0.00002709  0.00003478  0.00004582  0.00005227  0.00007851  0.00009815  0.00010877  0.00011051
    Gval  0.00015442  0.00016115  0.00023437  0.00028987  0.00030763  0.00037153  0.00038416  0.00059652
    Gval  0.00059669  0.00061195  0.00062065  0.00062522  0.00108038  0.00108189  0.00118565  0.00118784
    Gval  0.00127454  0.00202507  0.00214620  0.00397142  0.00397944
  1.786553222800262E-005  1.786553222800262E-005
  2.709296600979175E-005  1.786553222800262E-005
  3.478125046904641E-005  1.786553222800262E-005
  4.582165377170034E-005  1.786553222800262E-005
  5.226841261500250E-005  1.786553222800262E-005
  7.851065214273008E-005  1.786553222800262E-005
  9.815456647275348E-005  1.786553222800262E-005
  1.087730519892042E-004  1.786553222800262E-005
  1.105079908045700E-004  1.786553222800262E-005
  1.544224721447599E-004  1.786553222800262E-005
  1.611486198185826E-004  1.786553222800262E-005
  2.343692582852106E-004  1.786553222800262E-005
  2.898720230074190E-004  1.786553222800262E-005
  3.076341521846932E-004  1.786553222800262E-005
  3.715330046069813E-004  1.786553222800262E-005
  3.841595276831597E-004  1.786553222800262E-005
  5.965205068200743E-004  1.786553222800262E-005
  5.966897589033169E-004  1.786553222800262E-005
  6.119475477924010E-004  1.786553222800262E-005
  6.206508484543987E-004  1.786553222800262E-005
  6.252214792128761E-004  1.786553222800262E-005
  1.080378844485443E-003  1.786553222800262E-005
  1.081891769872679E-003  1.786553222800262E-005
  1.185651164078392E-003  1.786553222800262E-005
  1.187836451116534E-003  1.786553222800262E-005
  1.274544285642771E-003  1.786553222800262E-005
  2.025067584122281E-003  1.786553222800262E-005
  2.146200963706738E-003  1.786553222800262E-005
  3.971419054365585E-003  1.786553222800262E-005
  3.979437539828051E-003  1.786553222800262E-005
 cut=1d-8, nber non-redundant internal coords=          30
 Check on Eigenvals of non-red overlap matrix:
  0.00001787  0.00002709  0.00003478  0.00004582  0.00005227  0.00007851  0.00009815  0.00010877
  0.00011051  0.00015442  0.00016115  0.00023437  0.00028987  0.00030763  0.00037153  0.00038416
  0.00059652  0.00059669  0.00061195  0.00062065  0.00062522  0.00108038  0.00108189  0.00118565
  0.00118784  0.00127454  0.00202507  0.00214620  0.00397142  0.00397944
 d1=
   4.3   0.0  14.0  -4.7  -0.0  -0.0  -0.0   0.0   5.3   4.0  -0.0   0.0  -0.0   0.8  -0.0  -1.3   0.4  -0.0  -0.0   0.5
  -0.0  -0.0   2.0   0.0  -0.1   0.0  -0.0   0.0   0.0   0.0
 d2=
   4.3  -0.0  14.0   4.8  -0.0   0.0  -0.0  -0.0  -5.2  -4.0   0.0   0.0  -0.0   0.5   0.0   1.4  -0.4   0.0   0.0   0.0
  -0.5  -0.0  -2.0   0.0  -0.0  -0.0   0.0  -0.0  -0.0  -0.0
 curvilinear- renormalizn of Dush matrix done
  mol 1 sym            1  -> mol 2 sym            1

 Dushinsky matrix, ncs 2 in terms of ncs 1

   mode   freq    coeff     %      %tot     of    at

   1        -0. -0.0000     0.0     0.0   7       187.
   2        -0. -0.0000     0.0     0.0   7       187.
   3        -0.  0.0000     0.0     0.0   7       187.
   4         0.  0.0000     0.0     0.0   8       213.
   5         0. -0.0000     0.0     0.0   7       187.
   6         0.  0.0000     0.0     0.0   7       187.
   7       192.  0.9767    95.4   101.5   8       213.
   8       213. -0.9736    94.8    96.6   7       187.
   9       352.  0.9993    99.9    99.2   9       354.
  10       447.  0.9834    96.7   100.9  10       422.
  11       453.  0.9969    99.4    99.1  11       444.
  12       511.  0.9908    98.2    98.8  12       461.
  13       552.  0.9835    96.7    99.6  13       520.
  14       622.  0.8696    75.6   101.0  14       632.
                 0.4917    24.2          18       771.
  15       631. -0.9923    98.5    99.4  15       647.
  16       668. -0.9959    99.2   101.6  19       784.
  17       734.  0.4678    21.9   100.2  14       632.
                -0.8647    74.8          18       771.
  18       755. -0.9512    90.5    99.8  16       763.
  19       779.  0.9503    90.3    99.9  17       764.
  20       859.  0.9617    92.5   102.1  20       862.
  21       876. -0.9902    98.1   101.7  22       909.
  22       879.  0.9938    98.8   101.8  21       907.
  23       930.  0.9452    89.3    99.8  23       922.
  24      1100.  0.9742    94.9   100.4  25      1093.
  25      1122.  0.9392    88.2   100.5  24      1085.
  26      1197.  0.9488    90.0   101.5  26      1175.
  27      1214. -0.9748    95.0   100.1  27      1263.
  28      1361. -0.9277    86.1   100.7  28      1337.
  29      1379. -0.9688    93.9   101.4  31      1473.
  30      1456.  0.4540    20.6   101.2  30      1377.
                 0.8438    71.2          32      1533.
  31      1496.  0.9410    88.6    98.7  29      1358.
  32      1537. -0.8534    72.8    98.2  30      1377.
                 0.4630    21.4          32      1533.
  33      3212. -0.8252    68.1   100.0  33      3222.
                 0.5546    30.8          36      3234.
  34      3212.  0.8253    68.1   100.0  34      3222.
                 0.5545    30.7          35      3234.
  35      3243.  0.5571    31.0   100.0  34      3222.
                -0.8277    68.5          35      3234.
  36      3244. -0.5572    31.0   100.0  33      3222.
                -0.8277    68.5          36      3234.
 nber times 1st assigned=           1           0
 nber times 1st assigned=           2           0
 nber times 1st assigned=           3           0
 nber times 1st assigned=           4           0
 nber times 1st assigned=           5           0
 nber times 1st assigned=           6           0
 nber times 1st assigned=           7           5
 nber times 1st assigned=           9           0
 nber times 1st assigned=          10           0
 nber times 1st assigned=          11           0
 nber times 1st assigned=          12           0
 nber times 1st assigned=          13           0
 nber times 1st assigned=          14           0
 nber times 1st assigned=          15           0
 nber times 1st assigned=          16           0
 nber times 1st assigned=          17           0
 nber times 1st assigned=          18           0
 nber times 1st assigned=          19           0
 nber times 1st assigned=          20           0
 nber times 1st assigned=          21           0
 nber times 1st assigned=          22           0
 nber times 1st assigned=          23           0
 nber times 1st assigned=          24           0
 nber times 1st assigned=          25           0
 nber times 1st assigned=          26           0
 nber times 1st assigned=          27           0
 nber times 1st assigned=          28           0
 nber times 1st assigned=          29           0
 nber times 1st assigned=          30           0
 nber times 1st assigned=          31           0
 nber times 1st assigned=          32           0
 nber times 1st assigned=          33           0
 nber times 1st assigned=          34           0
 nber times 1st assigned=          35           0
 nber times 1st assigned=          36           0
 Dushinsky matrix written to .out file
 modes represented=   30.0592609772769     

 Dushinsky matrix, ncs 1 in terms of ncs 2

   mode   freq    coeff     %      %tot     of    at

   7       187. -0.9736    94.8    95.5   8       213.
   8       213.  0.9767    95.4   103.4   7       192.
   9       354.  0.9993    99.9    99.5   9       352.
  10       422.  0.9834    96.7   100.6  10       447.
  11       444.  0.9969    99.4    99.1  11       453.
  12       461.  0.9908    98.2    98.5  12       511.
  13       520.  0.9835    96.7    99.6  13       552.
  14       632.  0.8696    75.6   100.4  14       622.
                 0.4678    21.9          17       734.
  15       647. -0.9923    98.5    99.4  15       631.
  16       763. -0.9512    90.5   100.3  18       755.
  17       764.  0.9503    90.3    98.9  19       779.
  18       771.  0.4917    24.2   101.7  14       622.
                -0.8647    74.8          17       734.
  19       784. -0.9959    99.2   101.5  16       668.
  20       862.  0.9617    92.5   102.2  20       859.
  21       907.  0.9938    98.8   101.5  22       879.
  22       909. -0.9902    98.1   101.1  21       876.
  23       922.  0.9452    89.3   100.9  23       930.
  24      1085.  0.9392    88.2   100.3  25      1122.
  25      1093.  0.9742    94.9   100.1  24      1100.
  26      1175.  0.9488    90.0   101.0  26      1197.
  27      1263. -0.9748    95.0   100.3  27      1214.
  28      1337. -0.9277    86.1   100.4  28      1361.
  29      1358.  0.9410    88.6    98.7  31      1496.
  30      1377.  0.4540    20.6    98.2  30      1456.
                -0.8534    72.8          32      1537.
  31      1473. -0.9688    93.9   101.2  29      1379.
  32      1533.  0.8438    71.2   101.6  30      1456.
                 0.4630    21.4          32      1537.
  33      3222. -0.8252    68.1   100.0  33      3212.
                -0.5572    31.0          36      3244.
  34      3222.  0.8253    68.1   100.0  34      3212.
                 0.5571    31.0          35      3243.
  35      3234.  0.5545    30.7   100.0  34      3212.
                -0.8277    68.5          35      3243.
  36      3234.  0.5546    30.8   100.0  33      3212.
                -0.8277    68.5          36      3244.
 nber times 1st assigned=           1           0
 nber times 1st assigned=           2           0
 nber times 1st assigned=           3           0
 nber times 1st assigned=           4           0
 nber times 1st assigned=           5           0
 nber times 1st assigned=           6           0
 nber times 1st assigned=           7           0
 nber times 1st assigned=           8           0
 nber times 1st assigned=           9           0
 nber times 1st assigned=          10           0
 nber times 1st assigned=          11           0
 nber times 1st assigned=          12           0
 nber times 1st assigned=          13           0
 nber times 1st assigned=          14           0
 nber times 1st assigned=          15           0
 nber times 1st assigned=          16           0
 nber times 1st assigned=          17           0
 nber times 1st assigned=          18           0
 nber times 1st assigned=          19           0
 nber times 1st assigned=          20           0
 nber times 1st assigned=          21           0
 nber times 1st assigned=          22           0
 nber times 1st assigned=          23           0
 nber times 1st assigned=          24           0
 nber times 1st assigned=          25           0
 nber times 1st assigned=          26           0
 nber times 1st assigned=          27           0
 nber times 1st assigned=          28           0
 nber times 1st assigned=          29           0
 nber times 1st assigned=          30           0
 nber times 1st assigned=          31           0
 nber times 1st assigned=          32           0
 nber times 1st assigned=          33           0
 nber times 1st assigned=          34           0
 nber times 1st assigned=          35           0
 nber times 1st assigned=          36           0
 modes represented=   30.0592609772769     
 p1=
   -0.    0.   -0.    0.    0.    0.   -0.    0.    0.    0.   -8.   -0.   -9.    0.    0.    6.    0.   -0.   -0.   -5.
   -0.   -0.   -0.    0.   -4.   -1.   -0.   -5.    0.    2.    0.   -5.    0.    0.   -0.   -0.
 p2=
    0.    0.    0.   -0.   -0.    0.   -0.   -0.   -0.   -0.    9.    0.   10.   -0.    0.    0.   -0.    6.    0.    4.
   -0.    0.    0.    3.   -0.   -0.   -0.   -4.    0.    4.    0.    5.    0.   -0.   -0.    0.

 Displacement: in terms of nc of 1 THEN of nc of 2

   1     freq=    -0. Q= -0.000 lam=    -0.0     freq=    -0. Q= -0.000 lam=    -0.0
   2     freq=    -0. Q=  0.000 lam=    -0.0     freq=    -0. Q=  0.000 lam=    -0.0
   3     freq=    -0. Q= -0.000 lam=    -0.0     freq=    -0. Q= -0.000 lam=    -0.0
   4     freq=     0. Q=  0.000 lam=     0.0     freq=     0. Q=  0.000 lam=     0.0
   5     freq=     0. Q=  0.000 lam=     0.0     freq=     0. Q=  0.000 lam=     0.0
   6     freq=     0. Q=  0.000 lam=     0.0     freq=     0. Q=  0.000 lam=     0.0
   7     freq=   187. Q= -0.000 lam=     0.0     freq=   192. Q= -0.000 lam=     0.0
   8     freq=   213. Q=  0.000 lam=     0.0     freq=   213. Q=  0.000 lam=     0.0
   9     freq=   354. Q=  0.000 lam=     0.0     freq=   352. Q=  0.000 lam=     0.0
  10     freq=   422. Q=  0.000 lam=     0.0     freq=   447. Q=  0.000 lam=     0.0
  11     freq=   444. Q= -0.687 lam=   104.6     freq=   453. Q= -0.734 lam=   122.3
  12     freq=   461. Q= -0.000 lam=     0.0     freq=   511. Q= -0.000 lam=     0.0
  13     freq=   520. Q= -0.860 lam=   192.2     freq=   552. Q= -0.902 lam=   224.7
  14     freq=   632. Q=  0.000 lam=     0.0     freq=   622. Q=  0.000 lam=     0.0
  15     freq=   647. Q=  0.000 lam=     0.0     freq=   631. Q=  0.000 lam=     0.0
  16     freq=   763. Q=  0.656 lam=   164.2     freq=   668. Q=  0.000 lam=     0.0
  17     freq=   764. Q=  0.002 lam=     0.0     freq=   734. Q=  0.000 lam=     0.0
  18     freq=   771. Q= -0.000 lam=     0.0     freq=   755. Q= -0.715 lam=   192.8
  19     freq=   784. Q= -0.000 lam=     0.0     freq=   779. Q= -0.000 lam=     0.0
  20     freq=   862. Q= -0.606 lam=   158.4     freq=   859. Q= -0.488 lam=   102.2
  21     freq=   907. Q= -0.000 lam=     0.0     freq=   876. Q= -0.000 lam=     0.0
  22     freq=   909. Q= -0.000 lam=     0.0     freq=   879. Q= -0.000 lam=     0.0
  23     freq=   922. Q= -0.000 lam=     0.0     freq=   930. Q= -0.000 lam=     0.0
  24     freq=  1085. Q=  0.000 lam=     0.0     freq=  1100. Q=  0.383 lam=    80.8
  25     freq=  1093. Q= -0.526 lam=   150.9     freq=  1122. Q= -0.000 lam=     0.0
  26     freq=  1175. Q= -0.204 lam=    24.4     freq=  1197. Q= -0.051 lam=     1.6
  27     freq=  1263. Q= -0.000 lam=     0.0     freq=  1214. Q= -0.000 lam=     0.0
  28     freq=  1337. Q= -0.758 lam=   383.9     freq=  1361. Q= -0.588 lam=   235.0
  29     freq=  1358. Q=  0.000 lam=     0.0     freq=  1379. Q=  0.000 lam=     0.0
  30     freq=  1377. Q=  0.264 lam=    48.1     freq=  1456. Q=  0.668 lam=   325.0
  31     freq=  1473. Q=  0.000 lam=     0.0     freq=  1496. Q=  0.000 lam=     0.0
  32     freq=  1533. Q= -0.793 lam=   481.9     freq=  1537. Q= -0.763 lam=   447.7
  33     freq=  3222. Q=  0.000 lam=     0.0     freq=  3212. Q=  0.001 lam=     0.0
  34     freq=  3222. Q=  0.018 lam=     0.5     freq=  3212. Q=  0.012 lam=     0.2
  35     freq=  3234. Q= -0.024 lam=     0.9     freq=  3243. Q= -0.012 lam=     0.2
  36     freq=  3234. Q= -0.000 lam=     0.0     freq=  3244. Q= -0.001 lam=     0.0

 total reorg energy (cm**-1, kcal/mol)=     1710.     1733.      4.89      4.95
 Nber of molecules processed=           2
