 Enter ifcurve (0=recti, 1=orth curvi, 2=apprx curvi, -1 = skip
 And atom ordering flag, 0= never changes, 1= use the first order thenceforth,
  2= deduce it (does read on fail), 3= always read it
 Reading file: 
 ./PDI_4_C1S0.log                                                               
                                          
  Entering Gaussian System, Link 0=g16                                          
  
 Gaussian format, type: g94, g98, g03= F F F
  #P Geom=AllCheck Guess=TCheck SCRF=Check GenChk UB3LYP/6-311G(d,p) Fre    
 energy type= B3LYP   
 Original G94 input coords:
  6  1.103613  0.009579 -0.098573
  6  2.557245  0.025617 -0.067924
  6  3.756616  0.035670 -0.044817
  7  5.120280  0.044917 -0.017280
  6  5.784955 -1.194776  0.158337
  8  5.176470 -2.228163  0.279407
  6  7.275440 -1.149147  0.185069
  6  7.969755 -2.342966  0.356498
  6  9.356213 -2.344748  0.387067
  6 10.107462 -1.157965  0.248097
  6 11.555783 -1.148555  0.278568
  6 12.320017 -2.324196  0.449042
  6 13.706731 -2.302074  0.476662
  6 14.388672 -1.097183  0.334208
  6 15.886755 -1.105535  0.368498
  8 16.478807 -2.153919  0.518258
  7 16.544030  0.114921  0.223872
  6 18.053797  0.151344  0.253090
  6 18.595370 -0.285181  1.616604
  6 18.652678 -0.616354 -0.928018
  6 15.876654  1.332625  0.049458
  8 16.461241  2.387854 -0.075581
  6 14.379827  1.305581  0.019610
  6 13.689244  2.501770 -0.152275
  6 12.302343  2.506110 -0.183434
  6 11.546845  1.320913 -0.044893
  6 10.098300  1.311775 -0.075526
  6  9.338503  2.488749 -0.246341
  6  7.952042  2.469151 -0.274000
  6  7.266595  1.266533 -0.131357
  6  5.775756  1.292905 -0.167166
  8  5.159768  2.318234 -0.315291
  6  7.982998  0.063311  0.041823
  6  9.408292  0.072486  0.071714
  6 12.243212  0.090658  0.131503
  6 13.667499  0.099729  0.161743
  1  0.736888 -1.013021 -0.219073
  1  0.726987  0.606977 -0.932871
  1  0.686705  0.414480  0.827267
  1  7.406330 -3.261029  0.464322
  1  9.857949 -3.292450  0.522121
  1 11.827423 -3.279522  0.563051
  1 14.279417 -3.211211  0.608086
  1 18.273446  1.208096  0.120551
  1 18.431583 -1.346102  1.801260
  1 18.139734  0.293897  2.423619
  1 19.670756 -0.094856  1.640571
  1 18.491154 -1.690138 -0.842090
  1 19.729140 -0.432265 -0.952299
  1 18.236526 -0.265707 -1.875686
  1 14.254817  3.418420 -0.259765
  1 11.802958  3.455112 -0.318646
  1  9.833237  3.442859 -0.360543
  1  7.381919  3.379931 -0.405745
 nber atoms=          54
  SCF Done:  E(UB3LYP) =  -1564.60468351     A.U. after    1 cycles             
  
          23          40 "  -1564.60468351"
After scan for Atom:   Atom  AN      X      Y      Z        X      Y      Z        X      Y      Z   
After scan for Atom:   Atom  AN      X      Y      Z        X      Y      Z        X      Y      Z   
After scan for Atom:   Atom  AN      X      Y      Z        X      Y      Z        X      Y      Z   
After scan for Atom:   Atom  AN      X      Y      Z        X      Y      Z        X      Y      Z   
After scan for Atom:   Atom  AN      X      Y      Z        X      Y      Z        X      Y      Z   
After scan for Atom:   Atom  AN      X      Y      Z        X      Y      Z        X      Y      Z   
After scan for Atom:   Atom  AN      X      Y      Z        X      Y      Z        X      Y      Z   
After scan for Atom:   Atom  AN      X      Y      Z        X      Y      Z        X      Y      Z   
After scan for Atom:   Atom  AN      X      Y      Z        X      Y      Z        X      Y      Z   
After scan for Atom:   Atom  AN      X      Y      Z        X      Y      Z        X      Y      Z   
After scan for Atom:   Atom  AN      X      Y      Z        X      Y      Z        X      Y      Z   
After scan for Atom:   Atom  AN      X      Y      Z        X      Y      Z        X      Y      Z   
After scan for Atom:   Atom  AN      X      Y      Z        X      Y      Z        X      Y      Z   
After scan for Atom:   Atom  AN      X      Y      Z        X      Y      Z        X      Y      Z   
After scan for Atom:   Atom  AN      X      Y      Z        X      Y      Z        X      Y      Z   
After scan for Atom:   Atom  AN      X      Y      Z        X      Y      Z        X      Y      Z   
After scan for Atom:   Atom  AN      X      Y      Z        X      Y      Z        X      Y      Z   
After scan for Atom:   Atom  AN      X      Y      Z        X      Y      Z        X      Y      Z   
After scan for Atom:   Atom  AN      X      Y      Z        X      Y      Z        X      Y      Z   
After scan for Atom:   Atom  AN      X      Y      Z        X      Y      Z        X      Y      Z   
After scan for Atom:   Atom  AN      X      Y      Z        X      Y      Z        X      Y      Z   
After scan for Atom:   Atom  AN      X      Y      Z        X      Y      Z        X      Y      Z   
After scan for Atom:   Atom  AN      X      Y      Z        X      Y      Z        X      Y      Z   
After scan for Atom:   Atom  AN      X      Y      Z        X      Y      Z        X      Y      Z   
After scan for Atom:   Atom  AN      X      Y      Z        X      Y      Z        X      Y      Z   
After scan for Atom:   Atom  AN      X      Y      Z        X      Y      Z        X      Y      Z   
After scan for Atom:   Atom  AN      X      Y      Z        X      Y      Z        X      Y      Z   
After scan for Atom:   Atom  AN      X      Y      Z        X      Y      Z        X      Y      Z   
After scan for Atom:   Atom  AN      X      Y      Z        X      Y      Z        X      Y      Z   
After scan for Atom:   Atom  AN      X      Y      Z        X      Y      Z        X      Y      Z   
After scan for Atom:   Atom  AN      X      Y      Z        X      Y      Z        X      Y      Z   
After scan for Atom:   Atom  AN      X      Y      Z        X      Y      Z        X      Y      Z   
After scan for Atom:   Atom  AN      X      Y      Z        X      Y      Z        X      Y      Z   
After scan for Atom:   Atom  AN      X      Y      Z        X      Y      Z        X      Y      Z   
After scan for Atom:   Atom  AN      X      Y      Z        X      Y      Z        X      Y      Z   
After scan for Atom:   Atom  AN      X      Y      Z        X      Y      Z        X      Y      Z   
After scan for Atom:   Atom  AN      X      Y      Z        X      Y      Z        X      Y      Z   
After scan for Atom:   Atom  AN      X      Y      Z        X      Y      Z        X      Y      Z   
After scan for Atom:   Atom  AN      X      Y      Z        X      Y      Z        X      Y      Z   
After scan for Atom:   Atom  AN      X      Y      Z        X      Y      Z        X      Y      Z   
After scan for Atom:   Atom  AN      X      Y      Z        X      Y      Z        X      Y      Z   
After scan for Atom:   Atom  AN      X      Y      Z        X      Y      Z        X      Y      Z   
After scan for Atom:   Atom  AN      X      Y      Z        X      Y      Z        X      Y      Z   
After scan for Atom:   Atom  AN      X      Y      Z        X      Y      Z        X      Y      Z   
After scan for Atom:   Atom  AN      X      Y      Z        X      Y      Z        X      Y      Z   
After scan for Atom:   Atom  AN      X      Y      Z        X      Y      Z        X      Y      Z   
After scan for Atom:   Atom  AN      X      Y      Z        X      Y      Z        X      Y      Z   
After scan for Atom:   Atom  AN      X      Y      Z        X      Y      Z        X      Y      Z   
After scan for Atom:   Atom  AN      X      Y      Z        X      Y      Z        X      Y      Z   
After scan for Atom:   Atom  AN      X      Y      Z        X      Y      Z        X      Y      Z   
After scan for Atom:   Atom  AN      X      Y      Z        X      Y      Z        X      Y      Z   
After scan for Atom:   Atom  AN      X      Y      Z        X      Y      Z        X      Y      Z   
 g94    frequencies=
     0.0    0.0    0.0    0.0    0.0    0.0    8.2   19.2   28.6   37.7
    50.9   51.5   61.9   72.2   86.9  101.2  111.0  132.0  163.7  175.0
   179.6  188.4  198.8  212.1  234.3  237.6  259.4  268.7  279.3  287.3
   303.0  310.3  328.4  336.2  352.0  380.4  392.2  424.0  427.5  428.9
   433.3  437.7  444.2  466.4  467.7  469.5  480.5  482.8  510.2  521.3
   527.4  553.5  571.7  577.8  583.6  612.6  614.6  633.6  662.3  703.8
   705.5  707.4  714.8  717.3  751.0  761.7  765.3  771.2  792.9  806.3
   814.8  826.3  848.0  866.9  869.0  874.4  877.5  899.7  917.3  948.1
   953.3  958.0  966.5 1011.5 1013.0 1020.3 1021.4 1050.7 1050.9 1063.2
  1077.8 1103.0 1143.2 1145.9 1156.0 1162.9 1164.0 1183.8 1192.1 1206.8
  1209.1 1222.8 1235.2 1253.0 1270.3 1280.4 1313.4 1323.7 1324.4 1363.8
  1365.1 1373.8 1376.2 1385.2 1400.2 1401.3 1406.8 1419.4 1424.2 1424.8
  1442.2 1455.7 1471.0 1475.3 1477.9 1482.8 1486.1 1495.1 1500.3 1502.5
  1519.7 1520.5 1563.0 1570.6 1574.9 1584.1 1591.0 1607.0 1624.5 1711.0
  1742.5 1759.8 1782.7 2384.6 3033.1 3042.4 3045.5 3095.4 3098.7 3103.0
  3106.2 3118.5 3135.1 3146.5 3204.9 3205.2 3210.1 3210.4 3216.6 3216.8
  3228.9 3229.1
 g94    symmetries=
                                                 A      A      A      A
       A      A      A      A      A      A      A      A      A      A
       A      A      A      A      A      A      A      A      A      A
       A      A      A      A      A      A      A      A      A      A
       A      A      A      A      A      A      A      A      A      A
       A      A      A      A      A      A      A      A      A      A
       A      A      A      A      A      A      A      A      A      A
       A      A      A      A      A      A      A      A      A      A
       A      A      A      A      A      A      A      A      A      A
       A      A      A      A      A      A      A      A      A      A
       A      A      A      A      A      A      A      A      A      A
       A      A      A      A      A      A      A      A      A      A
       A      A      A      A      A      A      A      A      A      A
       A      A      A      A      A      A      A      A      A      A
       A      A      A      A      A      A      A      A      A      A
       A      A      A      A      A      A      A      A      A      A
       A      A
 atomic masses:
 12.0000 12.0000 12.0000 14.0031 12.0000 15.9949 12.0000 12.0000 12.0000 12.0000
 12.0000 12.0000 12.0000 12.0000 12.0000 15.9949 14.0031 12.0000 12.0000 12.0000
 12.0000 15.9949 12.0000 12.0000 12.0000 12.0000 12.0000 12.0000 12.0000 12.0000
 12.0000 15.9949 12.0000 12.0000 12.0000 12.0000  1.0078  1.0078  1.0078  1.0078
  1.0078  1.0078  1.0078  1.0078  1.0078  1.0078  1.0078  1.0078  1.0078  1.0078
  1.0078  1.0078  1.0078  1.0078
 looking for force constants in 
 ./PDI_4_C1S0.fchk                                                              
  
 Cartesian Force Constants                  R   N=       13203                  
  
 n3=         162       13203
 g94-fc frequencies=
    -1.7   -0.0   -0.0    0.0    0.1    3.5    8.2   19.2   28.6   37.7
    50.9   51.5   61.9   72.2   86.9  101.2  111.0  132.0  163.7  175.0
   179.6  188.4  198.8  212.1  234.3  237.6  259.4  268.7  279.3  287.3
   303.0  310.4  328.4  336.2  352.0  380.4  392.2  424.0  427.5  428.9
   433.3  437.7  444.2  466.4  467.7  469.5  480.5  482.9  510.2  521.3
   527.4  553.5  571.7  577.8  583.7  612.6  614.6  633.6  662.3  703.9
   705.5  707.4  714.9  717.3  751.0  761.7  765.3  771.2  793.0  806.3
   814.8  826.4  848.1  866.9  869.0  874.4  877.5  899.8  917.3  948.1
   953.4  958.0  966.5 1011.5 1013.1 1020.3 1021.4 1050.7 1050.9 1063.2
  1077.8 1103.0 1143.2 1145.9 1156.0 1162.9 1164.0 1183.8 1192.2 1206.8
  1209.1 1222.8 1235.2 1253.0 1270.3 1280.4 1313.4 1323.8 1324.4 1363.9
  1365.1 1373.8 1376.2 1385.3 1400.3 1401.3 1406.9 1419.5 1424.2 1424.8
  1442.3 1455.7 1471.0 1475.3 1477.9 1482.8 1486.2 1495.1 1500.3 1502.6
  1519.8 1520.5 1563.0 1570.6 1575.0 1584.2 1591.1 1607.0 1624.6 1711.1
  1742.5 1759.8 1782.7 2384.7 3033.2 3042.4 3045.6 3095.4 3098.8 3103.1
  3106.3 3118.6 3135.2 3146.5 3205.0 3205.3 3210.2 3210.4 3216.6 3216.9
  3229.0 3229.1
 at 99999: n3=         162
 symm operator            1 :  F  nop=           0
 symm operator            2 :  F  nop=           0
 symm operator            3 :  F  nop=           0
 symm operator            4 :  F  nop=           0
 symm operator            5 :  F  nop=           0
 symm operator            6 :  F  nop=           0
 symm operator            7 :  F  nop=           0
 The point group of the molecule is  C1
 Symmetry rotation matrix:
   1.00000   0.00000   0.00000
   0.00000   1.00000   0.00000
   0.00000   0.00000   1.00000

 Projecting out zero-frequency components
 generating redundant internal coords
         300        3600          54
 search for int coords
   1 str   2   1   1.454
   2 str   3   2   1.200
   3 str   4   3   1.364
   4 str   5   4   1.418
   5 str   6   5   1.205
   6 str   7   5   1.491
   7 str   8   7   1.392
   8 str   9   8   1.387
   9 str  10   9   1.411
  10 str  11  10   1.449
  11 str  12  11   1.413
  12 str  13  12   1.387
  13 str  14  13   1.392
  14 str  15  14   1.498
  15 str  16  15   1.213
  16 str  17  15   1.394
  17 str  18  17   1.510
  18 str  19  18   1.531
  19 str  20  18   1.531
  20 str  21  17   1.400
  21 str  22  21   1.213
  22 str  23  21   1.497
  23 str  24  23   1.392
  24 str  25  24   1.387
  25 str  26  25   1.412
  26 str  27  26   1.449
  27 str  28  27   1.411
  28 str  29  28   1.387
  29 str  30  29   1.392
  30 str  31   4   1.418
  31 str  31  30   1.492
  32 str  32  31   1.205
  33 str  33   7   1.411
  34 str  33  30   1.411
  35 str  34  10   1.426
  36 str  34  27   1.426
  37 str  34  33   1.426
  38 str  35  11   1.425
  39 str  35  26   1.425
  40 str  36  14   1.408
  41 str  36  23   1.408
  42 str  36  35   1.425
  43 str  37   1   1.093
  44 str  38   1   1.093
  45 str  39   1   1.093
  46 str  40   8   1.083
  47 str  41   9   1.081
  48 str  42  12   1.081
  49 str  43  13   1.082
  50 str  44  18   1.087
  51 str  45  19   1.089
  52 str  46  19   1.093
  53 str  47  19   1.092
  54 str  48  20   1.089
  55 str  49  20   1.092
  56 str  50  20   1.093
  57 str  51  24   1.082
  58 str  52  25   1.081
  59 str  53  28   1.081
  60 str  54  29   1.083
 nber stretches=          60
  61 lin ben   1   2   3
  63 ben   2   1  37
  64 ben   2   1  38
  65 ben   2   1  39
 Extend lin bond           1           1           2           4
  66 lin ben   2   3   4
  68 ben   3   4   5
  69 prop tor   3   4   5   6
  70 prop tor   3   4   5   7
  71 ben   3   4  31
  72 prop tor   3   4  31  30
  73 prop tor   3   4  31  32
  74 ben   4   5   6
  75 ben   4   5   7
  76 prop tor   4   5   7   8
  77 prop tor   4   5   7  33
  78 ben   4  31  30
  79 ben   4  31  32
  80 ben   5   4  31
  81 prop tor   5   4  31  30
  82 prop tor   5   4  31  32
  83 ben   5   7   8
  84 prop tor   5   7   8   9
  85 prop tor   5   7   8  40
  86 ben   5   7  33
  87 prop tor   5   7  33  30
  88 prop tor   5   7  33  34
  89 ben   6   5   7
  90 prop tor   6   5   7   8
  91 prop tor   6   5   7  33
  92 ben   7   8   9
  93 prop tor   7   8   9  10
  94 prop tor   7   8   9  41
  95 ben   7   8  40
  96 ben   7  33  30
  97 ben   7  33  34
  98 prop tor   7  33  34  10
  99 prop tor   7  33  34  27
 100 ben   8   7  33
 101 prop tor   8   7  33  30
 102 prop tor   8   7  33  34
 103 ben   8   9  10
 104 prop tor   8   9  10  11
 105 prop tor   8   9  10  34
 106 ben   8   9  41
 107 ben   9   8  40
 108 ben   9  10  11
 109 prop tor   9  10  11  12
 110 prop tor   9  10  11  35
 111 ben   9  10  34
 112 prop tor   9  10  34  27
 113 prop tor   9  10  34  33
 114 ben  10   9  41
 115 ben  10  11  12
 116 prop tor  10  11  12  13
 117 prop tor  10  11  12  42
 118 ben  10  11  35
 119 prop tor  10  11  35  26
 120 prop tor  10  11  35  36
 121 ben  10  34  27
 122 ben  10  34  33
 123 ben  11  10  34
 124 prop tor  11  10  34  27
 125 prop tor  11  10  34  33
 126 ben  11  12  13
 127 prop tor  11  12  13  14
 128 prop tor  11  12  13  43
 129 ben  11  12  42
 130 ben  11  35  26
 131 ben  11  35  36
 132 prop tor  11  35  36  14
 133 prop tor  11  35  36  23
 134 ben  12  11  35
 135 prop tor  12  11  35  26
 136 prop tor  12  11  35  36
 137 ben  12  13  14
 138 prop tor  12  13  14  15
 139 prop tor  12  13  14  36
 140 ben  12  13  43
 141 ben  13  12  42
 142 ben  13  14  15
 143 prop tor  13  14  15  16
 144 prop tor  13  14  15  17
 145 ben  13  14  36
 146 prop tor  13  14  36  23
 147 prop tor  13  14  36  35
 148 ben  14  13  43
 149 ben  14  15  16
 150 ben  14  15  17
 151 prop tor  14  15  17  18
 152 prop tor  14  15  17  21
 153 ben  14  36  23
 154 ben  14  36  35
 155 ben  15  14  36
 156 prop tor  15  14  36  23
 157 prop tor  15  14  36  35
 158 ben  15  17  18
 159 prop tor  15  17  18  19
 160 prop tor  15  17  18  20
 161 prop tor  15  17  18  44
 162 ben  15  17  21
 163 prop tor  15  17  21  22
 164 prop tor  15  17  21  23
 165 ben  16  15  17
 166 prop tor  16  15  17  18
 167 prop tor  16  15  17  21
 168 ben  17  18  19
 169 prop tor  17  18  19  45
 170 prop tor  17  18  19  46
 171 prop tor  17  18  19  47
 172 ben  17  18  20
 173 prop tor  17  18  20  48
 174 prop tor  17  18  20  49
 175 prop tor  17  18  20  50
 176 ben  17  18  44
 177 ben  17  21  22
 178 ben  17  21  23
 179 prop tor  17  21  23  24
 180 prop tor  17  21  23  36
 181 ben  18  17  21
 182 prop tor  18  17  21  22
 183 prop tor  18  17  21  23
 184 ben  18  19  45
 185 ben  18  19  46
 186 ben  18  19  47
 187 ben  18  20  48
 188 ben  18  20  49
 189 ben  18  20  50
 190 ben  19  18  20
 191 prop tor  19  18  20  48
 192 prop tor  19  18  20  49
 193 prop tor  19  18  20  50
 194 ben  19  18  44
 195 prop tor  20  18  19  45
 196 prop tor  20  18  19  46
 197 prop tor  20  18  19  47
 198 ben  20  18  44
 199 prop tor  21  17  18  19
 200 prop tor  21  17  18  20
 201 prop tor  21  17  18  44
 202 ben  21  23  24
 203 prop tor  21  23  24  25
 204 prop tor  21  23  24  51
 205 ben  21  23  36
 206 prop tor  21  23  36  14
 207 prop tor  21  23  36  35
 208 ben  22  21  23
 209 prop tor  22  21  23  24
 210 prop tor  22  21  23  36
 211 ben  23  24  25
 212 prop tor  23  24  25  26
 213 prop tor  23  24  25  52
 214 ben  23  24  51
 215 ben  23  36  35
 216 ben  24  23  36
 217 prop tor  24  23  36  14
 218 prop tor  24  23  36  35
 219 ben  24  25  26
 220 prop tor  24  25  26  27
 221 prop tor  24  25  26  35
 222 ben  24  25  52
 223 ben  25  24  51
 224 ben  25  26  27
 225 prop tor  25  26  27  28
 226 prop tor  25  26  27  34
 227 ben  25  26  35
 228 prop tor  25  26  35  11
 229 prop tor  25  26  35  36
 230 ben  26  25  52
 231 ben  26  27  28
 232 prop tor  26  27  28  29
 233 prop tor  26  27  28  53
 234 ben  26  27  34
 235 prop tor  26  27  34  10
 236 prop tor  26  27  34  33
 237 ben  26  35  36
 238 prop tor  26  35  36  14
 239 prop tor  26  35  36  23
 240 ben  27  26  35
 241 prop tor  27  26  35  11
 242 prop tor  27  26  35  36
 243 ben  27  28  29
 244 prop tor  27  28  29  30
 245 prop tor  27  28  29  54
 246 ben  27  28  53
 247 ben  27  34  33
 248 ben  28  27  34
 249 prop tor  28  27  34  10
 250 prop tor  28  27  34  33
 251 ben  28  29  30
 252 prop tor  28  29  30  31
 253 prop tor  28  29  30  33
 254 ben  28  29  54
 255 ben  29  28  53
 256 ben  29  30  31
 257 prop tor  29  30  31   4
 258 prop tor  29  30  31  32
 259 ben  29  30  33
 260 prop tor  29  30  33   7
 261 prop tor  29  30  33  34
 262 ben  30  29  54
 263 ben  30  31  32
 264 ben  30  33  34
 265 prop tor  30  33  34  10
 266 prop tor  30  33  34  27
 267 prop tor  31   4   5   6
 268 prop tor  31   4   5   7
 269 ben  31  30  33
 270 prop tor  31  30  33   7
 271 prop tor  31  30  33  34
 272 prop tor  33   7   8   9
 273 prop tor  33   7   8  40
 274 prop tor  33  30  31   4
 275 prop tor  33  30  31  32
 276 prop tor  34  10  11  12
 277 prop tor  34  10  11  35
 278 prop tor  34  27  28  29
 279 prop tor  34  27  28  53
 280 prop tor  35  11  12  13
 281 prop tor  35  11  12  42
 282 prop tor  35  26  27  28
 283 prop tor  35  26  27  34
 284 prop tor  36  14  15  16
 285 prop tor  36  14  15  17
 286 prop tor  36  23  24  25
 287 prop tor  36  23  24  51
 288 prop tor  37   1   2   3
 289 ben  37   1  38
 290 ben  37   1  39
 291 prop tor  38   1   2   3
 292 ben  38   1  39
 293 prop tor  39   1   2   3
 294 prop tor  40   8   9  10
 295 prop tor  40   8   9  41
 296 prop tor  41   9  10  11
 297 prop tor  41   9  10  34
 298 prop tor  42  12  13  14
 299 prop tor  42  12  13  43
 300 prop tor  43  13  14  15
 301 prop tor  43  13  14  36
 302 prop tor  44  18  19  45
 303 prop tor  44  18  19  46
 304 prop tor  44  18  19  47
 305 prop tor  44  18  20  48
 306 prop tor  44  18  20  49
 307 prop tor  44  18  20  50
 308 ben  45  19  46
 309 ben  45  19  47
 310 ben  46  19  47
 311 ben  48  20  49
 312 ben  48  20  50
 313 ben  49  20  50
 314 prop tor  51  24  25  26
 315 prop tor  51  24  25  52
 316 prop tor  52  25  26  27
 317 prop tor  52  25  26  35
 318 prop tor  53  28  29  30
 319 prop tor  53  28  29  54
 320 prop tor  54  29  30  31
 321 prop tor  54  29  30  33
 322 lin bend prop tor   2   1   4   3
 323 lin bend prop tor   2   1   4   5
 324 lin bend prop tor   2   1   4  31
 325 lin bend prop tor  37   1   4   3
 326 lin bend prop tor  37   1   4   5
 327 lin bend prop tor  37   1   4  31
 328 lin bend prop tor  38   1   4   3
 329 lin bend prop tor  38   1   4   5
 330 lin bend prop tor  38   1   4  31
 331 lin bend prop tor  39   1   4   3
 332 lin bend prop tor  39   1   4   5
 333 lin bend prop tor  39   1   4  31
 nber bend=             106
 nber lin bend=           1
 nber prop tor=         167
 nber impr tor=           0
 nber tot redund int=         333
 Eigenvalues of G in red int coords
    Gval -0.00000000 -0.00000000 -0.00000000 -0.00000000 -0.00000000 -0.00000000 -0.00000000 -0.00000000
    Gval -0.00000000 -0.00000000 -0.00000000 -0.00000000 -0.00000000 -0.00000000 -0.00000000 -0.00000000
    Gval -0.00000000 -0.00000000 -0.00000000 -0.00000000 -0.00000000 -0.00000000 -0.00000000 -0.00000000
    Gval -0.00000000 -0.00000000 -0.00000000 -0.00000000 -0.00000000 -0.00000000 -0.00000000 -0.00000000
    Gval -0.00000000 -0.00000000 -0.00000000 -0.00000000 -0.00000000 -0.00000000 -0.00000000 -0.00000000
    Gval -0.00000000 -0.00000000 -0.00000000 -0.00000000 -0.00000000 -0.00000000 -0.00000000 -0.00000000
    Gval -0.00000000 -0.00000000 -0.00000000 -0.00000000 -0.00000000 -0.00000000 -0.00000000 -0.00000000
    Gval -0.00000000 -0.00000000 -0.00000000 -0.00000000 -0.00000000 -0.00000000 -0.00000000 -0.00000000
    Gval -0.00000000 -0.00000000 -0.00000000 -0.00000000 -0.00000000 -0.00000000 -0.00000000 -0.00000000
    Gval -0.00000000 -0.00000000 -0.00000000 -0.00000000 -0.00000000 -0.00000000 -0.00000000 -0.00000000
    Gval -0.00000000 -0.00000000 -0.00000000 -0.00000000 -0.00000000 -0.00000000 -0.00000000  0.00000000
    Gval  0.00000000  0.00000000  0.00000000  0.00000000  0.00000000  0.00000000  0.00000000  0.00000000
    Gval  0.00000000  0.00000000  0.00000000  0.00000000  0.00000000  0.00000000  0.00000000  0.00000000
    Gval  0.00000000  0.00000000  0.00000000  0.00000000  0.00000000  0.00000000  0.00000000  0.00000000
    Gval  0.00000000  0.00000000  0.00000000  0.00000000  0.00000000  0.00000000  0.00000000  0.00000000
    Gval  0.00000000  0.00000000  0.00000000  0.00000000  0.00000000  0.00000000  0.00000000  0.00000000
    Gval  0.00000000  0.00000000  0.00000000  0.00000000  0.00000000  0.00000000  0.00000000  0.00000000
    Gval  0.00000000  0.00000000  0.00000000  0.00000000  0.00000000  0.00000000  0.00000000  0.00000000
    Gval  0.00000000  0.00000000  0.00000000  0.00000000  0.00000000  0.00000000  0.00000000  0.00000000
    Gval  0.00000000  0.00000000  0.00000000  0.00000000  0.00000000  0.00000000  0.00000000  0.00000000
    Gval  0.00000000  0.00000000  0.00000000  0.00000000  0.00000000  0.00000000  0.00000000  0.00000000
    Gval  0.00000000  0.00000000  0.00000000  0.00000000  0.00000000  0.00000000  0.00000000  0.00000000
    Gval  0.00000000  0.00000084  0.00000199  0.00000243  0.00000292  0.00000615  0.00000697  0.00000873
    Gval  0.00000996  0.00001112  0.00001115  0.00001559  0.00001632  0.00001720  0.00001784  0.00001838
    Gval  0.00002047  0.00002165  0.00002376  0.00002404  0.00002546  0.00002985  0.00003444  0.00003581
    Gval  0.00003698  0.00003992  0.00004658  0.00004898  0.00005137  0.00005313  0.00005575  0.00005909
    Gval  0.00006234  0.00006779  0.00006850  0.00007178  0.00007402  0.00008138  0.00008250  0.00008504
    Gval  0.00008730  0.00009186  0.00009398  0.00009485  0.00009597  0.00011361  0.00012177  0.00012264
    Gval  0.00013583  0.00013665  0.00013747  0.00014073  0.00014988  0.00015695  0.00016015  0.00016873
    Gval  0.00017045  0.00018088  0.00020002  0.00022279  0.00022905  0.00022987  0.00024694  0.00027468
    Gval  0.00028434  0.00029183  0.00029787  0.00032375  0.00034074  0.00035979  0.00037922  0.00039103
    Gval  0.00039167  0.00039552  0.00040616  0.00041959  0.00042594  0.00043270  0.00043425  0.00044113
    Gval  0.00044291  0.00046213  0.00046592  0.00046847  0.00049458  0.00052460  0.00053524  0.00053689
    Gval  0.00053913  0.00054858  0.00055338  0.00055492  0.00055617  0.00055628  0.00055661  0.00059506
    Gval  0.00059851  0.00059928  0.00059958  0.00059988  0.00060215  0.00061151  0.00064106  0.00064465
    Gval  0.00064535  0.00064725  0.00066803  0.00068247  0.00069162  0.00069912  0.00075374  0.00080929
    Gval  0.00091602  0.00094229  0.00109435  0.00109532  0.00109602  0.00109654  0.00113636  0.00114858
    Gval  0.00116414  0.00116425  0.00116463  0.00116484  0.00117614  0.00117704  0.00117882  0.00120737
    Gval  0.00130151  0.00132094  0.00134402  0.00151313  0.00152429  0.00172322  0.00176048  0.00191586
    Gval  0.00229134  0.00234724  0.00252543  0.00253386  0.00256110  0.00279969  0.00291520  0.00302503
    Gval  0.00304070  0.00307916  0.00310486  0.00343163  0.00355019  0.00366651  0.00366830  0.00371445
    Gval  0.00371597  0.00396838  1.35488717 30.26152417 64.08700293
  8.436566843302906E-007  8.436566843302906E-007
  1.993068128314069E-006  8.436566843302906E-007
  2.431227603772541E-006  8.436566843302906E-007
  2.918830408376967E-006  8.436566843302906E-007
  6.152824490597803E-006  8.436566843302906E-007
  6.972014795758088E-006  8.436566843302906E-007
  8.727783966216786E-006  8.436566843302906E-007
  9.959076896441172E-006  8.436566843302906E-007
  1.112181125190726E-005  8.436566843302906E-007
  1.115043053239017E-005  8.436566843302906E-007
  1.558589265996640E-005  8.436566843302906E-007
  1.632479367830742E-005  8.436566843302906E-007
  1.719828732426772E-005  8.436566843302906E-007
  1.784127733297708E-005  8.436566843302906E-007
  1.838411467882338E-005  8.436566843302906E-007
  2.047115757330689E-005  8.436566843302906E-007
  2.165131840857629E-005  8.436566843302906E-007
  2.376096803545272E-005  8.436566843302906E-007
  2.403554260559557E-005  8.436566843302906E-007
  2.545897915874999E-005  8.436566843302906E-007
  2.985283714982280E-005  8.436566843302906E-007
  3.444270250043943E-005  8.436566843302906E-007
  3.580918387339359E-005  8.436566843302906E-007
  3.698328763350443E-005  8.436566843302906E-007
  3.992254789238659E-005  8.436566843302906E-007
  4.658053730613087E-005  8.436566843302906E-007
  4.897521237053762E-005  8.436566843302906E-007
  5.136962552013194E-005  8.436566843302906E-007
  5.313408141957303E-005  8.436566843302906E-007
  5.575482148180702E-005  8.436566843302906E-007
  5.908759305434976E-005  8.436566843302906E-007
  6.233925050491954E-005  8.436566843302906E-007
  6.778558684459508E-005  8.436566843302906E-007
  6.850439791964532E-005  8.436566843302906E-007
  7.178072077809046E-005  8.436566843302906E-007
  7.402099186209787E-005  8.436566843302906E-007
  8.137819783684496E-005  8.436566843302906E-007
  8.249655451138915E-005  8.436566843302906E-007
  8.504411102665015E-005  8.436566843302906E-007
  8.730030415562370E-005  8.436566843302906E-007
  9.186129074367896E-005  8.436566843302906E-007
  9.398282791529850E-005  8.436566843302906E-007
  9.485030364175417E-005  8.436566843302906E-007
  9.597006397629680E-005  8.436566843302906E-007
  1.136067842994028E-004  8.436566843302906E-007
  1.217715393926963E-004  8.436566843302906E-007
  1.226407192594867E-004  8.436566843302906E-007
  1.358301883518448E-004  8.436566843302906E-007
  1.366518652290434E-004  8.436566843302906E-007
  1.374672596524360E-004  8.436566843302906E-007
  1.407263353352827E-004  8.436566843302906E-007
  1.498845754753993E-004  8.436566843302906E-007
  1.569456000595043E-004  8.436566843302906E-007
  1.601529389449849E-004  8.436566843302906E-007
  1.687313859927041E-004  8.436566843302906E-007
  1.704492766865329E-004  8.436566843302906E-007
  1.808760900300825E-004  8.436566843302906E-007
  2.000208948068404E-004  8.436566843302906E-007
  2.227865208032114E-004  8.436566843302906E-007
  2.290529651049529E-004  8.436566843302906E-007
  2.298651588547141E-004  8.436566843302906E-007
  2.469426354003908E-004  8.436566843302906E-007
  2.746838892121697E-004  8.436566843302906E-007
  2.843438174462878E-004  8.436566843302906E-007
  2.918342045006793E-004  8.436566843302906E-007
  2.978732665527082E-004  8.436566843302906E-007
  3.237494772898751E-004  8.436566843302906E-007
  3.407396220188630E-004  8.436566843302906E-007
  3.597857241471042E-004  8.436566843302906E-007
  3.792195714025622E-004  8.436566843302906E-007
  3.910329230339124E-004  8.436566843302906E-007
  3.916746009593127E-004  8.436566843302906E-007
  3.955171381706560E-004  8.436566843302906E-007
  4.061619661279119E-004  8.436566843302906E-007
  4.195939557478505E-004  8.436566843302906E-007
  4.259414098769908E-004  8.436566843302906E-007
  4.327018015482492E-004  8.436566843302906E-007
  4.342481163355675E-004  8.436566843302906E-007
  4.411258382959059E-004  8.436566843302906E-007
  4.429102652535967E-004  8.436566843302906E-007
  4.621300181463833E-004  8.436566843302906E-007
  4.659225582195869E-004  8.436566843302906E-007
  4.684671557412324E-004  8.436566843302906E-007
  4.945809903805946E-004  8.436566843302906E-007
  5.246016251199158E-004  8.436566843302906E-007
  5.352410835149640E-004  8.436566843302906E-007
  5.368870761144063E-004  8.436566843302906E-007
  5.391304635756269E-004  8.436566843302906E-007
  5.485774181305072E-004  8.436566843302906E-007
  5.533795401689984E-004  8.436566843302906E-007
  5.549157097498315E-004  8.436566843302906E-007
  5.561714347708082E-004  8.436566843302906E-007
  5.562761792632691E-004  8.436566843302906E-007
  5.566124034191880E-004  8.436566843302906E-007
  5.950596803934964E-004  8.436566843302906E-007
  5.985071076350097E-004  8.436566843302906E-007
  5.992765919660698E-004  8.436566843302906E-007
  5.995827910735598E-004  8.436566843302906E-007
  5.998776656627069E-004  8.436566843302906E-007
  6.021454643780379E-004  8.436566843302906E-007
  6.115097228192356E-004  8.436566843302906E-007
  6.410601367104594E-004  8.436566843302906E-007
  6.446483269992773E-004  8.436566843302906E-007
  6.453546506560067E-004  8.436566843302906E-007
  6.472541333255270E-004  8.436566843302906E-007
  6.680327405966106E-004  8.436566843302906E-007
  6.824689137420676E-004  8.436566843302906E-007
  6.916181556376130E-004  8.436566843302906E-007
  6.991240939485592E-004  8.436566843302906E-007
  7.537386658903799E-004  8.436566843302906E-007
  8.092944641603369E-004  8.436566843302906E-007
  9.160172902581746E-004  8.436566843302906E-007
  9.422853192968260E-004  8.436566843302906E-007
  1.094346841652763E-003  8.436566843302906E-007
  1.095323464284598E-003  8.436566843302906E-007
  1.096018144937327E-003  8.436566843302906E-007
  1.096544427595113E-003  8.436566843302906E-007
  1.136361242183595E-003  8.436566843302906E-007
  1.148583208547100E-003  8.436566843302906E-007
  1.164144130262961E-003  8.436566843302906E-007
  1.164254275394109E-003  8.436566843302906E-007
  1.164625474439946E-003  8.436566843302906E-007
  1.164839986994502E-003  8.436566843302906E-007
  1.176144856996393E-003  8.436566843302906E-007
  1.177042768984902E-003  8.436566843302906E-007
  1.178824123362546E-003  8.436566843302906E-007
  1.207365020983369E-003  8.436566843302906E-007
  1.301514097795029E-003  8.436566843302906E-007
  1.320937625116860E-003  8.436566843302906E-007
  1.344015001533402E-003  8.436566843302906E-007
  1.513131139826187E-003  8.436566843302906E-007
  1.524294715420837E-003  8.436566843302906E-007
  1.723219395625954E-003  8.436566843302906E-007
  1.760477218977246E-003  8.436566843302906E-007
  1.915856282365242E-003  8.436566843302906E-007
  2.291335549339783E-003  8.436566843302906E-007
  2.347241186968333E-003  8.436566843302906E-007
  2.525425157996332E-003  8.436566843302906E-007
  2.533862050521287E-003  8.436566843302906E-007
  2.561098694262209E-003  8.436566843302906E-007
  2.799694336742601E-003  8.436566843302906E-007
  2.915202932434335E-003  8.436566843302906E-007
  3.025025209139403E-003  8.436566843302906E-007
  3.040696230296015E-003  8.436566843302906E-007
  3.079159845818409E-003  8.436566843302906E-007
  3.104863458691627E-003  8.436566843302906E-007
  3.431633283783467E-003  8.436566843302906E-007
  3.550190608774903E-003  8.436566843302906E-007
  3.666514511994548E-003  8.436566843302906E-007
  3.668303889983711E-003  8.436566843302906E-007
  3.714454771012042E-003  8.436566843302906E-007
  3.715974315162424E-003  8.436566843302906E-007
  3.968379015511230E-003  8.436566843302906E-007
   1.35488716545671       8.436566843302906E-007
   30.2615241735167       8.436566843302906E-007
   64.0870029318375       8.436566843302906E-007
 cut=1d-8, nber non-redundant internal coords=         156
 Check on Eigenvals of non-red overlap matrix:
  0.00000084  0.00000199  0.00000243  0.00000292  0.00000615  0.00000697  0.00000873  0.00000996
  0.00001112  0.00001115  0.00001559  0.00001632  0.00001720  0.00001784  0.00001838  0.00002047
  0.00002165  0.00002376  0.00002404  0.00002546  0.00002985  0.00003444  0.00003581  0.00003698
  0.00003992  0.00004658  0.00004898  0.00005137  0.00005313  0.00005575  0.00005909  0.00006234
  0.00006779  0.00006850  0.00007178  0.00007402  0.00008138  0.00008250  0.00008504  0.00008730
  0.00009186  0.00009398  0.00009485  0.00009597  0.00011361  0.00012177  0.00012264  0.00013583
  0.00013665  0.00013747  0.00014073  0.00014988  0.00015695  0.00016015  0.00016873  0.00017045
  0.00018088  0.00020002  0.00022279  0.00022905  0.00022987  0.00024694  0.00027468  0.00028434
  0.00029183  0.00029787  0.00032375  0.00034074  0.00035979  0.00037922  0.00039103  0.00039167
  0.00039552  0.00040616  0.00041959  0.00042594  0.00043270  0.00043425  0.00044113  0.00044291
  0.00046213  0.00046592  0.00046847  0.00049458  0.00052460  0.00053524  0.00053689  0.00053913
  0.00054858  0.00055338  0.00055492  0.00055617  0.00055628  0.00055661  0.00059506  0.00059851
  0.00059928  0.00059958  0.00059988  0.00060215  0.00061151  0.00064106  0.00064465  0.00064535
  0.00064725  0.00066803  0.00068247  0.00069162  0.00069912  0.00075374  0.00080929  0.00091602
  0.00094229  0.00109435  0.00109532  0.00109602  0.00109654  0.00113636  0.00114858  0.00116414
  0.00116425  0.00116463  0.00116484  0.00117614  0.00117704  0.00117882  0.00120737  0.00130151
  0.00132094  0.00134402  0.00151313  0.00152429  0.00172322  0.00176048  0.00191586  0.00229134
  0.00234724  0.00252543  0.00253386  0.00256110  0.00279969  0.00291520  0.00302503  0.00304070
  0.00307916  0.00310486  0.00343163  0.00355019  0.00366651  0.00366830  0.00371445  0.00371597
  0.00396838  1.35488717 30.26152417 64.08700293
 Checking for correct frequencies
 recalc frequencies=
    -0.0   -0.0    0.0    0.0    0.0    0.0    8.2   19.2   28.6   37.7
    50.9   51.5   61.9   72.2   86.9  101.2  111.0  132.0  163.7  175.0
   179.6  188.4  198.8  212.1  234.3  237.6  259.4  268.7  279.3  287.3
   303.0  310.4  328.4  336.2  352.0  380.4  392.2  424.0  427.5  428.9
   433.3  437.7  444.2  466.4  467.7  469.5  480.5  482.9  510.2  521.3
   527.4  553.5  571.7  577.8  583.7  612.6  614.6  633.6  662.3  703.9
   705.5  707.4  714.9  717.3  751.0  761.7  765.3  771.2  793.0  806.3
   814.8  826.4  848.1  866.9  869.0  874.4  877.5  899.8  917.3  948.1
   953.4  958.0  966.5 1011.5 1013.1 1020.3 1021.4 1050.7 1050.9 1063.2
  1077.8 1103.0 1143.2 1145.9 1156.0 1162.9 1164.0 1183.8 1192.2 1206.8
  1209.1 1222.8 1235.2 1253.0 1270.3 1280.4 1313.4 1323.8 1324.4 1363.9
  1365.1 1373.8 1376.2 1385.3 1400.3 1401.3 1406.9 1419.5 1424.2 1424.8
  1442.3 1455.7 1471.0 1475.3 1477.9 1482.8 1486.2 1495.1 1500.3 1502.6
  1519.8 1520.5 1563.0 1570.6 1575.0 1584.2 1591.1 1607.0 1624.6 1711.1
  1742.5 1759.8 1782.7 2384.7 3033.2 3042.4 3045.6 3095.4 3098.8 3103.1
  3106.3 3118.6 3135.2 3146.5 3205.0 3205.3 3210.2 3210.4 3216.6 3216.9
  3229.0 3229.1
 recalc symmetries=
                                                                       
                                                                       
                                                                       
                                                                       
                                                                       
                                                                       
                                                                       
                                                                       
                                                                       
                                                                       
                                                                       
                                                                       
                                                                       
                                                                       
                                                                       
                                                                       
               
 recalc freqs check OK
 Zero-point lengths:
 10.0000 10.0000 10.0000 10.0000 10.0000 10.0000 86.5287 56.5959 46.3875 40.3969
 34.7378 34.5440 31.5196 29.1686 26.5981 24.6448 23.5311 21.5790 19.3764 18.7395
 18.4989 18.0633 17.5826 17.0242 16.1963 16.0831 15.3918 15.1243 14.8346 14.6263
 14.2424 14.0724 13.6794 13.5206 13.2137 12.7110 12.5175 12.0395 11.9904 11.9707
 11.9100 11.8498 11.7628 11.4790 11.4635 11.4417 11.3093 11.2820 10.9752 10.8584
 10.7951 10.5371 10.3683 10.3137 10.2617 10.0161 10.0000  9.8486  9.6329  9.3444
  9.3336  9.3209  9.2723  9.2562  9.0463  8.9828  8.9615  8.9270  8.8038  8.7307
  8.6849  8.6241  8.5130  8.4201  8.4098  8.3837  8.3690  8.2648  8.1853  8.0515
  8.0291  8.0097  7.9744  7.7950  7.7890  7.7613  7.7570  7.6482  7.6473  7.6030
  7.5513  7.4647  7.3321  7.3234  7.2916  7.2698  7.2663  7.2053  7.1801  7.1364
  7.1296  7.0895  7.0538  7.0035  6.9557  6.9281  6.8407  6.8138  6.8122  6.7129
  6.7098  6.6885  6.6828  6.6608  6.6251  6.6226  6.6095  6.5801  6.5691  6.5678
  6.5279  6.4976  6.4638  6.4543  6.4487  6.4380  6.4308  6.4115  6.4003  6.3956
  6.3593  6.3577  6.2707  6.2555  6.2469  6.2287  6.2152  6.1842  6.1507  5.9932
  5.9389  5.9097  5.8716  5.0767  4.5014  4.4946  4.4922  4.4559  4.4535  4.4504
  4.4481  4.4393  4.4275  4.4196  4.3791  4.3789  4.3755  4.3754  4.3711  4.3710
  4.3628  4.3627
 highest evec of mol 1
  0.0000 -0.0000 -0.0000
  0.0000  0.0000 -0.0000
 -0.0000 -0.0000  0.0000
 -0.0002 -0.0000 -0.0000
  0.0002  0.0004 -0.0000
 -0.0000 -0.0002  0.0000
  0.0007 -0.0015  0.0002
  0.0196  0.0275 -0.0032
 -0.0480  0.0875 -0.0125
 -0.0018 -0.0018  0.0002
  0.0017 -0.0016  0.0002
  0.0450  0.0841 -0.0100
 -0.0195  0.0270 -0.0040
 -0.0007 -0.0015  0.0002
 -0.0003  0.0004 -0.0001
 -0.0000 -0.0002  0.0000
  0.0003 -0.0000  0.0000
 -0.0001 -0.0001  0.0000
  0.0000 -0.0000 -0.0000
  0.0000 -0.0000  0.0000
 -0.0004 -0.0007  0.0001
 -0.0000  0.0004 -0.0000
 -0.0013  0.0024 -0.0003
 -0.0334 -0.0466  0.0054
  0.0773 -0.1409  0.0201
  0.0026  0.0027 -0.0003
 -0.0028  0.0029 -0.0004
 -0.0799 -0.1479  0.0176
  0.0331 -0.0449  0.0066
  0.0013  0.0024 -0.0003
  0.0004 -0.0006  0.0001
  0.0000  0.0004 -0.0000
  0.0002  0.0002 -0.0000
  0.0002  0.0005 -0.0001
 -0.0001  0.0005 -0.0001
 -0.0002  0.0002 -0.0000
 -0.0000 -0.0000 -0.0000
 -0.0000  0.0000 -0.0000
 -0.0000  0.0000  0.0000
 -0.0543 -0.0893  0.0105
  0.1613 -0.2931  0.0419
 -0.1513 -0.2818  0.0335
  0.0548 -0.0880  0.0127
  0.0001  0.0004 -0.0000
 -0.0000  0.0000 -0.0000
 -0.0000  0.0000  0.0001
  0.0001  0.0000  0.0000
 -0.0000  0.0000  0.0000
  0.0001  0.0000 -0.0000
 -0.0000  0.0000 -0.0001
  0.0928  0.1522 -0.0179
 -0.2588  0.4726 -0.0676
  0.2674  0.4957 -0.0591
 -0.0909  0.1466 -0.0212
 generating redundant internal coords
         300        3600          54
 Adding extra bonds for z output only
           6           6           6           7           6           8
           6           6           6           6           6           6
           6           6           6           8           7           6
           6           6           6           8           6           6
           6           6           6           6           6           6
           6           8           6           6           6           6
           1           1           1           1           1           1
           1           1           1           1           1           1
           1           1           1           1           1           1
 search for int coords
   1 str   2   1   1.454
   2 str   3   2   1.200
   3 str   4   3   1.364
   4 str   5   4   1.418
   5 str   6   5   1.205
   6 str   7   5   1.491
   7 str   8   7   1.392
   8 str   9   8   1.387
   9 str  10   9   1.411
  10 str  11  10   1.449
  11 str  12  11   1.413
  12 str  13  12   1.387
  13 str  14  13   1.392
  14 str  15  14   1.498
  15 str  16  15   1.213
  16 str  17  15   1.394
  17 str  18  17   1.510
  18 str  19  18   1.531
  19 str  20  18   1.531
  20 str  21  17   1.400
  21 str  22  21   1.213
  22 str  23  21   1.497
  23 str  24  23   1.392
  24 str  25  24   1.387
  25 str  26  25   1.412
  26 str  27  26   1.449
  27 str  28  27   1.411
  28 str  29  28   1.387
  29 str  30  29   1.392
  30 str  31   4   1.418
  31 str  31  30   1.492
  32 str  32  31   1.205
  33 str  33   7   1.411
  34 str  33  30   1.411
  35 str  34  10   1.426
  36 str  34  27   1.426
  37 str  34  33   1.426
  38 str  35  11   1.425
  39 str  35  26   1.425
  40 str  36  14   1.408
  41 str  36  23   1.408
  42 str  36  35   1.425
  43 str  37   1   1.093
  44 str  38   1   1.093
  45 str  39   1   1.093
  46 str  40   8   1.083
  47 str  41   9   1.081
  48 str  42  12   1.081
  49 str  43  13   1.082
  50 str  44  18   1.087
  51 str  45  19   1.089
  52 str  46  19   1.093
  53 str  47  19   1.092
  54 str  48  20   1.089
  55 str  49  20   1.092
  56 str  50  20   1.093
  57 str  51  24   1.082
  58 str  52  25   1.081
  59 str  53  28   1.081
  60 str  54  29   1.083
 nber stretches=          60
  61 lin ben   1   2   3
  63 ben   2   1  37
  64 ben   2   1  38
  65 ben   2   1  39
 Extend lin bond           1           1           2           4
  66 lin ben   2   3   4
  68 ben   3   4   5
  69 prop tor   3   4   5   6
  70 prop tor   3   4   5   7
  71 ben   3   4  31
  72 prop tor   3   4  31  30
  73 prop tor   3   4  31  32
  74 ben   4   5   6
  75 ben   4   5   7
  76 prop tor   4   5   7   8
  77 prop tor   4   5   7  33
  78 ben   4  31  30
  79 ben   4  31  32
  80 ben   5   4  31
  81 prop tor   5   4  31  30
  82 prop tor   5   4  31  32
  83 ben   5   7   8
  84 prop tor   5   7   8   9
  85 prop tor   5   7   8  40
  86 ben   5   7  33
  87 prop tor   5   7  33  30
  88 prop tor   5   7  33  34
  89 ben   6   5   7
  90 prop tor   6   5   7   8
  91 prop tor   6   5   7  33
  92 ben   7   8   9
  93 prop tor   7   8   9  10
  94 prop tor   7   8   9  41
  95 ben   7   8  40
  96 ben   7  33  30
  97 ben   7  33  34
  98 prop tor   7  33  34  10
  99 prop tor   7  33  34  27
 100 ben   8   7  33
 101 prop tor   8   7  33  30
 102 prop tor   8   7  33  34
 103 ben   8   9  10
 104 prop tor   8   9  10  11
 105 prop tor   8   9  10  34
 106 ben   8   9  41
 107 ben   9   8  40
 108 ben   9  10  11
 109 prop tor   9  10  11  12
 110 prop tor   9  10  11  35
 111 ben   9  10  34
 112 prop tor   9  10  34  27
 113 prop tor   9  10  34  33
 114 ben  10   9  41
 115 ben  10  11  12
 116 prop tor  10  11  12  13
 117 prop tor  10  11  12  42
 118 ben  10  11  35
 119 prop tor  10  11  35  26
 120 prop tor  10  11  35  36
 121 ben  10  34  27
 122 ben  10  34  33
 123 ben  11  10  34
 124 prop tor  11  10  34  27
 125 prop tor  11  10  34  33
 126 ben  11  12  13
 127 prop tor  11  12  13  14
 128 prop tor  11  12  13  43
 129 ben  11  12  42
 130 ben  11  35  26
 131 ben  11  35  36
 132 prop tor  11  35  36  14
 133 prop tor  11  35  36  23
 134 ben  12  11  35
 135 prop tor  12  11  35  26
 136 prop tor  12  11  35  36
 137 ben  12  13  14
 138 prop tor  12  13  14  15
 139 prop tor  12  13  14  36
 140 ben  12  13  43
 141 ben  13  12  42
 142 ben  13  14  15
 143 prop tor  13  14  15  16
 144 prop tor  13  14  15  17
 145 ben  13  14  36
 146 prop tor  13  14  36  23
 147 prop tor  13  14  36  35
 148 ben  14  13  43
 149 ben  14  15  16
 150 ben  14  15  17
 151 prop tor  14  15  17  18
 152 prop tor  14  15  17  21
 153 ben  14  36  23
 154 ben  14  36  35
 155 ben  15  14  36
 156 prop tor  15  14  36  23
 157 prop tor  15  14  36  35
 158 ben  15  17  18
 159 prop tor  15  17  18  19
 160 prop tor  15  17  18  20
 161 prop tor  15  17  18  44
 162 ben  15  17  21
 163 prop tor  15  17  21  22
 164 prop tor  15  17  21  23
 165 ben  16  15  17
 166 prop tor  16  15  17  18
 167 prop tor  16  15  17  21
 168 ben  17  18  19
 169 prop tor  17  18  19  45
 170 prop tor  17  18  19  46
 171 prop tor  17  18  19  47
 172 ben  17  18  20
 173 prop tor  17  18  20  48
 174 prop tor  17  18  20  49
 175 prop tor  17  18  20  50
 176 ben  17  18  44
 177 ben  17  21  22
 178 ben  17  21  23
 179 prop tor  17  21  23  24
 180 prop tor  17  21  23  36
 181 ben  18  17  21
 182 prop tor  18  17  21  22
 183 prop tor  18  17  21  23
 184 ben  18  19  45
 185 ben  18  19  46
 186 ben  18  19  47
 187 ben  18  20  48
 188 ben  18  20  49
 189 ben  18  20  50
 190 ben  19  18  20
 191 prop tor  19  18  20  48
 192 prop tor  19  18  20  49
 193 prop tor  19  18  20  50
 194 ben  19  18  44
 195 prop tor  20  18  19  45
 196 prop tor  20  18  19  46
 197 prop tor  20  18  19  47
 198 ben  20  18  44
 199 prop tor  21  17  18  19
 200 prop tor  21  17  18  20
 201 prop tor  21  17  18  44
 202 ben  21  23  24
 203 prop tor  21  23  24  25
 204 prop tor  21  23  24  51
 205 ben  21  23  36
 206 prop tor  21  23  36  14
 207 prop tor  21  23  36  35
 208 ben  22  21  23
 209 prop tor  22  21  23  24
 210 prop tor  22  21  23  36
 211 ben  23  24  25
 212 prop tor  23  24  25  26
 213 prop tor  23  24  25  52
 214 ben  23  24  51
 215 ben  23  36  35
 216 ben  24  23  36
 217 prop tor  24  23  36  14
 218 prop tor  24  23  36  35
 219 ben  24  25  26
 220 prop tor  24  25  26  27
 221 prop tor  24  25  26  35
 222 ben  24  25  52
 223 ben  25  24  51
 224 ben  25  26  27
 225 prop tor  25  26  27  28
 226 prop tor  25  26  27  34
 227 ben  25  26  35
 228 prop tor  25  26  35  11
 229 prop tor  25  26  35  36
 230 ben  26  25  52
 231 ben  26  27  28
 232 prop tor  26  27  28  29
 233 prop tor  26  27  28  53
 234 ben  26  27  34
 235 prop tor  26  27  34  10
 236 prop tor  26  27  34  33
 237 ben  26  35  36
 238 prop tor  26  35  36  14
 239 prop tor  26  35  36  23
 240 ben  27  26  35
 241 prop tor  27  26  35  11
 242 prop tor  27  26  35  36
 243 ben  27  28  29
 244 prop tor  27  28  29  30
 245 prop tor  27  28  29  54
 246 ben  27  28  53
 247 ben  27  34  33
 248 ben  28  27  34
 249 prop tor  28  27  34  10
 250 prop tor  28  27  34  33
 251 ben  28  29  30
 252 prop tor  28  29  30  31
 253 prop tor  28  29  30  33
 254 ben  28  29  54
 255 ben  29  28  53
 256 ben  29  30  31
 257 prop tor  29  30  31   4
 258 prop tor  29  30  31  32
 259 ben  29  30  33
 260 prop tor  29  30  33   7
 261 prop tor  29  30  33  34
 262 ben  30  29  54
 263 ben  30  31  32
 264 ben  30  33  34
 265 prop tor  30  33  34  10
 266 prop tor  30  33  34  27
 267 prop tor  31   4   5   6
 268 prop tor  31   4   5   7
 269 ben  31  30  33
 270 prop tor  31  30  33   7
 271 prop tor  31  30  33  34
 272 prop tor  33   7   8   9
 273 prop tor  33   7   8  40
 274 prop tor  33  30  31   4
 275 prop tor  33  30  31  32
 276 prop tor  34  10  11  12
 277 prop tor  34  10  11  35
 278 prop tor  34  27  28  29
 279 prop tor  34  27  28  53
 280 prop tor  35  11  12  13
 281 prop tor  35  11  12  42
 282 prop tor  35  26  27  28
 283 prop tor  35  26  27  34
 284 prop tor  36  14  15  16
 285 prop tor  36  14  15  17
 286 prop tor  36  23  24  25
 287 prop tor  36  23  24  51
 288 prop tor  37   1   2   3
 289 ben  37   1  38
 290 ben  37   1  39
 291 prop tor  38   1   2   3
 292 ben  38   1  39
 293 prop tor  39   1   2   3
 294 prop tor  40   8   9  10
 295 prop tor  40   8   9  41
 296 prop tor  41   9  10  11
 297 prop tor  41   9  10  34
 298 prop tor  42  12  13  14
 299 prop tor  42  12  13  43
 300 prop tor  43  13  14  15
 301 prop tor  43  13  14  36
 302 prop tor  44  18  19  45
 303 prop tor  44  18  19  46
 304 prop tor  44  18  19  47
 305 prop tor  44  18  20  48
 306 prop tor  44  18  20  49
 307 prop tor  44  18  20  50
 308 ben  45  19  46
 309 ben  45  19  47
 310 ben  46  19  47
 311 ben  48  20  49
 312 ben  48  20  50
 313 ben  49  20  50
 314 prop tor  51  24  25  26
 315 prop tor  51  24  25  52
 316 prop tor  52  25  26  27
 317 prop tor  52  25  26  35
 318 prop tor  53  28  29  30
 319 prop tor  53  28  29  54
 320 prop tor  54  29  30  31
 321 prop tor  54  29  30  33
 322 lin bend prop tor   2   1   4   3
 323 lin bend prop tor   2   1   4   5
 324 lin bend prop tor   2   1   4  31
 325 lin bend prop tor  37   1   4   3
 326 lin bend prop tor  37   1   4   5
 327 lin bend prop tor  37   1   4  31
 328 lin bend prop tor  38   1   4   3
 329 lin bend prop tor  38   1   4   5
 330 lin bend prop tor  38   1   4  31
 331 lin bend prop tor  39   1   4   3
 332 lin bend prop tor  39   1   4   5
 333 lin bend prop tor  39   1   4  31
 nber bend=             106
 nber lin bend=           1
 nber prop tor=         167
 nber impr tor=           0
 nber tot redund int=         333
 Reading file: 
 ./PDI_4_C0S0.log                                                               
                                          
  Entering Gaussian System, Link 0=g16                                          
  
 Gaussian format, type: g94, g98, g03= F F F
  #P Geom=AllCheck Guess=TCheck SCRF=Check GenChk RB3LYP/6-311G(d,p) Fre    
 energy type= B3LYP   
 Original G94 input coords:
  6  1.106932  0.009064 -0.098008
  6  2.562075  0.026862 -0.067140
  6  3.761309  0.037159 -0.044407
  7  5.123438  0.046141 -0.017015
  6  5.785845 -1.204544  0.159089
  8  5.149268 -2.225691  0.277099
  6  7.264361 -1.155514  0.185091
  6  7.964237 -2.335243  0.354130
  6  9.359540 -2.334502  0.384705
  6 10.098077 -1.160812  0.247871
  6 11.567133 -1.151596  0.279240
  6 12.317705 -2.313856  0.448312
  6 13.714248 -2.294651  0.476761
  6 14.401514 -1.104591  0.335780
  6 15.886928 -1.115586  0.370371
  8 16.507989 -2.152971  0.520642
  7 16.543325  0.113088  0.223597
  6 18.040929  0.150585  0.252576
  6 18.592795 -0.282696  1.614591
  6 18.650447 -0.615806 -0.925760
  6 15.877450  1.340846  0.047092
  8 16.490919  2.385276 -0.076780
  6 14.393285  1.311068  0.018218
  6 13.697673  2.492665 -0.152324
  6 12.301146  2.494379 -0.183019
  6 11.558653  1.322790 -0.045252
  6 10.089555  1.313843 -0.075744
  6  9.343076  2.478404 -0.243792
  6  7.947811  2.461942 -0.271823
  6  7.256085  1.273649 -0.131795
  6  5.777200  1.304594 -0.167790
  8  5.133884  2.317724 -0.314426
  6  7.967992  0.063420  0.041526
  6  9.396474  0.072211  0.071436
  6 12.257403  0.089950  0.131699
  6 13.684338  0.098802  0.161911
  1  0.738741 -1.013991 -0.215455
  1  0.725339  0.602086 -0.934007
  1  0.683942  0.415500  0.825215
  1  7.407500 -3.257541  0.462092
  1  9.862298 -3.281980  0.519275
  1 11.824109 -3.268919  0.562691
  1 14.279762 -3.208292  0.609238
  1 18.262362  1.207048  0.119093
  1 18.420313 -1.341704  1.801765
  1 18.137040  0.299499  2.419648
  1 19.669736 -0.095279  1.636921
  1 18.480661 -1.688320 -0.841015
  1 19.728340 -0.433890 -0.947754
  1 18.234251 -0.263662 -1.873151
  1 14.256266  3.413593 -0.261127
  1 11.801028  3.443230 -0.318606
  1  9.839307  3.432054 -0.357340
  1  7.384742  3.377307 -0.403367
 nber atoms=          54
  SCF Done:  E(RB3LYP) =  -1564.87711847     A.U. after    1 cycles             
  
          23          40 "  -1564.87711847"
After scan for Atom:   Atom  AN      X      Y      Z        X      Y      Z        X      Y      Z   
After scan for Atom:   Atom  AN      X      Y      Z        X      Y      Z        X      Y      Z   
After scan for Atom:   Atom  AN      X      Y      Z        X      Y      Z        X      Y      Z   
After scan for Atom:   Atom  AN      X      Y      Z        X      Y      Z        X      Y      Z   
After scan for Atom:   Atom  AN      X      Y      Z        X      Y      Z        X      Y      Z   
After scan for Atom:   Atom  AN      X      Y      Z        X      Y      Z        X      Y      Z   
After scan for Atom:   Atom  AN      X      Y      Z        X      Y      Z        X      Y      Z   
After scan for Atom:   Atom  AN      X      Y      Z        X      Y      Z        X      Y      Z   
After scan for Atom:   Atom  AN      X      Y      Z        X      Y      Z        X      Y      Z   
After scan for Atom:   Atom  AN      X      Y      Z        X      Y      Z        X      Y      Z   
After scan for Atom:   Atom  AN      X      Y      Z        X      Y      Z        X      Y      Z   
After scan for Atom:   Atom  AN      X      Y      Z        X      Y      Z        X      Y      Z   
After scan for Atom:   Atom  AN      X      Y      Z        X      Y      Z        X      Y      Z   
After scan for Atom:   Atom  AN      X      Y      Z        X      Y      Z        X      Y      Z   
After scan for Atom:   Atom  AN      X      Y      Z        X      Y      Z        X      Y      Z   
After scan for Atom:   Atom  AN      X      Y      Z        X      Y      Z        X      Y      Z   
After scan for Atom:   Atom  AN      X      Y      Z        X      Y      Z        X      Y      Z   
After scan for Atom:   Atom  AN      X      Y      Z        X      Y      Z        X      Y      Z   
After scan for Atom:   Atom  AN      X      Y      Z        X      Y      Z        X      Y      Z   
After scan for Atom:   Atom  AN      X      Y      Z        X      Y      Z        X      Y      Z   
After scan for Atom:   Atom  AN      X      Y      Z        X      Y      Z        X      Y      Z   
After scan for Atom:   Atom  AN      X      Y      Z        X      Y      Z        X      Y      Z   
After scan for Atom:   Atom  AN      X      Y      Z        X      Y      Z        X      Y      Z   
After scan for Atom:   Atom  AN      X      Y      Z        X      Y      Z        X      Y      Z   
After scan for Atom:   Atom  AN      X      Y      Z        X      Y      Z        X      Y      Z   
After scan for Atom:   Atom  AN      X      Y      Z        X      Y      Z        X      Y      Z   
After scan for Atom:   Atom  AN      X      Y      Z        X      Y      Z        X      Y      Z   
After scan for Atom:   Atom  AN      X      Y      Z        X      Y      Z        X      Y      Z   
After scan for Atom:   Atom  AN      X      Y      Z        X      Y      Z        X      Y      Z   
After scan for Atom:   Atom  AN      X      Y      Z        X      Y      Z        X      Y      Z   
After scan for Atom:   Atom  AN      X      Y      Z        X      Y      Z        X      Y      Z   
After scan for Atom:   Atom  AN      X      Y      Z        X      Y      Z        X      Y      Z   
After scan for Atom:   Atom  AN      X      Y      Z        X      Y      Z        X      Y      Z   
After scan for Atom:   Atom  AN      X      Y      Z        X      Y      Z        X      Y      Z   
After scan for Atom:   Atom  AN      X      Y      Z        X      Y      Z        X      Y      Z   
After scan for Atom:   Atom  AN      X      Y      Z        X      Y      Z        X      Y      Z   
After scan for Atom:   Atom  AN      X      Y      Z        X      Y      Z        X      Y      Z   
After scan for Atom:   Atom  AN      X      Y      Z        X      Y      Z        X      Y      Z   
After scan for Atom:   Atom  AN      X      Y      Z        X      Y      Z        X      Y      Z   
After scan for Atom:   Atom  AN      X      Y      Z        X      Y      Z        X      Y      Z   
After scan for Atom:   Atom  AN      X      Y      Z        X      Y      Z        X      Y      Z   
After scan for Atom:   Atom  AN      X      Y      Z        X      Y      Z        X      Y      Z   
After scan for Atom:   Atom  AN      X      Y      Z        X      Y      Z        X      Y      Z   
After scan for Atom:   Atom  AN      X      Y      Z        X      Y      Z        X      Y      Z   
After scan for Atom:   Atom  AN      X      Y      Z        X      Y      Z        X      Y      Z   
After scan for Atom:   Atom  AN      X      Y      Z        X      Y      Z        X      Y      Z   
After scan for Atom:   Atom  AN      X      Y      Z        X      Y      Z        X      Y      Z   
After scan for Atom:   Atom  AN      X      Y      Z        X      Y      Z        X      Y      Z   
After scan for Atom:   Atom  AN      X      Y      Z        X      Y      Z        X      Y      Z   
After scan for Atom:   Atom  AN      X      Y      Z        X      Y      Z        X      Y      Z   
After scan for Atom:   Atom  AN      X      Y      Z        X      Y      Z        X      Y      Z   
After scan for Atom:   Atom  AN      X      Y      Z        X      Y      Z        X      Y      Z   
 g94    frequencies=
     0.0    0.0    0.0    0.0    0.0    0.0    7.8   19.8   22.2   37.8
    52.9   53.3   63.6   74.5   86.2  102.0  113.7  134.3  163.5  180.7
   181.0  187.8  201.6  215.0  234.3  235.2  270.4  271.3  278.5  280.8
   299.2  314.1  337.2  347.2  358.8  389.9  395.0  428.7  433.9  437.0
   444.3  447.4  448.9  470.6  472.6  479.1  479.2  482.6  507.8  526.7
   534.1  554.2  577.7  588.8  595.8  623.6  630.8  655.6  665.9  711.6
   719.4  720.9  740.6  747.3  756.0  769.4  780.1  787.0  797.1  810.5
   817.7  830.3  849.3  864.2  865.1  869.5  871.0  909.9  926.5  945.5
   957.0  975.6  984.9  992.6  996.8 1001.4 1005.9 1052.9 1054.0 1064.0
  1074.7 1100.6 1138.7 1140.0 1155.8 1157.2 1169.8 1182.2 1195.2 1209.2
  1214.6 1221.4 1240.7 1250.6 1267.7 1269.6 1314.7 1316.3 1328.6 1336.0
  1360.3 1368.5 1374.7 1382.1 1382.7 1400.7 1406.0 1417.2 1421.3 1428.8
  1436.8 1454.5 1475.9 1476.8 1481.0 1485.3 1491.3 1498.1 1505.3 1506.2
  1522.6 1542.8 1560.9 1603.9 1614.8 1619.3 1631.0 1631.5 1648.7 1713.6
  1751.3 1751.7 1781.1 2388.3 3024.0 3034.8 3038.9 3080.7 3085.7 3092.7
  3095.9 3113.2 3133.1 3143.5 3194.3 3194.5 3201.5 3201.8 3208.7 3209.0
  3218.9 3219.1
 g94    symmetries=
                                                 A      A      A      A
       A      A      A      A      A      A      A      A      A      A
       A      A      A      A      A      A      A      A      A      A
       A      A      A      A      A      A      A      A      A      A
       A      A      A      A      A      A      A      A      A      A
       A      A      A      A      A      A      A      A      A      A
       A      A      A      A      A      A      A      A      A      A
       A      A      A      A      A      A      A      A      A      A
       A      A      A      A      A      A      A      A      A      A
       A      A      A      A      A      A      A      A      A      A
       A      A      A      A      A      A      A      A      A      A
       A      A      A      A      A      A      A      A      A      A
       A      A      A      A      A      A      A      A      A      A
       A      A      A      A      A      A      A      A      A      A
       A      A      A      A      A      A      A      A      A      A
       A      A      A      A      A      A      A      A      A      A
       A      A
 atomic masses:
 12.0000 12.0000 12.0000 14.0031 12.0000 15.9949 12.0000 12.0000 12.0000 12.0000
 12.0000 12.0000 12.0000 12.0000 12.0000 15.9949 14.0031 12.0000 12.0000 12.0000
 12.0000 15.9949 12.0000 12.0000 12.0000 12.0000 12.0000 12.0000 12.0000 12.0000
 12.0000 15.9949 12.0000 12.0000 12.0000 12.0000  1.0078  1.0078  1.0078  1.0078
  1.0078  1.0078  1.0078  1.0078  1.0078  1.0078  1.0078  1.0078  1.0078  1.0078
  1.0078  1.0078  1.0078  1.0078
 looking for force constants in 
 ./PDI_4_C0S0.fchk                                                              
  
 Cartesian Force Constants                  R   N=       13203                  
  
 n3=         162       13203
 g94-fc frequencies=
    -1.7   -0.9    0.0    0.0    0.0    3.6    7.8   19.9   22.2   37.8
    52.9   53.3   63.6   74.5   86.2  102.0  113.7  134.3  163.5  180.7
   181.0  187.8  201.6  215.0  234.3  235.2  270.4  271.3  278.5  280.8
   299.2  314.2  337.2  347.2  358.8  389.9  395.0  428.7  433.9  437.0
   444.3  447.4  448.9  470.6  472.6  479.1  479.2  482.6  507.8  526.7
   534.1  554.2  577.8  588.8  595.8  623.6  630.8  655.6  665.9  711.7
   719.4  720.9  740.6  747.3  756.0  769.4  780.1  787.0  797.2  810.5
   817.8  830.3  849.4  864.2  865.1  869.5  871.0  909.9  926.5  945.5
   957.0  975.6  984.9  992.6  996.8 1001.4 1005.9 1052.9 1054.0 1064.0
  1074.8 1100.7 1138.7 1140.1 1155.8 1157.3 1169.8 1182.3 1195.3 1209.2
  1214.6 1221.4 1240.7 1250.6 1267.7 1269.7 1314.7 1316.3 1328.6 1336.1
  1360.3 1368.5 1374.7 1382.1 1382.7 1400.7 1406.0 1417.3 1421.3 1428.9
  1436.8 1454.5 1476.0 1476.8 1481.0 1485.3 1491.3 1498.2 1505.3 1506.2
  1522.7 1542.8 1560.9 1603.9 1614.9 1619.3 1631.1 1631.6 1648.8 1713.6
  1751.4 1751.7 1781.2 2388.4 3024.1 3034.9 3039.0 3080.7 3085.8 3092.8
  3096.0 3113.3 3133.2 3143.5 3194.4 3194.6 3201.5 3201.8 3208.8 3209.1
  3218.9 3219.1
 at 99999: n3=         162
 symm operator            1 :  F  nop=           0
 symm operator            2 :  F  nop=           0
 symm operator            3 :  F  nop=           0
 symm operator            4 :  F  nop=           0
 symm operator            5 :  F  nop=           0
 symm operator            6 :  F  nop=           0
 symm operator            7 :  F  nop=           0
 The point group of the molecule is  C1
 Symmetry rotation matrix:
   1.00000   0.00000   0.00000
   0.00000   1.00000   0.00000
   0.00000   0.00000   1.00000

 Projecting out zero-frequency components
 generating redundant internal coords
         300        3600          54
 search for int coords
   1 str   2   1   1.456
   2 str   3   2   1.199
   3 str   4   3   1.362
   4 str   5   4   1.426
   5 str   6   5   1.209
   6 str   7   5   1.480
   7 str   8   7   1.382
   8 str   9   8   1.396
   9 str  10   9   1.393
  10 str  11  10   1.469
  11 str  12  11   1.394
  12 str  13  12   1.397
  13 str  14  13   1.381
  14 str  15  14   1.486
  15 str  16  15   1.218
  16 str  17  15   1.401
  17 str  18  17   1.498
  18 str  19  18   1.532
  19 str  20  18   1.532
  20 str  21  17   1.408
  21 str  22  21   1.218
  22 str  23  21   1.485
  23 str  24  23   1.382
  24 str  25  24   1.397
  25 str  26  25   1.394
  26 str  27  26   1.469
  27 str  28  27   1.393
  28 str  29  28   1.396
  29 str  30  29   1.382
  30 str  31   4   1.426
  31 str  31  30   1.480
  32 str  32  31   1.209
  33 str  33   7   1.415
  34 str  33  30   1.415
  35 str  34  10   1.430
  36 str  34  27   1.430
  37 str  34  33   1.429
  38 str  35  11   1.428
  39 str  35  26   1.428
  40 str  36  14   1.412
  41 str  36  23   1.412
  42 str  36  35   1.427
  43 str  37   1   1.094
  44 str  38   1   1.094
  45 str  39   1   1.094
  46 str  40   8   1.083
  47 str  41   9   1.081
  48 str  42  12   1.081
  49 str  43  13   1.083
  50 str  44  18   1.088
  51 str  45  19   1.089
  52 str  46  19   1.093
  53 str  47  19   1.093
  54 str  48  20   1.089
  55 str  49  20   1.093
  56 str  50  20   1.093
  57 str  51  24   1.083
  58 str  52  25   1.081
  59 str  53  28   1.081
  60 str  54  29   1.083
 nber stretches=          60
  61 lin ben   1   2   3
  63 ben   2   1  37
  64 ben   2   1  38
  65 ben   2   1  39
 Extend lin bond           1           1           2           4
  66 lin ben   2   3   4
  68 ben   3   4   5
  69 prop tor   3   4   5   6
  70 prop tor   3   4   5   7
  71 ben   3   4  31
  72 prop tor   3   4  31  30
  73 prop tor   3   4  31  32
  74 ben   4   5   6
  75 ben   4   5   7
  76 prop tor   4   5   7   8
  77 prop tor   4   5   7  33
  78 ben   4  31  30
  79 ben   4  31  32
  80 ben   5   4  31
  81 prop tor   5   4  31  30
  82 prop tor   5   4  31  32
  83 ben   5   7   8
  84 prop tor   5   7   8   9
  85 prop tor   5   7   8  40
  86 ben   5   7  33
  87 prop tor   5   7  33  30
  88 prop tor   5   7  33  34
  89 ben   6   5   7
  90 prop tor   6   5   7   8
  91 prop tor   6   5   7  33
  92 ben   7   8   9
  93 prop tor   7   8   9  10
  94 prop tor   7   8   9  41
  95 ben   7   8  40
  96 ben   7  33  30
  97 ben   7  33  34
  98 prop tor   7  33  34  10
  99 prop tor   7  33  34  27
 100 ben   8   7  33
 101 prop tor   8   7  33  30
 102 prop tor   8   7  33  34
 103 ben   8   9  10
 104 prop tor   8   9  10  11
 105 prop tor   8   9  10  34
 106 ben   8   9  41
 107 ben   9   8  40
 108 ben   9  10  11
 109 prop tor   9  10  11  12
 110 prop tor   9  10  11  35
 111 ben   9  10  34
 112 prop tor   9  10  34  27
 113 prop tor   9  10  34  33
 114 ben  10   9  41
 115 ben  10  11  12
 116 prop tor  10  11  12  13
 117 prop tor  10  11  12  42
 118 ben  10  11  35
 119 prop tor  10  11  35  26
 120 prop tor  10  11  35  36
 121 ben  10  34  27
 122 ben  10  34  33
 123 ben  11  10  34
 124 prop tor  11  10  34  27
 125 prop tor  11  10  34  33
 126 ben  11  12  13
 127 prop tor  11  12  13  14
 128 prop tor  11  12  13  43
 129 ben  11  12  42
 130 ben  11  35  26
 131 ben  11  35  36
 132 prop tor  11  35  36  14
 133 prop tor  11  35  36  23
 134 ben  12  11  35
 135 prop tor  12  11  35  26
 136 prop tor  12  11  35  36
 137 ben  12  13  14
 138 prop tor  12  13  14  15
 139 prop tor  12  13  14  36
 140 ben  12  13  43
 141 ben  13  12  42
 142 ben  13  14  15
 143 prop tor  13  14  15  16
 144 prop tor  13  14  15  17
 145 ben  13  14  36
 146 prop tor  13  14  36  23
 147 prop tor  13  14  36  35
 148 ben  14  13  43
 149 ben  14  15  16
 150 ben  14  15  17
 151 prop tor  14  15  17  18
 152 prop tor  14  15  17  21
 153 ben  14  36  23
 154 ben  14  36  35
 155 ben  15  14  36
 156 prop tor  15  14  36  23
 157 prop tor  15  14  36  35
 158 ben  15  17  18
 159 prop tor  15  17  18  19
 160 prop tor  15  17  18  20
 161 prop tor  15  17  18  44
 162 ben  15  17  21
 163 prop tor  15  17  21  22
 164 prop tor  15  17  21  23
 165 ben  16  15  17
 166 prop tor  16  15  17  18
 167 prop tor  16  15  17  21
 168 ben  17  18  19
 169 prop tor  17  18  19  45
 170 prop tor  17  18  19  46
 171 prop tor  17  18  19  47
 172 ben  17  18  20
 173 prop tor  17  18  20  48
 174 prop tor  17  18  20  49
 175 prop tor  17  18  20  50
 176 ben  17  18  44
 177 ben  17  21  22
 178 ben  17  21  23
 179 prop tor  17  21  23  24
 180 prop tor  17  21  23  36
 181 ben  18  17  21
 182 prop tor  18  17  21  22
 183 prop tor  18  17  21  23
 184 ben  18  19  45
 185 ben  18  19  46
 186 ben  18  19  47
 187 ben  18  20  48
 188 ben  18  20  49
 189 ben  18  20  50
 190 ben  19  18  20
 191 prop tor  19  18  20  48
 192 prop tor  19  18  20  49
 193 prop tor  19  18  20  50
 194 ben  19  18  44
 195 prop tor  20  18  19  45
 196 prop tor  20  18  19  46
 197 prop tor  20  18  19  47
 198 ben  20  18  44
 199 prop tor  21  17  18  19
 200 prop tor  21  17  18  20
 201 prop tor  21  17  18  44
 202 ben  21  23  24
 203 prop tor  21  23  24  25
 204 prop tor  21  23  24  51
 205 ben  21  23  36
 206 prop tor  21  23  36  14
 207 prop tor  21  23  36  35
 208 ben  22  21  23
 209 prop tor  22  21  23  24
 210 prop tor  22  21  23  36
 211 ben  23  24  25
 212 prop tor  23  24  25  26
 213 prop tor  23  24  25  52
 214 ben  23  24  51
 215 ben  23  36  35
 216 ben  24  23  36
 217 prop tor  24  23  36  14
 218 prop tor  24  23  36  35
 219 ben  24  25  26
 220 prop tor  24  25  26  27
 221 prop tor  24  25  26  35
 222 ben  24  25  52
 223 ben  25  24  51
 224 ben  25  26  27
 225 prop tor  25  26  27  28
 226 prop tor  25  26  27  34
 227 ben  25  26  35
 228 prop tor  25  26  35  11
 229 prop tor  25  26  35  36
 230 ben  26  25  52
 231 ben  26  27  28
 232 prop tor  26  27  28  29
 233 prop tor  26  27  28  53
 234 ben  26  27  34
 235 prop tor  26  27  34  10
 236 prop tor  26  27  34  33
 237 ben  26  35  36
 238 prop tor  26  35  36  14
 239 prop tor  26  35  36  23
 240 ben  27  26  35
 241 prop tor  27  26  35  11
 242 prop tor  27  26  35  36
 243 ben  27  28  29
 244 prop tor  27  28  29  30
 245 prop tor  27  28  29  54
 246 ben  27  28  53
 247 ben  27  34  33
 248 ben  28  27  34
 249 prop tor  28  27  34  10
 250 prop tor  28  27  34  33
 251 ben  28  29  30
 252 prop tor  28  29  30  31
 253 prop tor  28  29  30  33
 254 ben  28  29  54
 255 ben  29  28  53
 256 ben  29  30  31
 257 prop tor  29  30  31   4
 258 prop tor  29  30  31  32
 259 ben  29  30  33
 260 prop tor  29  30  33   7
 261 prop tor  29  30  33  34
 262 ben  30  29  54
 263 ben  30  31  32
 264 ben  30  33  34
 265 prop tor  30  33  34  10
 266 prop tor  30  33  34  27
 267 prop tor  31   4   5   6
 268 prop tor  31   4   5   7
 269 ben  31  30  33
 270 prop tor  31  30  33   7
 271 prop tor  31  30  33  34
 272 prop tor  33   7   8   9
 273 prop tor  33   7   8  40
 274 prop tor  33  30  31   4
 275 prop tor  33  30  31  32
 276 prop tor  34  10  11  12
 277 prop tor  34  10  11  35
 278 prop tor  34  27  28  29
 279 prop tor  34  27  28  53
 280 prop tor  35  11  12  13
 281 prop tor  35  11  12  42
 282 prop tor  35  26  27  28
 283 prop tor  35  26  27  34
 284 prop tor  36  14  15  16
 285 prop tor  36  14  15  17
 286 prop tor  36  23  24  25
 287 prop tor  36  23  24  51
 288 prop tor  37   1   2   3
 289 ben  37   1  38
 290 ben  37   1  39
 291 prop tor  38   1   2   3
 292 ben  38   1  39
 293 prop tor  39   1   2   3
 294 prop tor  40   8   9  10
 295 prop tor  40   8   9  41
 296 prop tor  41   9  10  11
 297 prop tor  41   9  10  34
 298 prop tor  42  12  13  14
 299 prop tor  42  12  13  43
 300 prop tor  43  13  14  15
 301 prop tor  43  13  14  36
 302 prop tor  44  18  19  45
 303 prop tor  44  18  19  46
 304 prop tor  44  18  19  47
 305 prop tor  44  18  20  48
 306 prop tor  44  18  20  49
 307 prop tor  44  18  20  50
 308 ben  45  19  46
 309 ben  45  19  47
 310 ben  46  19  47
 311 ben  48  20  49
 312 ben  48  20  50
 313 ben  49  20  50
 314 prop tor  51  24  25  26
 315 prop tor  51  24  25  52
 316 prop tor  52  25  26  27
 317 prop tor  52  25  26  35
 318 prop tor  53  28  29  30
 319 prop tor  53  28  29  54
 320 prop tor  54  29  30  31
 321 prop tor  54  29  30  33
 322 lin bend prop tor   2   1   4   3
 323 lin bend prop tor   2   1   4   5
 324 lin bend prop tor   2   1   4  31
 325 lin bend prop tor  37   1   4   3
 326 lin bend prop tor  37   1   4   5
 327 lin bend prop tor  37   1   4  31
 328 lin bend prop tor  38   1   4   3
 329 lin bend prop tor  38   1   4   5
 330 lin bend prop tor  38   1   4  31
 331 lin bend prop tor  39   1   4   3
 332 lin bend prop tor  39   1   4   5
 333 lin bend prop tor  39   1   4  31
 nber bend=             106
 nber lin bend=           1
 nber prop tor=         167
 nber impr tor=           0
 nber tot redund int=         333
 Eigenvalues of G in red int coords
    Gval -0.00000000 -0.00000000 -0.00000000 -0.00000000 -0.00000000 -0.00000000 -0.00000000 -0.00000000
    Gval -0.00000000 -0.00000000 -0.00000000 -0.00000000 -0.00000000 -0.00000000 -0.00000000 -0.00000000
    Gval -0.00000000 -0.00000000 -0.00000000 -0.00000000 -0.00000000 -0.00000000 -0.00000000 -0.00000000
    Gval -0.00000000 -0.00000000 -0.00000000 -0.00000000 -0.00000000 -0.00000000 -0.00000000 -0.00000000
    Gval -0.00000000 -0.00000000 -0.00000000 -0.00000000 -0.00000000 -0.00000000 -0.00000000 -0.00000000
    Gval -0.00000000 -0.00000000 -0.00000000 -0.00000000 -0.00000000 -0.00000000 -0.00000000 -0.00000000
    Gval -0.00000000 -0.00000000 -0.00000000 -0.00000000 -0.00000000 -0.00000000 -0.00000000 -0.00000000
    Gval -0.00000000 -0.00000000 -0.00000000 -0.00000000 -0.00000000 -0.00000000 -0.00000000 -0.00000000
    Gval -0.00000000 -0.00000000 -0.00000000 -0.00000000 -0.00000000 -0.00000000 -0.00000000 -0.00000000
    Gval -0.00000000 -0.00000000 -0.00000000 -0.00000000 -0.00000000 -0.00000000 -0.00000000 -0.00000000
    Gval -0.00000000 -0.00000000 -0.00000000 -0.00000000 -0.00000000 -0.00000000  0.00000000  0.00000000
    Gval  0.00000000  0.00000000  0.00000000  0.00000000  0.00000000  0.00000000  0.00000000  0.00000000
    Gval  0.00000000  0.00000000  0.00000000  0.00000000  0.00000000  0.00000000  0.00000000  0.00000000
    Gval  0.00000000  0.00000000  0.00000000  0.00000000  0.00000000  0.00000000  0.00000000  0.00000000
    Gval  0.00000000  0.00000000  0.00000000  0.00000000  0.00000000  0.00000000  0.00000000  0.00000000
    Gval  0.00000000  0.00000000  0.00000000  0.00000000  0.00000000  0.00000000  0.00000000  0.00000000
    Gval  0.00000000  0.00000000  0.00000000  0.00000000  0.00000000  0.00000000  0.00000000  0.00000000
    Gval  0.00000000  0.00000000  0.00000000  0.00000000  0.00000000  0.00000000  0.00000000  0.00000000
    Gval  0.00000000  0.00000000  0.00000000  0.00000000  0.00000000  0.00000000  0.00000000  0.00000000
    Gval  0.00000000  0.00000000  0.00000000  0.00000000  0.00000000  0.00000000  0.00000000  0.00000000
    Gval  0.00000000  0.00000000  0.00000000  0.00000000  0.00000000  0.00000000  0.00000000  0.00000000
    Gval  0.00000000  0.00000000  0.00000000  0.00000000  0.00000000  0.00000000  0.00000000  0.00000000
    Gval  0.00000000  0.00000085  0.00000200  0.00000243  0.00000293  0.00000617  0.00000697  0.00000873
    Gval  0.00000995  0.00001109  0.00001112  0.00001557  0.00001631  0.00001722  0.00001781  0.00001836
    Gval  0.00002045  0.00002165  0.00002386  0.00002405  0.00002538  0.00002985  0.00003444  0.00003584
    Gval  0.00003691  0.00003993  0.00004657  0.00004920  0.00005123  0.00005309  0.00005553  0.00005900
    Gval  0.00006230  0.00006731  0.00006855  0.00007176  0.00007399  0.00008138  0.00008246  0.00008491
    Gval  0.00008741  0.00009167  0.00009385  0.00009441  0.00009597  0.00011340  0.00012149  0.00012271
    Gval  0.00013652  0.00013695  0.00013731  0.00014074  0.00014990  0.00015761  0.00016096  0.00016849
    Gval  0.00017047  0.00018067  0.00020233  0.00022271  0.00022755  0.00023026  0.00024554  0.00027446
    Gval  0.00028273  0.00029199  0.00029984  0.00032767  0.00034272  0.00036136  0.00038220  0.00039191
    Gval  0.00039229  0.00039614  0.00040675  0.00041638  0.00042458  0.00042998  0.00043341  0.00044157
    Gval  0.00044268  0.00046237  0.00046558  0.00046622  0.00049197  0.00052442  0.00053430  0.00053717
    Gval  0.00053917  0.00054904  0.00055386  0.00055414  0.00055603  0.00055657  0.00055662  0.00059275
    Gval  0.00059865  0.00059943  0.00059969  0.00060001  0.00060220  0.00061215  0.00064192  0.00064560
    Gval  0.00064614  0.00064810  0.00066712  0.00068441  0.00069057  0.00069791  0.00075078  0.00081657
    Gval  0.00092141  0.00094605  0.00109550  0.00109646  0.00109720  0.00109771  0.00114382  0.00114920
    Gval  0.00116254  0.00116274  0.00116306  0.00116333  0.00117176  0.00117255  0.00118596  0.00120141
    Gval  0.00129529  0.00131633  0.00134296  0.00151965  0.00152560  0.00173162  0.00175432  0.00190819
    Gval  0.00229297  0.00235500  0.00253222  0.00253669  0.00256307  0.00278598  0.00292293  0.00302365
    Gval  0.00304216  0.00308150  0.00309697  0.00342776  0.00355062  0.00365511  0.00365704  0.00370376
    Gval  0.00370547  0.00394328  0.65021233 17.59593566 36.38674246
  8.477680351924502E-007  8.477680351924502E-007
  1.998210398249695E-006  8.477680351924502E-007
  2.434691497761983E-006  8.477680351924502E-007
  2.930620104740324E-006  8.477680351924502E-007
  6.165649521028903E-006  8.477680351924502E-007
  6.974531408423996E-006  8.477680351924502E-007
  8.730581811744429E-006  8.477680351924502E-007
  9.948487210207466E-006  8.477680351924502E-007
  1.108513773118215E-005  8.477680351924502E-007
  1.112173921691327E-005  8.477680351924502E-007
  1.556810308507383E-005  8.477680351924502E-007
  1.630739148801641E-005  8.477680351924502E-007
  1.721860101388773E-005  8.477680351924502E-007
  1.781302819214028E-005  8.477680351924502E-007
  1.835929700021548E-005  8.477680351924502E-007
  2.045099443110170E-005  8.477680351924502E-007
  2.165225298743489E-005  8.477680351924502E-007
  2.385848324793718E-005  8.477680351924502E-007
  2.404642213002426E-005  8.477680351924502E-007
  2.537536554707926E-005  8.477680351924502E-007
  2.984535761628357E-005  8.477680351924502E-007
  3.443671364201988E-005  8.477680351924502E-007
  3.584267694402410E-005  8.477680351924502E-007
  3.690827808715024E-005  8.477680351924502E-007
  3.993481981153605E-005  8.477680351924502E-007
  4.657268109723314E-005  8.477680351924502E-007
  4.920475162065714E-005  8.477680351924502E-007
  5.122960392378689E-005  8.477680351924502E-007
  5.309036739820851E-005  8.477680351924502E-007
  5.553390174053822E-005  8.477680351924502E-007
  5.899817261844062E-005  8.477680351924502E-007
  6.230168187345280E-005  8.477680351924502E-007
  6.730591402159812E-005  8.477680351924502E-007
  6.854896695069910E-005  8.477680351924502E-007
  7.176118678640892E-005  8.477680351924502E-007
  7.399494097166342E-005  8.477680351924502E-007
  8.137548017640412E-005  8.477680351924502E-007
  8.245732427230886E-005  8.477680351924502E-007
  8.491008889666246E-005  8.477680351924502E-007
  8.741454012011064E-005  8.477680351924502E-007
  9.166991558210703E-005  8.477680351924502E-007
  9.385305533960928E-005  8.477680351924502E-007
  9.441406626121472E-005  8.477680351924502E-007
  9.597345582537594E-005  8.477680351924502E-007
  1.133990892758596E-004  8.477680351924502E-007
  1.214863823361516E-004  8.477680351924502E-007
  1.227087918083920E-004  8.477680351924502E-007
  1.365215278131053E-004  8.477680351924502E-007
  1.369469183080675E-004  8.477680351924502E-007
  1.373056808446026E-004  8.477680351924502E-007
  1.407377935241585E-004  8.477680351924502E-007
  1.498956054705693E-004  8.477680351924502E-007
  1.576083042845631E-004  8.477680351924502E-007
  1.609642967267398E-004  8.477680351924502E-007
  1.684854947474390E-004  8.477680351924502E-007
  1.704672510004656E-004  8.477680351924502E-007
  1.806741022801505E-004  8.477680351924502E-007
  2.023304539370893E-004  8.477680351924502E-007
  2.227145974664580E-004  8.477680351924502E-007
  2.275549002206375E-004  8.477680351924502E-007
  2.302576906847774E-004  8.477680351924502E-007
[...]
 nber times 1st assigned=          83           0
 nber times 1st assigned=          84           0
 nber times 1st assigned=          85           0
 nber times 1st assigned=          86           0
 nber times 1st assigned=          87           0
 nber times 1st assigned=          88           0
 nber times 1st assigned=          89           0
 nber times 1st assigned=          90           0
 nber times 1st assigned=          91           0
 nber times 1st assigned=          92           0
 nber times 1st assigned=          93           0
 nber times 1st assigned=          94           0
 nber times 1st assigned=          95           0
 nber times 1st assigned=          96           0
 nber times 1st assigned=          97           0
 nber times 1st assigned=          98           0
 nber times 1st assigned=          99           0
 nber times 1st assigned=         100           0
 nber times 1st assigned=         101           0
 nber times 1st assigned=         102           0
 nber times 1st assigned=         103           0
 nber times 1st assigned=         104           0
 nber times 1st assigned=         105           0
 nber times 1st assigned=         106           0
 nber times 1st assigned=         107           0
 nber times 1st assigned=         108           0
 nber times 1st assigned=         109           0
 nber times 1st assigned=         110           0
 nber times 1st assigned=         111           0
 nber times 1st assigned=         112           0
 nber times 1st assigned=         113           0
 nber times 1st assigned=         114           0
 nber times 1st assigned=         115           0
 nber times 1st assigned=         116           0
 nber times 1st assigned=         117           0
 nber times 1st assigned=         118           0
 nber times 1st assigned=         119           0
 nber times 1st assigned=         120           0
 nber times 1st assigned=         121           0
 nber times 1st assigned=         122           0
 nber times 1st assigned=         123           0
 nber times 1st assigned=         124           0
 nber times 1st assigned=         125           0
 nber times 1st assigned=         126           0
 nber times 1st assigned=         127           0
 nber times 1st assigned=         128           0
 nber times 1st assigned=         129           0
 nber times 1st assigned=         130           0
 nber times 1st assigned=         131           0
 nber times 1st assigned=         132           0
 nber times 1st assigned=         133           0
 nber times 1st assigned=         134           0
 nber times 1st assigned=         135           0
 nber times 1st assigned=         136           0
 nber times 1st assigned=         137           0
 nber times 1st assigned=         138           0
 nber times 1st assigned=         139           0
 nber times 1st assigned=         140           0
 nber times 1st assigned=         141           0
 nber times 1st assigned=         142           0
 nber times 1st assigned=         143           0
 nber times 1st assigned=         144           0
 nber times 1st assigned=         145           0
 nber times 1st assigned=         146           0
 nber times 1st assigned=         147           0
 nber times 1st assigned=         148           0
 nber times 1st assigned=         149           0
 nber times 1st assigned=         150           0
 nber times 1st assigned=         151           0
 nber times 1st assigned=         152           0
 nber times 1st assigned=         153           0
 nber times 1st assigned=         154           0
 nber times 1st assigned=         155           0
 nber times 1st assigned=         156           0
 nber times 1st assigned=         157           0
 nber times 1st assigned=         158           0
 nber times 1st assigned=         159           0
 nber times 1st assigned=         160           0
 nber times 1st assigned=         161           0
 nber times 1st assigned=         162           0
 modes represented=   157.087324861546     
 p1=
   -0.   -0.    0.    0.    0.   -0.   -0.   -0.   -1.    0.   -0.   -0.   -0.    0.    0.   -0.   -1.   -0.    0.    0.
    3.   -0.    2.    0.   -0.   -1.    0.   -2.    3.    0.   -0.   -0.   -0.    8.    1.   -0.    1.   -1.   -0.   -4.
   -3.    0.   -0.   -0.   -1.    0.   -2.   -0.    0.    0.    2.   -1.    0.    0.    2.    0.   -0.    0.    0.   -0.
    0.    0.    0.   -0.   -0.   -0.    0.   -0.   -1.    2.    1.   -0.    2.    0.    0.   -0.    0.    1.    1.   -0.
    0.    0.   -1.   -0.   -0.    0.    0.    0.   -0.    0.    0.   -1.    1.   -0.   -0.   -0.    0.   -0.   -0.    0.
    0.    1.   -0.    0.    1.   -0.    3.    0.    0.    1.   -0.   -0.    0.   -1.    0.    0.    0.    1.    2.    0.
   -0.   -0.    0.   -0.    0.   -0.   -0.   -1.   -0.    0.   -0.   -0.   -0.   -0.   -1.   -0.    0.    0.    2.    0.
    0.   -1.    1.    0.    0.    0.   -0.   -0.    0.    0.   -0.   -0.    0.    0.   -0.   -0.    0.   -0.   -0.   -0.
    0.    0.
 p2=
    0.   -0.   -0.   -0.    0.   -0.    0.   -0.    1.   -0.   -0.    0.    0.   -0.    0.    0.    1.    0.   -0.   -0.
   -4.    0.    2.   -0.   -0.   -1.    2.   -0.   -0.   -3.   -0.    0.   -8.   -0.   -1.   -0.   -1.   -2.   -4.    3.
   -0.    0.   -0.    1.   -0.   -0.   -2.   -0.   -0.    2.    0.    1.   -0.    2.   -0.    0.    0.    0.   -0.    0.
    0.    0.   -0.    0.    0.   -0.   -0.    0.   -1.    2.   -1.    0.   -2.   -0.    0.    0.   -0.    1.   -1.    0.
    0.   -1.    0.   -0.    0.    0.    0.    0.   -0.   -0.   -1.    1.    0.   -1.    0.   -0.   -0.   -0.   -0.    0.
   -0.   -1.    0.   -0.    0.   -1.    2.    0.    3.    0.    0.   -0.   -0.    0.   -1.    0.   -2.   -0.    0.   -0.
   -0.    0.   -0.    1.   -0.   -0.   -0.   -0.    0.   -0.   -0.   -0.    0.    2.    0.   -0.    0.    0.   -0.    0.
   -0.    1.   -1.   -0.   -0.   -0.    0.    0.   -0.    0.    0.    0.    0.   -0.    0.    0.    0.    0.    0.    0.
   -0.   -0.

 Displacement: in terms of nc of 1 THEN of nc of 2

   1     freq=    -0. Q= -0.000 lam=    -0.0     freq=    -0. Q= -0.000 lam=    -0.0
   2     freq=    -0. Q= -0.000 lam=    -0.0     freq=    -0. Q= -0.000 lam=    -0.0
   3     freq=     0. Q=  0.000 lam=     0.0     freq=    -0. Q=  0.000 lam=    -0.0
   4     freq=     0. Q=  0.000 lam=     0.0     freq=    -0. Q=  0.000 lam=    -0.0
   5     freq=     0. Q=  0.000 lam=     0.0     freq=    -0. Q=  0.000 lam=    -0.0
   6     freq=     0. Q= -0.000 lam=     0.0     freq=     0. Q= -0.000 lam=     0.0
   7     freq=     8. Q= -0.003 lam=     0.0     freq=     8. Q= -0.003 lam=     0.0
   8     freq=    19. Q= -0.003 lam=     0.0     freq=    20. Q= -0.003 lam=     0.0
   9     freq=    29. Q= -0.019 lam=     0.0     freq=    22. Q= -0.017 lam=     0.0
  10     freq=    38. Q=  0.001 lam=     0.0     freq=    38. Q=  0.001 lam=     0.0
  11     freq=    51. Q= -0.007 lam=     0.0     freq=    53. Q= -0.006 lam=     0.0
  12     freq=    52. Q= -0.001 lam=     0.0     freq=    53. Q= -0.004 lam=     0.0
  13     freq=    62. Q= -0.002 lam=     0.0     freq=    64. Q= -0.003 lam=     0.0
  14     freq=    72. Q=  0.003 lam=     0.0     freq=    74. Q=  0.002 lam=     0.0
  15     freq=    87. Q=  0.003 lam=     0.0     freq=    86. Q=  0.001 lam=     0.0
  16     freq=   101. Q= -0.000 lam=     0.0     freq=   102. Q= -0.000 lam=     0.0
  17     freq=   111. Q= -0.025 lam=     0.0     freq=   114. Q= -0.026 lam=     0.0
  18     freq=   132. Q= -0.004 lam=     0.0     freq=   134. Q= -0.005 lam=     0.0
  19     freq=   164. Q=  0.002 lam=     0.0     freq=   163. Q=  0.001 lam=     0.0
  20     freq=   175. Q=  0.000 lam=     0.0     freq=   181. Q=  0.020 lam=     0.0
  21     freq=   180. Q=  0.184 lam=     3.0     freq=   181. Q=  0.194 lam=     3.4
  22     freq=   188. Q= -0.003 lam=     0.0     freq=   188. Q= -0.001 lam=     0.0
  23     freq=   199. Q=  0.131 lam=     1.7     freq=   202. Q=  0.118 lam=     1.4
  24     freq=   212. Q=  0.002 lam=     0.0     freq=   215. Q=  0.002 lam=     0.0
  25     freq=   234. Q= -0.010 lam=     0.0     freq=   234. Q= -0.016 lam=     0.0
  26     freq=   238. Q= -0.046 lam=     0.2     freq=   235. Q= -0.043 lam=     0.2
  27     freq=   259. Q=  0.001 lam=     0.0     freq=   270. Q=  0.139 lam=     2.6
  28     freq=   269. Q= -0.155 lam=     3.2     freq=   271. Q= -0.004 lam=     0.0
  29     freq=   279. Q=  0.195 lam=     5.3     freq=   279. Q=  0.003 lam=     0.0
  30     freq=   287. Q=  0.008 lam=     0.0     freq=   281. Q=  0.199 lam=     5.6
  31     freq=   303. Q= -0.005 lam=     0.0     freq=   299. Q= -0.001 lam=     0.0
  32     freq=   310. Q= -0.001 lam=     0.0     freq=   314. Q= -0.000 lam=     0.0
  33     freq=   328. Q= -0.005 lam=     0.0     freq=   337. Q= -0.567 lam=    54.2
  34     freq=   336. Q=  0.573 lam=    55.3     freq=   347. Q=  0.001 lam=     0.0
  35     freq=   352. Q=  0.052 lam=     0.5     freq=   359. Q=  0.054 lam=     0.5
  36     freq=   380. Q= -0.027 lam=     0.1     freq=   390. Q= -0.019 lam=     0.1
  37     freq=   392. Q=  0.048 lam=     0.5     freq=   395. Q=  0.042 lam=     0.3
  38     freq=   424. Q= -0.092 lam=     1.8     freq=   429. Q= -0.154 lam=     5.1
  39     freq=   427. Q= -0.001 lam=     0.0     freq=   434. Q= -0.342 lam=    25.3
  40     freq=   429. Q= -0.359 lam=    27.6     freq=   437. Q= -0.247 lam=    13.4
  41     freq=   433. Q= -0.248 lam=    13.3     freq=   444. Q= -0.001 lam=     0.0
  42     freq=   438. Q=  0.002 lam=     0.0     freq=   447. Q=  0.001 lam=     0.0
  43     freq=   444. Q= -0.001 lam=     0.0     freq=   449. Q= -0.001 lam=     0.0
  44     freq=   466. Q= -0.000 lam=     0.0     freq=   471. Q= -0.123 lam=     3.6
  45     freq=   468. Q= -0.089 lam=     1.9     freq=   473. Q= -0.041 lam=     0.4
  46     freq=   469. Q=  0.034 lam=     0.3     freq=   479. Q=  0.010 lam=     0.0
  47     freq=   481. Q= -0.184 lam=     8.2     freq=   479. Q= -0.189 lam=     8.6
  48     freq=   483. Q= -0.004 lam=     0.0     freq=   483. Q= -0.002 lam=     0.0
  49     freq=   510. Q=  0.005 lam=     0.0     freq=   508. Q=  0.010 lam=     0.0
  50     freq=   521. Q=  0.000 lam=     0.0     freq=   527. Q=  0.139 lam=     5.1
  51     freq=   527. Q=  0.174 lam=     8.0     freq=   534. Q=  0.001 lam=     0.0
  52     freq=   554. Q= -0.137 lam=     5.2     freq=   554. Q= -0.142 lam=     5.6
  53     freq=   572. Q=  0.001 lam=     0.0     freq=   578. Q=  0.001 lam=     0.0
  54     freq=   578. Q=  0.000 lam=     0.0     freq=   589. Q=  0.167 lam=     8.3
  55     freq=   584. Q=  0.155 lam=     7.0     freq=   596. Q=  0.000 lam=     0.0
  56     freq=   613. Q=  0.021 lam=     0.1     freq=   624. Q=  0.019 lam=     0.1
  57     freq=   615. Q= -0.000 lam=     0.0     freq=   631. Q= -0.000 lam=     0.0
  58     freq=   634. Q=  0.000 lam=     0.0     freq=   656. Q=  0.000 lam=     0.0
  59     freq=   662. Q=  0.000 lam=     0.0     freq=   666. Q=  0.000 lam=     0.0
  60     freq=   704. Q= -0.000 lam=     0.0     freq=   712. Q= -0.025 lam=     0.2
  61     freq=   705. Q=  0.026 lam=     0.2     freq=   719. Q=  0.015 lam=     0.1
  62     freq=   707. Q=  0.000 lam=     0.0     freq=   721. Q=  0.035 lam=     0.4
  63     freq=   715. Q=  0.008 lam=     0.0     freq=   741. Q=  0.000 lam=     0.0
  64     freq=   717. Q= -0.028 lam=     0.3     freq=   747. Q= -0.000 lam=     0.0
  65     freq=   751. Q= -0.000 lam=     0.0     freq=   756. Q= -0.000 lam=     0.0
  66     freq=   762. Q= -0.001 lam=     0.0     freq=   769. Q= -0.001 lam=     0.0
  67     freq=   765. Q=  0.001 lam=     0.0     freq=   780. Q=  0.000 lam=     0.0
  68     freq=   771. Q= -0.001 lam=     0.0     freq=   787. Q= -0.001 lam=     0.0
  69     freq=   793. Q= -0.129 lam=     6.6     freq=   797. Q= -0.121 lam=     5.9
  70     freq=   806. Q=  0.207 lam=    17.3     freq=   811. Q=  0.185 lam=    13.9
  71     freq=   815. Q=  0.081 lam=     2.7     freq=   818. Q=  0.075 lam=     2.3
  72     freq=   826. Q= -0.003 lam=     0.0     freq=   830. Q= -0.032 lam=     0.4
  73     freq=   848. Q=  0.271 lam=    31.1     freq=   849. Q=  0.277 lam=    32.6
  74     freq=   867. Q=  0.000 lam=     0.0     freq=   864. Q=  0.000 lam=     0.0
  75     freq=   869. Q=  0.000 lam=     0.0     freq=   865. Q=  0.000 lam=     0.0
  76     freq=   874. Q= -0.000 lam=     0.0     freq=   869. Q= -0.000 lam=     0.0
  77     freq=   877. Q=  0.000 lam=     0.0     freq=   871. Q=  0.000 lam=     0.0
  78     freq=   900. Q=  0.092 lam=     3.8     freq=   910. Q=  0.085 lam=     3.3
  79     freq=   917. Q=  0.088 lam=     3.5     freq=   926. Q=  0.106 lam=     5.2
  80     freq=   948. Q= -0.000 lam=     0.0     freq=   946. Q= -0.000 lam=     0.0
  81     freq=   953. Q=  0.017 lam=     0.1     freq=   957. Q=  0.000 lam=     0.0
  82     freq=   958. Q=  0.000 lam=     0.0     freq=   976. Q=  0.087 lam=     3.7
  83     freq=   966. Q= -0.063 lam=     1.9     freq=   985. Q= -0.025 lam=     0.3
  84     freq=  1011. Q= -0.000 lam=     0.0     freq=   993. Q= -0.000 lam=     0.0
  85     freq=  1013. Q= -0.000 lam=     0.0     freq=   997. Q= -0.000 lam=     0.0
  86     freq=  1020. Q=  0.000 lam=     0.0     freq=  1001. Q=  0.000 lam=     0.0
  87     freq=  1021. Q=  0.000 lam=     0.0     freq=  1006. Q=  0.000 lam=     0.0
  88     freq=  1051. Q=  0.019 lam=     0.2     freq=  1053. Q=  0.020 lam=     0.2
  89     freq=  1051. Q= -0.008 lam=     0.0     freq=  1054. Q= -0.013 lam=     0.1
  90     freq=  1063. Q=  0.012 lam=     0.1     freq=  1064. Q=  0.001 lam=     0.0
  91     freq=  1078. Q=  0.053 lam=     1.5     freq=  1075. Q=  0.070 lam=     2.7
  92     freq=  1103. Q= -0.088 lam=     4.3     freq=  1101. Q= -0.085 lam=     4.0
  93     freq=  1143. Q=  0.173 lam=    17.1     freq=  1139. Q=  0.002 lam=     0.0
  94     freq=  1146. Q= -0.009 lam=     0.0     freq=  1140. Q= -0.134 lam=    10.3
  95     freq=  1156. Q= -0.000 lam=     0.0     freq=  1156. Q= -0.000 lam=     0.0
  96     freq=  1163. Q= -0.035 lam=     0.7     freq=  1157. Q= -0.064 lam=     2.4
  97     freq=  1164. Q=  0.042 lam=     1.0     freq=  1170. Q=  0.044 lam=     1.1
  98     freq=  1184. Q= -0.014 lam=     0.1     freq=  1182. Q= -0.020 lam=     0.2
  99     freq=  1192. Q= -0.028 lam=     0.5     freq=  1195. Q= -0.016 lam=     0.1
 100     freq=  1207. Q=  0.003 lam=     0.0     freq=  1209. Q=  0.003 lam=     0.0
 101     freq=  1209. Q=  0.009 lam=     0.0     freq=  1215. Q=  0.011 lam=     0.1
 102     freq=  1223. Q=  0.104 lam=     6.6     freq=  1221. Q=  0.074 lam=     3.3
 103     freq=  1235. Q= -0.012 lam=     0.1     freq=  1241. Q= -0.028 lam=     0.5
 104     freq=  1253. Q=  0.008 lam=     0.0     freq=  1251. Q=  0.012 lam=     0.1
 105     freq=  1270. Q=  0.135 lam=    11.6     freq=  1268. Q=  0.048 lam=     1.5
 106     freq=  1280. Q= -0.021 lam=     0.3     freq=  1270. Q= -0.095 lam=     5.7
 107     freq=  1313. Q=  0.508 lam=   169.3     freq=  1315. Q=  0.240 lam=    37.8
 108     freq=  1324. Q=  0.041 lam=     1.1     freq=  1316. Q=  0.009 lam=     0.1
 109     freq=  1324. Q=  0.034 lam=     0.8     freq=  1329. Q=  0.455 lam=   137.6
 110     freq=  1364. Q=  0.081 lam=     4.5     freq=  1336. Q=  0.001 lam=     0.0
 111     freq=  1365. Q= -0.032 lam=     0.7     freq=  1360. Q= -0.014 lam=     0.1
 112     freq=  1374. Q= -0.048 lam=     1.6     freq=  1368. Q= -0.004 lam=     0.0
 113     freq=  1376. Q=  0.000 lam=     0.0     freq=  1375. Q=  0.027 lam=     0.5
 114     freq=  1385. Q= -0.167 lam=    19.3     freq=  1382. Q= -0.007 lam=     0.0
 115     freq=  1400. Q=  0.003 lam=     0.0     freq=  1383. Q=  0.119 lam=     9.7
 116     freq=  1401. Q=  0.024 lam=     0.4     freq=  1401. Q=  0.001 lam=     0.0
 117     freq=  1407. Q=  0.000 lam=     0.0     freq=  1406. Q=  0.303 lam=    64.5
 118     freq=  1419. Q=  0.124 lam=    10.9     freq=  1417. Q=  0.047 lam=     1.6
 119     freq=  1424. Q=  0.241 lam=    41.2     freq=  1421. Q=  0.051 lam=     1.8
 120     freq=  1425. Q=  0.048 lam=     1.6     freq=  1429. Q=  0.019 lam=     0.3
 121     freq=  1442. Q= -0.070 lam=     3.5     freq=  1437. Q= -0.054 lam=     2.1
 122     freq=  1456. Q= -0.021 lam=     0.3     freq=  1454. Q= -0.005 lam=     0.0
 123     freq=  1471. Q=  0.001 lam=     0.0     freq=  1476. Q=  0.002 lam=     0.0
 124     freq=  1475. Q= -0.001 lam=     0.0     freq=  1477. Q= -0.229 lam=    38.7
 125     freq=  1478. Q=  0.002 lam=     0.0     freq=  1481. Q=  0.003 lam=     0.0
 126     freq=  1483. Q= -0.003 lam=     0.0     freq=  1485. Q= -0.000 lam=     0.0
 127     freq=  1486. Q= -0.000 lam=     0.0     freq=  1491. Q= -0.001 lam=     0.0
 128     freq=  1495. Q= -0.192 lam=    27.6     freq=  1498. Q= -0.035 lam=     0.9
 129     freq=  1500. Q= -0.041 lam=     1.2     freq=  1505. Q= -0.000 lam=     0.0
 130     freq=  1503. Q=  0.000 lam=     0.0     freq=  1506. Q=  0.002 lam=     0.0
 131     freq=  1520. Q= -0.007 lam=     0.0     freq=  1523. Q= -0.026 lam=     0.5
 132     freq=  1521. Q= -0.025 lam=     0.5     freq=  1543. Q= -0.005 lam=     0.0
 133     freq=  1563. Q= -0.001 lam=     0.0     freq=  1561. Q= -0.003 lam=     0.0
 134     freq=  1571. Q= -0.032 lam=     0.8     freq=  1604. Q= -0.308 lam=    76.1
 135     freq=  1575. Q= -0.125 lam=    12.2     freq=  1615. Q= -0.001 lam=     0.0
 136     freq=  1584. Q= -0.004 lam=     0.0     freq=  1619. Q= -0.051 lam=     2.1
 137     freq=  1591. Q=  0.003 lam=     0.0     freq=  1631. Q=  0.002 lam=     0.0
 138     freq=  1607. Q=  0.031 lam=     0.8     freq=  1632. Q=  0.010 lam=     0.1
 139     freq=  1625. Q=  0.284 lam=    65.5     freq=  1649. Q=  0.001 lam=     0.0
 140     freq=  1711. Q=  0.001 lam=     0.0     freq=  1714. Q=  0.004 lam=     0.0
 141     freq=  1742. Q=  0.001 lam=     0.0     freq=  1751. Q=  0.001 lam=     0.0
 142     freq=  1760. Q= -0.135 lam=    16.0     freq=  1752. Q= -0.161 lam=    22.6
 143     freq=  1783. Q=  0.123 lam=    13.5     freq=  1781. Q=  0.161 lam=    23.0
 144     freq=  2385. Q=  0.010 lam=     0.1     freq=  2388. Q=  0.009 lam=     0.1
 145     freq=  3033. Q=  0.009 lam=     0.1     freq=  3024. Q=  0.008 lam=     0.1
 146     freq=  3042. Q=  0.000 lam=     0.0     freq=  3035. Q=  0.000 lam=     0.0
 147     freq=  3045. Q= -0.011 lam=     0.2     freq=  3039. Q= -0.011 lam=     0.2
 148     freq=  3095. Q= -0.000 lam=     0.0     freq=  3081. Q= -0.000 lam=     0.0
 149     freq=  3099. Q=  0.000 lam=     0.0     freq=  3086. Q=  0.000 lam=     0.0
 150     freq=  3103. Q=  0.000 lam=     0.0     freq=  3093. Q=  0.000 lam=     0.0
 151     freq=  3106. Q= -0.012 lam=     0.2     freq=  3096. Q= -0.011 lam=     0.2
 152     freq=  3119. Q= -0.003 lam=     0.0     freq=  3113. Q= -0.005 lam=     0.0
 153     freq=  3135. Q=  0.000 lam=     0.0     freq=  3133. Q=  0.000 lam=     0.0
 154     freq=  3146. Q=  0.008 lam=     0.1     freq=  3143. Q=  0.007 lam=     0.1
 155     freq=  3205. Q= -0.001 lam=     0.0     freq=  3194. Q= -0.001 lam=     0.0
 156     freq=  3205. Q= -0.000 lam=     0.0     freq=  3195. Q= -0.000 lam=     0.0
 157     freq=  3210. Q=  0.001 lam=     0.0     freq=  3201. Q=  0.001 lam=     0.0
 158     freq=  3210. Q= -0.001 lam=     0.0     freq=  3202. Q= -0.001 lam=     0.0
 159     freq=  3217. Q= -0.000 lam=     0.0     freq=  3209. Q= -0.000 lam=     0.0
 160     freq=  3217. Q= -0.000 lam=     0.0     freq=  3209. Q= -0.000 lam=     0.0
 161     freq=  3229. Q=  0.003 lam=     0.0     freq=  3219. Q=  0.006 lam=     0.1
 162     freq=  3229. Q=  0.010 lam=     0.2     freq=  3219. Q=  0.010 lam=     0.1

 total reorg energy (cm**-1, kcal/mol)=      649.      666.      1.86      1.90
 Nber of molecules processed=           2
