 Enter ifcurve (0=recti, 1=orth curvi, 2=apprx curvi, -1 = skip
 And atom ordering flag, 0= never changes, 1= use the first order thenceforth,
  2= deduce it (does read on fail), 3= always read it
 Reading file: 
 ./benzene_conj_0_C0S0.log                                                      
                                          
  Entering Gaussian System, Link 0=g16                                          
  
 Gaussian format, type: g94, g98, g03= F F F
  #P Geom=AllCheck Guess=TCheck SCRF=Check GenChk RB3LYP/6-311G(d,p) Fre    
 energy type= B3LYP   
 Original G94 input coords:
  6  1.393861  0.000000  0.000000
  6  0.696931 -1.207120  0.000000
  6 -0.696931 -1.207120  0.000000
  6 -1.393861  0.000000  0.000000
  6 -0.696931  1.207120  0.000000
  6  0.696931  1.207120  0.000000
  1  2.478330  0.000000  0.000000
  1  1.239166 -2.146298  0.000000
  1 -1.239166 -2.146298  0.000000
  1 -2.478330  0.000000  0.000000
  1 -1.239166  2.146298  0.000000
  1  1.239166  2.146298  0.000000
 nber atoms=          12
  SCF Done:  E(RB3LYP) =  -232.308543010     A.U. after    1 cycles             
  
          23          40 "  -232.308543010"
After scan for Atom:   Atom  AN      X      Y      Z        X      Y      Z        X      Y      Z   
After scan for Atom:   Atom  AN      X      Y      Z        X      Y      Z        X      Y      Z   
After scan for Atom:   Atom  AN      X      Y      Z        X      Y      Z        X      Y      Z   
After scan for Atom:   Atom  AN      X      Y      Z        X      Y      Z        X      Y      Z   
After scan for Atom:   Atom  AN      X      Y      Z        X      Y      Z        X      Y      Z   
After scan for Atom:   Atom  AN      X      Y      Z        X      Y      Z        X      Y      Z   
After scan for Atom:   Atom  AN      X      Y      Z        X      Y      Z        X      Y      Z   
After scan for Atom:   Atom  AN      X      Y      Z        X      Y      Z        X      Y      Z   
After scan for Atom:   Atom  AN      X      Y      Z        X      Y      Z        X      Y      Z   
After scan for Atom:   Atom  AN      X      Y      Z        X      Y      Z        X      Y      Z   
 g94    frequencies=
     0.0    0.0    0.0    0.0    0.0    0.0  412.8  412.9  623.2  623.2
   688.9  723.3  862.5  862.5  981.4  981.4 1013.2 1016.5 1023.3 1060.2
  1060.3 1174.6 1197.5 1197.5 1335.1 1381.7 1512.9 1512.9 1637.4 1637.4
  3153.9 3163.5 3163.6 3179.3 3179.4 3190.0
 g94    symmetries=
                                                 A      A      A      A
       A      A      A      A      A      A      A      A      A      A
       A      A      A      A      A      A      A      A      A      A
       A      A      A      A      A      A
 atomic masses:
 12.0000 12.0000 12.0000 12.0000 12.0000 12.0000  1.0078  1.0078  1.0078  1.0078
  1.0078  1.0078
 looking for force constants in 
 ./benzene_conj_0_C0S0.fchk                                                     
  
 Cartesian Force Constants                  R   N=         666                  
  
 n3=          36         666
 g94-fc frequencies=
    -8.8   -7.8   -7.7    0.0    0.0    0.0  412.8  412.9  623.2  623.2
   688.9  723.3  862.5  862.5  981.4  981.4 1013.3 1016.5 1023.3 1060.3
  1060.3 1174.6 1197.5 1197.5 1335.2 1381.7 1512.9 1513.0 1637.4 1637.4
  3154.0 3163.6 3163.6 3179.4 3179.4 3190.0
 at 99999: n3=          36
 symm operator            1 :  T  nop=           1
 symm operator            2 :  T  nop=           2
 symm operator            3 :  T  nop=           3
 symm operator            4 :  T  nop=           4
 symm operator            5 :  T  nop=           5
 symm operator            6 :  T  nop=           6
 symm operator            7 :  T  nop=           7
 The point group of the molecule is D2H
 enforcing symm op           1  jsymt=          -1          -1           1
 enforcing symm op           2  jsymt=          -1           1          -1
 enforcing symm op           3  jsymt=           1          -1          -1
 enforcing symm op           4  jsymt=          -1          -1          -1
 enforcing symm op           5  jsymt=           1           1          -1
 enforcing symm op           6  jsymt=           1          -1           1
 enforcing symm op           7  jsymt=          -1           1           1
 cartesian coord symmetries:
 Ag :    6 Au :    2 B1g:    6 B1u:    4 B2g:    4 B2u:    6 B3g:    2 B3u:    6
 Symmetry rotation matrix:
   1.00000   0.00000   0.00000
   0.00000   1.00000   0.00000
   0.00000   0.00000   1.00000

 Projecting out zero-frequency components
 generating redundant internal coords
         300        3600          12
 search for int coords
   1 str   2   1   1.394
   2 str   3   2   1.394
   3 str   4   3   1.394
   4 str   5   4   1.394
   5 str   6   1   1.394
   6 str   6   5   1.394
   7 str   7   1   1.084
   8 str   8   2   1.084
   9 str   9   3   1.084
  10 str  10   4   1.084
  11 str  11   5   1.084
  12 str  12   6   1.084
 nber stretches=          12
  13 ben   1   2   3
  14 prop tor   1   2   3   4
  15 prop tor   1   2   3   9
  16 ben   1   2   8
  17 ben   1   6   5
  18 ben   1   6  12
  19 ben   2   1   6
  20 prop tor   2   1   6   5
  21 prop tor   2   1   6  12
  22 ben   2   1   7
  23 ben   2   3   4
  24 prop tor   2   3   4   5
  25 prop tor   2   3   4  10
  26 ben   2   3   9
  27 ben   3   2   8
  28 ben   3   4   5
  29 prop tor   3   4   5   6
  30 prop tor   3   4   5  11
  31 ben   3   4  10
  32 ben   4   3   9
  33 ben   4   5   6
  34 prop tor   4   5   6   1
  35 prop tor   4   5   6  12
  36 ben   4   5  11
  37 ben   5   4  10
  38 ben   5   6  12
  39 prop tor   6   1   2   3
  40 prop tor   6   1   2   8
  41 ben   6   1   7
  42 ben   6   5  11
  43 prop tor   7   1   2   3
  44 prop tor   7   1   2   8
  45 prop tor   7   1   6   5
  46 prop tor   7   1   6  12
  47 prop tor   8   2   3   4
  48 prop tor   8   2   3   9
  49 prop tor   9   3   4   5
  50 prop tor   9   3   4  10
  51 prop tor  10   4   5   6
  52 prop tor  10   4   5  11
  53 prop tor  11   5   6   1
  54 prop tor  11   5   6  12
 nber bend=              18
 nber lin bend=           0
 nber prop tor=          24
 nber impr tor=           0
 nber tot redund int=          54
 Eigenvalues of G in red int coords
    Gval -0.00000000 -0.00000000 -0.00000000 -0.00000000 -0.00000000 -0.00000000 -0.00000000 -0.00000000
    Gval -0.00000000 -0.00000000 -0.00000000 -0.00000000 -0.00000000 -0.00000000 -0.00000000 -0.00000000
    Gval  0.00000000  0.00000000  0.00000000  0.00000000  0.00000000  0.00000000  0.00000000  0.00000000
    Gval  0.00004190  0.00005678  0.00005678  0.00009579  0.00009579  0.00012501  0.00025282  0.00025283
    Gval  0.00034464  0.00049567  0.00049567  0.00059156  0.00059156  0.00059386  0.00061194  0.00061194
    Gval  0.00066895  0.00101556  0.00111059  0.00111059  0.00117131  0.00117131  0.00117145  0.00133135
    Gval  0.00133789  0.00234291  0.00234291  0.00374986  0.00374986  0.00418827
  4.190328692529308E-005  4.190328692529308E-005
  5.678245763573571E-005  4.190328692529308E-005
  5.678248410759493E-005  4.190328692529308E-005
  9.578880057004312E-005  4.190328692529308E-005
  9.578885313876247E-005  4.190328692529308E-005
  1.250099391597939E-004  4.190328692529308E-005
  2.528249301013521E-004  4.190328692529308E-005
  2.528250885271838E-004  4.190328692529308E-005
  3.446446885394940E-004  4.190328692529308E-005
  4.956683100837332E-004  4.190328692529308E-005
  4.956700387524106E-004  4.190328692529308E-005
  5.915580936610188E-004  4.190328692529308E-005
  5.915581037415805E-004  4.190328692529308E-005
  5.938597688794245E-004  4.190328692529308E-005
  6.119364258785660E-004  4.190328692529308E-005
  6.119364373089607E-004  4.190328692529308E-005
  6.689497972756637E-004  4.190328692529308E-005
  1.015556634195552E-003  4.190328692529308E-005
  1.110585084594115E-003  4.190328692529308E-005
  1.110585534901807E-003  4.190328692529308E-005
  1.171309624027345E-003  4.190328692529308E-005
  1.171310121797318E-003  4.190328692529308E-005
  1.171453157246540E-003  4.190328692529308E-005
  1.331354957368404E-003  4.190328692529308E-005
  1.337891097809040E-003  4.190328692529308E-005
  2.342906215377959E-003  4.190328692529308E-005
  2.342906413599865E-003  4.190328692529308E-005
  3.749857893509357E-003  4.190328692529308E-005
  3.749858617836003E-003  4.190328692529308E-005
  4.188265050172589E-003  4.190328692529308E-005
 cut=1d-8, nber non-redundant internal coords=          30
 Check on Eigenvals of non-red overlap matrix:
  0.00004190  0.00005678  0.00005678  0.00009579  0.00009579  0.00012501  0.00025282  0.00025283
  0.00034464  0.00049567  0.00049567  0.00059156  0.00059156  0.00059386  0.00061194  0.00061194
  0.00066895  0.00101556  0.00111059  0.00111059  0.00117131  0.00117131  0.00117145  0.00133135
  0.00133789  0.00234291  0.00234291  0.00374986  0.00374986  0.00418827
 Checking for correct frequencies
 recalc frequencies=
    -0.0   -0.0   -0.0    0.0    0.0    0.0  412.8  412.9  623.2  623.2
   688.9  723.3  862.5  862.5  981.4  981.4 1013.3 1016.5 1023.3 1060.3
  1060.3 1174.6 1197.5 1197.5 1335.2 1381.7 1512.9 1513.0 1637.4 1637.4
  3154.0 3163.6 3163.6 3179.4 3179.4 3190.0
 recalc symmetries=
     B2u    B1g    B1u    B3g    B3u    B2g    Au     B1u    Ag     B1g
     B1u    B2g    B2g    B3g    Au     B1u    Ag     B2g    B3u    B3u
     B2u    B2u    B1g    Ag     B2u    B1g    B3u    B2u    B1g    Ag 
     B3u    Ag     B1g    B3u    B2u    Ag 
 recalc freqs check OK
 Zero-point lengths:
 10.0000 10.0000 10.0000 10.0000 10.0000 10.0000 12.2015 12.2008  9.9306  9.9304
  9.4451  9.2181  8.4415  8.4414  7.9135  7.9135  7.7882  7.7756  7.7497  7.6136
  7.6134  7.2334  7.1639  7.1639  6.7846  6.6694  6.3736  6.3735  6.1265  6.1265
  4.4143  4.4076  4.4076  4.3967  4.3966  4.3893
 highest evec of mol 1
  0.1230  0.0000  0.0000
  0.0616 -0.1067  0.0000
 -0.0616 -0.1067  0.0000
 -0.1230  0.0000  0.0000
 -0.0616  0.1067  0.0000
  0.0616  0.1067  0.0000
 -0.3887  0.0000  0.0000
 -0.1948  0.3373  0.0000
  0.1948  0.3373  0.0000
  0.3887  0.0000  0.0000
  0.1948 -0.3373  0.0000
 -0.1948 -0.3373  0.0000
 generating redundant internal coords
         300        3600          12
 Adding extra bonds for z output only
           6           6           6           6           6           6
           1           1           1           1           1           1
 search for int coords
   1 str   2   1   1.394
   2 str   3   2   1.394
   3 str   4   3   1.394
   4 str   5   4   1.394
   5 str   6   1   1.394
   6 str   6   5   1.394
   7 str   7   1   1.084
   8 str   8   2   1.084
   9 str   9   3   1.084
  10 str  10   4   1.084
  11 str  11   5   1.084
  12 str  12   6   1.084
 nber stretches=          12
  13 ben   1   2   3
  14 prop tor   1   2   3   4
  15 prop tor   1   2   3   9
  16 ben   1   2   8
  17 ben   1   6   5
  18 ben   1   6  12
  19 ben   2   1   6
  20 prop tor   2   1   6   5
  21 prop tor   2   1   6  12
  22 ben   2   1   7
  23 ben   2   3   4
  24 prop tor   2   3   4   5
  25 prop tor   2   3   4  10
  26 ben   2   3   9
  27 ben   3   2   8
  28 ben   3   4   5
  29 prop tor   3   4   5   6
  30 prop tor   3   4   5  11
  31 ben   3   4  10
  32 ben   4   3   9
  33 ben   4   5   6
  34 prop tor   4   5   6   1
  35 prop tor   4   5   6  12
  36 ben   4   5  11
  37 ben   5   4  10
  38 ben   5   6  12
  39 prop tor   6   1   2   3
  40 prop tor   6   1   2   8
  41 ben   6   1   7
  42 ben   6   5  11
  43 prop tor   7   1   2   3
  44 prop tor   7   1   2   8
  45 prop tor   7   1   6   5
  46 prop tor   7   1   6  12
  47 prop tor   8   2   3   4
  48 prop tor   8   2   3   9
  49 prop tor   9   3   4   5
  50 prop tor   9   3   4  10
  51 prop tor  10   4   5   6
  52 prop tor  10   4   5  11
  53 prop tor  11   5   6   1
  54 prop tor  11   5   6  12
 nber bend=              18
 nber lin bend=           0
 nber prop tor=          24
 nber impr tor=           0
 nber tot redund int=          54
 Reading file: 
 ./benzene_conj_0_C-1S0.log                                                     
                                          
  Entering Gaussian System, Link 0=g16                                          
  
 Gaussian format, type: g94, g98, g03= F F F
  #P Geom=AllCheck Guess=TCheck SCRF=Check GenChk UB3LYP/6-311G(d,p) Fre    
 energy type= B3LYP   
 Original G94 input coords:
  6  1.390336  0.000000  0.000000
  6  0.695168 -1.204069  0.000000
  6 -0.695168 -1.204069  0.000000
  6 -1.390336  0.000000  0.000000
  6 -0.695168  1.204069  0.000000
  6  0.695168  1.204069  0.000000
  1  2.501003  0.000000  0.000000
  1  1.250504 -2.165934  0.000000
  1 -1.250504 -2.165934  0.000000
  1 -2.501003  0.000000  0.000000
  1 -1.250504  2.165934  0.000000
  1  1.250504  2.165934  0.000000
 nber atoms=          12
  SCF Done:  E(UB3LYP) =  -232.214205054     A.U. after    1 cycles             
  
          23          40 "  -232.214205054"
After scan for Atom:   Atom  AN      X      Y      Z        X      Y      Z        X      Y      Z   
After scan for Atom:   Atom  AN      X      Y      Z        X      Y      Z        X      Y      Z   
After scan for Atom:   Atom  AN      X      Y      Z        X      Y      Z        X      Y      Z   
After scan for Atom:   Atom  AN      X      Y      Z        X      Y      Z        X      Y      Z   
After scan for Atom:   Atom  AN      X      Y      Z        X      Y      Z        X      Y      Z   
After scan for Atom:   Atom  AN      X      Y      Z        X      Y      Z        X      Y      Z   
After scan for Atom:   Atom  AN      X      Y      Z        X      Y      Z        X      Y      Z   
After scan for Atom:   Atom  AN      X      Y      Z        X      Y      Z        X      Y      Z   
After scan for Atom:   Atom  AN      X      Y      Z        X      Y      Z        X      Y      Z   
After scan for Atom:   Atom  AN      X      Y      Z        X      Y      Z        X      Y      Z   
 g94    frequencies=
     0.0    0.0    0.0    0.0    0.0    0.0  469.4  469.5  614.9  614.9
   622.0  712.2  857.5  857.5  931.0 1003.5 1018.2 1035.6 1035.7 1088.0
  1101.1 1101.2 1111.6 1111.6 1367.4 1367.7 1499.2 1499.3 1619.5 1619.5
  2696.1 2696.1 2741.8 2802.0 2802.1 2822.4
 g94    symmetries=
                                                 A      A      A      A
       A      A      A      A      A      A      A      A      A      A
       A      A      A      A      A      A      A      A      A      A
       A      A      A      A      A      A
 atomic masses:
 12.0000 12.0000 12.0000 12.0000 12.0000 12.0000  1.0078  1.0078  1.0078  1.0078
  1.0078  1.0078
 looking for force constants in 
 ./benzene_conj_0_C-1S0.fchk                                                    
  
 Cartesian Force Constants                  R   N=         666                  
  
 n3=          36         666
 g94-fc frequencies=
    -7.7   -7.5   -4.0   -0.0   -0.0   -0.0  469.4  469.5  614.9  614.9
   622.0  712.2  857.5  857.6  931.1 1003.5 1018.2 1035.7 1035.7 1088.0
  1101.1 1101.2 1111.6 1111.6 1367.5 1367.7 1499.3 1499.3 1619.5 1619.6
  2696.1 2696.2 2741.8 2802.1 2802.1 2822.5
 at 99999: n3=          36
 symm operator            1 :  T  nop=           1
 symm operator            2 :  T  nop=           2
 symm operator            3 :  T  nop=           3
 symm operator            4 :  T  nop=           4
 symm operator            5 :  T  nop=           5
 symm operator            6 :  T  nop=           6
 symm operator            7 :  T  nop=           7
 The point group of the molecule is D2H
 enforcing symm op           1  jsymt=          -1          -1           1
 enforcing symm op           2  jsymt=          -1           1          -1
 enforcing symm op           3  jsymt=           1          -1          -1
 enforcing symm op           4  jsymt=          -1          -1          -1
 enforcing symm op           5  jsymt=           1           1          -1
 enforcing symm op           6  jsymt=           1          -1           1
 enforcing symm op           7  jsymt=          -1           1           1
 cartesian coord symmetries:
 Ag :    6 Au :    2 B1g:    6 B1u:    4 B2g:    4 B2u:    6 B3g:    2 B3u:    6
 Symmetry rotation matrix:
   1.00000   0.00000   0.00000
   0.00000   1.00000   0.00000
   0.00000   0.00000   1.00000

 Projecting out zero-frequency components
 generating redundant internal coords
         300        3600          12
 search for int coords
   1 str   2   1   1.390
   2 str   3   2   1.390
   3 str   4   3   1.390
   4 str   5   4   1.390
   5 str   6   1   1.390
   6 str   6   5   1.390
   7 str   7   1   1.111
   8 str   8   2   1.111
   9 str   9   3   1.111
  10 str  10   4   1.111
  11 str  11   5   1.111
  12 str  12   6   1.111
 nber stretches=          12
  13 ben   1   2   3
  14 prop tor   1   2   3   4
  15 prop tor   1   2   3   9
  16 ben   1   2   8
  17 ben   1   6   5
  18 ben   1   6  12
  19 ben   2   1   6
  20 prop tor   2   1   6   5
  21 prop tor   2   1   6  12
  22 ben   2   1   7
  23 ben   2   3   4
  24 prop tor   2   3   4   5
  25 prop tor   2   3   4  10
  26 ben   2   3   9
  27 ben   3   2   8
  28 ben   3   4   5
  29 prop tor   3   4   5   6
  30 prop tor   3   4   5  11
  31 ben   3   4  10
  32 ben   4   3   9
  33 ben   4   5   6
  34 prop tor   4   5   6   1
  35 prop tor   4   5   6  12
  36 ben   4   5  11
  37 ben   5   4  10
  38 ben   5   6  12
  39 prop tor   6   1   2   3
  40 prop tor   6   1   2   8
  41 ben   6   1   7
  42 ben   6   5  11
  43 prop tor   7   1   2   3
  44 prop tor   7   1   2   8
  45 prop tor   7   1   6   5
  46 prop tor   7   1   6  12
  47 prop tor   8   2   3   4
  48 prop tor   8   2   3   9
  49 prop tor   9   3   4   5
  50 prop tor   9   3   4  10
  51 prop tor  10   4   5   6
  52 prop tor  10   4   5  11
  53 prop tor  11   5   6   1
  54 prop tor  11   5   6  12
 nber bend=              18
 nber lin bend=           0
 nber prop tor=          24
 nber impr tor=           0
 nber tot redund int=          54
 Eigenvalues of G in red int coords
    Gval -0.00000000 -0.00000000 -0.00000000 -0.00000000 -0.00000000 -0.00000000 -0.00000000 -0.00000000
    Gval -0.00000000 -0.00000000 -0.00000000 -0.00000000  0.00000000  0.00000000  0.00000000  0.00000000
    Gval  0.00000000  0.00000000  0.00000000  0.00000000  0.00000000  0.00000000  0.00000000  0.00000000
    Gval  0.00004190  0.00005685  0.00005685  0.00009545  0.00009545  0.00012493  0.00025253  0.00025253
    Gval  0.00034597  0.00049583  0.00049583  0.00059119  0.00059119  0.00059386  0.00061086  0.00061086
    Gval  0.00066978  0.00096886  0.00106596  0.00106596  0.00112236  0.00112386  0.00112386  0.00127552
    Gval  0.00133359  0.00224472  0.00224472  0.00359200  0.00359201  0.00400656
  4.190328692529319E-005  4.190328692529319E-005
  5.685385562443401E-005  4.190328692529319E-005
  5.685392564909040E-005  4.190328692529319E-005
  9.544836687770057E-005  4.190328692529319E-005
  9.544837011135224E-005  4.190328692529319E-005
  1.249261093908835E-004  4.190328692529319E-005
  2.525311043799214E-004  4.190328692529319E-005
  2.525312980559516E-004  4.190328692529319E-005
  3.459650799575228E-004  4.190328692529319E-005
  4.958321081893461E-004  4.190328692529319E-005
  4.958340339197594E-004  4.190328692529319E-005
  5.911939516788131E-004  4.190328692529319E-005
  5.911939740541443E-004  4.190328692529319E-005
  5.938597688794355E-004  4.190328692529319E-005
  6.108599894962039E-004  4.190328692529319E-005
  6.108599959152567E-004  4.190328692529319E-005
  6.697793038193437E-004  4.190328692529319E-005
  9.688622187984802E-004  4.190328692529319E-005
  1.065959882225076E-003  4.190328692529319E-005
  1.065960828872146E-003  4.190328692529319E-005
  1.122359705830715E-003  4.190328692529319E-005
  1.123858055214932E-003  4.190328692529319E-005
  1.123858211950351E-003  4.190328692529319E-005
  1.275520104261492E-003  4.190328692529319E-005
  1.333586931302168E-003  4.190328692529319E-005
  2.244717391456109E-003  4.190328692529319E-005
  2.244721431884247E-003  4.190328692529319E-005
  3.591999166692929E-003  4.190328692529319E-005
  3.592006819896648E-003  4.190328692529319E-005
  4.006564177257566E-003  4.190328692529319E-005
 cut=1d-8, nber non-redundant internal coords=          30
 Check on Eigenvals of non-red overlap matrix:
  0.00004190  0.00005685  0.00005685  0.00009545  0.00009545  0.00012493  0.00025253  0.00025253
  0.00034597  0.00049583  0.00049583  0.00059119  0.00059119  0.00059386  0.00061086  0.00061086
  0.00066978  0.00096886  0.00106596  0.00106596  0.00112236  0.00112386  0.00112386  0.00127552
  0.00133359  0.00224472  0.00224472  0.00359200  0.00359201  0.00400656
 Checking for correct frequencies
 recalc frequencies=
    -0.0   -0.0   -0.0   -0.0    0.0    0.0  469.4  469.5  614.9  614.9
   622.0  712.2  857.5  857.6  931.1 1003.5 1018.2 1035.7 1035.7 1088.0
  1101.1 1101.2 1111.6 1111.6 1367.5 1367.7 1499.3 1499.3 1619.5 1619.6
  2696.1 2696.2 2741.8 2802.1 2802.1 2822.5
 recalc symmetries=
     B2u    B1g    B3u    B1u    B2g    B3g    Au     B1u    Ag     B1g
     B1u    B2g    B2g    B3g    B3u    B2g    Ag     B3u    B2u    B2u
     Au     B1u    Ag     B1g    B2u    B1g    B3u    B2u    B1g    Ag 
     B3u    B2u    B3u    Ag     B1g    Ag 
 recalc freqs check OK
 Zero-point lengths:
 10.0000 10.0000 10.0000 10.0000 10.0000 10.0000 11.4423 11.4417  9.9977  9.9976
  9.9405  9.2896  8.4658  8.4657  8.1247  7.8258  7.7691  7.7035  7.7033  7.5159
  7.4710  7.4708  7.4357  7.4357  6.7041  6.7034  6.4026  6.4025  6.1603  6.1602
  4.7745  4.7744  4.7345  4.6833  4.6833  4.6664
 highest evec of mol 2
  0.1233  0.0000  0.0000
  0.0618 -0.1070  0.0000
 -0.0618 -0.1070  0.0000
 -0.1233  0.0000  0.0000
 -0.0618  0.1070  0.0000
  0.0618  0.1070  0.0000
 -0.3886  0.0000  0.0000
 -0.1947  0.3372  0.0000
  0.1947  0.3372  0.0000
  0.3886  0.0000  0.0000
  0.1947 -0.3372  0.0000
 -0.1947 -0.3372  0.0000
 Enter nber and list of atoms to keep of mol #2
 keep list:          12           1           2           3           4
           5           6           7           8           9          10
          11          12
 reordering atoms
           1  0.000000000000000E+000
           2  -1.20406900000000     
           3  -1.20406900000000     
           4  0.000000000000000E+000
           5   1.20406900000000     
           6   1.20406900000000     
           7  0.000000000000000E+000
           8  -2.16593400000000     
           9  -2.16593400000000     
          10  0.000000000000000E+000
          11   2.16593400000000     
          12   2.16593400000000     
           1           1
           2           2
           3           3
           4           4
           5           5
           6           6
           7           7
           8           8
           9           9
          10          10
          11          11
          12          12
 initial cartes coords mol 1
   6   0.00000   1.39386   0.00000
   6   0.00000   0.69693  -1.20712
   6   0.00000  -0.69693  -1.20712
   6   0.00000  -1.39386   0.00000
   6   0.00000  -0.69693   1.20712
   6   0.00000   0.69693   1.20712
   1   0.00000   2.47833   0.00000
   1   0.00000   1.23917  -2.14630
   1   0.00000  -1.23917  -2.14630
   1   0.00000  -2.47833   0.00000
   1   0.00000  -1.23917   2.14630
   1   0.00000   1.23917   2.14630
 initial cartes coords mol 2
   6   0.00000   1.39034   0.00000
   6   0.00000   0.69517  -1.20407
   6   0.00000  -0.69517  -1.20407
   6   0.00000  -1.39034   0.00000
   6   0.00000  -0.69517   1.20407
   6   0.00000   0.69517   1.20407
   1   0.00000   2.50100   0.00000
   1   0.00000   1.25050  -2.16593
   1   0.00000  -1.25050  -2.16593
   1   0.00000  -2.50100   0.00000
   1   0.00000  -1.25050   2.16593
   1   0.00000   1.25050   2.16593
 loop 1 0
 mod cartes coords mol 2
   6   0.00000   1.39034   0.00000
   6   0.00000   0.69517  -1.20407
   6   0.00000  -0.69517  -1.20407
   6   0.00000  -1.39034   0.00000
   6   0.00000  -0.69517   1.20407
   6   0.00000   0.69517   1.20407
   1   0.00000   2.50100   0.00000
   1   0.00000   1.25050  -2.16593
   1   0.00000  -1.25050  -2.16593
   1   0.00000  -2.50100   0.00000
   1   0.00000  -1.25050   2.16593
   1   0.00000   1.25050   2.16593
 read in order, maxerr=  0.02 for atom   8
 final axis swaps:           1           1           1
 final xyz swap pattern=           1
 reorder list:
   1   2   3   4   5   6   7   8   9  10  11  12
 axis signs=           1           1           1
  6     0.000000  1.390336  0.000000     0.000000  1.393861  0.000000
  6     0.000000  0.695168 -1.204069     0.000000  0.696931 -1.207120
  6     0.000000 -0.695168 -1.204069     0.000000 -0.696931 -1.207120
  6     0.000000 -1.390336  0.000000     0.000000 -1.393861  0.000000
  6     0.000000 -0.695168  1.204069     0.000000 -0.696931  1.207120
  6     0.000000  0.695168  1.204069     0.000000  0.696931  1.207120
  1     0.000000  2.501003  0.000000     0.000000  2.478330  0.000000
  1     0.000000  1.250504 -2.165934     0.000000  1.239166 -2.146298
  1     0.000000 -1.250504 -2.165934     0.000000 -1.239166 -2.146298
  1     0.000000 -2.501003  0.000000     0.000000 -2.478330  0.000000
  1     0.000000 -1.250504  2.165934     0.000000 -1.239166  2.146298
  1     0.000000  1.250504  2.165934     0.000000  1.239166  2.146298
 generating redundant internal coords
         300        3600          12
 Adding extra bonds for z output only
           6           6           6           6           6           6
           1           1           1           1           1           1
 search for int coords
   1 str   2   1   1.390
   2 str   3   2   1.390
   3 str   4   3   1.390
   4 str   5   4   1.390
   5 str   6   1   1.390
   6 str   6   5   1.390
   7 str   7   1   1.111
   8 str   8   2   1.111
   9 str   9   3   1.111
  10 str  10   4   1.111
  11 str  11   5   1.111
  12 str  12   6   1.111
 nber stretches=          12
  13 ben   1   2   3
  14 prop tor   1   2   3   4
  15 prop tor   1   2   3   9
  16 ben   1   2   8
  17 ben   1   6   5
  18 ben   1   6  12
  19 ben   2   1   6
  20 prop tor   2   1   6   5
  21 prop tor   2   1   6  12
  22 ben   2   1   7
  23 ben   2   3   4
  24 prop tor   2   3   4   5
  25 prop tor   2   3   4  10
  26 ben   2   3   9
  27 ben   3   2   8
  28 ben   3   4   5
  29 prop tor   3   4   5   6
  30 prop tor   3   4   5  11
  31 ben   3   4  10
  32 ben   4   3   9
  33 ben   4   5   6
  34 prop tor   4   5   6   1
  35 prop tor   4   5   6  12
  36 ben   4   5  11
  37 ben   5   4  10
  38 ben   5   6  12
  39 prop tor   6   1   2   3
  40 prop tor   6   1   2   8
  41 ben   6   1   7
  42 ben   6   5  11
  43 prop tor   7   1   2   3
  44 prop tor   7   1   2   8
  45 prop tor   7   1   6   5
  46 prop tor   7   1   6  12
  47 prop tor   8   2   3   4
  48 prop tor   8   2   3   9
  49 prop tor   9   3   4   5
  50 prop tor   9   3   4  10
  51 prop tor  10   4   5   6
  52 prop tor  10   4   5  11
  53 prop tor  11   5   6   1
  54 prop tor  11   5   6  12
 nber bend=              18
 nber lin bend=           0
 nber prop tor=          24
 nber impr tor=           0
 nber tot redund int=          54
 generating redundant internal coords
         300        3600          12
 search for int coords
   1 str   2   1   1.394
   2 str   3   2   1.394
   3 str   4   3   1.394
   4 str   5   4   1.394
   5 str   6   1   1.394
   6 str   6   5   1.394
   7 str   7   1   1.084
   8 str   8   2   1.084
   9 str   9   3   1.084
  10 str  10   4   1.084
  11 str  11   5   1.084
  12 str  12   6   1.084
 nber stretches=          12
  13 ben   1   2   3
  14 prop tor   1   2   3   4
  15 prop tor   1   2   3   9
  16 ben   1   2   8
  17 ben   1   6   5
  18 ben   1   6  12
  19 ben   2   1   6
  20 prop tor   2   1   6   5
  21 prop tor   2   1   6  12
  22 ben   2   1   7
  23 ben   2   3   4
  24 prop tor   2   3   4   5
  25 prop tor   2   3   4  10
  26 ben   2   3   9
  27 ben   3   2   8
  28 ben   3   4   5
  29 prop tor   3   4   5   6
  30 prop tor   3   4   5  11
  31 ben   3   4  10
  32 ben   4   3   9
  33 ben   4   5   6
  34 prop tor   4   5   6   1
  35 prop tor   4   5   6  12
  36 ben   4   5  11
  37 ben   5   4  10
  38 ben   5   6  12
  39 prop tor   6   1   2   3
  40 prop tor   6   1   2   8
  41 ben   6   1   7
  42 ben   6   5  11
  43 prop tor   7   1   2   3
  44 prop tor   7   1   2   8
  45 prop tor   7   1   6   5
  46 prop tor   7   1   6  12
  47 prop tor   8   2   3   4
  48 prop tor   8   2   3   9
  49 prop tor   9   3   4   5
  50 prop tor   9   3   4  10
  51 prop tor  10   4   5   6
  52 prop tor  10   4   5  11
  53 prop tor  11   5   6   1
  54 prop tor  11   5   6  12
 nber bend=              18
 nber lin bend=           0
 nber prop tor=          24
 nber impr tor=           0
 nber tot redund int=          54
 Eigenvalues of G in red int coords
    Gval -0.00000000 -0.00000000 -0.00000000 -0.00000000 -0.00000000 -0.00000000 -0.00000000 -0.00000000
    Gval -0.00000000 -0.00000000 -0.00000000 -0.00000000 -0.00000000 -0.00000000 -0.00000000 -0.00000000
    Gval  0.00000000  0.00000000  0.00000000  0.00000000  0.00000000  0.00000000  0.00000000  0.00000000
    Gval  0.00004190  0.00005678  0.00005678  0.00009579  0.00009579  0.00012501  0.00025282  0.00025283
    Gval  0.00034464  0.00049567  0.00049567  0.00059156  0.00059156  0.00059386  0.00061194  0.00061194
    Gval  0.00066895  0.00101556  0.00111059  0.00111059  0.00117131  0.00117131  0.00117145  0.00133135
    Gval  0.00133789  0.00234291  0.00234291  0.00374986  0.00374986  0.00418827
  4.190328692529308E-005  4.190328692529308E-005
  5.678245763573571E-005  4.190328692529308E-005
  5.678248410759493E-005  4.190328692529308E-005
  9.578880057004312E-005  4.190328692529308E-005
  9.578885313876247E-005  4.190328692529308E-005
  1.250099391597939E-004  4.190328692529308E-005
  2.528249301013521E-004  4.190328692529308E-005
  2.528250885271838E-004  4.190328692529308E-005
  3.446446885394940E-004  4.190328692529308E-005
  4.956683100837332E-004  4.190328692529308E-005
  4.956700387524106E-004  4.190328692529308E-005
  5.915580936610188E-004  4.190328692529308E-005
  5.915581037415805E-004  4.190328692529308E-005
  5.938597688794245E-004  4.190328692529308E-005
  6.119364258785660E-004  4.190328692529308E-005
  6.119364373089607E-004  4.190328692529308E-005
  6.689497972756637E-004  4.190328692529308E-005
  1.015556634195552E-003  4.190328692529308E-005
  1.110585084594115E-003  4.190328692529308E-005
  1.110585534901807E-003  4.190328692529308E-005
  1.171309624027345E-003  4.190328692529308E-005
  1.171310121797318E-003  4.190328692529308E-005
  1.171453157246540E-003  4.190328692529308E-005
  1.331354957368404E-003  4.190328692529308E-005
  1.337891097809040E-003  4.190328692529308E-005
  2.342906215377959E-003  4.190328692529308E-005
  2.342906413599865E-003  4.190328692529308E-005
  3.749857893509357E-003  4.190328692529308E-005
  3.749858617836003E-003  4.190328692529308E-005
  4.188265050172589E-003  4.190328692529308E-005
 cut=1d-8, nber non-redundant internal coords=          30
 Check on Eigenvals of non-red overlap matrix:
  0.00004190  0.00005678  0.00005678  0.00009579  0.00009579  0.00012501  0.00025282  0.00025283
  0.00034464  0.00049567  0.00049567  0.00059156  0.00059156  0.00059386  0.00061194  0.00061194
  0.00066895  0.00101556  0.00111059  0.00111059  0.00117131  0.00117131  0.00117145  0.00133135
  0.00133789  0.00234291  0.00234291  0.00374986  0.00374986  0.00418827
 generating redundant internal coords
         300        3600          12
 search for int coords
   1 str   2   1   1.390
   2 str   3   2   1.390
   3 str   4   3   1.390
   4 str   5   4   1.390
   5 str   6   1   1.390
   6 str   6   5   1.390
   7 str   7   1   1.111
   8 str   8   2   1.111
   9 str   9   3   1.111
  10 str  10   4   1.111
  11 str  11   5   1.111
  12 str  12   6   1.111
 nber stretches=          12
  13 ben   1   2   3
  14 prop tor   1   2   3   4
  15 prop tor   1   2   3   9
  16 ben   1   2   8
  17 ben   1   6   5
  18 ben   1   6  12
  19 ben   2   1   6
  20 prop tor   2   1   6   5
  21 prop tor   2   1   6  12
  22 ben   2   1   7
  23 ben   2   3   4
  24 prop tor   2   3   4   5
  25 prop tor   2   3   4  10
  26 ben   2   3   9
  27 ben   3   2   8
  28 ben   3   4   5
  29 prop tor   3   4   5   6
  30 prop tor   3   4   5  11
  31 ben   3   4  10
  32 ben   4   3   9
  33 ben   4   5   6
  34 prop tor   4   5   6   1
  35 prop tor   4   5   6  12
  36 ben   4   5  11
  37 ben   5   4  10
  38 ben   5   6  12
  39 prop tor   6   1   2   3
  40 prop tor   6   1   2   8
  41 ben   6   1   7
  42 ben   6   5  11
  43 prop tor   7   1   2   3
  44 prop tor   7   1   2   8
  45 prop tor   7   1   6   5
  46 prop tor   7   1   6  12
  47 prop tor   8   2   3   4
  48 prop tor   8   2   3   9
  49 prop tor   9   3   4   5
  50 prop tor   9   3   4  10
  51 prop tor  10   4   5   6
  52 prop tor  10   4   5  11
  53 prop tor  11   5   6   1
  54 prop tor  11   5   6  12
 nber bend=              18
 nber lin bend=           0
 nber prop tor=          24
 nber impr tor=           0
 nber tot redund int=          54
 Eigenvalues of G in red int coords
    Gval -0.00000000 -0.00000000 -0.00000000 -0.00000000 -0.00000000 -0.00000000 -0.00000000 -0.00000000
    Gval -0.00000000 -0.00000000 -0.00000000 -0.00000000  0.00000000  0.00000000  0.00000000  0.00000000
    Gval  0.00000000  0.00000000  0.00000000  0.00000000  0.00000000  0.00000000  0.00000000  0.00000000
    Gval  0.00004190  0.00005685  0.00005685  0.00009545  0.00009545  0.00012493  0.00025253  0.00025253
    Gval  0.00034597  0.00049583  0.00049583  0.00059119  0.00059119  0.00059386  0.00061086  0.00061086
    Gval  0.00066978  0.00096886  0.00106596  0.00106596  0.00112236  0.00112386  0.00112386  0.00127552
    Gval  0.00133359  0.00224472  0.00224472  0.00359200  0.00359201  0.00400656
  4.190328692529319E-005  4.190328692529319E-005
  5.685385562443401E-005  4.190328692529319E-005
  5.685392564909040E-005  4.190328692529319E-005
  9.544836687770057E-005  4.190328692529319E-005
  9.544837011135224E-005  4.190328692529319E-005
  1.249261093908835E-004  4.190328692529319E-005
  2.525311043799214E-004  4.190328692529319E-005
  2.525312980559516E-004  4.190328692529319E-005
  3.459650799575228E-004  4.190328692529319E-005
  4.958321081893461E-004  4.190328692529319E-005
  4.958340339197594E-004  4.190328692529319E-005
  5.911939516788131E-004  4.190328692529319E-005
  5.911939740541443E-004  4.190328692529319E-005
  5.938597688794355E-004  4.190328692529319E-005
  6.108599894962039E-004  4.190328692529319E-005
  6.108599959152567E-004  4.190328692529319E-005
  6.697793038193437E-004  4.190328692529319E-005
  9.688622187984802E-004  4.190328692529319E-005
  1.065959882225076E-003  4.190328692529319E-005
  1.065960828872146E-003  4.190328692529319E-005
  1.122359705830715E-003  4.190328692529319E-005
  1.123858055214932E-003  4.190328692529319E-005
  1.123858211950351E-003  4.190328692529319E-005
  1.275520104261492E-003  4.190328692529319E-005
  1.333586931302168E-003  4.190328692529319E-005
  2.244717391456109E-003  4.190328692529319E-005
  2.244721431884247E-003  4.190328692529319E-005
  3.591999166692929E-003  4.190328692529319E-005
  3.592006819896648E-003  4.190328692529319E-005
  4.006564177257566E-003  4.190328692529319E-005
 cut=1d-8, nber non-redundant internal coords=          30
 Check on Eigenvals of non-red overlap matrix:
  0.00004190  0.00005685  0.00005685  0.00009545  0.00009545  0.00012493  0.00025253  0.00025253
  0.00034597  0.00049583  0.00049583  0.00059119  0.00059119  0.00059386  0.00061086  0.00061086
  0.00066978  0.00096886  0.00106596  0.00106596  0.00112236  0.00112386  0.00112386  0.00127552
  0.00133359  0.00224472  0.00224472  0.00359200  0.00359201  0.00400656
 d1=
  -0.5  -0.0   0.0   0.0   0.0   0.0  -0.0  -0.0   0.0   0.0   0.0   0.0   0.0   2.7   0.0   0.0   0.0   0.0  -0.0  -0.0
   0.0  -0.0   0.0   0.0   0.0  -0.0  -0.0   0.0   0.0   0.0
 d2=
   0.5  -0.0   0.0  -0.0   0.0   0.0   0.0   0.0  -0.0   0.0   0.0  -0.0   0.0  -2.7  -0.0  -0.0  -0.0   0.0   0.0  -0.0
  -0.0  -0.0   0.0   0.0  -0.0   0.0  -0.0  -0.0  -0.0  -0.0
 curvilinear- renormalizn of Dush matrix done
  mol 1 sym            1  -> mol 2 sym            1
  mol 1 sym            2  -> mol 2 sym            2
  mol 1 sym            3  -> mol 2 sym            3
  mol 1 sym            4  -> mol 2 sym            4
  mol 1 sym            5  -> mol 2 sym            5
  mol 1 sym            6  -> mol 2 sym            6
  mol 1 sym            7  -> mol 2 sym            7
  mol 1 sym            8  -> mol 2 sym            8

 Dushinsky matrix, ncs 2 in terms of ncs 1

   mode   freq    coeff     %      %tot     of    at

   1 B2u    -0. -0.0000     0.0     0.0  22 B2u  1175.
   2 B1g    -0. -0.0000     0.0     0.0  29 B1g  1637.
   3 B3u    -0.  0.0000     0.0     0.0  19 B3u  1023.
   4 B1u    -0. -0.0000     0.0     0.0  11 B1u   689.
   5 B2g     0.  0.0000     0.0     0.0  18 B2g  1017.
   6 B3g     0. -0.0000     0.0     0.0  14 B3g   862.
   7 Au    469.  0.9920    98.4   100.1   7 Au    413.
   8 B1u   469.  0.9920    98.4   100.1   8 B1u   413.
   9 Ag    615. -0.9998   100.0   100.3   9 Ag    623.
  10 B1g   615.  0.9998   100.0   100.3  10 B1g   623.
  11 B1u   622.  1.0000   100.0    95.3  11 B1u   689.
  12 B2g   712.  0.9987    99.7    99.8  12 B2g   723.
  13 B2g   858.  1.0000   100.0    95.8  13 B2g   862.
  14 B3g   858.  1.0000   100.0    95.8  14 B3g   862.
  15 B3u   931.  0.9999   100.0   100.5  19 B3u  1023.
  16 B2g  1004.  0.9975    99.5    96.0  18 B2g  1017.
  17 Ag   1018.  1.0000   100.0   100.0  17 Ag   1013.
  18 B3u  1036.  0.9996    99.9    97.8  20 B3u  1060.
  19 B2u  1036.  0.9996    99.9    97.8  21 B2u  1060.
  20 B2u  1088.  0.9930    98.6    95.7  22 B2u  1175.
  21 Au   1101.  0.9938    98.8    95.7  15 Au    981.
  22 B1u  1101.  0.9938    98.8    95.7  16 B1u   981.
  23 Ag   1112. -0.9964    99.3    96.1  24 Ag   1198.
  24 B1g  1112.  0.9964    99.3    96.1  23 B1g  1198.
  25 B2u  1367. -0.9911    98.2    99.6  25 B2u  1335.
  26 B1g  1368.  1.0000   100.0    95.8  26 B1g  1382.
  27 B3u  1499.  0.9987    99.7    97.7  27 B3u  1513.
  28 B2u  1499.  0.9987    99.7    97.7  28 B2u  1513.
  29 B1g  1619.  0.9950    99.0    99.5  29 B1g  1637.
  30 Ag   1620.  0.9950    99.0    99.5  30 Ag   1637.
  31 B3u  2696.  0.9997    99.9   100.0  34 B3u  3179.
  32 B2u  2696.  0.9997    99.9   100.0  35 B2u  3179.
  33 B3u  2742.  0.9999   100.0   100.0  31 B3u  3154.
  34 Ag   2802.  0.9999   100.0   100.0  32 Ag   3164.
  35 B1g  2802.  0.9999   100.0   100.0  33 B1g  3164.
  36 Ag   2822.  1.0000   100.0   100.0  36 Ag   3190.
 nber times 1st assigned=           1           0
 nber times 1st assigned=           2           0
 nber times 1st assigned=           3           0
 nber times 1st assigned=           4           0
 nber times 1st assigned=           5           0
 nber times 1st assigned=           6           0
 nber times 1st assigned=           7           0
 nber times 1st assigned=           8           0
 nber times 1st assigned=           9           0
 nber times 1st assigned=          10           0
 nber times 1st assigned=          12           0
 nber times 1st assigned=          13           0
 nber times 1st assigned=          15           0
 nber times 1st assigned=          16           0
 nber times 1st assigned=          17           0
 nber times 1st assigned=          20           0
 nber times 1st assigned=          21           0
 nber times 1st assigned=          23           0
 nber times 1st assigned=          24           0
 nber times 1st assigned=          25           0
 nber times 1st assigned=          26           0
 nber times 1st assigned=          27           0
 nber times 1st assigned=          28           0
 nber times 1st assigned=          30           0
 nber times 1st assigned=          31           0
 nber times 1st assigned=          32           0
 nber times 1st assigned=          33           0
 nber times 1st assigned=          34           0
 nber times 1st assigned=          35           0
 nber times 1st assigned=          36           0
 Dushinsky matrix written to .out file
 modes represented=   29.4899448947689     

 Dushinsky matrix, ncs 1 in terms of ncs 2

   mode   freq    coeff     %      %tot     of    at

   7 Au    413.  0.9920    98.4    99.7   7 Au    469.
   8 B1u   413.  0.9920    98.4    99.7   8 B1u   469.
   9 Ag    623. -0.9998   100.0   100.3   9 Ag    615.
  10 B1g   623.  0.9998   100.0   100.3  10 B1g   615.
  11 B1u   689.  1.0000   100.0    95.3  11 B1u   622.
  12 B2g   723.  0.9987    99.7   100.0  12 B2g   712.
  13 B2g   862.  1.0000   100.0    95.8  13 B2g   858.
  14 B3g   862.  1.0000   100.0    95.8  14 B3g   858.
  15 Au    981.  0.9938    98.8    96.2  21 Au   1101.
  16 B1u   981.  0.9938    98.8    96.2  22 B1u  1101.
  17 Ag   1013.  1.0000   100.0   100.0  17 Ag   1018.
  18 B2g  1017.  0.9975    99.5    95.8  16 B2g  1004.
  19 B3u  1023.  0.9999   100.0   100.5  15 B3u   931.
  20 B3u  1060.  0.9996    99.9    98.0  18 B3u  1036.
  21 B2u  1060.  0.9996    99.9    98.0  19 B2u  1036.
  22 B2u  1175.  0.9930    98.6    96.2  20 B2u  1088.
  23 B1g  1198.  0.9964    99.3    96.4  24 B1g  1112.
  24 Ag   1198. -0.9964    99.3    96.4  23 Ag   1112.
  25 B2u  1335. -0.9911    98.2    99.2  25 B2u  1367.
  26 B1g  1382.  1.0000   100.0    95.8  26 B1g  1368.
  27 B3u  1513.  0.9987    99.7    97.5  27 B3u  1499.
  28 B2u  1513.  0.9987    99.7    97.5  28 B2u  1499.
  29 B1g  1637.  0.9950    99.0    99.2  29 B1g  1619.
  30 Ag   1637.  0.9950    99.0    99.2  30 Ag   1620.
  31 B3u  3154.  0.9999   100.0   100.0  33 B3u  2742.
  32 Ag   3164.  0.9999   100.0   100.0  34 Ag   2802.
  33 B1g  3164.  0.9999   100.0   100.0  35 B1g  2802.
  34 B3u  3179.  0.9997    99.9   100.0  31 B3u  2696.
  35 B2u  3179.  0.9997    99.9   100.0  32 B2u  2696.
  36 Ag   3190.  1.0000   100.0   100.0  36 Ag   2822.
 nber times 1st assigned=           1           0
 nber times 1st assigned=           2           0
 nber times 1st assigned=           3           0
 nber times 1st assigned=           4           0
 nber times 1st assigned=           5           0
 nber times 1st assigned=           6           0
 nber times 1st assigned=           7           0
 nber times 1st assigned=           8           0
 nber times 1st assigned=           9           0
 nber times 1st assigned=          10           0
 nber times 1st assigned=          11           0
 nber times 1st assigned=          12           0
 nber times 1st assigned=          13           0
 nber times 1st assigned=          14           0
 nber times 1st assigned=          15           0
 nber times 1st assigned=          16           0
 nber times 1st assigned=          17           0
 nber times 1st assigned=          18           0
 nber times 1st assigned=          19           0
 nber times 1st assigned=          20           0
 nber times 1st assigned=          21           0
 nber times 1st assigned=          22           0
 nber times 1st assigned=          23           0
 nber times 1st assigned=          24           0
 nber times 1st assigned=          25           0
 nber times 1st assigned=          26           0
 nber times 1st assigned=          27           0
 nber times 1st assigned=          28           0
 nber times 1st assigned=          29           0
 nber times 1st assigned=          30           0
 nber times 1st assigned=          31           0
 nber times 1st assigned=          32           0
 nber times 1st assigned=          33           0
 nber times 1st assigned=          34           0
 nber times 1st assigned=          35           0
 nber times 1st assigned=          36           0
 modes represented=   29.4899448947689     
 p1=
    0.   -0.   -0.    0.   -0.   -0.   -0.   -0.    0.    0.    0.    0.   -0.   -0.   -0.    0.   -0.   -0.    0.   -0.
    0.    0.   -0.    0.   -0.    0.   -0.   -0.    0.    0.   -0.   -0.   -0.   -0.   -0.   -3.
 p2=
   -0.    0.    0.    0.    0.   -0.    0.   -0.    0.   -0.   -0.    0.    0.   -0.   -0.   -0.    0.    0.   -0.    0.
   -0.   -0.    0.    0.   -0.    0.    0.   -0.    0.   -0.    0.   -0.    0.    0.   -0.    3.

 Displacement: in terms of nc of 1 THEN of nc of 2

   1 B2u freq=    -0. Q=  0.000 lam=    -0.0 B2u freq=    -0. Q=  0.000 lam=    -0.0
   2 B1g freq=    -0. Q= -0.000 lam=    -0.0 B1g freq=    -0. Q= -0.000 lam=    -0.0
   3 B1u freq=    -0. Q= -0.000 lam=    -0.0 B3u freq=    -0. Q= -0.000 lam=    -0.0
   4 B3g freq=     0. Q=  0.000 lam=     0.0 B1u freq=    -0. Q=  0.000 lam=    -0.0
   5 B3u freq=     0. Q= -0.000 lam=     0.0 B2g freq=     0. Q= -0.000 lam=     0.0
   6 B2g freq=     0. Q= -0.000 lam=     0.0 B3g freq=     0. Q= -0.000 lam=     0.0
   7 Au  freq=   413. Q= -0.000 lam=     0.0 Au  freq=   469. Q= -0.000 lam=     0.0
   8 B1u freq=   413. Q= -0.000 lam=     0.0 B1u freq=   469. Q= -0.000 lam=     0.0
   9 Ag  freq=   623. Q=  0.000 lam=     0.0 Ag  freq=   615. Q=  0.000 lam=     0.0
  10 B1g freq=   623. Q=  0.000 lam=     0.0 B1g freq=   615. Q=  0.000 lam=     0.0
  11 B1u freq=   689. Q=  0.000 lam=     0.0 B1u freq=   622. Q=  0.000 lam=     0.0
  12 B2g freq=   723. Q=  0.000 lam=     0.0 B2g freq=   712. Q=  0.000 lam=     0.0
  13 B2g freq=   862. Q= -0.000 lam=     0.0 B2g freq=   858. Q= -0.000 lam=     0.0
  14 B3g freq=   862. Q= -0.000 lam=     0.0 B3g freq=   858. Q= -0.000 lam=     0.0
  15 Au  freq=   981. Q= -0.000 lam=     0.0 B3u freq=   931. Q= -0.000 lam=     0.0
  16 B1u freq=   981. Q=  0.000 lam=     0.0 B2g freq=  1004. Q=  0.000 lam=     0.0
  17 Ag  freq=  1013. Q= -0.064 lam=     2.1 Ag  freq=  1018. Q= -0.064 lam=     2.1
  18 B2g freq=  1017. Q= -0.000 lam=     0.0 B3u freq=  1036. Q= -0.000 lam=     0.0
  19 B3u freq=  1023. Q=  0.000 lam=     0.0 B2u freq=  1036. Q=  0.000 lam=     0.0
  20 B3u freq=  1060. Q= -0.000 lam=     0.0 B2u freq=  1088. Q= -0.000 lam=     0.0
  21 B2u freq=  1060. Q=  0.000 lam=     0.0 Au  freq=  1101. Q=  0.000 lam=     0.0
  22 B2u freq=  1175. Q=  0.000 lam=     0.0 B1u freq=  1101. Q=  0.000 lam=     0.0
  23 B1g freq=  1198. Q= -0.000 lam=     0.0 Ag  freq=  1112. Q= -0.000 lam=     0.0
  24 Ag  freq=  1198. Q=  0.000 lam=     0.0 B1g freq=  1112. Q=  0.000 lam=     0.0
  25 B2u freq=  1335. Q= -0.000 lam=     0.0 B2u freq=  1367. Q= -0.000 lam=     0.0
  26 B1g freq=  1382. Q=  0.000 lam=     0.0 B1g freq=  1368. Q=  0.000 lam=     0.0
  27 B3u freq=  1513. Q= -0.000 lam=     0.0 B3u freq=  1499. Q= -0.000 lam=     0.0
  28 B2u freq=  1513. Q= -0.000 lam=     0.0 B2u freq=  1499. Q= -0.000 lam=     0.0
  29 B1g freq=  1637. Q=  0.000 lam=     0.0 B1g freq=  1619. Q=  0.000 lam=     0.0
  30 Ag  freq=  1637. Q=  0.000 lam=     0.0 Ag  freq=  1620. Q=  0.000 lam=     0.0
  31 B3u freq=  3154. Q= -0.000 lam=     0.0 B3u freq=  2696. Q= -0.000 lam=     0.0
  32 Ag  freq=  3164. Q= -0.001 lam=     0.0 B2u freq=  2696. Q= -0.000 lam=     0.0
  33 B1g freq=  3164. Q= -0.000 lam=     0.0 B3u freq=  2742. Q= -0.000 lam=     0.0
  34 B3u freq=  3179. Q= -0.000 lam=     0.0 Ag  freq=  2802. Q= -0.001 lam=     0.0
  35 B2u freq=  3179. Q= -0.000 lam=     0.0 B1g freq=  2802. Q= -0.000 lam=     0.0
  36 Ag  freq=  3190. Q= -0.605 lam=   583.4 Ag  freq=  2822. Q= -0.569 lam=   456.9

 total reorg energy (cm**-1, kcal/mol)=      586.      459.      1.67      1.31
 Nber of molecules processed=           2
