 Enter ifcurve (0=recti, 1=orth curvi, 2=apprx curvi, -1 = skip
 And atom ordering flag, 0= never changes, 1= use the first order thenceforth,
  2= deduce it (does read on fail), 3= always read it
 Reading file: 
 ./CDT-BT_6_C0S1.log                                                            
                                          
  Entering Gaussian System, Link 0=g16                                          
  
 Gaussian format, type: g94, g98, g03= F F F
  #P Geom=AllCheck Guess=TCheck SCRF=Check GenChk RB3LYP TD(FC,Read)/6-3    
 energy type= TD      
 Original G94 input coords:
  6 -2.285769 -1.951088  0.217591
  6 -2.576416 -1.035088  1.240977
  6 -1.607732 -0.138932  1.688820
  6 -0.349081 -0.175074  1.097566
 16  1.060398  0.808695  1.437408
  6  1.950589 -0.097873  0.157081
  6  3.320777  0.199767 -0.158028
  6  4.059977  1.215058  0.496903
  6  5.374931  1.465438  0.171029
  6  6.047208  0.733068 -0.840984
  6  7.433180  1.004930 -1.188720
  6  8.315930  1.672705 -0.295689
  6  9.626516  1.931622 -0.622261
  6 10.169179  1.542189 -1.875837
  6 11.535802  1.815947 -2.208021
  6 12.497470  2.530011 -1.466592
  6 13.731058  2.598307 -2.099865
  6 15.088332  3.207994 -1.811264
  6 15.869108  2.811295 -3.046598
  6 17.170052  2.981799 -3.546342
  6 17.333759  2.380816 -4.777027
 16 15.887314  1.589420 -5.350362
  6 15.046440  2.073567 -3.912513
  6 13.758119  1.941820 -3.346881
 16 12.234444  1.221802 -3.741455
  6  9.293809  0.874240 -2.770321
  6  7.983124  0.617238 -2.440700
  6  5.295639 -0.278760 -1.497777
  6  3.987026 -0.542893 -1.167788
  7  1.234148 -1.027495 -0.434299
  6 -0.036190 -1.095951  0.059714
  6 -1.032974 -1.990009 -0.373722
  1 -3.055572 -2.638919 -0.114527
  1 -3.563392 -1.022716  1.688888
  1 -1.833556  0.567619  2.478873
  1  3.585391  1.816841  1.263947
  1  5.886069  2.273501  0.680370
  1  7.961901  1.957171  0.686556
  1 10.256709  2.424964  0.107769
  1 12.272361  2.979712 -0.510396
  1 15.531351  2.804445 -0.894251
  1 15.031285  4.295053 -1.688677
  1 17.966934  3.516126 -3.046314
  1 18.222097  2.352896 -5.389294
  1  9.652376  0.572332 -3.748654
  1  7.349213  0.136326 -3.173844
  1  5.768869 -0.893180 -2.254449
  1  3.437905 -1.330453 -1.667035
  1 -0.797919 -2.692574 -1.164059
 nber atoms=          49
  Total Energy, E(TD-HF/TD-DFT) =  -2326.77851602                               
  
          32          49 "  -2326.77851602"
After scan for Atom:   Atom  AN      X      Y      Z        X      Y      Z        X      Y      Z   
After scan for Atom:   Atom  AN      X      Y      Z        X      Y      Z        X      Y      Z   
After scan for Atom:   Atom  AN      X      Y      Z        X      Y      Z        X      Y      Z   
After scan for Atom:   Atom  AN      X      Y      Z        X      Y      Z        X      Y      Z   
After scan for Atom:   Atom  AN      X      Y      Z        X      Y      Z        X      Y      Z   
After scan for Atom:   Atom  AN      X      Y      Z        X      Y      Z        X      Y      Z   
After scan for Atom:   Atom  AN      X      Y      Z        X      Y      Z        X      Y      Z   
After scan for Atom:   Atom  AN      X      Y      Z        X      Y      Z        X      Y      Z   
After scan for Atom:   Atom  AN      X      Y      Z        X      Y      Z        X      Y      Z   
After scan for Atom:   Atom  AN      X      Y      Z        X      Y      Z        X      Y      Z   
After scan for Atom:   Atom  AN      X      Y      Z        X      Y      Z        X      Y      Z   
After scan for Atom:   Atom  AN      X      Y      Z        X      Y      Z        X      Y      Z   
After scan for Atom:   Atom  AN      X      Y      Z        X      Y      Z        X      Y      Z   
After scan for Atom:   Atom  AN      X      Y      Z        X      Y      Z        X      Y      Z   
After scan for Atom:   Atom  AN      X      Y      Z        X      Y      Z        X      Y      Z   
After scan for Atom:   Atom  AN      X      Y      Z        X      Y      Z        X      Y      Z   
After scan for Atom:   Atom  AN      X      Y      Z        X      Y      Z        X      Y      Z   
After scan for Atom:   Atom  AN      X      Y      Z        X      Y      Z        X      Y      Z   
After scan for Atom:   Atom  AN      X      Y      Z        X      Y      Z        X      Y      Z   
After scan for Atom:   Atom  AN      X      Y      Z        X      Y      Z        X      Y      Z   
After scan for Atom:   Atom  AN      X      Y      Z        X      Y      Z        X      Y      Z   
After scan for Atom:   Atom  AN      X      Y      Z        X      Y      Z        X      Y      Z   
After scan for Atom:   Atom  AN      X      Y      Z        X      Y      Z        X      Y      Z   
After scan for Atom:   Atom  AN      X      Y      Z        X      Y      Z        X      Y      Z   
After scan for Atom:   Atom  AN      X      Y      Z        X      Y      Z        X      Y      Z   
After scan for Atom:   Atom  AN      X      Y      Z        X      Y      Z        X      Y      Z   
After scan for Atom:   Atom  AN      X      Y      Z        X      Y      Z        X      Y      Z   
After scan for Atom:   Atom  AN      X      Y      Z        X      Y      Z        X      Y      Z   
After scan for Atom:   Atom  AN      X      Y      Z        X      Y      Z        X      Y      Z   
After scan for Atom:   Atom  AN      X      Y      Z        X      Y      Z        X      Y      Z   
After scan for Atom:   Atom  AN      X      Y      Z        X      Y      Z        X      Y      Z   
After scan for Atom:   Atom  AN      X      Y      Z        X      Y      Z        X      Y      Z   
After scan for Atom:   Atom  AN      X      Y      Z        X      Y      Z        X      Y      Z   
After scan for Atom:   Atom  AN      X      Y      Z        X      Y      Z        X      Y      Z   
After scan for Atom:   Atom  AN      X      Y      Z        X      Y      Z        X      Y      Z   
After scan for Atom:   Atom  AN      X      Y      Z        X      Y      Z        X      Y      Z   
After scan for Atom:   Atom  AN      X      Y      Z        X      Y      Z        X      Y      Z   
After scan for Atom:   Atom  AN      X      Y      Z        X      Y      Z        X      Y      Z   
After scan for Atom:   Atom  AN      X      Y      Z        X      Y      Z        X      Y      Z   
After scan for Atom:   Atom  AN      X      Y      Z        X      Y      Z        X      Y      Z   
After scan for Atom:   Atom  AN      X      Y      Z        X      Y      Z        X      Y      Z   
After scan for Atom:   Atom  AN      X      Y      Z        X      Y      Z        X      Y      Z   
After scan for Atom:   Atom  AN      X      Y      Z        X      Y      Z        X      Y      Z   
After scan for Atom:   Atom  AN      X      Y      Z        X      Y      Z        X      Y      Z   
After scan for Atom:   Atom  AN      X      Y      Z        X      Y      Z        X      Y      Z   
After scan for Atom:   Atom  AN      X      Y      Z        X      Y      Z        X      Y      Z   
After scan for Atom:   Atom  AN      X      Y      Z        X      Y      Z        X      Y      Z   
 g94    frequencies=
     0.0    0.0    0.0    0.0    0.0    0.0   11.5   13.9   24.5   34.9
    40.1   60.8   70.1   75.7   97.2  118.9  135.4  139.4  154.4  188.6
   204.1  210.7  245.3  263.6  269.2  294.0  303.9  340.0  355.2  406.2
   411.4  420.1  425.5  427.6  438.6  444.0  456.1  470.5  503.3  504.1
   529.4  540.2  550.6  565.0  577.3  584.9  597.7  603.8  629.1  634.4
   641.2  660.1  675.0  679.6  697.2  705.5  711.5  715.0  730.1  743.6
   756.4  762.9  798.0  803.6  807.5  811.1  821.8  844.4  854.9  870.7
   882.5  906.5  930.7  943.0  950.4  951.3  954.7  958.6  963.5  974.5
   985.9  992.1 1002.1 1009.0 1016.3 1026.1 1035.7 1073.7 1103.3 1138.7
  1140.3 1149.2 1156.5 1178.2 1185.6 1194.5 1204.4 1216.9 1235.9 1254.9
  1271.9 1276.5 1288.3 1321.6 1326.0 1329.5 1332.6 1341.4 1343.8 1348.2
  1367.3 1426.1 1431.5 1445.2 1457.2 1462.5 1465.1 1468.4 1478.6 1489.2
  1491.0 1499.4 1505.2 1525.7 1532.7 1543.6 1584.3 1620.7 1633.9 1646.7
  3029.6 3056.8 3161.0 3161.9 3163.5 3172.7 3173.9 3177.1 3184.2 3185.4
  3192.8 3200.4 3201.8 3206.0 3206.5 3221.0 3245.5
 g94    symmetries=
                                                 A      A      A      A
       A      A      A      A      A      A      A      A      A      A
       A      A      A      A      A      A      A      A      A      A
       A      A      A      A      A      A      A      A      A      A
       A      A      A      A      A      A      A      A      A      A
       A      A      A      A      A      A      A      A      A      A
       A      A      A      A      A      A      A      A      A      A
       A      A      A      A      A      A      A      A      A      A
       A      A      A      A      A      A      A      A      A      A
       A      A      A      A      A      A      A      A      A      A
       A      A      A      A      A      A      A      A      A      A
       A      A      A      A      A      A      A      A      A      A
       A      A      A      A      A      A      A      A      A      A
       A      A      A      A      A      A      A      A      A      A
       A      A      A      A      A      A      A
 atomic masses:
 12.0000 12.0000 12.0000 12.0000 31.9721 12.0000 12.0000 12.0000 12.0000 12.0000
 12.0000 12.0000 12.0000 12.0000 12.0000 12.0000 12.0000 12.0000 12.0000 12.0000
 12.0000 31.9721 12.0000 12.0000 31.9721 12.0000 12.0000 12.0000 12.0000 14.0031
 12.0000 12.0000  1.0078  1.0078  1.0078  1.0078  1.0078  1.0078  1.0078  1.0078
  1.0078  1.0078  1.0078  1.0078  1.0078  1.0078  1.0078  1.0078  1.0078
 looking for force constants in 
 ./CDT-BT_6_C0S1.fchk                                                           
  
 Cartesian Force Constants                  R   N=       10878                  
  
 n3=         147       10878
 g94-fc frequencies=
    -0.7   -0.0   -0.0    0.0    1.0    2.6   11.5   13.9   24.5   34.9
    40.1   60.8   70.1   75.7   97.2  118.9  135.4  139.4  154.4  188.6
   204.2  210.7  245.3  263.6  269.2  294.0  303.9  340.0  355.2  406.2
   411.4  420.1  425.5  427.6  438.6  444.0  456.1  470.6  503.3  504.2
   529.4  540.2  550.6  565.1  577.4  584.9  597.7  603.8  629.2  634.4
   641.2  660.2  675.0  679.6  697.3  705.5  711.5  715.0  730.1  743.6
   756.4  763.0  798.0  803.6  807.5  811.1  821.8  844.5  855.0  870.7
   882.5  906.5  930.7  943.0  950.4  951.3  954.7  958.6  963.5  974.5
   985.9  992.1 1002.1 1009.0 1016.3 1026.1 1035.7 1073.7 1103.4 1138.7
  1140.3 1149.2 1156.5 1178.2 1185.7 1194.5 1204.5 1216.9 1235.9 1254.9
  1271.9 1276.5 1288.3 1321.7 1326.0 1329.6 1332.6 1341.4 1343.9 1348.2
  1367.3 1426.2 1431.5 1445.2 1457.3 1462.5 1465.1 1468.4 1478.7 1489.2
  1491.0 1499.4 1505.2 1525.7 1532.7 1543.6 1584.4 1620.7 1634.0 1646.8
  3029.7 3056.8 3161.1 3161.9 3163.6 3172.8 3173.9 3177.2 3184.3 3185.5
  3192.9 3200.5 3201.8 3206.0 3206.6 3221.1 3245.6
 at 99999: n3=         147
 symm operator            1 :  F  nop=           0
 symm operator            2 :  F  nop=           0
 symm operator            3 :  F  nop=           0
 symm operator            4 :  F  nop=           0
 symm operator            5 :  F  nop=           0
 symm operator            6 :  F  nop=           0
 symm operator            7 :  F  nop=           0
 The point group of the molecule is  C1
 Symmetry rotation matrix:
   1.00000   0.00000   0.00000
   0.00000   1.00000   0.00000
   0.00000   0.00000   1.00000

 Projecting out zero-frequency components
 generating redundant internal coords
         300        3600          49
 search for int coords
   1 str   2   1   1.404
   2 str   3   2   1.394
   3 str   4   3   1.391
   4 str   5   4   1.752
   5 str   6   5   1.804
   6 str   7   6   1.437
   7 str   8   7   1.416
   8 str   9   8   1.378
   9 str  10   9   1.419
  10 str  11  10   1.455
  11 str  12  11   1.422
  12 str  13  12   1.375
  13 str  14  13   1.420
  14 str  15  14   1.433
  15 str  16  15   1.409
  16 str  17  16   1.388
  17 str  18  17   1.516
  18 str  19  18   1.514
  19 str  20  19   1.404
  20 str  21  20   1.379
  21 str  22  21   1.746
  22 str  23  19   1.404
  23 str  23  22   1.735
  24 str  24  17   1.410
  25 str  24  23   1.413
  26 str  25  15   1.787
  27 str  25  24   1.731
  28 str  26  14   1.419
  29 str  27  11   1.421
  30 str  27  26   1.376
  31 str  28  10   1.421
  32 str  29   7   1.420
  33 str  29  28   1.375
  34 str  30   6   1.314
  35 str  31   4   1.422
  36 str  31  30   1.365
  37 str  32   1   1.386
  38 str  32  31   1.407
  39 str  33   1   1.084
  40 str  34   2   1.084
  41 str  35   3   1.084
  42 str  36   8   1.084
  43 str  37   9   1.083
  44 str  38  12   1.082
  45 str  39  13   1.083
  46 str  40  16   1.080
  47 str  41  18   1.095
  48 str  42  18   1.095
  49 str  43  20   1.082
  50 str  44  21   1.079
  51 str  45  26   1.085
  52 str  46  27   1.082
  53 str  47  28   1.084
  54 str  48  29   1.082
  55 str  49  32   1.083
 nber stretches=          55
  56 ben   1   2   3
  57 prop tor   1   2   3   4
  58 prop tor   1   2   3  35
  59 ben   1   2  34
  60 ben   1  32  31
  61 ben   1  32  49
  62 ben   2   1  32
  63 prop tor   2   1  32  31
  64 prop tor   2   1  32  49
  65 ben   2   1  33
  66 ben   2   3   4
  67 prop tor   2   3   4   5
  68 prop tor   2   3   4  31
  69 ben   2   3  35
  70 ben   3   2  34
  71 ben   3   4   5
  72 prop tor   3   4   5   6
  73 ben   3   4  31
  74 prop tor   3   4  31  30
  75 prop tor   3   4  31  32
  76 ben   4   3  35
  77 ben   4   5   6
  78 prop tor   4   5   6   7
  79 prop tor   4   5   6  30
  80 ben   4  31  30
  81 ben   4  31  32
  82 prop tor   4  31  32   1
  83 prop tor   4  31  32  49
  84 ben   5   4  31
  85 prop tor   5   4  31  30
  86 prop tor   5   4  31  32
  87 ben   5   6   7
  88 prop tor   5   6   7   8
  89 prop tor   5   6   7  29
  90 ben   5   6  30
  91 prop tor   5   6  30  31
  92 ben   6   7   8
  93 prop tor   6   7   8   9
  94 prop tor   6   7   8  36
  95 ben   6   7  29
  96 prop tor   6   7  29  28
  97 prop tor   6   7  29  48
  98 ben   6  30  31
  99 prop tor   6  30  31   4
 100 prop tor   6  30  31  32
 101 ben   7   6  30
 102 prop tor   7   6  30  31
 103 ben   7   8   9
 104 prop tor   7   8   9  10
 105 prop tor   7   8   9  37
 106 ben   7   8  36
 107 ben   7  29  28
 108 ben   7  29  48
 109 ben   8   7  29
 110 prop tor   8   7  29  28
 111 prop tor   8   7  29  48
 112 ben   8   9  10
 113 prop tor   8   9  10  11
 114 prop tor   8   9  10  28
 115 ben   8   9  37
 116 ben   9   8  36
 117 ben   9  10  11
 118 prop tor   9  10  11  12
 119 prop tor   9  10  11  27
 120 ben   9  10  28
 121 prop tor   9  10  28  29
 122 prop tor   9  10  28  47
 123 ben  10   9  37
 124 ben  10  11  12
 125 prop tor  10  11  12  13
 126 prop tor  10  11  12  38
 127 ben  10  11  27
 128 prop tor  10  11  27  26
 129 prop tor  10  11  27  46
 130 ben  10  28  29
 131 prop tor  10  28  29   7
 132 prop tor  10  28  29  48
 133 ben  10  28  47
 134 ben  11  10  28
 135 prop tor  11  10  28  29
 136 prop tor  11  10  28  47
 137 ben  11  12  13
 138 prop tor  11  12  13  14
 139 prop tor  11  12  13  39
 140 ben  11  12  38
 141 ben  11  27  26
 142 ben  11  27  46
 143 ben  12  11  27
 144 prop tor  12  11  27  26
 145 prop tor  12  11  27  46
 146 ben  12  13  14
 147 prop tor  12  13  14  15
 148 prop tor  12  13  14  26
 149 ben  12  13  39
 150 ben  13  12  38
 151 ben  13  14  15
 152 prop tor  13  14  15  16
 153 prop tor  13  14  15  25
 154 ben  13  14  26
 155 prop tor  13  14  26  27
 156 prop tor  13  14  26  45
 157 ben  14  13  39
 158 ben  14  15  16
 159 prop tor  14  15  16  17
 160 prop tor  14  15  16  40
 161 ben  14  15  25
 162 prop tor  14  15  25  24
 163 ben  14  26  27
 164 prop tor  14  26  27  11
 165 prop tor  14  26  27  46
 166 ben  14  26  45
 167 ben  15  14  26
 168 prop tor  15  14  26  27
 169 prop tor  15  14  26  45
 170 ben  15  16  17
 171 prop tor  15  16  17  18
 172 prop tor  15  16  17  24
 173 ben  15  16  40
 174 ben  15  25  24
 175 ben  16  15  25
 176 prop tor  16  15  25  24
 177 ben  16  17  18
 178 prop tor  16  17  18  19
 179 prop tor  16  17  18  41
 180 prop tor  16  17  18  42
 181 ben  16  17  24
 182 prop tor  16  17  24  23
 183 prop tor  16  17  24  25
 184 ben  17  16  40
 185 ben  17  18  19
 186 prop tor  17  18  19  20
 187 prop tor  17  18  19  23
 188 ben  17  18  41
 189 ben  17  18  42
 190 ben  17  24  23
 191 ben  17  24  25
 192 prop tor  17  24  25  15
 193 ben  18  17  24
 194 prop tor  18  17  24  23
 195 prop tor  18  17  24  25
 196 ben  18  19  20
 197 prop tor  18  19  20  21
 198 prop tor  18  19  20  43
 199 ben  18  19  23
 200 prop tor  18  19  23  22
 201 prop tor  18  19  23  24
 202 ben  19  18  41
 203 ben  19  18  42
 204 ben  19  20  21
 205 prop tor  19  20  21  22
 206 prop tor  19  20  21  44
 207 ben  19  20  43
 208 ben  19  23  22
 209 ben  19  23  24
 210 prop tor  19  23  24  17
 211 prop tor  19  23  24  25
 212 ben  20  19  23
 213 prop tor  20  19  23  22
 214 prop tor  20  19  23  24
 215 ben  20  21  22
 216 prop tor  20  21  22  23
 217 ben  20  21  44
 218 ben  21  20  43
 219 ben  21  22  23
 220 prop tor  21  22  23  19
 221 prop tor  21  22  23  24
 222 ben  22  21  44
 223 ben  22  23  24
 224 prop tor  22  23  24  17
 225 prop tor  22  23  24  25
 226 prop tor  23  19  20  21
 227 prop tor  23  19  20  43
 228 ben  23  24  25
 229 prop tor  23  24  25  15
 230 prop tor  24  17  18  19
 231 prop tor  24  17  18  41
 232 prop tor  24  17  18  42
 233 prop tor  25  15  16  17
 234 prop tor  25  15  16  40
 235 prop tor  26  14  15  16
 236 prop tor  26  14  15  25
 237 ben  26  27  46
 238 prop tor  27  11  12  13
 239 prop tor  27  11  12  38
 240 ben  27  26  45
 241 prop tor  28  10  11  12
 242 prop tor  28  10  11  27
 243 ben  28  29  48
 244 prop tor  29   7   8   9
 245 prop tor  29   7   8  36
 246 ben  29  28  47
 247 prop tor  30   6   7   8
 248 prop tor  30   6   7  29
 249 ben  30  31  32
 250 prop tor  30  31  32   1
 251 prop tor  30  31  32  49
 252 prop tor  31   4   5   6
 253 ben  31  32  49
 254 prop tor  32   1   2   3
 255 prop tor  32   1   2  34
 256 ben  32   1  33
 257 prop tor  33   1   2   3
 258 prop tor  33   1   2  34
 259 prop tor  33   1  32  31
 260 prop tor  33   1  32  49
 261 prop tor  34   2   3   4
 262 prop tor  34   2   3  35
 263 prop tor  35   3   4   5
 264 prop tor  35   3   4  31
 265 prop tor  36   8   9  10
 266 prop tor  36   8   9  37
 267 prop tor  37   9  10  11
 268 prop tor  37   9  10  28
 269 prop tor  38  12  13  14
 270 prop tor  38  12  13  39
 271 prop tor  39  13  14  15
 272 prop tor  39  13  14  26
 273 prop tor  40  16  17  18
 274 prop tor  40  16  17  24
 275 prop tor  41  18  19  20
 276 prop tor  41  18  19  23
 277 ben  41  18  42
 278 prop tor  42  18  19  20
 279 prop tor  42  18  19  23
 280 prop tor  43  20  21  22
 281 prop tor  43  20  21  44
 282 prop tor  44  21  22  23
 283 prop tor  45  26  27  11
 284 prop tor  45  26  27  46
 285 prop tor  47  28  29   7
 286 prop tor  47  28  29  48
 nber bend=              91
 nber lin bend=           0
 nber prop tor=         140
 nber impr tor=           0
 nber tot redund int=         286
 Eigenvalues of G in red int coords
    Gval -0.00000000 -0.00000000 -0.00000000 -0.00000000 -0.00000000 -0.00000000 -0.00000000 -0.00000000
    Gval -0.00000000 -0.00000000 -0.00000000 -0.00000000 -0.00000000 -0.00000000 -0.00000000 -0.00000000
    Gval -0.00000000 -0.00000000 -0.00000000 -0.00000000 -0.00000000 -0.00000000 -0.00000000 -0.00000000
    Gval -0.00000000 -0.00000000 -0.00000000 -0.00000000 -0.00000000 -0.00000000 -0.00000000 -0.00000000
    Gval -0.00000000 -0.00000000 -0.00000000 -0.00000000 -0.00000000 -0.00000000 -0.00000000 -0.00000000
    Gval -0.00000000 -0.00000000 -0.00000000 -0.00000000 -0.00000000 -0.00000000 -0.00000000 -0.00000000
    Gval -0.00000000 -0.00000000 -0.00000000 -0.00000000 -0.00000000 -0.00000000 -0.00000000 -0.00000000
    Gval -0.00000000 -0.00000000 -0.00000000 -0.00000000 -0.00000000 -0.00000000 -0.00000000 -0.00000000
    Gval -0.00000000 -0.00000000 -0.00000000 -0.00000000 -0.00000000 -0.00000000 -0.00000000 -0.00000000
    Gval -0.00000000 -0.00000000  0.00000000  0.00000000  0.00000000  0.00000000  0.00000000  0.00000000
    Gval  0.00000000  0.00000000  0.00000000  0.00000000  0.00000000  0.00000000  0.00000000  0.00000000
    Gval  0.00000000  0.00000000  0.00000000  0.00000000  0.00000000  0.00000000  0.00000000  0.00000000
    Gval  0.00000000  0.00000000  0.00000000  0.00000000  0.00000000  0.00000000  0.00000000  0.00000000
    Gval  0.00000000  0.00000000  0.00000000  0.00000000  0.00000000  0.00000000  0.00000000  0.00000000
    Gval  0.00000000  0.00000000  0.00000000  0.00000000  0.00000000  0.00000000  0.00000000  0.00000000
    Gval  0.00000000  0.00000000  0.00000000  0.00000000  0.00000000  0.00000000  0.00000000  0.00000000
    Gval  0.00000000  0.00000000  0.00000000  0.00000000  0.00000000  0.00000000  0.00000000  0.00000000
    Gval  0.00000000  0.00000000  0.00000000  0.00000000  0.00000000  0.00000000  0.00000000  0.00000000
    Gval  0.00000000  0.00000016  0.00000058  0.00000100  0.00000121  0.00000345  0.00000415  0.00000482
    Gval  0.00000595  0.00000900  0.00001161  0.00001504  0.00001713  0.00002017  0.00002109  0.00002424
    Gval  0.00002763  0.00002821  0.00003019  0.00003493  0.00003765  0.00003887  0.00004385  0.00004620
    Gval  0.00004832  0.00004883  0.00005012  0.00005423  0.00005764  0.00005961  0.00006228  0.00006450
    Gval  0.00006783  0.00007539  0.00007893  0.00008224  0.00008539  0.00009152  0.00009371  0.00009663
    Gval  0.00010761  0.00010922  0.00011659  0.00011881  0.00012163  0.00012197  0.00012598  0.00013264
    Gval  0.00013507  0.00014076  0.00015546  0.00016249  0.00017660  0.00019356  0.00020484  0.00020675
    Gval  0.00023203  0.00026078  0.00027620  0.00027967  0.00028490  0.00029910  0.00030008  0.00030643
    Gval  0.00031490  0.00035716  0.00036273  0.00036757  0.00037233  0.00037349  0.00038688  0.00039651
    Gval  0.00040880  0.00041481  0.00042289  0.00043465  0.00044447  0.00056177  0.00058328  0.00059315
    Gval  0.00059650  0.00059674  0.00059714  0.00059748  0.00059939  0.00059981  0.00060165  0.00060929
    Gval  0.00061832  0.00062391  0.00062652  0.00063289  0.00063562  0.00064700  0.00064823  0.00065109
    Gval  0.00065486  0.00066661  0.00080139  0.00088858  0.00105371  0.00107176  0.00107372  0.00108015
    Gval  0.00108193  0.00110386  0.00110480  0.00110665  0.00112152  0.00114348  0.00115203  0.00115272
    Gval  0.00116189  0.00116910  0.00117016  0.00117074  0.00118254  0.00119054  0.00133102  0.00138112
    Gval  0.00162761  0.00165449  0.00166454  0.00180032  0.00186768  0.00196276  0.00208291  0.00232405
    Gval  0.00233851  0.00238526  0.00262653  0.00269001  0.00269632  0.00302660  0.00355913  0.00356430
    Gval  0.00363831  0.00368652  0.00371028  0.00374585  0.00401770  0.00407319
  1.641252734423222E-007  1.641252734423222E-007
  5.797784870356380E-007  1.641252734423222E-007
  9.975182411260510E-007  1.641252734423222E-007
  1.207960531349186E-006  1.641252734423222E-007
  3.454182884997945E-006  1.641252734423222E-007
  4.146418263367559E-006  1.641252734423222E-007
  4.815426998291230E-006  1.641252734423222E-007
  5.948711667971581E-006  1.641252734423222E-007
  8.999971305988966E-006  1.641252734423222E-007
  1.161231232599724E-005  1.641252734423222E-007
  1.503802843212680E-005  1.641252734423222E-007
  1.713049930245024E-005  1.641252734423222E-007
  2.017207719745189E-005  1.641252734423222E-007
  2.109007266571108E-005  1.641252734423222E-007
  2.424194814395618E-005  1.641252734423222E-007
  2.762669904083417E-005  1.641252734423222E-007
  2.821089980908014E-005  1.641252734423222E-007
  3.019407049462327E-005  1.641252734423222E-007
  3.492841236334835E-005  1.641252734423222E-007
  3.764900858844458E-005  1.641252734423222E-007
  3.886621922294998E-005  1.641252734423222E-007
  4.385071759660911E-005  1.641252734423222E-007
  4.619915627784714E-005  1.641252734423222E-007
  4.831859904873982E-005  1.641252734423222E-007
  4.882513792747296E-005  1.641252734423222E-007
  5.012140183456743E-005  1.641252734423222E-007
  5.422882649483496E-005  1.641252734423222E-007
  5.763746371565363E-005  1.641252734423222E-007
  5.960740957175192E-005  1.641252734423222E-007
  6.228304684443825E-005  1.641252734423222E-007
  6.450445988445871E-005  1.641252734423222E-007
  6.783327453113219E-005  1.641252734423222E-007
  7.538855139592599E-005  1.641252734423222E-007
  7.892607888341041E-005  1.641252734423222E-007
  8.224427936062221E-005  1.641252734423222E-007
  8.538871581755356E-005  1.641252734423222E-007
  9.152484105119516E-005  1.641252734423222E-007
  9.370840692984426E-005  1.641252734423222E-007
  9.662751066662264E-005  1.641252734423222E-007
  1.076074364966445E-004  1.641252734423222E-007
  1.092231557612992E-004  1.641252734423222E-007
  1.165869454109591E-004  1.641252734423222E-007
  1.188064464838328E-004  1.641252734423222E-007
  1.216295824485831E-004  1.641252734423222E-007
  1.219679870283324E-004  1.641252734423222E-007
  1.259759251043858E-004  1.641252734423222E-007
  1.326441649525679E-004  1.641252734423222E-007
  1.350676697797122E-004  1.641252734423222E-007
  1.407637983943479E-004  1.641252734423222E-007
  1.554598400226605E-004  1.641252734423222E-007
  1.624938224992977E-004  1.641252734423222E-007
  1.765971647330024E-004  1.641252734423222E-007
  1.935577308665405E-004  1.641252734423222E-007
  2.048411905973487E-004  1.641252734423222E-007
  2.067547615305478E-004  1.641252734423222E-007
  2.320274982349195E-004  1.641252734423222E-007
  2.607788009110854E-004  1.641252734423222E-007
  2.762005664447842E-004  1.641252734423222E-007
  2.796721526750043E-004  1.641252734423222E-007
  2.849028220769636E-004  1.641252734423222E-007
  2.990952936308715E-004  1.641252734423222E-007
  3.000777182107698E-004  1.641252734423222E-007
  3.064291311442945E-004  1.641252734423222E-007
  3.148991332690041E-004  1.641252734423222E-007
  3.571578546880953E-004  1.641252734423222E-007
  3.627278493768402E-004  1.641252734423222E-007
  3.675710005398519E-004  1.641252734423222E-007
  3.723326656871979E-004  1.641252734423222E-007
  3.734914534543731E-004  1.641252734423222E-007
  3.868817744533898E-004  1.641252734423222E-007
  3.965144532855900E-004  1.641252734423222E-007
  4.087956239611413E-004  1.641252734423222E-007
  4.148107086641076E-004  1.641252734423222E-007
  4.228899146938430E-004  1.641252734423222E-007
  4.346533842724562E-004  1.641252734423222E-007
  4.444710809133014E-004  1.641252734423222E-007
  5.617686357269737E-004  1.641252734423222E-007
  5.832789394936398E-004  1.641252734423222E-007
  5.931534773405234E-004  1.641252734423222E-007
  5.964973043726190E-004  1.641252734423222E-007
  5.967392480407819E-004  1.641252734423222E-007
  5.971407119721902E-004  1.641252734423222E-007
  5.974837118785806E-004  1.641252734423222E-007
  5.993924735885461E-004  1.641252734423222E-007
  5.998089925226480E-004  1.641252734423222E-007
  6.016545730006664E-004  1.641252734423222E-007
  6.092948614556321E-004  1.641252734423222E-007
  6.183200762648021E-004  1.641252734423222E-007
  6.239127112541470E-004  1.641252734423222E-007
  6.265171658037213E-004  1.641252734423222E-007
  6.328866058270951E-004  1.641252734423222E-007
  6.356167686472960E-004  1.641252734423222E-007
  6.469954727709409E-004  1.641252734423222E-007
  6.482277975848906E-004  1.641252734423222E-007
  6.510868071354479E-004  1.641252734423222E-007
  6.548556166855857E-004  1.641252734423222E-007
  6.666136857213600E-004  1.641252734423222E-007
  8.013902268289313E-004  1.641252734423222E-007
  8.885784600228177E-004  1.641252734423222E-007
  1.053706722117855E-003  1.641252734423222E-007
  1.071761220923000E-003  1.641252734423222E-007
  1.073715452583975E-003  1.641252734423222E-007
  1.080150947682455E-003  1.641252734423222E-007
  1.081928490353494E-003  1.641252734423222E-007
  1.103861105215587E-003  1.641252734423222E-007
  1.104797412433768E-003  1.641252734423222E-007
  1.106654910993064E-003  1.641252734423222E-007
  1.121515554255621E-003  1.641252734423222E-007
  1.143480982715647E-003  1.641252734423222E-007
  1.152026000714500E-003  1.641252734423222E-007
  1.152719026145133E-003  1.641252734423222E-007
  1.161893923332357E-003  1.641252734423222E-007
  1.169096130208068E-003  1.641252734423222E-007
  1.170163273271187E-003  1.641252734423222E-007
  1.170742384912780E-003  1.641252734423222E-007
  1.182538749064151E-003  1.641252734423222E-007
  1.190544725978057E-003  1.641252734423222E-007
  1.331017874821503E-003  1.641252734423222E-007
  1.381124125394878E-003  1.641252734423222E-007
  1.627605700011800E-003  1.641252734423222E-007
  1.654489691207141E-003  1.641252734423222E-007
  1.664543396786401E-003  1.641252734423222E-007
  1.800322474328606E-003  1.641252734423222E-007
  1.867681097452436E-003  1.641252734423222E-007
  1.962760087599839E-003  1.641252734423222E-007
  2.082914560161297E-003  1.641252734423222E-007
  2.324053666010965E-003  1.641252734423222E-007
  2.338506854706376E-003  1.641252734423222E-007
  2.385261271049647E-003  1.641252734423222E-007
  2.626527860306676E-003  1.641252734423222E-007
  2.690012971530477E-003  1.641252734423222E-007
  2.696317699286550E-003  1.641252734423222E-007
  3.026602602534135E-003  1.641252734423222E-007
  3.559126074951111E-003  1.641252734423222E-007
  3.564303141673397E-003  1.641252734423222E-007
  3.638314196312650E-003  1.641252734423222E-007
  3.686517065862418E-003  1.641252734423222E-007
  3.710276360326298E-003  1.641252734423222E-007
  3.745853181318311E-003  1.641252734423222E-007
  4.017700573673377E-003  1.641252734423222E-007
  4.073189510349772E-003  1.641252734423222E-007
 cut=1d-8, nber non-redundant internal coords=         141
 Check on Eigenvals of non-red overlap matrix:
  0.00000016  0.00000058  0.00000100  0.00000121  0.00000345  0.00000415  0.00000482  0.00000595
  0.00000900  0.00001161  0.00001504  0.00001713  0.00002017  0.00002109  0.00002424  0.00002763
  0.00002821  0.00003019  0.00003493  0.00003765  0.00003887  0.00004385  0.00004620  0.00004832
  0.00004883  0.00005012  0.00005423  0.00005764  0.00005961  0.00006228  0.00006450  0.00006783
  0.00007539  0.00007893  0.00008224  0.00008539  0.00009152  0.00009371  0.00009663  0.00010761
  0.00010922  0.00011659  0.00011881  0.00012163  0.00012197  0.00012598  0.00013264  0.00013507
  0.00014076  0.00015546  0.00016249  0.00017660  0.00019356  0.00020484  0.00020675  0.00023203
  0.00026078  0.00027620  0.00027967  0.00028490  0.00029910  0.00030008  0.00030643  0.00031490
  0.00035716  0.00036273  0.00036757  0.00037233  0.00037349  0.00038688  0.00039651  0.00040880
  0.00041481  0.00042289  0.00043465  0.00044447  0.00056177  0.00058328  0.00059315  0.00059650
  0.00059674  0.00059714  0.00059748  0.00059939  0.00059981  0.00060165  0.00060929  0.00061832
  0.00062391  0.00062652  0.00063289  0.00063562  0.00064700  0.00064823  0.00065109  0.00065486
  0.00066661  0.00080139  0.00088858  0.00105371  0.00107176  0.00107372  0.00108015  0.00108193
  0.00110386  0.00110480  0.00110665  0.00112152  0.00114348  0.00115203  0.00115272  0.00116189
  0.00116910  0.00117016  0.00117074  0.00118254  0.00119054  0.00133102  0.00138112  0.00162761
  0.00165449  0.00166454  0.00180032  0.00186768  0.00196276  0.00208291  0.00232405  0.00233851
  0.00238526  0.00262653  0.00269001  0.00269632  0.00302660  0.00355913  0.00356430  0.00363831
  0.00368652  0.00371028  0.00374585  0.00401770  0.00407319
 Checking for correct frequencies
 recalc frequencies=
    -0.0    0.0    0.0    0.0    0.0    0.0   11.5   13.9   24.5   34.9
    40.1   60.8   70.1   75.7   97.2  118.9  135.4  139.4  154.4  188.6
   204.2  210.7  245.3  263.6  269.2  294.0  303.9  340.0  355.2  406.2
   411.4  420.1  425.5  427.6  438.6  444.0  456.1  470.6  503.3  504.2
   529.4  540.2  550.6  565.1  577.4  584.9  597.7  603.8  629.2  634.4
   641.2  660.2  675.0  679.6  697.3  705.5  711.5  715.0  730.1  743.6
   756.4  763.0  798.0  803.6  807.5  811.1  821.8  844.5  855.0  870.7
   882.5  906.5  930.7  943.0  950.4  951.3  954.7  958.6  963.5  974.5
   985.9  992.1 1002.1 1009.0 1016.3 1026.1 1035.7 1073.7 1103.4 1138.7
  1140.3 1149.2 1156.5 1178.2 1185.7 1194.5 1204.5 1216.9 1235.9 1254.9
  1271.9 1276.5 1288.3 1321.7 1326.0 1329.6 1332.6 1341.4 1343.9 1348.2
  1367.3 1426.2 1431.5 1445.2 1457.3 1462.5 1465.1 1468.4 1478.7 1489.2
  1491.0 1499.4 1505.2 1525.7 1532.7 1543.6 1584.4 1620.7 1634.0 1646.8
  3029.7 3056.8 3161.1 3161.9 3163.6 3172.8 3173.9 3177.2 3184.3 3185.5
  3192.9 3200.5 3201.8 3206.0 3206.6 3221.1 3245.6
 recalc symmetries=
                                                                       
                                                                       
                                                                       
                                                                       
                                                                       
                                                                       
                                                                       
                                                                       
                                                                       
                                                                       
                                                                       
                                                                       
                                                                       
                                                                       
                                                  
 recalc freqs check OK
 Zero-point lengths:
 10.0000 10.0000 10.0000 10.0000 10.0000 10.0000 73.1533 66.5224 50.0398 41.9790
 39.1567 31.8026 29.6096 28.4917 25.1492 22.7373 21.3051 20.9947 19.9525 18.0532
 17.3508 17.0788 15.8284 15.2703 15.1098 14.4590 14.2210 13.4449 13.1538 12.3002
 12.2219 12.0951 12.0180 11.9889 11.8372 11.7649 11.6078 11.4286 11.0501 11.0411
 10.7745 10.6660 10.5648 10.4292 10.3175 10.2509 10.1400 10.0892  9.8836  9.8429
  9.7901  9.6488  9.5423  9.5098  9.3886  9.3335  9.2943  9.2715  9.1751  9.0914
  9.0139  8.9753  8.7761  8.7451  8.7243  8.7046  8.6480  8.5311  8.4785  8.4014
  8.3453  8.2339  8.1264  8.0730  8.0416  8.0377  8.0233  8.0070  7.9867  7.9415
  7.8955  7.8708  7.8315  7.8045  7.7766  7.7391  7.7034  7.5656  7.4634  7.3467
  7.3415  7.3131  7.2900  7.2225  7.1997  7.1731  7.1433  7.1067  7.0518  6.9982
  6.9512  6.9388  6.9070  6.8192  6.8080  6.7990  6.7911  6.7688  6.7626  6.7517
  6.7044  6.5646  6.5524  6.5213  6.4942  6.4825  6.4768  6.4696  6.4470  6.4241
  6.4202  6.4023  6.3900  6.3468  6.3323  6.3099  6.2283  6.1580  6.1330  6.1091
  4.5040  4.4839  4.4094  4.4088  4.4076  4.4012  4.4004  4.3982  4.3933  4.3925
  4.3874  4.3822  4.3812  4.3784  4.3780  4.3681  4.3516
 highest evec of mol 1
 -0.0001 -0.0001 -0.0001
 -0.0000  0.0000  0.0000
 -0.0001  0.0001  0.0001
  0.0001  0.0000 -0.0000
 -0.0000 -0.0000 -0.0000
 -0.0002 -0.0001  0.0000
  0.0001  0.0000 -0.0000
 -0.0000 -0.0000 -0.0000
  0.0001  0.0002  0.0001
  0.0001  0.0000 -0.0000
 -0.0001 -0.0000  0.0000
  0.0000  0.0000  0.0001
  0.0000  0.0001  0.0002
  0.0001  0.0000 -0.0000
 -0.0000 -0.0001 -0.0001
  0.0001  0.0001  0.0002
 -0.0002  0.0001  0.0003
 -0.0002 -0.0000  0.0001
  0.0067  0.0013 -0.0018
 -0.0451 -0.0378 -0.0425
 -0.2308  0.0139  0.1715
  0.0016  0.0011  0.0010
  0.0029 -0.0000 -0.0018
  0.0000 -0.0002 -0.0004
 -0.0001 -0.0000 -0.0000
 -0.0000 -0.0001 -0.0002
  0.0000 -0.0000 -0.0001
  0.0001 -0.0001 -0.0001
 -0.0000  0.0000  0.0000
  0.0001  0.0001  0.0000
 -0.0001 -0.0000  0.0000
  0.0000 -0.0000 -0.0001
  0.0003  0.0003  0.0001
  0.0002  0.0000 -0.0001
  0.0001 -0.0002 -0.0003
  0.0000 -0.0000 -0.0000
 -0.0003 -0.0005 -0.0003
  0.0001 -0.0000 -0.0001
 -0.0003 -0.0003 -0.0004
  0.0002 -0.0002 -0.0004
 -0.0003  0.0000  0.0001
 -0.0003 -0.0001  0.0002
  0.1445  0.0986  0.0939
  0.7672 -0.0259 -0.5321
 -0.0002  0.0002  0.0005
  0.0001  0.0000  0.0001
 -0.0003  0.0004  0.0005
  0.0000  0.0000 -0.0000
 -0.0001  0.0001  0.0002
 generating redundant internal coords
         300        3600          49
 Adding extra bonds for z output only
           6           6           6           6          16           6
           6           6           6           6           6           6
           6           6           6           6           6           6
           6           6           6          16           6           6
          16           6           6           6           6           7
           6           6           1           1           1           1
           1           1           1           1           1           1
           1           1           1           1           1           1
           1
 search for int coords
   1 str   2   1   1.404
   2 str   3   2   1.394
   3 str   4   3   1.391
   4 str   5   4   1.752
   5 str   6   5   1.804
   6 str   7   6   1.437
   7 str   8   7   1.416
   8 str   9   8   1.378
   9 str  10   9   1.419
  10 str  11  10   1.455
  11 str  12  11   1.422
  12 str  13  12   1.375
  13 str  14  13   1.420
  14 str  15  14   1.433
  15 str  16  15   1.409
  16 str  17  16   1.388
  17 str  18  17   1.516
  18 str  19  18   1.514
  19 str  20  19   1.404
  20 str  21  20   1.379
  21 str  22  21   1.746
  22 str  23  19   1.404
  23 str  23  22   1.735
  24 str  24  17   1.410
  25 str  24  23   1.413
  26 str  25  15   1.787
  27 str  25  24   1.731
  28 str  26  14   1.419
  29 str  27  11   1.421
  30 str  27  26   1.376
  31 str  28  10   1.421
  32 str  29   7   1.420
  33 str  29  28   1.375
  34 str  30   6   1.314
  35 str  31   4   1.422
  36 str  31  30   1.365
  37 str  32   1   1.386
  38 str  32  31   1.407
  39 str  33   1   1.084
  40 str  34   2   1.084
  41 str  35   3   1.084
  42 str  36   8   1.084
  43 str  37   9   1.083
  44 str  38  12   1.082
  45 str  39  13   1.083
  46 str  40  16   1.080
  47 str  41  18   1.095
  48 str  42  18   1.095
  49 str  43  20   1.082
  50 str  44  21   1.079
  51 str  45  26   1.085
  52 str  46  27   1.082
  53 str  47  28   1.084
  54 str  48  29   1.082
  55 str  49  32   1.083
 nber stretches=          55
  56 ben   1   2   3
  57 prop tor   1   2   3   4
  58 prop tor   1   2   3  35
  59 ben   1   2  34
  60 ben   1  32  31
  61 ben   1  32  49
  62 ben   2   1  32
  63 prop tor   2   1  32  31
  64 prop tor   2   1  32  49
  65 ben   2   1  33
  66 ben   2   3   4
  67 prop tor   2   3   4   5
  68 prop tor   2   3   4  31
  69 ben   2   3  35
  70 ben   3   2  34
  71 ben   3   4   5
  72 prop tor   3   4   5   6
  73 ben   3   4  31
  74 prop tor   3   4  31  30
  75 prop tor   3   4  31  32
  76 ben   4   3  35
  77 ben   4   5   6
  78 prop tor   4   5   6   7
  79 prop tor   4   5   6  30
  80 ben   4  31  30
  81 ben   4  31  32
  82 prop tor   4  31  32   1
  83 prop tor   4  31  32  49
  84 ben   5   4  31
  85 prop tor   5   4  31  30
  86 prop tor   5   4  31  32
  87 ben   5   6   7
  88 prop tor   5   6   7   8
  89 prop tor   5   6   7  29
  90 ben   5   6  30
  91 prop tor   5   6  30  31
  92 ben   6   7   8
  93 prop tor   6   7   8   9
  94 prop tor   6   7   8  36
  95 ben   6   7  29
  96 prop tor   6   7  29  28
  97 prop tor   6   7  29  48
  98 ben   6  30  31
  99 prop tor   6  30  31   4
 100 prop tor   6  30  31  32
 101 ben   7   6  30
 102 prop tor   7   6  30  31
 103 ben   7   8   9
 104 prop tor   7   8   9  10
 105 prop tor   7   8   9  37
 106 ben   7   8  36
 107 ben   7  29  28
 108 ben   7  29  48
 109 ben   8   7  29
 110 prop tor   8   7  29  28
 111 prop tor   8   7  29  48
 112 ben   8   9  10
 113 prop tor   8   9  10  11
 114 prop tor   8   9  10  28
 115 ben   8   9  37
 116 ben   9   8  36
 117 ben   9  10  11
 118 prop tor   9  10  11  12
 119 prop tor   9  10  11  27
 120 ben   9  10  28
 121 prop tor   9  10  28  29
 122 prop tor   9  10  28  47
 123 ben  10   9  37
 124 ben  10  11  12
 125 prop tor  10  11  12  13
 126 prop tor  10  11  12  38
 127 ben  10  11  27
 128 prop tor  10  11  27  26
 129 prop tor  10  11  27  46
 130 ben  10  28  29
 131 prop tor  10  28  29   7
 132 prop tor  10  28  29  48
 133 ben  10  28  47
 134 ben  11  10  28
 135 prop tor  11  10  28  29
 136 prop tor  11  10  28  47
 137 ben  11  12  13
 138 prop tor  11  12  13  14
 139 prop tor  11  12  13  39
 140 ben  11  12  38
 141 ben  11  27  26
 142 ben  11  27  46
 143 ben  12  11  27
 144 prop tor  12  11  27  26
 145 prop tor  12  11  27  46
 146 ben  12  13  14
 147 prop tor  12  13  14  15
 148 prop tor  12  13  14  26
 149 ben  12  13  39
 150 ben  13  12  38
 151 ben  13  14  15
 152 prop tor  13  14  15  16
 153 prop tor  13  14  15  25
 154 ben  13  14  26
 155 prop tor  13  14  26  27
 156 prop tor  13  14  26  45
 157 ben  14  13  39
 158 ben  14  15  16
 159 prop tor  14  15  16  17
 160 prop tor  14  15  16  40
 161 ben  14  15  25
 162 prop tor  14  15  25  24
 163 ben  14  26  27
 164 prop tor  14  26  27  11
 165 prop tor  14  26  27  46
 166 ben  14  26  45
 167 ben  15  14  26
 168 prop tor  15  14  26  27
 169 prop tor  15  14  26  45
 170 ben  15  16  17
 171 prop tor  15  16  17  18
 172 prop tor  15  16  17  24
 173 ben  15  16  40
 174 ben  15  25  24
 175 ben  16  15  25
 176 prop tor  16  15  25  24
 177 ben  16  17  18
 178 prop tor  16  17  18  19
 179 prop tor  16  17  18  41
 180 prop tor  16  17  18  42
 181 ben  16  17  24
 182 prop tor  16  17  24  23
 183 prop tor  16  17  24  25
 184 ben  17  16  40
 185 ben  17  18  19
 186 prop tor  17  18  19  20
 187 prop tor  17  18  19  23
 188 ben  17  18  41
 189 ben  17  18  42
 190 ben  17  24  23
 191 ben  17  24  25
 192 prop tor  17  24  25  15
 193 ben  18  17  24
 194 prop tor  18  17  24  23
 195 prop tor  18  17  24  25
 196 ben  18  19  20
 197 prop tor  18  19  20  21
 198 prop tor  18  19  20  43
 199 ben  18  19  23
 200 prop tor  18  19  23  22
 201 prop tor  18  19  23  24
 202 ben  19  18  41
 203 ben  19  18  42
 204 ben  19  20  21
 205 prop tor  19  20  21  22
 206 prop tor  19  20  21  44
 207 ben  19  20  43
 208 ben  19  23  22
 209 ben  19  23  24
 210 prop tor  19  23  24  17
 211 prop tor  19  23  24  25
 212 ben  20  19  23
 213 prop tor  20  19  23  22
 214 prop tor  20  19  23  24
 215 ben  20  21  22
 216 prop tor  20  21  22  23
 217 ben  20  21  44
 218 ben  21  20  43
 219 ben  21  22  23
 220 prop tor  21  22  23  19
 221 prop tor  21  22  23  24
 222 ben  22  21  44
 223 ben  22  23  24
 224 prop tor  22  23  24  17
 225 prop tor  22  23  24  25
 226 prop tor  23  19  20  21
 227 prop tor  23  19  20  43
 228 ben  23  24  25
 229 prop tor  23  24  25  15
 230 prop tor  24  17  18  19
 231 prop tor  24  17  18  41
 232 prop tor  24  17  18  42
 233 prop tor  25  15  16  17
 234 prop tor  25  15  16  40
 235 prop tor  26  14  15  16
 236 prop tor  26  14  15  25
 237 ben  26  27  46
 238 prop tor  27  11  12  13
 239 prop tor  27  11  12  38
 240 ben  27  26  45
 241 prop tor  28  10  11  12
 242 prop tor  28  10  11  27
 243 ben  28  29  48
 244 prop tor  29   7   8   9
 245 prop tor  29   7   8  36
 246 ben  29  28  47
 247 prop tor  30   6   7   8
 248 prop tor  30   6   7  29
 249 ben  30  31  32
 250 prop tor  30  31  32   1
 251 prop tor  30  31  32  49
 252 prop tor  31   4   5   6
 253 ben  31  32  49
 254 prop tor  32   1   2   3
 255 prop tor  32   1   2  34
 256 ben  32   1  33
 257 prop tor  33   1   2   3
 258 prop tor  33   1   2  34
 259 prop tor  33   1  32  31
 260 prop tor  33   1  32  49
 261 prop tor  34   2   3   4
 262 prop tor  34   2   3  35
 263 prop tor  35   3   4   5
 264 prop tor  35   3   4  31
 265 prop tor  36   8   9  10
 266 prop tor  36   8   9  37
 267 prop tor  37   9  10  11
 268 prop tor  37   9  10  28
 269 prop tor  38  12  13  14
 270 prop tor  38  12  13  39
 271 prop tor  39  13  14  15
 272 prop tor  39  13  14  26
 273 prop tor  40  16  17  18
 274 prop tor  40  16  17  24
 275 prop tor  41  18  19  20
 276 prop tor  41  18  19  23
 277 ben  41  18  42
 278 prop tor  42  18  19  20
 279 prop tor  42  18  19  23
 280 prop tor  43  20  21  22
 281 prop tor  43  20  21  44
 282 prop tor  44  21  22  23
 283 prop tor  45  26  27  11
 284 prop tor  45  26  27  46
 285 prop tor  47  28  29   7
 286 prop tor  47  28  29  48
 nber bend=              91
 nber lin bend=           0
 nber prop tor=         140
 nber impr tor=           0
 nber tot redund int=         286
 Reading file: 
 ./CDT-BT_6_C0S0.log                                                            
                                          
  Entering Gaussian System, Link 0=g16                                          
  
 Gaussian format, type: g94, g98, g03= F F F
  #P Geom=AllCheck Guess=TCheck SCRF=Check GenChk RB3LYP/6-311G(d,p) Fre    
 energy type= B3LYP   
 Original G94 input coords:
  6 -2.182712 -2.140599  0.486014
  6 -2.597682 -1.001211  1.193340
  6 -1.727267  0.058687  1.418117
  6 -0.428642 -0.041842  0.920734
 16  0.891470  1.100938  1.032004
  6  1.908485 -0.048920  0.110787
  6  3.303694  0.260025 -0.216987
  6  3.915583  1.462291  0.160896
  6  5.239196  1.719649 -0.166202
  6  6.004998  0.788002 -0.883955
  6  7.416909  1.063202 -1.232610
  6  8.264733  1.753329 -0.351771
  6  9.586085  2.016541 -0.678671
  6 10.131976  1.591598 -1.902952
  6 11.532048  1.859787 -2.227057
  6 12.590905  2.061527 -1.363991
  6 13.811528  2.297752 -2.031630
  6 15.254098  2.560672 -1.648746
  6 15.916454  2.688523 -3.005625
  6 17.218846  2.932498 -3.508849
  6 17.246171  2.942474 -4.878449
 16 15.672673  2.652770 -5.582447
  6 14.976743  2.517723 -4.006187
  6 13.687302  2.276546 -3.409097
 16 12.063888  1.974136 -3.911268
  6  9.283235  0.900959 -2.784470
  6  7.959242  0.646928 -2.457705
  6  5.383815 -0.415294 -1.260138
  6  4.062882 -0.677129 -0.935285
  7  1.311409 -1.147342 -0.227252
  6  0.003288 -1.183414  0.206350
  6 -0.891546 -2.240284 -0.008552
  1 -2.883045 -2.952024  0.325599
  1 -3.612115 -0.945066  1.570854
  1 -2.052445  0.935700  1.964436
  1  3.353977  2.212167  0.706977
  1  5.677603  2.669794  0.115033
  1  7.886433  2.076395  0.611327
  1 10.202897  2.572190  0.017653
  1 12.479624  2.007676 -0.288922
  1 15.678785  1.740059 -1.059721
  1 15.360841  3.473245 -1.051662
  1 18.100678  3.093782 -2.902528
  1 18.090140  3.101161 -5.531444
  1  9.668646  0.547786 -3.734277
  1  7.330243  0.130882 -3.173779
  1  5.955307 -1.167118 -1.791830
  1  3.596677 -1.611178 -1.220853
  1 -0.555865 -3.112259 -0.556260
 nber atoms=          49
  SCF Done:  E(RB3LYP) =  -2326.87708965     A.U. after    1 cycles             
  
          23          40 "  -2326.87708965"
After scan for Atom:   Atom  AN      X      Y      Z        X      Y      Z        X      Y      Z   
After scan for Atom:   Atom  AN      X      Y      Z        X      Y      Z        X      Y      Z   
After scan for Atom:   Atom  AN      X      Y      Z        X      Y      Z        X      Y      Z   
After scan for Atom:   Atom  AN      X      Y      Z        X      Y      Z        X      Y      Z   
After scan for Atom:   Atom  AN      X      Y      Z        X      Y      Z        X      Y      Z   
After scan for Atom:   Atom  AN      X      Y      Z        X      Y      Z        X      Y      Z   
After scan for Atom:   Atom  AN      X      Y      Z        X      Y      Z        X      Y      Z   
After scan for Atom:   Atom  AN      X      Y      Z        X      Y      Z        X      Y      Z   
After scan for Atom:   Atom  AN      X      Y      Z        X      Y      Z        X      Y      Z   
After scan for Atom:   Atom  AN      X      Y      Z        X      Y      Z        X      Y      Z   
After scan for Atom:   Atom  AN      X      Y      Z        X      Y      Z        X      Y      Z   
After scan for Atom:   Atom  AN      X      Y      Z        X      Y      Z        X      Y      Z   
After scan for Atom:   Atom  AN      X      Y      Z        X      Y      Z        X      Y      Z   
After scan for Atom:   Atom  AN      X      Y      Z        X      Y      Z        X      Y      Z   
After scan for Atom:   Atom  AN      X      Y      Z        X      Y      Z        X      Y      Z   
After scan for Atom:   Atom  AN      X      Y      Z        X      Y      Z        X      Y      Z   
After scan for Atom:   Atom  AN      X      Y      Z        X      Y      Z        X      Y      Z   
After scan for Atom:   Atom  AN      X      Y      Z        X      Y      Z        X      Y      Z   
After scan for Atom:   Atom  AN      X      Y      Z        X      Y      Z        X      Y      Z   
After scan for Atom:   Atom  AN      X      Y      Z        X      Y      Z        X      Y      Z   
After scan for Atom:   Atom  AN      X      Y      Z        X      Y      Z        X      Y      Z   
After scan for Atom:   Atom  AN      X      Y      Z        X      Y      Z        X      Y      Z   
After scan for Atom:   Atom  AN      X      Y      Z        X      Y      Z        X      Y      Z   
After scan for Atom:   Atom  AN      X      Y      Z        X      Y      Z        X      Y      Z   
After scan for Atom:   Atom  AN      X      Y      Z        X      Y      Z        X      Y      Z   
After scan for Atom:   Atom  AN      X      Y      Z        X      Y      Z        X      Y      Z   
After scan for Atom:   Atom  AN      X      Y      Z        X      Y      Z        X      Y      Z   
After scan for Atom:   Atom  AN      X      Y      Z        X      Y      Z        X      Y      Z   
After scan for Atom:   Atom  AN      X      Y      Z        X      Y      Z        X      Y      Z   
After scan for Atom:   Atom  AN      X      Y      Z        X      Y      Z        X      Y      Z   
After scan for Atom:   Atom  AN      X      Y      Z        X      Y      Z        X      Y      Z   
After scan for Atom:   Atom  AN      X      Y      Z        X      Y      Z        X      Y      Z   
After scan for Atom:   Atom  AN      X      Y      Z        X      Y      Z        X      Y      Z   
After scan for Atom:   Atom  AN      X      Y      Z        X      Y      Z        X      Y      Z   
After scan for Atom:   Atom  AN      X      Y      Z        X      Y      Z        X      Y      Z   
After scan for Atom:   Atom  AN      X      Y      Z        X      Y      Z        X      Y      Z   
After scan for Atom:   Atom  AN      X      Y      Z        X      Y      Z        X      Y      Z   
After scan for Atom:   Atom  AN      X      Y      Z        X      Y      Z        X      Y      Z   
After scan for Atom:   Atom  AN      X      Y      Z        X      Y      Z        X      Y      Z   
After scan for Atom:   Atom  AN      X      Y      Z        X      Y      Z        X      Y      Z   
After scan for Atom:   Atom  AN      X      Y      Z        X      Y      Z        X      Y      Z   
After scan for Atom:   Atom  AN      X      Y      Z        X      Y      Z        X      Y      Z   
After scan for Atom:   Atom  AN      X      Y      Z        X      Y      Z        X      Y      Z   
After scan for Atom:   Atom  AN      X      Y      Z        X      Y      Z        X      Y      Z   
After scan for Atom:   Atom  AN      X      Y      Z        X      Y      Z        X      Y      Z   
After scan for Atom:   Atom  AN      X      Y      Z        X      Y      Z        X      Y      Z   
After scan for Atom:   Atom  AN      X      Y      Z        X      Y      Z        X      Y      Z   
 g94    frequencies=
     0.0    0.0    0.0    0.0    0.0    0.0   12.7   15.2   20.7   32.6
    43.1   52.1   74.0   83.1   95.3  117.0  142.7  144.5  155.1  191.6
   203.9  221.3  253.1  261.9  269.9  293.1  314.1  350.3  386.5  410.3
   412.4  415.7  421.0  433.4  442.3  442.9  469.7  507.6  509.9  526.4
   533.0  559.6  570.5  572.5  585.3  591.4  614.1  627.2  633.1  639.8
   652.4  670.1  688.5  697.4  700.2  712.5  717.2  736.0  739.9  761.2
   770.9  773.3  817.5  834.8  842.5  845.7  854.4  866.9  872.7  876.1
   877.9  922.2  936.7  951.9  958.0  967.4  970.3  975.0  979.2  990.3
  1000.8 1001.8 1019.0 1028.0 1035.5 1038.4 1053.5 1082.6 1109.9 1142.0
  1143.4 1144.6 1149.2 1176.5 1184.2 1208.8 1211.2 1215.0 1237.8 1251.8
  1268.7 1274.6 1292.5 1309.4 1312.2 1322.9 1339.8 1342.6 1346.3 1361.0
  1403.9 1420.6 1433.9 1439.5 1451.5 1458.4 1463.5 1469.2 1488.8 1521.6
  1529.7 1536.7 1550.0 1563.1 1579.7 1596.7 1602.5 1637.9 1641.3 1652.4
  3027.8 3055.4 3166.1 3167.4 3168.5 3170.2 3177.1 3180.4 3184.7 3185.6
  3188.7 3191.1 3198.3 3199.4 3201.1 3206.2 3246.3
 g94    symmetries=
                                                 A      A      A      A
       A      A      A      A      A      A      A      A      A      A
       A      A      A      A      A      A      A      A      A      A
       A      A      A      A      A      A      A      A      A      A
       A      A      A      A      A      A      A      A      A      A
       A      A      A      A      A      A      A      A      A      A
       A      A      A      A      A      A      A      A      A      A
       A      A      A      A      A      A      A      A      A      A
       A      A      A      A      A      A      A      A      A      A
       A      A      A      A      A      A      A      A      A      A
       A      A      A      A      A      A      A      A      A      A
       A      A      A      A      A      A      A      A      A      A
       A      A      A      A      A      A      A      A      A      A
       A      A      A      A      A      A      A      A      A      A
       A      A      A      A      A      A      A
 atomic masses:
 12.0000 12.0000 12.0000 12.0000 31.9721 12.0000 12.0000 12.0000 12.0000 12.0000
 12.0000 12.0000 12.0000 12.0000 12.0000 12.0000 12.0000 12.0000 12.0000 12.0000
 12.0000 31.9721 12.0000 12.0000 31.9721 12.0000 12.0000 12.0000 12.0000 14.0031
 12.0000 12.0000  1.0078  1.0078  1.0078  1.0078  1.0078  1.0078  1.0078  1.0078
  1.0078  1.0078  1.0078  1.0078  1.0078  1.0078  1.0078  1.0078  1.0078
 looking for force constants in 
 ./CDT-BT_6_C0S0.fchk                                                           
  
 Cartesian Force Constants                  R   N=       10878                  
  
 n3=         147       10878
 g94-fc frequencies=
    -0.0    0.0    0.0    0.3    0.7    2.2   12.7   15.2   20.7   32.6
    43.1   52.1   74.0   83.1   95.3  117.0  142.7  144.5  155.1  191.6
   203.9  221.3  253.1  261.9  269.9  293.1  314.2  350.3  386.5  410.3
   412.4  415.7  421.0  433.5  442.3  443.0  469.7  507.6  509.9  526.4
   533.0  559.6  570.5  572.6  585.3  591.4  614.1  627.2  633.1  639.8
   652.4  670.1  688.6  697.4  700.2  712.5  717.3  736.0  739.9  761.2
   770.9  773.3  817.6  834.8  842.5  845.7  854.5  866.9  872.8  876.1
   877.9  922.2  936.7  951.9  958.0  967.4  970.3  975.0  979.2  990.3
  1000.8 1001.8 1019.0 1028.0 1035.5 1038.5 1053.5 1082.6 1109.9 1142.0
  1143.4 1144.7 1149.3 1176.5 1184.2 1208.8 1211.2 1215.0 1237.9 1251.9
  1268.7 1274.6 1292.6 1309.4 1312.3 1322.9 1339.8 1342.6 1346.3 1361.0
  1404.0 1420.6 1433.9 1439.6 1451.5 1458.4 1463.5 1469.2 1488.8 1521.6
  1529.7 1536.7 1550.0 1563.1 1579.7 1596.8 1602.5 1638.0 1641.3 1652.5
  3027.9 3055.5 3166.2 3167.4 3168.6 3170.2 3177.2 3180.4 3184.7 3185.6
  3188.7 3191.1 3198.3 3199.5 3201.1 3206.3 3246.3
 at 99999: n3=         147
 symm operator            1 :  F  nop=           0
 symm operator            2 :  F  nop=           0
 symm operator            3 :  F  nop=           0
 symm operator            4 :  F  nop=           0
 symm operator            5 :  F  nop=           0
 symm operator            6 :  F  nop=           0
 symm operator            7 :  F  nop=           0
 The point group of the molecule is  C1
 Symmetry rotation matrix:
   1.00000   0.00000   0.00000
   0.00000   1.00000   0.00000
   0.00000   0.00000   1.00000

 Projecting out zero-frequency components
 generating redundant internal coords
         300        3600          49
 search for int coords
   1 str   2   1   1.404
   2 str   3   2   1.390
   3 str   4   3   1.394
   4 str   5   4   1.750
   5 str   6   5   1.790
   6 str   7   6   1.466
   7 str   8   7   1.401
   8 str   9   8   1.388
   9 str  10   9   1.403
  10 str  11  10   1.480
  11 str  12  11   1.404
  12 str  13  12   1.386
  13 str  14  13   1.406
  14 str  15  14   1.462
  15 str  16  15   1.381
  16 str  17  16   1.411
  17 str  18  17   1.515
  18 str  19  18   1.515
  19 str  20  19   1.417
  20 str  21  20   1.370
  21 str  22  21   1.748
  22 str  23  19   1.383
  23 str  23  22   1.728
  24 str  24  17   1.383
  25 str  24  23   1.441
  26 str  25  15   1.770
  27 str  25  24   1.726
  28 str  26  14   1.405
  29 str  27  11   1.403
  30 str  27  26   1.387
  31 str  28  10   1.405
  32 str  29   7   1.404
  33 str  29  28   1.385
  34 str  30   6   1.295
  35 str  31   4   1.414
  36 str  31  30   1.379
  37 str  32   1   1.386
  38 str  32  31   1.401
  39 str  33   1   1.084
  40 str  34   2   1.084
  41 str  35   3   1.083
  42 str  36   8   1.084
  43 str  37   9   1.084
  44 str  38  12   1.084
  45 str  39  13   1.084
  46 str  40  16   1.082
  47 str  41  18   1.096
  48 str  42  18   1.096
  49 str  43  20   1.082
  50 str  44  21   1.079
  51 str  45  26   1.084
  52 str  46  27   1.084
  53 str  47  28   1.084
  54 str  48  29   1.082
  55 str  49  32   1.083
 nber stretches=          55
  56 ben   1   2   3
  57 prop tor   1   2   3   4
  58 prop tor   1   2   3  35
  59 ben   1   2  34
  60 ben   1  32  31
  61 ben   1  32  49
  62 ben   2   1  32
  63 prop tor   2   1  32  31
  64 prop tor   2   1  32  49
  65 ben   2   1  33
  66 ben   2   3   4
  67 prop tor   2   3   4   5
  68 prop tor   2   3   4  31
  69 ben   2   3  35
  70 ben   3   2  34
  71 ben   3   4   5
  72 prop tor   3   4   5   6
  73 ben   3   4  31
  74 prop tor   3   4  31  30
  75 prop tor   3   4  31  32
  76 ben   4   3  35
  77 ben   4   5   6
  78 prop tor   4   5   6   7
  79 prop tor   4   5   6  30
  80 ben   4  31  30
  81 ben   4  31  32
  82 prop tor   4  31  32   1
  83 prop tor   4  31  32  49
  84 ben   5   4  31
  85 prop tor   5   4  31  30
  86 prop tor   5   4  31  32
  87 ben   5   6   7
  88 prop tor   5   6   7   8
  89 prop tor   5   6   7  29
  90 ben   5   6  30
  91 prop tor   5   6  30  31
  92 ben   6   7   8
  93 prop tor   6   7   8   9
  94 prop tor   6   7   8  36
  95 ben   6   7  29
  96 prop tor   6   7  29  28
  97 prop tor   6   7  29  48
  98 ben   6  30  31
  99 prop tor   6  30  31   4
 100 prop tor   6  30  31  32
 101 ben   7   6  30
 102 prop tor   7   6  30  31
 103 ben   7   8   9
 104 prop tor   7   8   9  10
 105 prop tor   7   8   9  37
 106 ben   7   8  36
 107 ben   7  29  28
 108 ben   7  29  48
 109 ben   8   7  29
 110 prop tor   8   7  29  28
 111 prop tor   8   7  29  48
 112 ben   8   9  10
 113 prop tor   8   9  10  11
 114 prop tor   8   9  10  28
 115 ben   8   9  37
 116 ben   9   8  36
 117 ben   9  10  11
 118 prop tor   9  10  11  12
 119 prop tor   9  10  11  27
 120 ben   9  10  28
 121 prop tor   9  10  28  29
 122 prop tor   9  10  28  47
 123 ben  10   9  37
 124 ben  10  11  12
 125 prop tor  10  11  12  13
 126 prop tor  10  11  12  38
 127 ben  10  11  27
 128 prop tor  10  11  27  26
 129 prop tor  10  11  27  46
 130 ben  10  28  29
 131 prop tor  10  28  29   7
 132 prop tor  10  28  29  48
 133 ben  10  28  47
 134 ben  11  10  28
 135 prop tor  11  10  28  29
 136 prop tor  11  10  28  47
 137 ben  11  12  13
 138 prop tor  11  12  13  14
 139 prop tor  11  12  13  39
 140 ben  11  12  38
 141 ben  11  27  26
 142 ben  11  27  46
 143 ben  12  11  27
 144 prop tor  12  11  27  26
 145 prop tor  12  11  27  46
 146 ben  12  13  14
 147 prop tor  12  13  14  15
 148 prop tor  12  13  14  26
 149 ben  12  13  39
 150 ben  13  12  38
 151 ben  13  14  15
 152 prop tor  13  14  15  16
 153 prop tor  13  14  15  25
 154 ben  13  14  26
 155 prop tor  13  14  26  27
 156 prop tor  13  14  26  45
 157 ben  14  13  39
 158 ben  14  15  16
 159 prop tor  14  15  16  17
 160 prop tor  14  15  16  40
 161 ben  14  15  25
 162 prop tor  14  15  25  24
 163 ben  14  26  27
 164 prop tor  14  26  27  11
 165 prop tor  14  26  27  46
 166 ben  14  26  45
 167 ben  15  14  26
 168 prop tor  15  14  26  27
 169 prop tor  15  14  26  45
 170 ben  15  16  17
 171 prop tor  15  16  17  18
 172 prop tor  15  16  17  24
 173 ben  15  16  40
 174 ben  15  25  24
 175 ben  16  15  25
 176 prop tor  16  15  25  24
 177 ben  16  17  18
 178 prop tor  16  17  18  19
 179 prop tor  16  17  18  41
 180 prop tor  16  17  18  42
 181 ben  16  17  24
 182 prop tor  16  17  24  23
 183 prop tor  16  17  24  25
 184 ben  17  16  40
 185 ben  17  18  19
 186 prop tor  17  18  19  20
 187 prop tor  17  18  19  23
 188 ben  17  18  41
 189 ben  17  18  42
 190 ben  17  24  23
 191 ben  17  24  25
 192 prop tor  17  24  25  15
 193 ben  18  17  24
 194 prop tor  18  17  24  23
 195 prop tor  18  17  24  25
 196 ben  18  19  20
 197 prop tor  18  19  20  21
 198 prop tor  18  19  20  43
 199 ben  18  19  23
 200 prop tor  18  19  23  22
 201 prop tor  18  19  23  24
 202 ben  19  18  41
 203 ben  19  18  42
 204 ben  19  20  21
 205 prop tor  19  20  21  22
 206 prop tor  19  20  21  44
 207 ben  19  20  43
 208 ben  19  23  22
 209 ben  19  23  24
 210 prop tor  19  23  24  17
 211 prop tor  19  23  24  25
 212 ben  20  19  23
 213 prop tor  20  19  23  22
 214 prop tor  20  19  23  24
 215 ben  20  21  22
 216 prop tor  20  21  22  23
 217 ben  20  21  44
 218 ben  21  20  43
 219 ben  21  22  23
 220 prop tor  21  22  23  19
 221 prop tor  21  22  23  24
 222 ben  22  21  44
 223 ben  22  23  24
 224 prop tor  22  23  24  17
 225 prop tor  22  23  24  25
 226 prop tor  23  19  20  21
 227 prop tor  23  19  20  43
 228 ben  23  24  25
 229 prop tor  23  24  25  15
 230 prop tor  24  17  18  19
 231 prop tor  24  17  18  41
 232 prop tor  24  17  18  42
 233 prop tor  25  15  16  17
 234 prop tor  25  15  16  40
 235 prop tor  26  14  15  16
 236 prop tor  26  14  15  25
 237 ben  26  27  46
 238 prop tor  27  11  12  13
 239 prop tor  27  11  12  38
 240 ben  27  26  45
 241 prop tor  28  10  11  12
 242 prop tor  28  10  11  27
 243 ben  28  29  48
 244 prop tor  29   7   8   9
 245 prop tor  29   7   8  36
 246 ben  29  28  47
 247 prop tor  30   6   7   8
 248 prop tor  30   6   7  29
 249 ben  30  31  32
 250 prop tor  30  31  32   1
 251 prop tor  30  31  32  49
 252 prop tor  31   4   5   6
 253 ben  31  32  49
 254 prop tor  32   1   2   3
 255 prop tor  32   1   2  34
 256 ben  32   1  33
 257 prop tor  33   1   2   3
 258 prop tor  33   1   2  34
 259 prop tor  33   1  32  31
 260 prop tor  33   1  32  49
 261 prop tor  34   2   3   4
 262 prop tor  34   2   3  35
 263 prop tor  35   3   4   5
 264 prop tor  35   3   4  31
 265 prop tor  36   8   9  10
 266 prop tor  36   8   9  37
 267 prop tor  37   9  10  11
 268 prop tor  37   9  10  28
 269 prop tor  38  12  13  14
 270 prop tor  38  12  13  39
 271 prop tor  39  13  14  15
 272 prop tor  39  13  14  26
 273 prop tor  40  16  17  18
 274 prop tor  40  16  17  24
 275 prop tor  41  18  19  20
 276 prop tor  41  18  19  23
 277 ben  41  18  42
 278 prop tor  42  18  19  20
 279 prop tor  42  18  19  23
 280 prop tor  43  20  21  22
 281 prop tor  43  20  21  44
 282 prop tor  44  21  22  23
 283 prop tor  45  26  27  11
 284 prop tor  45  26  27  46
 285 prop tor  47  28  29   7
 286 prop tor  47  28  29  48
 nber bend=              91
 nber lin bend=           0
 nber prop tor=         140
 nber impr tor=           0
 nber tot redund int=         286
 Eigenvalues of G in red int coords
    Gval -0.00000000 -0.00000000 -0.00000000 -0.00000000 -0.00000000 -0.00000000 -0.00000000 -0.00000000
    Gval -0.00000000 -0.00000000 -0.00000000 -0.00000000 -0.00000000 -0.00000000 -0.00000000 -0.00000000
    Gval -0.00000000 -0.00000000 -0.00000000 -0.00000000 -0.00000000 -0.00000000 -0.00000000 -0.00000000
    Gval -0.00000000 -0.00000000 -0.00000000 -0.00000000 -0.00000000 -0.00000000 -0.00000000 -0.00000000
    Gval -0.00000000 -0.00000000 -0.00000000 -0.00000000 -0.00000000 -0.00000000 -0.00000000 -0.00000000
    Gval -0.00000000 -0.00000000 -0.00000000 -0.00000000 -0.00000000 -0.00000000 -0.00000000 -0.00000000
    Gval -0.00000000 -0.00000000 -0.00000000 -0.00000000 -0.00000000 -0.00000000 -0.00000000 -0.00000000
    Gval -0.00000000 -0.00000000 -0.00000000 -0.00000000 -0.00000000 -0.00000000 -0.00000000 -0.00000000
    Gval -0.00000000 -0.00000000 -0.00000000 -0.00000000 -0.00000000 -0.00000000 -0.00000000 -0.00000000
    Gval  0.00000000  0.00000000  0.00000000  0.00000000  0.00000000  0.00000000  0.00000000  0.00000000
    Gval  0.00000000  0.00000000  0.00000000  0.00000000  0.00000000  0.00000000  0.00000000  0.00000000
    Gval  0.00000000  0.00000000  0.00000000  0.00000000  0.00000000  0.00000000  0.00000000  0.00000000
    Gval  0.00000000  0.00000000  0.00000000  0.00000000  0.00000000  0.00000000  0.00000000  0.00000000
    Gval  0.00000000  0.00000000  0.00000000  0.00000000  0.00000000  0.00000000  0.00000000  0.00000000
    Gval  0.00000000  0.00000000  0.00000000  0.00000000  0.00000000  0.00000000  0.00000000  0.00000000
    Gval  0.00000000  0.00000000  0.00000000  0.00000000  0.00000000  0.00000000  0.00000000  0.00000000
    Gval  0.00000000  0.00000000  0.00000000  0.00000000  0.00000000  0.00000000  0.00000000  0.00000000
    Gval  0.00000000  0.00000000  0.00000000  0.00000000  0.00000000  0.00000000  0.00000000  0.00000000
    Gval  0.00000000  0.00000018  0.00000041  0.00000103  0.00000161  0.00000254  0.00000467  0.00000483
    Gval  0.00000663  0.00000819  0.00001117  0.00001489  0.00001812  0.00002020  0.00002124  0.00002440
    Gval  0.00002711  0.00002888  0.00003060  0.00003489  0.00003784  0.00003883  0.00004132  0.00004623
    Gval  0.00004831  0.00004890  0.00005012  0.00005469  0.00005781  0.00006099  0.00006247  0.00006480
    Gval  0.00006677  0.00007535  0.00007859  0.00008288  0.00008489  0.00008970  0.00009338  0.00009656
    Gval  0.00010705  0.00010969  0.00011554  0.00012077  0.00012114  0.00012206  0.00012555  0.00013249
    Gval  0.00013480  0.00014138  0.00015553  0.00016201  0.00017872  0.00019123  0.00020634  0.00020765
    Gval  0.00023523  0.00026406  0.00027137  0.00028140  0.00028532  0.00030134  0.00030258  0.00031037
    Gval  0.00031564  0.00035180  0.00035951  0.00037185  0.00037293  0.00037798  0.00039051  0.00039824
    Gval  0.00039931  0.00041862  0.00042339  0.00043648  0.00045591  0.00054917  0.00058331  0.00059315
    Gval  0.00059567  0.00059652  0.00059676  0.00059751  0.00059864  0.00060018  0.00060186  0.00060660
    Gval  0.00061830  0.00062376  0.00062645  0.00063223  0.00063541  0.00064886  0.00065124  0.00065505
    Gval  0.00065521  0.00069217  0.00080566  0.00088840  0.00105445  0.00106651  0.00107448  0.00107812
    Gval  0.00108142  0.00110017  0.00110625  0.00110837  0.00112259  0.00114113  0.00114847  0.00115216
    Gval  0.00116322  0.00116801  0.00117054  0.00117165  0.00117830  0.00118433  0.00133654  0.00138129
    Gval  0.00163429  0.00166025  0.00166849  0.00180201  0.00184871  0.00195787  0.00208637  0.00233217
    Gval  0.00234533  0.00238889  0.00259317  0.00267645  0.00270228  0.00302560  0.00357051  0.00358049
    Gval  0.00364228  0.00370395  0.00372944  0.00373337  0.00402232  0.00408009
  1.823097915504750E-007  1.823097915504750E-007
  4.115795152529140E-007  1.823097915504750E-007
  1.029037029191725E-006  1.823097915504750E-007
  1.606085748806816E-006  1.823097915504750E-007
  2.544374985004568E-006  1.823097915504750E-007
  4.668930812977733E-006  1.823097915504750E-007
  4.832088509788470E-006  1.823097915504750E-007
  6.633817911759776E-006  1.823097915504750E-007
  8.193740281771887E-006  1.823097915504750E-007
  1.116811497774362E-005  1.823097915504750E-007
  1.488788243340873E-005  1.823097915504750E-007
  1.811606391995261E-005  1.823097915504750E-007
  2.020178212182335E-005  1.823097915504750E-007
  2.123808124381495E-005  1.823097915504750E-007
  2.440290798095065E-005  1.823097915504750E-007
  2.710966172239796E-005  1.823097915504750E-007
  2.888356784301662E-005  1.823097915504750E-007
  3.059929658060987E-005  1.823097915504750E-007
  3.488776175270812E-005  1.823097915504750E-007
  3.783829369627290E-005  1.823097915504750E-007
  3.882733849922221E-005  1.823097915504750E-007
  4.132326551328035E-005  1.823097915504750E-007
  4.622619206075844E-005  1.823097915504750E-007
  4.831491423844847E-005  1.823097915504750E-007
  4.889543139947789E-005  1.823097915504750E-007
  5.011778937835367E-005  1.823097915504750E-007
  5.468991446762220E-005  1.823097915504750E-007
  5.780584907048638E-005  1.823097915504750E-007
  6.098955573802057E-005  1.823097915504750E-007
  6.247281250570480E-005  1.823097915504750E-007
  6.479600465755529E-005  1.823097915504750E-007
  6.677367566698401E-005  1.823097915504750E-007
  7.535476381244257E-005  1.823097915504750E-007
  7.859008126361543E-005  1.823097915504750E-007
  8.288229771997671E-005  1.823097915504750E-007
  8.489429024573905E-005  1.823097915504750E-007
  8.970213034626495E-005  1.823097915504750E-007
  9.338477740746394E-005  1.823097915504750E-007
  9.655695432520408E-005  1.823097915504750E-007
  1.070481018818745E-004  1.823097915504750E-007
  1.096937397478834E-004  1.823097915504750E-007
  1.155441602367764E-004  1.823097915504750E-007
  1.207692058382927E-004  1.823097915504750E-007
  1.211434622354487E-004  1.823097915504750E-007
  1.220604263341885E-004  1.823097915504750E-007
  1.255467564818868E-004  1.823097915504750E-007
  1.324857357650525E-004  1.823097915504750E-007
  1.347991026363974E-004  1.823097915504750E-007
  1.413830751776047E-004  1.823097915504750E-007
  1.555337031735772E-004  1.823097915504750E-007
  1.620066774212123E-004  1.823097915504750E-007
  1.787172623196558E-004  1.823097915504750E-007
  1.912309346462931E-004  1.823097915504750E-007
  2.063382450534115E-004  1.823097915504750E-007
  2.076492566204461E-004  1.823097915504750E-007
  2.352343134419395E-004  1.823097915504750E-007
  2.640632971246029E-004  1.823097915504750E-007
  2.713739180784030E-004  1.823097915504750E-007
  2.813976660840557E-004  1.823097915504750E-007
  2.853244183176734E-004  1.823097915504750E-007
  3.013374986061091E-004  1.823097915504750E-007
  3.025805814486811E-004  1.823097915504750E-007
  3.103657197835648E-004  1.823097915504750E-007
  3.156449588934519E-004  1.823097915504750E-007
  3.518034898034878E-004  1.823097915504750E-007
  3.595135724831712E-004  1.823097915504750E-007
  3.718482401569780E-004  1.823097915504750E-007
  3.729264271992858E-004  1.823097915504750E-007
  3.779812892958172E-004  1.823097915504750E-007
  3.905114498376314E-004  1.823097915504750E-007
  3.982367424214574E-004  1.823097915504750E-007
  3.993071255494635E-004  1.823097915504750E-007
  4.186238637033716E-004  1.823097915504750E-007
  4.233890458762412E-004  1.823097915504750E-007
  4.364778210294831E-004  1.823097915504750E-007
  4.559071187956764E-004  1.823097915504750E-007
  5.491651533894943E-004  1.823097915504750E-007
  5.833090576457478E-004  1.823097915504750E-007
  5.931539873033132E-004  1.823097915504750E-007
  5.956725809556841E-004  1.823097915504750E-007
  5.965152904081948E-004  1.823097915504750E-007
  5.967581157390653E-004  1.823097915504750E-007
  5.975094813366205E-004  1.823097915504750E-007
  5.986444189065190E-004  1.823097915504750E-007
  6.001814199676861E-004  1.823097915504750E-007
  6.018617191828029E-004  1.823097915504750E-007
  6.066038081752765E-004  1.823097915504750E-007
  6.183043404130496E-004  1.823097915504750E-007
  6.237585044873864E-004  1.823097915504750E-007
  6.264500071499545E-004  1.823097915504750E-007
  6.322319004711458E-004  1.823097915504750E-007
  6.354123083568218E-004  1.823097915504750E-007
  6.488635476540251E-004  1.823097915504750E-007
  6.512359500665144E-004  1.823097915504750E-007
  6.550465976637529E-004  1.823097915504750E-007
  6.552096069199052E-004  1.823097915504750E-007
  6.921697944392113E-004  1.823097915504750E-007
  8.056584972287675E-004  1.823097915504750E-007
  8.884015780115012E-004  1.823097915504750E-007
  1.054454826315488E-003  1.823097915504750E-007
  1.066507894032341E-003  1.823097915504750E-007
  1.074482192972670E-003  1.823097915504750E-007
  1.078120851095391E-003  1.823097915504750E-007
  1.081420062830464E-003  1.823097915504750E-007
  1.100172049467499E-003  1.823097915504750E-007
  1.106246579501852E-003  1.823097915504750E-007
  1.108373236206122E-003  1.823097915504750E-007
  1.122585911206333E-003  1.823097915504750E-007
  1.141132143074314E-003  1.823097915504750E-007
  1.148474339736214E-003  1.823097915504750E-007
  1.152159426485856E-003  1.823097915504750E-007
  1.163215786521376E-003  1.823097915504750E-007
  1.168006148844168E-003  1.823097915504750E-007
  1.170542421046172E-003  1.823097915504750E-007
  1.171648385232827E-003  1.823097915504750E-007
  1.178296528314917E-003  1.823097915504750E-007
  1.184325301600200E-003  1.823097915504750E-007
  1.336543855779409E-003  1.823097915504750E-007
  1.381286178307974E-003  1.823097915504750E-007
  1.634288932858283E-003  1.823097915504750E-007
  1.660254593066389E-003  1.823097915504750E-007
  1.668489731361178E-003  1.823097915504750E-007
  1.802014915369925E-003  1.823097915504750E-007
  1.848712150552519E-003  1.823097915504750E-007
  1.957869213121880E-003  1.823097915504750E-007
  2.086369037844587E-003  1.823097915504750E-007
  2.332172440675102E-003  1.823097915504750E-007
  2.345330264167992E-003  1.823097915504750E-007
  2.388886419453649E-003  1.823097915504750E-007
  2.593166267579969E-003  1.823097915504750E-007
  2.676454608671227E-003  1.823097915504750E-007
  2.702282673683534E-003  1.823097915504750E-007
  3.025604779211140E-003  1.823097915504750E-007
  3.570505577711163E-003  1.823097915504750E-007
  3.580487851229504E-003  1.823097915504750E-007
  3.642283036072272E-003  1.823097915504750E-007
  3.703952222194655E-003  1.823097915504750E-007
  3.729439960986728E-003  1.823097915504750E-007
  3.733365866557889E-003  1.823097915504750E-007
  4.022317329434970E-003  1.823097915504750E-007
  4.080091413446531E-003  1.823097915504750E-007
 cut=1d-8, nber non-redundant internal coords=         141
 Check on Eigenvals of non-red overlap matrix:
  0.00000018  0.00000041  0.00000103  0.00000161  0.00000254  0.00000467  0.00000483  0.00000663
  0.00000819  0.00001117  0.00001489  0.00001812  0.00002020  0.00002124  0.00002440  0.00002711
  0.00002888  0.00003060  0.00003489  0.00003784  0.00003883  0.00004132  0.00004623  0.00004831
  0.00004890  0.00005012  0.00005469  0.00005781  0.00006099  0.00006247  0.00006480  0.00006677
  0.00007535  0.00007859  0.00008288  0.00008489  0.00008970  0.00009338  0.00009656  0.00010705
  0.00010969  0.00011554  0.00012077  0.00012114  0.00012206  0.00012555  0.00013249  0.00013480
  0.00014138  0.00015553  0.00016201  0.00017872  0.00019123  0.00020634  0.00020765  0.00023523
  0.00026406  0.00027137  0.00028140  0.00028532  0.00030134  0.00030258  0.00031037  0.00031564
  0.00035180  0.00035951  0.00037185  0.00037293  0.00037798  0.00039051  0.00039824  0.00039931
  0.00041862  0.00042339  0.00043648  0.00045591  0.00054917  0.00058331  0.00059315  0.00059567
  0.00059652  0.00059676  0.00059751  0.00059864  0.00060018  0.00060186  0.00060660  0.00061830
  0.00062376  0.00062645  0.00063223  0.00063541  0.00064886  0.00065124  0.00065505  0.00065521
  0.00069217  0.00080566  0.00088840  0.00105445  0.00106651  0.00107448  0.00107812  0.00108142
  0.00110017  0.00110625  0.00110837  0.00112259  0.00114113  0.00114847  0.00115216  0.00116322
  0.00116801  0.00117054  0.00117165  0.00117830  0.00118433  0.00133654  0.00138129  0.00163429
  0.00166025  0.00166849  0.00180201  0.00184871  0.00195787  0.00208637  0.00233217  0.00234533
  0.00238889  0.00259317  0.00267645  0.00270228  0.00302560  0.00357051  0.00358049  0.00364228
  0.00370395  0.00372944  0.00373337  0.00402232  0.00408009
 Checking for correct frequencies
 recalc frequencies=
    -0.0   -0.0    0.0    0.0    0.0    0.0   12.7   15.2   20.7   32.6
    43.1   52.1   74.0   83.1   95.3  117.0  142.7  144.5  155.1  191.6
   203.9  221.3  253.1  261.9  269.9  293.1  314.2  350.3  386.5  410.3
   412.4  415.7  421.0  433.5  442.3  443.0  469.7  507.6  509.9  526.4
   533.0  559.6  570.5  572.6  585.3  591.4  614.1  627.2  633.1  639.8
   652.4  670.1  688.6  697.4  700.2  712.5  717.3  736.0  739.9  761.2
   770.9  773.3  817.6  834.8  842.5  845.7  854.5  866.9  872.8  876.1
   877.9  922.2  936.7  951.9  958.0  967.4  970.3  975.0  979.2  990.3
  1000.8 1001.8 1019.0 1028.0 1035.5 1038.5 1053.5 1082.6 1109.9 1142.0
  1143.4 1144.7 1149.3 1176.5 1184.2 1208.8 1211.2 1215.0 1237.9 1251.9
  1268.7 1274.6 1292.6 1309.4 1312.3 1322.9 1339.8 1342.6 1346.3 1361.0
  1404.0 1420.6 1433.9 1439.6 1451.5 1458.4 1463.5 1469.2 1488.8 1521.6
  1529.7 1536.7 1550.0 1563.1 1579.7 1596.8 1602.5 1638.0 1641.3 1652.5
  3027.9 3055.5 3166.2 3167.4 3168.6 3170.2 3177.2 3180.4 3184.7 3185.6
  3188.7 3191.1 3198.3 3199.5 3201.1 3206.3 3246.3
 recalc symmetries=
                                                                       
                                                                       
                                                                       
                                                                       
                                                                       
                                                                       
                                                                       
                                                                       
                                                                       
                                                                       
                                                                       
                                                                       
                                                                       
                                                                       
                                                  
 recalc freqs check OK
 Zero-point lengths:
 10.0000 10.0000 10.0000 10.0000 10.0000 10.0000 69.5237 63.5677 54.4826 43.3922
 37.7445 34.3474 28.8220 27.1971 25.3894 22.9211 20.7518 20.6235 19.9077 17.9122
 17.3621 16.6636 15.5829 15.3192 15.0891 14.4816 13.9870 13.2463 12.6095 12.2391
 12.2077 12.1598 12.0819 11.9076 11.7884 11.7791 11.4391 11.0039 10.9790 10.8052
 10.7382 10.4795 10.3796 10.3606 10.2475 10.1943 10.0038  9.8990  9.8528  9.8009
  9.7061  9.5770  9.4477  9.3878  9.3689  9.2873  9.2568  9.1382  9.1139  8.9854
  8.9290  8.9152  8.6703  8.5805  8.5409  8.5250  8.4810  8.4198  8.3917  8.3756
  8.3670  8.1634  8.1002  8.0352  8.0095  7.9704  7.9587  7.9396  7.9223  7.8779
  7.8363  7.8324  7.7661  7.7320  7.7040  7.6931  7.6380  7.5345  7.4413  7.3360
  7.3315  7.3275  7.3128  7.2276  7.2042  7.1304  7.1234  7.1122  7.0463  7.0068
  6.9600  6.9440  6.8955  6.8510  6.8436  6.8159  6.7728  6.7658  6.7566  6.7199
  6.6163  6.5775  6.5468  6.5340  6.5070  6.4916  6.4803  6.4677  6.4250  6.3554
[...]
 nber times 1st assigned=          39           0
 nber times 1st assigned=          40           0
 nber times 1st assigned=          41           0
 nber times 1st assigned=          42           0
 nber times 1st assigned=          43           0
 nber times 1st assigned=          44           0
 nber times 1st assigned=          45           0
 nber times 1st assigned=          46           0
 nber times 1st assigned=          47           0
 nber times 1st assigned=          48           0
 nber times 1st assigned=          49           0
 nber times 1st assigned=          50           0
 nber times 1st assigned=          51           0
 nber times 1st assigned=          52           0
 nber times 1st assigned=          53           0
 nber times 1st assigned=          54           0
 nber times 1st assigned=          55           0
 nber times 1st assigned=          56           0
 nber times 1st assigned=          57           0
 nber times 1st assigned=          58           0
 nber times 1st assigned=          59           0
 nber times 1st assigned=          60           0
 nber times 1st assigned=          61           0
 nber times 1st assigned=          62           0
 nber times 1st assigned=          63           0
 nber times 1st assigned=          64           0
 nber times 1st assigned=          65           0
 nber times 1st assigned=          66           0
 nber times 1st assigned=          67           0
 nber times 1st assigned=          68           0
 nber times 1st assigned=          69           0
 nber times 1st assigned=          70           0
 nber times 1st assigned=          71           0
 nber times 1st assigned=          72           0
 nber times 1st assigned=          73           0
 nber times 1st assigned=          74           0
 nber times 1st assigned=          75           0
 nber times 1st assigned=          76           0
 nber times 1st assigned=          77           0
 nber times 1st assigned=          78           0
 nber times 1st assigned=          79           0
 nber times 1st assigned=          80           0
 nber times 1st assigned=          81           0
 nber times 1st assigned=          82           0
 nber times 1st assigned=          83           0
 nber times 1st assigned=          84           0
 nber times 1st assigned=          85           0
 nber times 1st assigned=          86           0
 nber times 1st assigned=          87           0
 nber times 1st assigned=          88           0
 nber times 1st assigned=          89           0
 nber times 1st assigned=          90           0
 nber times 1st assigned=          91           0
 nber times 1st assigned=          92           0
 nber times 1st assigned=          93           0
 nber times 1st assigned=          94           0
 nber times 1st assigned=          95           0
 nber times 1st assigned=          96           0
 nber times 1st assigned=          97           0
 nber times 1st assigned=          98           0
 nber times 1st assigned=          99           0
 nber times 1st assigned=         100           0
 nber times 1st assigned=         101           0
 nber times 1st assigned=         102           0
 nber times 1st assigned=         103           0
 nber times 1st assigned=         104           0
 nber times 1st assigned=         105           0
 nber times 1st assigned=         106           0
 nber times 1st assigned=         107           0
 nber times 1st assigned=         108           0
 nber times 1st assigned=         109           0
 nber times 1st assigned=         110           0
 nber times 1st assigned=         111           0
 nber times 1st assigned=         112           0
 nber times 1st assigned=         113           0
 nber times 1st assigned=         114           0
 nber times 1st assigned=         115           0
 nber times 1st assigned=         116           0
 nber times 1st assigned=         117           0
 nber times 1st assigned=         118           0
 nber times 1st assigned=         119           0
 nber times 1st assigned=         120           0
 nber times 1st assigned=         121           0
 nber times 1st assigned=         122           0
 nber times 1st assigned=         123           0
 nber times 1st assigned=         124           0
 nber times 1st assigned=         125           0
 nber times 1st assigned=         126           0
 nber times 1st assigned=         127           0
 nber times 1st assigned=         128           0
 nber times 1st assigned=         129           0
 nber times 1st assigned=         130           0
 nber times 1st assigned=         131           0
 nber times 1st assigned=         132           0
 nber times 1st assigned=         133           0
 nber times 1st assigned=         134           0
 nber times 1st assigned=         135           0
 nber times 1st assigned=         136           0
 nber times 1st assigned=         137           0
 nber times 1st assigned=         138           0
 nber times 1st assigned=         139           0
 nber times 1st assigned=         140           0
 nber times 1st assigned=         141           0
 nber times 1st assigned=         142           0
 nber times 1st assigned=         143           0
 nber times 1st assigned=         144           0
 nber times 1st assigned=         145           0
 nber times 1st assigned=         146           0
 nber times 1st assigned=         147           0
 modes represented=   193.328680346887     
 p1=
    0.   -0.    0.   -0.    0.    0.   51. -393.   -9.    3.  -22.   16.    6.   45.   -8.   17.   -5.   -0.   -1.   -1.
    3.    2.   -0.    0.   -5.   -1.   -0.    1.   -3.    3.   -1.    4.    0.    0.   -0.    1.    1.   -1.    0.    2.
    1.    1.   -0.    1.   -1.   -3.   -0.    4.    1.    0.   -0.   -1.    3.    0.    0.    1.   -1.   -0.    0.   -0.
   -3.   -0.    1.   -1.    1.    0.    1.    0.   -0.   -1.   -0.   -1.    0.    0.   -0.    1.   -1.    0.   -0.   -0.
    0.    1.    0.    0.   -1.   -1.    0.   -1.   -0.   -0.    1.   -0.   -0.    0.   -1.    0.   -0.    2.    2.    0.
    0.   -0.   -0.    0.    0.   -0.    1.    1.    0.    2.   -2.    1.    0.   -1.    2.   -0.    1.    1.    1.    1.
    0.   -1.   -2.   -3.   -0.   -0.   -0.   -0.    2.    4.    0.   -0.   -0.   -0.   -0.   -0.   -0.    0.    0.    0.
   -0.    0.   -0.   -0.    0.   -0.   -0.
 p2=
   -0.    0.    0.   -0.   -0.    0.   84. -334.  -12.  200.   -8.   14.   21.   -8.   -1.  -19.   -4.   -7.    3.   -1.
   -3.   -2.    2.    5.    5.   -1.   -1.    1.   -2.   -2.    1.    4.   -2.   -0.    0.   -0.   -0.    1.   -1.    0.
   -0.    0.   -1.   -0.    1.    2.   -4.   -0.    0.   -1.   -0.    0.   -2.    0.   -2.    0.   -1.   -0.   -0.   -0.
    3.    0.    0.   -1.    2.    0.   -0.    0.    1.    0.   -0.    1.    0.    0.    0.    0.   -0.   -0.    1.   -0.
   -0.    1.    0.   -1.    0.    0.    0.    1.   -0.    0.   -0.   -0.   -0.   -0.    0.    2.   -1.    2.    1.   -1.
    0.   -0.   -0.   -2.   -0.    0.    0.    0.    0.    2.    2.    2.   -1.    1.    0.   -0.   -1.    2.    1.   -0.
   -1.    2.   -1.   -1.   -0.   -0.    0.    1.    3.    0.    0.    0.    0.   -0.    0.    0.   -0.    0.   -0.   -0.
    0.    0.   -0.    0.   -0.   -0.   -0.

 Displacement: in terms of nc of 1 THEN of nc of 2

   1     freq=    -0. Q=  0.000 lam=    -0.0     freq=    -0. Q=  0.000 lam=    -0.0
   2     freq=     0. Q= -0.000 lam=     0.0     freq=    -0. Q= -0.000 lam=    -0.0
   3     freq=     0. Q=  0.000 lam=     0.0     freq=     0. Q=  0.000 lam=     0.0
   4     freq=     0. Q= -0.000 lam=     0.0     freq=     0. Q= -0.000 lam=     0.0
   5     freq=     0. Q=  0.000 lam=     0.0     freq=     0. Q=  0.000 lam=     0.0
   6     freq=     0. Q=  0.000 lam=     0.0     freq=     0. Q=  0.000 lam=     0.0
   7     freq=    11. Q=  0.702 lam=     2.8     freq=    13. Q=  1.207 lam=     9.3
   8     freq=    14. Q= -5.902 lam=   241.9     freq=    15. Q= -5.252 lam=   209.7
   9     freq=    25. Q= -0.173 lam=     0.4     freq=    21. Q= -0.223 lam=     0.5
  10     freq=    35. Q=  0.074 lam=     0.1     freq=    33. Q=  4.604 lam=   345.9
  11     freq=    40. Q= -0.563 lam=     6.4     freq=    43. Q= -0.209 lam=     0.9
  12     freq=    61. Q=  0.505 lam=     7.7     freq=    52. Q=  0.401 lam=     4.2
  13     freq=    70. Q=  0.190 lam=     1.3     freq=    74. Q=  0.716 lam=    19.0
  14     freq=    76. Q=  1.589 lam=    95.6     freq=    83. Q=  0.302 lam=     3.8
  15     freq=    97. Q= -0.299 lam=     4.3     freq=    95. Q= -0.048 lam=     0.1
  16     freq=   119. Q=  0.735 lam=    32.1     freq=   117. Q=  0.844 lam=    41.7
  17     freq=   135. Q= -0.256 lam=     4.4     freq=   143. Q= -0.211 lam=     3.2
  18     freq=   139. Q= -0.012 lam=     0.0     freq=   144. Q= -0.363 lam=     9.5
  19     freq=   154. Q= -0.034 lam=     0.1     freq=   155. Q= -0.139 lam=     1.5
  20     freq=   189. Q= -0.029 lam=     0.1     freq=   192. Q= -0.035 lam=     0.1
  21     freq=   204. Q=  0.152 lam=     2.3     freq=   204. Q=  0.161 lam=     2.7
  22     freq=   211. Q=  0.096 lam=     1.0     freq=   221. Q=  0.110 lam=     1.3
  23     freq=   245. Q= -0.026 lam=     0.1     freq=   253. Q= -0.153 lam=     2.9
  24     freq=   264. Q=  0.009 lam=     0.0     freq=   262. Q=  0.322 lam=    13.5
  25     freq=   269. Q= -0.330 lam=    14.7     freq=   270. Q= -0.304 lam=    12.5
  26     freq=   294. Q= -0.067 lam=     0.7     freq=   293. Q= -0.078 lam=     0.9
  27     freq=   304. Q= -0.011 lam=     0.0     freq=   314. Q= -0.067 lam=     0.7
  28     freq=   340. Q=  0.066 lam=     0.7     freq=   350. Q=  0.088 lam=     1.4
  29     freq=   355. Q= -0.233 lam=     9.6     freq=   387. Q= -0.161 lam=     5.0
  30     freq=   406. Q=  0.247 lam=    12.4     freq=   410. Q=  0.159 lam=     5.2
  31     freq=   411. Q= -0.080 lam=     1.3     freq=   412. Q= -0.045 lam=     0.4
  32     freq=   420. Q=  0.293 lam=    18.1     freq=   416. Q=  0.344 lam=    24.5
  33     freq=   426. Q=  0.032 lam=     0.2     freq=   421. Q=  0.138 lam=     4.0
  34     freq=   428. Q=  0.026 lam=     0.1     freq=   433. Q=  0.004 lam=     0.0
  35     freq=   439. Q= -0.033 lam=     0.2     freq=   442. Q= -0.009 lam=     0.0
  36     freq=   444. Q=  0.110 lam=     2.7     freq=   443. Q=  0.026 lam=     0.2
  37     freq=   456. Q=  0.084 lam=     1.6     freq=   470. Q=  0.015 lam=     0.1
  38     freq=   471. Q= -0.100 lam=     2.3     freq=   508. Q= -0.114 lam=     3.3
  39     freq=   503. Q=  0.000 lam=     0.0     freq=   510. Q=  0.129 lam=     4.2
  40     freq=   504. Q=  0.163 lam=     6.7     freq=   526. Q=  0.009 lam=     0.0
  41     freq=   529. Q=  0.135 lam=     4.9     freq=   533. Q=  0.032 lam=     0.3
  42     freq=   540. Q=  0.052 lam=     0.7     freq=   560. Q=  0.023 lam=     0.2
  43     freq=   551. Q= -0.021 lam=     0.1     freq=   570. Q= -0.081 lam=     1.9
  44     freq=   565. Q=  0.114 lam=     3.7     freq=   573. Q=  0.035 lam=     0.3
  45     freq=   577. Q= -0.066 lam=     1.2     freq=   585. Q= -0.096 lam=     2.7
  46     freq=   585. Q= -0.268 lam=    21.0     freq=   591. Q= -0.179 lam=     9.5
  47     freq=   598. Q= -0.013 lam=     0.0     freq=   614. Q= -0.410 lam=    51.6
  48     freq=   604. Q=  0.389 lam=    45.7     freq=   627. Q=  0.000 lam=     0.0
  49     freq=   629. Q=  0.130 lam=     5.3     freq=   633. Q=  0.038 lam=     0.4
  50     freq=   634. Q=  0.027 lam=     0.2     freq=   640. Q=  0.087 lam=     2.4
  51     freq=   641. Q= -0.048 lam=     0.7     freq=   652. Q= -0.030 lam=     0.3
  52     freq=   660. Q= -0.109 lam=     3.9     freq=   670. Q= -0.026 lam=     0.2
  53     freq=   675. Q=  0.310 lam=    32.3     freq=   689. Q=  0.228 lam=    17.9
  54     freq=   680. Q=  0.017 lam=     0.1     freq=   697. Q=  0.008 lam=     0.0
  55     freq=   697. Q=  0.009 lam=     0.0     freq=   700. Q=  0.206 lam=    14.9
  56     freq=   705. Q=  0.111 lam=     4.3     freq=   713. Q=  0.046 lam=     0.8
  57     freq=   711. Q= -0.079 lam=     2.2     freq=   717. Q= -0.077 lam=     2.1
  58     freq=   715. Q= -0.018 lam=     0.1     freq=   736. Q= -0.007 lam=     0.0
  59     freq=   730. Q=  0.005 lam=     0.0     freq=   740. Q=  0.017 lam=     0.1
  60     freq=   744. Q= -0.013 lam=     0.1     freq=   761. Q= -0.012 lam=     0.1
  61     freq=   756. Q= -0.280 lam=    29.6     freq=   771. Q= -0.312 lam=    37.5
  62     freq=   763. Q= -0.000 lam=     0.0     freq=   773. Q= -0.018 lam=     0.1
  63     freq=   798. Q=  0.066 lam=     1.8     freq=   818. Q=  0.001 lam=     0.0
  64     freq=   804. Q= -0.103 lam=     4.3     freq=   835. Q= -0.078 lam=     2.5
  65     freq=   807. Q=  0.112 lam=     5.0     freq=   843. Q=  0.176 lam=    13.0
  66     freq=   811. Q=  0.016 lam=     0.1     freq=   846. Q=  0.000 lam=     0.0
  67     freq=   822. Q=  0.082 lam=     2.8     freq=   854. Q=  0.055 lam=     1.3
  68     freq=   844. Q=  0.035 lam=     0.5     freq=   867. Q=  0.000 lam=     0.0
  69     freq=   855. Q= -0.003 lam=     0.0     freq=   873. Q= -0.060 lam=     1.6
  70     freq=   871. Q= -0.074 lam=     2.4     freq=   876. Q= -0.004 lam=     0.0
  71     freq=   882. Q= -0.003 lam=     0.0     freq=   878. Q= -0.010 lam=     0.0
  72     freq=   907. Q= -0.098 lam=     4.4     freq=   922. Q= -0.081 lam=     3.0
  73     freq=   931. Q=  0.000 lam=     0.0     freq=   937. Q=  0.005 lam=     0.0
  74     freq=   943. Q=  0.001 lam=     0.0     freq=   952. Q=  0.000 lam=     0.0
  75     freq=   950. Q= -0.032 lam=     0.5     freq=   958. Q= -0.003 lam=     0.0
  76     freq=   951. Q=  0.099 lam=     4.7     freq=   967. Q=  0.038 lam=     0.7
  77     freq=   955. Q= -0.075 lam=     2.7     freq=   970. Q= -0.038 lam=     0.7
  78     freq=   959. Q=  0.010 lam=     0.1     freq=   975. Q=  0.014 lam=     0.1
  79     freq=   963. Q= -0.036 lam=     0.6     freq=   979. Q= -0.082 lam=     3.3
  80     freq=   974. Q= -0.000 lam=     0.0     freq=   990. Q= -0.000 lam=     0.0
  81     freq=   986. Q=  0.017 lam=     0.1     freq=  1001. Q=  0.006 lam=     0.0
  82     freq=   992. Q=  0.092 lam=     4.2     freq=  1002. Q=  0.099 lam=     4.9
  83     freq=  1002. Q=  0.043 lam=     0.9     freq=  1019. Q=  0.029 lam=     0.4
  84     freq=  1009. Q=  0.031 lam=     0.5     freq=  1028. Q=  0.153 lam=    12.1
  85     freq=  1016. Q= -0.088 lam=     3.9     freq=  1036. Q= -0.054 lam=     1.5
  86     freq=  1026. Q= -0.071 lam=     2.6     freq=  1038. Q= -0.053 lam=     1.5
  87     freq=  1036. Q=  0.039 lam=     0.8     freq=  1053. Q=  0.000 lam=     0.0
  88     freq=  1074. Q= -0.088 lam=     4.1     freq=  1083. Q= -0.079 lam=     3.4
  89     freq=  1103. Q= -0.041 lam=     0.9     freq=  1110. Q= -0.033 lam=     0.6
  90     freq=  1139. Q= -0.025 lam=     0.4     freq=  1142. Q= -0.054 lam=     1.7
  91     freq=  1140. Q=  0.106 lam=     6.4     freq=  1143. Q=  0.058 lam=     1.9
  92     freq=  1149. Q= -0.043 lam=     1.1     freq=  1145. Q= -0.048 lam=     1.3
  93     freq=  1156. Q= -0.005 lam=     0.0     freq=  1149. Q= -0.002 lam=     0.0
  94     freq=  1178. Q=  0.014 lam=     0.1     freq=  1176. Q=  0.021 lam=     0.3
  95     freq=  1186. Q= -0.125 lam=     9.2     freq=  1184. Q= -0.008 lam=     0.0
  96     freq=  1194. Q=  0.061 lam=     2.2     freq=  1209. Q=  0.245 lam=    36.3
  97     freq=  1204. Q= -0.066 lam=     2.6     freq=  1211. Q= -0.116 lam=     8.1
  98     freq=  1217. Q=  0.218 lam=    28.8     freq=  1215. Q=  0.224 lam=    30.3
  99     freq=  1236. Q=  0.345 lam=    73.7     freq=  1238. Q=  0.147 lam=    13.3
 100     freq=  1255. Q=  0.008 lam=     0.0     freq=  1252. Q=  0.134 lam=    11.2
 101     freq=  1272. Q=  0.017 lam=     0.2     freq=  1269. Q=  0.014 lam=     0.1
 102     freq=  1276. Q= -0.022 lam=     0.3     freq=  1275. Q= -0.018 lam=     0.2
 103     freq=  1288. Q= -0.004 lam=     0.0     freq=  1293. Q= -0.044 lam=     1.2
 104     freq=  1322. Q=  0.029 lam=     0.6     freq=  1309. Q=  0.260 lam=    44.1
 105     freq=  1326. Q=  0.023 lam=     0.4     freq=  1312. Q=  0.016 lam=     0.2
 106     freq=  1330. Q= -0.034 lam=     0.8     freq=  1323. Q= -0.023 lam=     0.3
 107     freq=  1333. Q=  0.110 lam=     8.1     freq=  1340. Q=  0.046 lam=     1.4
 108     freq=  1341. Q=  0.194 lam=    25.2     freq=  1343. Q=  0.036 lam=     0.9
 109     freq=  1344. Q=  0.030 lam=     0.6     freq=  1346. Q=  0.012 lam=     0.1
 110     freq=  1348. Q=  0.247 lam=    41.0     freq=  1361. Q=  0.237 lam=    38.2
 111     freq=  1367. Q= -0.268 lam=    49.1     freq=  1404. Q= -0.304 lam=    65.0
 112     freq=  1426. Q=  0.158 lam=    17.8     freq=  1421. Q=  0.244 lam=    42.3
 113     freq=  1431. Q=  0.046 lam=     1.5     freq=  1434. Q=  0.182 lam=    23.7
 114     freq=  1445. Q= -0.101 lam=     7.3     freq=  1440. Q= -0.111 lam=     8.9
 115     freq=  1457. Q=  0.364 lam=    96.4     freq=  1451. Q=  0.017 lam=     0.2
 116     freq=  1463. Q= -0.021 lam=     0.3     freq=  1458. Q= -0.006 lam=     0.0
 117     freq=  1465. Q=  0.125 lam=    11.4     freq=  1463. Q=  0.170 lam=    21.1
 118     freq=  1468. Q=  0.116 lam=    10.0     freq=  1469. Q=  0.386 lam=   109.3
 119     freq=  1479. Q=  0.144 lam=    15.3     freq=  1489. Q=  0.084 lam=     5.3
 120     freq=  1489. Q=  0.102 lam=     7.7     freq=  1522. Q=  0.004 lam=     0.0
 121     freq=  1491. Q=  0.055 lam=     2.3     freq=  1530. Q=  0.165 lam=    20.8
 122     freq=  1499. Q= -0.217 lam=    35.5     freq=  1537. Q= -0.299 lam=    68.6
 123     freq=  1505. Q= -0.309 lam=    71.8     freq=  1550. Q= -0.161 lam=    20.1
 124     freq=  1526. Q= -0.436 lam=   144.9     freq=  1563. Q= -0.230 lam=    41.2
 125     freq=  1533. Q= -0.022 lam=     0.4     freq=  1580. Q= -0.065 lam=     3.4
 126     freq=  1544. Q= -0.048 lam=     1.8     freq=  1597. Q= -0.005 lam=     0.0
 127     freq=  1584. Q= -0.016 lam=     0.2     freq=  1602. Q= -0.069 lam=     3.8
 128     freq=  1621. Q= -0.050 lam=     2.0     freq=  1638. Q= -0.124 lam=    12.5
 129     freq=  1634. Q=  0.358 lam=   104.6     freq=  1641. Q=  0.418 lam=   143.1
 130     freq=  1647. Q=  0.580 lam=   276.9     freq=  1652. Q=  0.042 lam=     1.5
 131     freq=  3030. Q=  0.010 lam=     0.1     freq=  3028. Q=  0.005 lam=     0.0
 132     freq=  3057. Q= -0.000 lam=     0.0     freq=  3055. Q= -0.000 lam=     0.0
 133     freq=  3161. Q= -0.007 lam=     0.1     freq=  3166. Q= -0.012 lam=     0.2
 134     freq=  3162. Q= -0.008 lam=     0.1     freq=  3167. Q= -0.011 lam=     0.2
 135     freq=  3164. Q= -0.008 lam=     0.1     freq=  3169. Q= -0.004 lam=     0.0
 136     freq=  3173. Q= -0.000 lam=     0.0     freq=  3170. Q= -0.010 lam=     0.2
 137     freq=  3174. Q= -0.010 lam=     0.2     freq=  3177. Q= -0.005 lam=     0.0
 138     freq=  3177. Q=  0.000 lam=     0.0     freq=  3180. Q=  0.001 lam=     0.0
 139     freq=  3184. Q=  0.010 lam=     0.2     freq=  3185. Q=  0.005 lam=     0.0
 140     freq=  3185. Q=  0.003 lam=     0.0     freq=  3186. Q=  0.006 lam=     0.1
 141     freq=  3193. Q= -0.004 lam=     0.0     freq=  3189. Q= -0.006 lam=     0.1
 142     freq=  3200. Q=  0.000 lam=     0.0     freq=  3191. Q=  0.003 lam=     0.0
 143     freq=  3202. Q= -0.008 lam=     0.1     freq=  3198. Q= -0.003 lam=     0.0
 144     freq=  3206. Q= -0.007 lam=     0.1     freq=  3199. Q= -0.003 lam=     0.0
 145     freq=  3206. Q=  0.002 lam=     0.0     freq=  3201. Q=  0.014 lam=     0.3
 146     freq=  3221. Q= -0.031 lam=     1.5     freq=  3206. Q= -0.004 lam=     0.0
 147     freq=  3246. Q= -0.001 lam=     0.0     freq=  3246. Q= -0.001 lam=     0.0

 total reorg energy (cm**-1, kcal/mol)=     1738.     1710.      4.97      4.89
 Nber of molecules processed=           2
