 Enter ifcurve (0=recti, 1=orth curvi, 2=apprx curvi, -1 = skip
 And atom ordering flag, 0= never changes, 1= use the first order thenceforth,
  2= deduce it (does read on fail), 3= always read it
 Reading file: 
 ./IDT_1_C0S1.log                                                               
                                          
  Entering Gaussian System, Link 0=g16                                          
  
 Gaussian format, type: g94, g98, g03= F F F
  #P Geom=AllCheck Guess=TCheck SCRF=Check GenChk RB3LYP TD(FC,Read)/6-3    
 energy type= TD      
 Original G94 input coords:
  6  1.157567 -0.919226 -0.126657
  6  2.675382 -0.634388 -0.135317
  6  3.271597 -0.873655  1.269021
  6  3.391646 -1.456577 -1.193705
  6  3.598418 -2.823421 -1.461814
  6  4.352110 -3.021484 -2.597765
 16  4.825737 -1.521508 -3.365471
  6  3.992391 -0.617860 -2.132178
  6  3.765184  0.754958 -1.832994
  6  4.165715  1.948150 -2.479534
  6  3.779015  3.145528 -1.932292
  6  2.982498  3.184484 -0.725896
  6  2.582652  1.983497 -0.080052
  6  2.973226  0.789763 -0.633274
  6  2.753500  4.538982 -0.423947
 16  1.914445  5.433761  0.816956
  6  2.392214  6.979466  0.039904
  6  1.991069  8.231874  0.605054
  6  1.207562  8.303407  1.789262
  6  0.826484  9.521957  2.325329
  6  1.203857 10.720452  1.713290
  6  1.975764 10.674876  0.545722
  6  2.363192  9.464753 -0.000181
  6  3.162967  6.737462 -1.119834
  6  3.361233  5.391594 -1.374019
  6  4.078305  4.567718 -2.432476
  6  3.482921  4.808426 -3.836950
  6  5.595853  4.854358 -2.440585
  1  0.964209 -1.955997  0.163331
  1  0.722704 -0.752352 -1.114135
  1  0.646478 -0.267278  0.587534
  1  3.111606 -1.909581  1.581480
  1  2.796296 -0.220634  2.006563
  1  4.345101 -0.674672  1.277310
  1  3.221626 -3.643020 -0.863486
  1  4.662675 -3.956884 -3.037560
  1  4.763161  1.906691 -3.384345
  1  1.985363  2.023652  0.824473
  1  0.900852  7.388960  2.284459
  1  0.228635  9.541652  3.230186
  1  0.903491 11.671980  2.136091
  1  2.275488 11.597686  0.060605
  1  2.960116  9.461017 -0.903858
  1  3.548182  7.541389 -1.731262
  1  3.961145  4.159424 -4.576463
  1  3.639063  5.846400 -4.144978
  1  2.409997  4.606939 -3.846452
  1  6.030751  4.685284 -1.453609
  1  5.786586  5.893204 -2.725328
  1  6.108322  4.206351 -3.157693
 nber atoms=          50
  Total Energy, E(TD-HF/TD-DFT) =  -1800.58326918                               
  
          32          49 "  -1800.58326918"
After scan for Atom:   Atom  AN      X      Y      Z        X      Y      Z        X      Y      Z   
After scan for Atom:   Atom  AN      X      Y      Z        X      Y      Z        X      Y      Z   
After scan for Atom:   Atom  AN      X      Y      Z        X      Y      Z        X      Y      Z   
After scan for Atom:   Atom  AN      X      Y      Z        X      Y      Z        X      Y      Z   
After scan for Atom:   Atom  AN      X      Y      Z        X      Y      Z        X      Y      Z   
After scan for Atom:   Atom  AN      X      Y      Z        X      Y      Z        X      Y      Z   
After scan for Atom:   Atom  AN      X      Y      Z        X      Y      Z        X      Y      Z   
After scan for Atom:   Atom  AN      X      Y      Z        X      Y      Z        X      Y      Z   
After scan for Atom:   Atom  AN      X      Y      Z        X      Y      Z        X      Y      Z   
After scan for Atom:   Atom  AN      X      Y      Z        X      Y      Z        X      Y      Z   
After scan for Atom:   Atom  AN      X      Y      Z        X      Y      Z        X      Y      Z   
After scan for Atom:   Atom  AN      X      Y      Z        X      Y      Z        X      Y      Z   
After scan for Atom:   Atom  AN      X      Y      Z        X      Y      Z        X      Y      Z   
After scan for Atom:   Atom  AN      X      Y      Z        X      Y      Z        X      Y      Z   
After scan for Atom:   Atom  AN      X      Y      Z        X      Y      Z        X      Y      Z   
After scan for Atom:   Atom  AN      X      Y      Z        X      Y      Z        X      Y      Z   
After scan for Atom:   Atom  AN      X      Y      Z        X      Y      Z        X      Y      Z   
After scan for Atom:   Atom  AN      X      Y      Z        X      Y      Z        X      Y      Z   
After scan for Atom:   Atom  AN      X      Y      Z        X      Y      Z        X      Y      Z   
After scan for Atom:   Atom  AN      X      Y      Z        X      Y      Z        X      Y      Z   
After scan for Atom:   Atom  AN      X      Y      Z        X      Y      Z        X      Y      Z   
After scan for Atom:   Atom  AN      X      Y      Z        X      Y      Z        X      Y      Z   
After scan for Atom:   Atom  AN      X      Y      Z        X      Y      Z        X      Y      Z   
After scan for Atom:   Atom  AN      X      Y      Z        X      Y      Z        X      Y      Z   
After scan for Atom:   Atom  AN      X      Y      Z        X      Y      Z        X      Y      Z   
After scan for Atom:   Atom  AN      X      Y      Z        X      Y      Z        X      Y      Z   
After scan for Atom:   Atom  AN      X      Y      Z        X      Y      Z        X      Y      Z   
After scan for Atom:   Atom  AN      X      Y      Z        X      Y      Z        X      Y      Z   
After scan for Atom:   Atom  AN      X      Y      Z        X      Y      Z        X      Y      Z   
After scan for Atom:   Atom  AN      X      Y      Z        X      Y      Z        X      Y      Z   
After scan for Atom:   Atom  AN      X      Y      Z        X      Y      Z        X      Y      Z   
After scan for Atom:   Atom  AN      X      Y      Z        X      Y      Z        X      Y      Z   
After scan for Atom:   Atom  AN      X      Y      Z        X      Y      Z        X      Y      Z   
After scan for Atom:   Atom  AN      X      Y      Z        X      Y      Z        X      Y      Z   
After scan for Atom:   Atom  AN      X      Y      Z        X      Y      Z        X      Y      Z   
After scan for Atom:   Atom  AN      X      Y      Z        X      Y      Z        X      Y      Z   
After scan for Atom:   Atom  AN      X      Y      Z        X      Y      Z        X      Y      Z   
After scan for Atom:   Atom  AN      X      Y      Z        X      Y      Z        X      Y      Z   
After scan for Atom:   Atom  AN      X      Y      Z        X      Y      Z        X      Y      Z   
After scan for Atom:   Atom  AN      X      Y      Z        X      Y      Z        X      Y      Z   
After scan for Atom:   Atom  AN      X      Y      Z        X      Y      Z        X      Y      Z   
After scan for Atom:   Atom  AN      X      Y      Z        X      Y      Z        X      Y      Z   
After scan for Atom:   Atom  AN      X      Y      Z        X      Y      Z        X      Y      Z   
After scan for Atom:   Atom  AN      X      Y      Z        X      Y      Z        X      Y      Z   
After scan for Atom:   Atom  AN      X      Y      Z        X      Y      Z        X      Y      Z   
After scan for Atom:   Atom  AN      X      Y      Z        X      Y      Z        X      Y      Z   
After scan for Atom:   Atom  AN      X      Y      Z        X      Y      Z        X      Y      Z   
After scan for Atom:   Atom  AN      X      Y      Z        X      Y      Z        X      Y      Z   
 g94    frequencies=
     0.0    0.0    0.0    0.0    0.0    0.0   18.9   26.6   42.2   58.4
    64.0   79.7  101.5  125.5  127.3  144.0  154.6  160.0  202.5  205.9
   221.2  234.2  239.5  243.2  250.1  271.9  283.5  292.9  314.1  318.3
   351.1  359.6  403.7  408.4  418.6  423.2  426.7  436.9  468.8  491.1
   498.3  539.3  544.7  564.7  590.6  614.6  627.5  646.8  648.8  654.2
   661.7  674.0  677.3  695.8  715.7  723.9  726.5  754.0  767.0  787.8
   797.8  809.4  823.6  858.0  863.5  871.2  877.3  882.0  896.0  932.5
   945.5  946.8  960.3  977.3  979.1  982.6  992.9 1002.3 1026.8 1028.8
  1040.5 1061.7 1087.3 1099.6 1100.0 1154.3 1155.1 1157.6 1163.1 1178.3
  1193.9 1210.0 1216.6 1228.5 1239.8 1251.7 1267.3 1278.5 1321.2 1339.0
  1354.3 1363.3 1364.8 1388.4 1396.6 1397.1 1418.0 1418.4 1430.6 1451.6
  1474.9 1483.8 1484.1 1484.3 1484.9 1486.6 1499.0 1499.8 1501.3 1503.1
  1510.6 1518.1 1525.4 1529.7 1538.8 1569.0 1623.3 1650.7 3020.1 3021.8
  3024.5 3026.0 3082.6 3084.3 3087.8 3089.6 3104.2 3104.4 3106.0 3106.3
  3157.1 3162.2 3163.7 3167.8 3174.9 3183.8 3190.9 3196.9 3211.3 3241.7
 g94    symmetries=
                                                 A      A      A      A
       A      A      A      A      A      A      A      A      A      A
       A      A      A      A      A      A      A      A      A      A
       A      A      A      A      A      A      A      A      A      A
       A      A      A      A      A      A      A      A      A      A
       A      A      A      A      A      A      A      A      A      A
       A      A      A      A      A      A      A      A      A      A
       A      A      A      A      A      A      A      A      A      A
       A      A      A      A      A      A      A      A      A      A
       A      A      A      A      A      A      A      A      A      A
       A      A      A      A      A      A      A      A      A      A
       A      A      A      A      A      A      A      A      A      A
       A      A      A      A      A      A      A      A      A      A
       A      A      A      A      A      A      A      A      A      A
       A      A      A      A      A      A      A      A      A      A
 atomic masses:
 12.0000 12.0000 12.0000 12.0000 12.0000 12.0000 31.9721 12.0000 12.0000 12.0000
 12.0000 12.0000 12.0000 12.0000 12.0000 31.9721 12.0000 12.0000 12.0000 12.0000
 12.0000 12.0000 12.0000 12.0000 12.0000 12.0000 12.0000 12.0000  1.0078  1.0078
  1.0078  1.0078  1.0078  1.0078  1.0078  1.0078  1.0078  1.0078  1.0078  1.0078
  1.0078  1.0078  1.0078  1.0078  1.0078  1.0078  1.0078  1.0078  1.0078  1.0078
 looking for force constants in 
 ./IDT_1_C0S1.fchk                                                              
  
 Cartesian Force Constants                  R   N=       11325                  
  
 n3=         150       11325
 g94-fc frequencies=
    -5.3   -1.4   -0.0   -0.0    0.0    1.8   18.9   26.6   42.2   58.4
    64.1   79.7  101.5  125.5  127.3  144.0  154.6  160.0  202.5  205.9
   221.2  234.2  239.5  243.3  250.1  271.9  283.5  292.9  314.1  318.3
   351.1  359.7  403.7  408.4  418.6  423.2  426.7  436.9  468.8  491.1
   498.3  539.3  544.7  564.7  590.6  614.6  627.6  646.9  648.8  654.2
   661.7  674.1  677.3  695.8  715.7  723.9  726.5  754.1  767.0  787.8
   797.8  809.5  823.6  858.0  863.5  871.3  877.3  882.1  896.0  932.5
   945.5  946.8  960.3  977.3  979.1  982.7  992.9 1002.3 1026.8 1028.8
  1040.5 1061.7 1087.4 1099.6 1100.0 1154.4 1155.1 1157.7 1163.1 1178.3
  1193.9 1210.0 1216.6 1228.5 1239.8 1251.7 1267.4 1278.5 1321.3 1339.1
  1354.3 1363.3 1364.8 1388.4 1396.7 1397.2 1418.0 1418.5 1430.6 1451.6
  1475.0 1483.9 1484.1 1484.3 1484.9 1486.6 1499.0 1499.8 1501.3 1503.1
  1510.7 1518.2 1525.5 1529.7 1538.9 1569.0 1623.3 1650.7 3020.2 3021.9
  3024.5 3026.1 3082.6 3084.4 3087.9 3089.6 3104.3 3104.5 3106.1 3106.4
  3157.2 3162.2 3163.8 3167.8 3174.9 3183.9 3190.9 3197.0 3211.4 3241.7
 at 99999: n3=         150
 symm operator            1 :  F  nop=           0
 symm operator            2 :  F  nop=           0
 symm operator            3 :  F  nop=           0
 symm operator            4 :  F  nop=           0
 symm operator            5 :  F  nop=           0
 symm operator            6 :  F  nop=           0
 symm operator            7 :  F  nop=           0
 The point group of the molecule is  C1
 Symmetry rotation matrix:
   1.00000   0.00000   0.00000
   0.00000   1.00000   0.00000
   0.00000   0.00000   1.00000

 Projecting out zero-frequency components
 generating redundant internal coords
         300        3600          50
 search for int coords
   1 str   2   1   1.544
   2 str   3   2   1.544
   3 str   4   2   1.520
   4 str   5   4   1.408
   5 str   6   5   1.378
   6 str   7   6   1.750
   7 str   8   4   1.395
   8 str   8   7   1.741
   9 str   9   8   1.423
  10 str  10   9   1.415
  11 str  11  10   1.372
  12 str  12  11   1.446
  13 str  13  12   1.421
  14 str  14   2   1.538
  15 str  14   9   1.438
  16 str  14  13   1.372
  17 str  15  12   1.407
  18 str  16  15   1.745
  19 str  17  16   1.795
  20 str  18  17   1.431
  21 str  19  18   1.422
  22 str  20  19   1.385
  23 str  21  20   1.398
  24 str  22  21   1.400
  25 str  23  18   1.423
  26 str  23  22   1.383
  27 str  24  17   1.413
  28 str  25  15   1.414
  29 str  25  24   1.384
  30 str  26  11   1.537
  31 str  26  25   1.521
  32 str  27  26   1.544
  33 str  28  26   1.544
  34 str  29   1   1.094
  35 str  30   1   1.092
  36 str  31   1   1.094
  37 str  32   3   1.094
  38 str  33   3   1.094
  39 str  34   3   1.092
  40 str  35   5   1.082
  41 str  36   6   1.079
  42 str  37  10   1.085
  43 str  38  13   1.085
  44 str  39  19   1.084
  45 str  40  20   1.085
  46 str  41  21   1.084
  47 str  42  22   1.085
  48 str  43  23   1.083
  49 str  44  24   1.081
  50 str  45  27   1.094
  51 str  46  27   1.094
  52 str  47  27   1.092
  53 str  48  28   1.092
  54 str  49  28   1.094
  55 str  50  28   1.094
 nber stretches=          55
  56 ben   1   2   3
  57 prop tor   1   2   3  32
  58 prop tor   1   2   3  33
  59 prop tor   1   2   3  34
  60 ben   1   2   4
  61 prop tor   1   2   4   5
  62 prop tor   1   2   4   8
  63 ben   1   2  14
  64 prop tor   1   2  14   9
  65 prop tor   1   2  14  13
  66 ben   2   1  29
  67 ben   2   1  30
  68 ben   2   1  31
  69 ben   2   3  32
  70 ben   2   3  33
  71 ben   2   3  34
  72 ben   2   4   5
  73 prop tor   2   4   5   6
  74 prop tor   2   4   5  35
  75 ben   2   4   8
  76 prop tor   2   4   8   7
  77 prop tor   2   4   8   9
  78 ben   2  14   9
  79 ben   2  14  13
  80 ben   3   2   4
  81 prop tor   3   2   4   5
  82 prop tor   3   2   4   8
  83 ben   3   2  14
  84 prop tor   3   2  14   9
  85 prop tor   3   2  14  13
  86 prop tor   4   2   3  32
  87 prop tor   4   2   3  33
  88 prop tor   4   2   3  34
  89 ben   4   2  14
  90 prop tor   4   2  14   9
  91 prop tor   4   2  14  13
  92 ben   4   5   6
  93 prop tor   4   5   6   7
  94 prop tor   4   5   6  36
  95 ben   4   5  35
  96 ben   4   8   7
  97 ben   4   8   9
  98 prop tor   4   8   9  10
  99 prop tor   4   8   9  14
 100 ben   5   4   8
 101 prop tor   5   4   8   7
 102 prop tor   5   4   8   9
 103 ben   5   6   7
 104 prop tor   5   6   7   8
 105 ben   5   6  36
 106 ben   6   5  35
 107 ben   6   7   8
 108 prop tor   6   7   8   4
 109 prop tor   6   7   8   9
 110 ben   7   6  36
 111 ben   7   8   9
 112 prop tor   7   8   9  10
 113 prop tor   7   8   9  14
 114 prop tor   8   4   5   6
 115 prop tor   8   4   5  35
 116 ben   8   9  10
 117 prop tor   8   9  10  11
 118 prop tor   8   9  10  37
 119 ben   8   9  14
 120 prop tor   8   9  14   2
 121 prop tor   8   9  14  13
 122 ben   9  10  11
 123 prop tor   9  10  11  12
 124 prop tor   9  10  11  26
 125 ben   9  10  37
 126 ben   9  14  13
 127 ben  10   9  14
 128 prop tor  10   9  14   2
 129 prop tor  10   9  14  13
 130 ben  10  11  12
 131 prop tor  10  11  12  13
 132 prop tor  10  11  12  15
 133 ben  10  11  26
 134 prop tor  10  11  26  25
 135 prop tor  10  11  26  27
 136 prop tor  10  11  26  28
 137 ben  11  10  37
 138 ben  11  12  13
 139 prop tor  11  12  13  14
 140 prop tor  11  12  13  38
 141 ben  11  12  15
 142 prop tor  11  12  15  16
 143 prop tor  11  12  15  25
 144 ben  11  26  25
 145 ben  11  26  27
 146 prop tor  11  26  27  45
 147 prop tor  11  26  27  46
 148 prop tor  11  26  27  47
 149 ben  11  26  28
 150 prop tor  11  26  28  48
 151 prop tor  11  26  28  49
 152 prop tor  11  26  28  50
 153 ben  12  11  26
 154 prop tor  12  11  26  25
 155 prop tor  12  11  26  27
 156 prop tor  12  11  26  28
 157 ben  12  13  14
 158 prop tor  12  13  14   2
 159 prop tor  12  13  14   9
 160 ben  12  13  38
 161 ben  12  15  16
 162 prop tor  12  15  16  17
 163 ben  12  15  25
 164 prop tor  12  15  25  24
 165 prop tor  12  15  25  26
 166 ben  13  12  15
 167 prop tor  13  12  15  16
 168 prop tor  13  12  15  25
 169 prop tor  14   2   3  32
 170 prop tor  14   2   3  33
 171 prop tor  14   2   3  34
 172 prop tor  14   2   4   5
 173 prop tor  14   2   4   8
 174 prop tor  14   9  10  11
 175 prop tor  14   9  10  37
 176 ben  14  13  38
 177 prop tor  15  12  13  14
 178 prop tor  15  12  13  38
 179 ben  15  16  17
 180 prop tor  15  16  17  18
 181 prop tor  15  16  17  24
 182 ben  15  25  24
 183 ben  15  25  26
 184 prop tor  15  25  26  11
 185 prop tor  15  25  26  27
 186 prop tor  15  25  26  28
 187 ben  16  15  25
 188 prop tor  16  15  25  24
 189 prop tor  16  15  25  26
 190 ben  16  17  18
 191 prop tor  16  17  18  19
 192 prop tor  16  17  18  23
 193 ben  16  17  24
 194 prop tor  16  17  24  25
 195 prop tor  16  17  24  44
 196 ben  17  18  19
 197 prop tor  17  18  19  20
 198 prop tor  17  18  19  39
 199 ben  17  18  23
 200 prop tor  17  18  23  22
 201 prop tor  17  18  23  43
 202 ben  17  24  25
 203 prop tor  17  24  25  15
 204 prop tor  17  24  25  26
 205 ben  17  24  44
 206 ben  18  17  24
 207 prop tor  18  17  24  25
 208 prop tor  18  17  24  44
 209 ben  18  19  20
 210 prop tor  18  19  20  21
 211 prop tor  18  19  20  40
 212 ben  18  19  39
 213 ben  18  23  22
 214 ben  18  23  43
 215 ben  19  18  23
 216 prop tor  19  18  23  22
 217 prop tor  19  18  23  43
 218 ben  19  20  21
 219 prop tor  19  20  21  22
 220 prop tor  19  20  21  41
 221 ben  19  20  40
 222 ben  20  19  39
 223 ben  20  21  22
 224 prop tor  20  21  22  23
 225 prop tor  20  21  22  42
 226 ben  20  21  41
 227 ben  21  20  40
 228 ben  21  22  23
 229 prop tor  21  22  23  18
 230 prop tor  21  22  23  43
 231 ben  21  22  42
 232 ben  22  21  41
 233 ben  22  23  43
 234 prop tor  23  18  19  20
 235 prop tor  23  18  19  39
 236 ben  23  22  42
 237 prop tor  24  17  18  19
 238 prop tor  24  17  18  23
 239 ben  24  25  26
 240 prop tor  24  25  26  11
 241 prop tor  24  25  26  27
 242 prop tor  24  25  26  28
 243 prop tor  25  15  16  17
 244 ben  25  24  44
 245 ben  25  26  27
 246 prop tor  25  26  27  45
 247 prop tor  25  26  27  46
 248 prop tor  25  26  27  47
 249 ben  25  26  28
 250 prop tor  25  26  28  48
 251 prop tor  25  26  28  49
 252 prop tor  25  26  28  50
 253 prop tor  26  11  12  13
 254 prop tor  26  11  12  15
 255 ben  26  27  45
 256 ben  26  27  46
 257 ben  26  27  47
 258 ben  26  28  48
 259 ben  26  28  49
 260 ben  26  28  50
 261 ben  27  26  28
 262 prop tor  27  26  28  48
 263 prop tor  27  26  28  49
 264 prop tor  27  26  28  50
 265 prop tor  28  26  27  45
 266 prop tor  28  26  27  46
 267 prop tor  28  26  27  47
 268 prop tor  29   1   2   3
 269 prop tor  29   1   2   4
 270 prop tor  29   1   2  14
 271 ben  29   1  30
 272 ben  29   1  31
 273 prop tor  30   1   2   3
 274 prop tor  30   1   2   4
 275 prop tor  30   1   2  14
 276 ben  30   1  31
 277 prop tor  31   1   2   3
 278 prop tor  31   1   2   4
 279 prop tor  31   1   2  14
 280 ben  32   3  33
 281 ben  32   3  34
 282 ben  33   3  34
 283 prop tor  35   5   6   7
 284 prop tor  35   5   6  36
 285 prop tor  36   6   7   8
 286 prop tor  37  10  11  12
 287 prop tor  37  10  11  26
 288 prop tor  38  13  14   2
 289 prop tor  38  13  14   9
 290 prop tor  39  19  20  21
 291 prop tor  39  19  20  40
 292 prop tor  40  20  21  22
 293 prop tor  40  20  21  41
 294 prop tor  41  21  22  23
 295 prop tor  41  21  22  42
 296 prop tor  42  22  23  18
 297 prop tor  42  22  23  43
 298 prop tor  44  24  25  15
 299 prop tor  44  24  25  26
 300 ben  45  27  46
 301 ben  45  27  47
 302 ben  46  27  47
 303 ben  48  28  49
 304 ben  48  28  50
 305 ben  49  28  50
 nber bend=              98
 nber lin bend=           0
 nber prop tor=         152
 nber impr tor=           0
 nber tot redund int=         305
 Eigenvalues of G in red int coords
    Gval -0.00000000 -0.00000000 -0.00000000 -0.00000000 -0.00000000 -0.00000000 -0.00000000 -0.00000000
    Gval -0.00000000 -0.00000000 -0.00000000 -0.00000000 -0.00000000 -0.00000000 -0.00000000 -0.00000000
    Gval -0.00000000 -0.00000000 -0.00000000 -0.00000000 -0.00000000 -0.00000000 -0.00000000 -0.00000000
    Gval -0.00000000 -0.00000000 -0.00000000 -0.00000000 -0.00000000 -0.00000000 -0.00000000 -0.00000000
    Gval -0.00000000 -0.00000000 -0.00000000 -0.00000000 -0.00000000 -0.00000000 -0.00000000 -0.00000000
    Gval -0.00000000 -0.00000000 -0.00000000 -0.00000000 -0.00000000 -0.00000000 -0.00000000 -0.00000000
    Gval -0.00000000 -0.00000000 -0.00000000 -0.00000000 -0.00000000 -0.00000000 -0.00000000 -0.00000000
    Gval -0.00000000 -0.00000000 -0.00000000 -0.00000000 -0.00000000 -0.00000000 -0.00000000 -0.00000000
    Gval -0.00000000 -0.00000000 -0.00000000 -0.00000000 -0.00000000 -0.00000000 -0.00000000 -0.00000000
    Gval -0.00000000 -0.00000000 -0.00000000 -0.00000000 -0.00000000 -0.00000000 -0.00000000 -0.00000000
    Gval -0.00000000 -0.00000000 -0.00000000  0.00000000  0.00000000  0.00000000  0.00000000  0.00000000
    Gval  0.00000000  0.00000000  0.00000000  0.00000000  0.00000000  0.00000000  0.00000000  0.00000000
    Gval  0.00000000  0.00000000  0.00000000  0.00000000  0.00000000  0.00000000  0.00000000  0.00000000
    Gval  0.00000000  0.00000000  0.00000000  0.00000000  0.00000000  0.00000000  0.00000000  0.00000000
    Gval  0.00000000  0.00000000  0.00000000  0.00000000  0.00000000  0.00000000  0.00000000  0.00000000
    Gval  0.00000000  0.00000000  0.00000000  0.00000000  0.00000000  0.00000000  0.00000000  0.00000000
    Gval  0.00000000  0.00000000  0.00000000  0.00000000  0.00000000  0.00000000  0.00000000  0.00000000
    Gval  0.00000000  0.00000000  0.00000000  0.00000000  0.00000000  0.00000000  0.00000000  0.00000000
    Gval  0.00000000  0.00000000  0.00000000  0.00000000  0.00000000  0.00000000  0.00000000  0.00000000
    Gval  0.00000000  0.00000000  0.00000000  0.00000000  0.00000000  0.00000000  0.00000000  0.00000000
    Gval  0.00000000  0.00000067  0.00000245  0.00000271  0.00000325  0.00000628  0.00000927  0.00001010
    Gval  0.00001376  0.00001487  0.00001744  0.00002023  0.00002285  0.00002444  0.00002966  0.00003123
    Gval  0.00003639  0.00003765  0.00003868  0.00004091  0.00004258  0.00004386  0.00004687  0.00004777
    Gval  0.00004912  0.00005219  0.00005401  0.00005802  0.00006139  0.00006420  0.00007093  0.00007234
    Gval  0.00007741  0.00007925  0.00008976  0.00009464  0.00010519  0.00010842  0.00011064  0.00012050
    Gval  0.00013185  0.00013395  0.00014372  0.00014777  0.00016750  0.00017375  0.00017804  0.00018036
    Gval  0.00021570  0.00023245  0.00024987  0.00026050  0.00027631  0.00030318  0.00030816  0.00032214
    Gval  0.00035873  0.00036482  0.00040270  0.00041950  0.00042408  0.00043031  0.00045016  0.00045803
    Gval  0.00046046  0.00050671  0.00051044  0.00052190  0.00052927  0.00053432  0.00053443  0.00054064
    Gval  0.00055610  0.00055612  0.00055615  0.00055617  0.00057729  0.00057838  0.00057840  0.00058294
    Gval  0.00059305  0.00059356  0.00059432  0.00059611  0.00059875  0.00060390  0.00061756  0.00062211
    Gval  0.00062558  0.00063127  0.00063614  0.00063792  0.00065997  0.00067534  0.00067578  0.00076068
    Gval  0.00084555  0.00098524  0.00098966  0.00103956  0.00107071  0.00107900  0.00109728  0.00109802
    Gval  0.00110665  0.00110682  0.00113306  0.00113403  0.00113778  0.00114842  0.00116492  0.00116893
    Gval  0.00117160  0.00117778  0.00117843  0.00117856  0.00117873  0.00118388  0.00144935  0.00158493
    Gval  0.00161008  0.00166818  0.00166846  0.00171007  0.00184108  0.00196002  0.00203712  0.00214615
    Gval  0.00233451  0.00234755  0.00302400  0.00302828  0.00303149  0.00303312  0.00304429  0.00304528
    Gval  0.00309224  0.00309229  0.00311667  0.00341439  0.00341932  0.00367807  0.00371601  0.00402606
    Gval  0.00405974
  6.727824871844625E-007  6.727824871844625E-007
  2.447213587326981E-006  6.727824871844625E-007
  2.709826254483377E-006  6.727824871844625E-007
  3.245843738664729E-006  6.727824871844625E-007
  6.278411195972121E-006  6.727824871844625E-007
  9.274339647688893E-006  6.727824871844625E-007
  1.010482669178079E-005  6.727824871844625E-007
  1.376357297398909E-005  6.727824871844625E-007
  1.486649484331861E-005  6.727824871844625E-007
  1.744466392913369E-005  6.727824871844625E-007
  2.022632083534052E-005  6.727824871844625E-007
  2.285208722146646E-005  6.727824871844625E-007
  2.443566875106610E-005  6.727824871844625E-007
  2.966023236600480E-005  6.727824871844625E-007
  3.122517314215500E-005  6.727824871844625E-007
  3.639354321139805E-005  6.727824871844625E-007
  3.765454584162508E-005  6.727824871844625E-007
  3.868031915595979E-005  6.727824871844625E-007
  4.091368419700839E-005  6.727824871844625E-007
  4.258050047896202E-005  6.727824871844625E-007
  4.386046984070750E-005  6.727824871844625E-007
  4.687112641616001E-005  6.727824871844625E-007
  4.777221505947108E-005  6.727824871844625E-007
  4.912413847152402E-005  6.727824871844625E-007
  5.219152353165478E-005  6.727824871844625E-007
  5.400923722361488E-005  6.727824871844625E-007
  5.802078539654726E-005  6.727824871844625E-007
  6.138666444564581E-005  6.727824871844625E-007
  6.419796491844467E-005  6.727824871844625E-007
  7.092546581807133E-005  6.727824871844625E-007
  7.234400442959901E-005  6.727824871844625E-007
  7.740594333560948E-005  6.727824871844625E-007
  7.925035081634788E-005  6.727824871844625E-007
  8.976191705901457E-005  6.727824871844625E-007
  9.464257799054383E-005  6.727824871844625E-007
  1.051925748264411E-004  6.727824871844625E-007
  1.084188046977102E-004  6.727824871844625E-007
  1.106395471060779E-004  6.727824871844625E-007
  1.205013371413971E-004  6.727824871844625E-007
  1.318533299638734E-004  6.727824871844625E-007
  1.339487096104606E-004  6.727824871844625E-007
  1.437215517651707E-004  6.727824871844625E-007
  1.477677923654866E-004  6.727824871844625E-007
  1.675000529646436E-004  6.727824871844625E-007
  1.737497947666822E-004  6.727824871844625E-007
  1.780435413224614E-004  6.727824871844625E-007
  1.803553799991486E-004  6.727824871844625E-007
  2.156958667660383E-004  6.727824871844625E-007
  2.324515729215683E-004  6.727824871844625E-007
  2.498677113476314E-004  6.727824871844625E-007
  2.604976617104858E-004  6.727824871844625E-007
  2.763054739067113E-004  6.727824871844625E-007
  3.031780814166056E-004  6.727824871844625E-007
  3.081639943763960E-004  6.727824871844625E-007
  3.221361334683684E-004  6.727824871844625E-007
  3.587275344760496E-004  6.727824871844625E-007
  3.648179356149294E-004  6.727824871844625E-007
  4.027005244941254E-004  6.727824871844625E-007
  4.194966839258823E-004  6.727824871844625E-007
  4.240800053471156E-004  6.727824871844625E-007
  4.303068210323424E-004  6.727824871844625E-007
  4.501617168345581E-004  6.727824871844625E-007
  4.580324151069466E-004  6.727824871844625E-007
  4.604588570185898E-004  6.727824871844625E-007
  5.067092251386030E-004  6.727824871844625E-007
  5.104366920755491E-004  6.727824871844625E-007
  5.219043720906194E-004  6.727824871844625E-007
  5.292654044670980E-004  6.727824871844625E-007
  5.343152218424866E-004  6.727824871844625E-007
  5.344276469855015E-004  6.727824871844625E-007
  5.406367748710960E-004  6.727824871844625E-007
  5.561046948498323E-004  6.727824871844625E-007
  5.561201486104183E-004  6.727824871844625E-007
  5.561521490556130E-004  6.727824871844625E-007
  5.561670815977478E-004  6.727824871844625E-007
  5.772915469122896E-004  6.727824871844625E-007
  5.783768440179867E-004  6.727824871844625E-007
  5.784045775592614E-004  6.727824871844625E-007
  5.829387636801980E-004  6.727824871844625E-007
  5.930533046954683E-004  6.727824871844625E-007
  5.935559048457367E-004  6.727824871844625E-007
  5.943241489634616E-004  6.727824871844625E-007
  5.961079508289507E-004  6.727824871844625E-007
  5.987541655294167E-004  6.727824871844625E-007
  6.038987318441155E-004  6.727824871844625E-007
  6.175601652004143E-004  6.727824871844625E-007
  6.221063610896241E-004  6.727824871844625E-007
  6.255826009784125E-004  6.727824871844625E-007
  6.312747674471815E-004  6.727824871844625E-007
  6.361374846676575E-004  6.727824871844625E-007
  6.379193651066230E-004  6.727824871844625E-007
  6.599732840295893E-004  6.727824871844625E-007
  6.753422594057849E-004  6.727824871844625E-007
  6.757788718441651E-004  6.727824871844625E-007
  7.606808705802216E-004  6.727824871844625E-007
  8.455521783153500E-004  6.727824871844625E-007
  9.852441779132784E-004  6.727824871844625E-007
  9.896615431070040E-004  6.727824871844625E-007
  1.039561510726145E-003  6.727824871844625E-007
  1.070712064898848E-003  6.727824871844625E-007
  1.079002159850026E-003  6.727824871844625E-007
  1.097279271137157E-003  6.727824871844625E-007
  1.098020213255765E-003  6.727824871844625E-007
  1.106653755635287E-003  6.727824871844625E-007
  1.106824586260413E-003  6.727824871844625E-007
  1.133061704452185E-003  6.727824871844625E-007
  1.134028958490833E-003  6.727824871844625E-007
  1.137784088153221E-003  6.727824871844625E-007
  1.148415093382674E-003  6.727824871844625E-007
  1.164921694382287E-003  6.727824871844625E-007
  1.168930769318528E-003  6.727824871844625E-007
  1.171595501786839E-003  6.727824871844625E-007
  1.177776865254905E-003  6.727824871844625E-007
  1.178427175544046E-003  6.727824871844625E-007
  1.178557317899187E-003  6.727824871844625E-007
  1.178734906320902E-003  6.727824871844625E-007
  1.183884922887451E-003  6.727824871844625E-007
  1.449349222237626E-003  6.727824871844625E-007
  1.584931984410876E-003  6.727824871844625E-007
  1.610077037257416E-003  6.727824871844625E-007
  1.668178925271416E-003  6.727824871844625E-007
  1.668457824411920E-003  6.727824871844625E-007
  1.710068711980619E-003  6.727824871844625E-007
  1.841081123467956E-003  6.727824871844625E-007
  1.960024578123026E-003  6.727824871844625E-007
  2.037119809076171E-003  6.727824871844625E-007
  2.146150820555478E-003  6.727824871844625E-007
  2.334511657951902E-003  6.727824871844625E-007
  2.347545404778047E-003  6.727824871844625E-007
  3.023995834346919E-003  6.727824871844625E-007
  3.028283483833875E-003  6.727824871844625E-007
  3.031491330800649E-003  6.727824871844625E-007
  3.033117430151206E-003  6.727824871844625E-007
  3.044285138695000E-003  6.727824871844625E-007
  3.045283139698029E-003  6.727824871844625E-007
  3.092240813047412E-003  6.727824871844625E-007
  3.092288507659367E-003  6.727824871844625E-007
  3.116672243096652E-003  6.727824871844625E-007
  3.414394996562440E-003  6.727824871844625E-007
  3.419322838848891E-003  6.727824871844625E-007
  3.678070858084397E-003  6.727824871844625E-007
  3.716013735404180E-003  6.727824871844625E-007
  4.026058716880837E-003  6.727824871844625E-007
  4.059739400866211E-003  6.727824871844625E-007
 cut=1d-8, nber non-redundant internal coords=         144
 Check on Eigenvals of non-red overlap matrix:
  0.00000067  0.00000245  0.00000271  0.00000325  0.00000628  0.00000927  0.00001010  0.00001376
  0.00001487  0.00001744  0.00002023  0.00002285  0.00002444  0.00002966  0.00003123  0.00003639
  0.00003765  0.00003868  0.00004091  0.00004258  0.00004386  0.00004687  0.00004777  0.00004912
  0.00005219  0.00005401  0.00005802  0.00006139  0.00006420  0.00007093  0.00007234  0.00007741
  0.00007925  0.00008976  0.00009464  0.00010519  0.00010842  0.00011064  0.00012050  0.00013185
  0.00013395  0.00014372  0.00014777  0.00016750  0.00017375  0.00017804  0.00018036  0.00021570
  0.00023245  0.00024987  0.00026050  0.00027631  0.00030318  0.00030816  0.00032214  0.00035873
  0.00036482  0.00040270  0.00041950  0.00042408  0.00043031  0.00045016  0.00045803  0.00046046
  0.00050671  0.00051044  0.00052190  0.00052927  0.00053432  0.00053443  0.00054064  0.00055610
  0.00055612  0.00055615  0.00055617  0.00057729  0.00057838  0.00057840  0.00058294  0.00059305
  0.00059356  0.00059432  0.00059611  0.00059875  0.00060390  0.00061756  0.00062211  0.00062558
  0.00063127  0.00063614  0.00063792  0.00065997  0.00067534  0.00067578  0.00076068  0.00084555
  0.00098524  0.00098966  0.00103956  0.00107071  0.00107900  0.00109728  0.00109802  0.00110665
  0.00110682  0.00113306  0.00113403  0.00113778  0.00114842  0.00116492  0.00116893  0.00117160
  0.00117778  0.00117843  0.00117856  0.00117873  0.00118388  0.00144935  0.00158493  0.00161008
  0.00166818  0.00166846  0.00171007  0.00184108  0.00196002  0.00203712  0.00214615  0.00233451
  0.00234755  0.00302400  0.00302828  0.00303149  0.00303312  0.00304429  0.00304528  0.00309224
  0.00309229  0.00311667  0.00341439  0.00341932  0.00367807  0.00371601  0.00402606  0.00405974
 Checking for correct frequencies
 recalc frequencies=
    -0.0   -0.0    0.0    0.0    0.0    0.0   18.9   26.6   42.2   58.4
    64.1   79.7  101.5  125.5  127.3  144.0  154.6  160.0  202.5  205.9
   221.2  234.2  239.5  243.3  250.1  271.9  283.5  292.9  314.1  318.3
   351.1  359.7  403.7  408.4  418.6  423.2  426.7  436.9  468.8  491.1
   498.3  539.3  544.7  564.7  590.6  614.6  627.6  646.9  648.8  654.2
   661.7  674.1  677.3  695.8  715.7  723.9  726.5  754.1  767.0  787.8
   797.8  809.5  823.6  858.0  863.5  871.3  877.3  882.1  896.0  932.5
   945.5  946.8  960.3  977.3  979.1  982.7  992.9 1002.3 1026.8 1028.8
  1040.5 1061.7 1087.4 1099.6 1100.0 1154.4 1155.1 1157.7 1163.1 1178.3
  1193.9 1210.0 1216.6 1228.5 1239.8 1251.7 1267.4 1278.5 1321.3 1339.1
  1354.3 1363.3 1364.8 1388.4 1396.7 1397.2 1418.0 1418.5 1430.6 1451.6
  1475.0 1483.9 1484.1 1484.3 1484.9 1486.6 1499.0 1499.8 1501.3 1503.1
  1510.7 1518.2 1525.5 1529.7 1538.9 1569.0 1623.3 1650.7 3020.2 3021.9
  3024.5 3026.1 3082.6 3084.4 3087.9 3089.6 3104.3 3104.5 3106.1 3106.4
  3157.2 3162.2 3163.8 3167.8 3174.9 3183.9 3190.9 3197.0 3211.4 3241.7
 recalc symmetries=
                                                                       
                                                                       
                                                                       
                                                                       
                                                                       
                                                                       
                                                                       
                                                                       
                                                                       
                                                                       
                                                                       
                                                                       
                                                                       
                                                                       
                                                                       
 recalc freqs check OK
 Zero-point lengths:
 10.0000 10.0000 10.0000 10.0000 10.0000 10.0000 57.0348 48.0726 38.1480 32.4333
 30.9766 27.7727 24.6021 22.1321 21.9689 20.6566 19.9382 19.5995 17.4220 17.2749
 16.6686 16.2007 16.0181 15.8952 15.6770 15.0347 14.7225 14.4845 13.9880 13.8955
 13.2298 13.0724 12.3385 12.2678 12.1174 12.0513 12.0009 11.8599 11.4493 11.1866
 11.1062 10.6757 10.6223 10.4325 10.2012  9.9997  9.8962  9.7475  9.7327  9.6927
  9.6377  9.5487  9.5258  9.3985  9.2666  9.2139  9.1976  9.0280  8.9516  8.8326
  8.7772  8.7136  8.6385  8.4634  8.4366  8.3989  8.3699  8.3473  8.2822  8.1185
  8.0624  8.0567  7.9999  7.9302  7.9227  7.9085  7.8676  7.8304  7.7367  7.7290
  7.6855  7.6085  7.5181  7.4760  7.4749  7.2967  7.2943  7.2862  7.2692  7.2220
  7.1748  7.1270  7.1075  7.0731  7.0407  7.0072  6.9638  6.9333  6.8203  6.7747
  6.7366  6.7142  6.7105  6.6532  6.6336  6.6324  6.5834  6.5824  6.5544  6.5068
  6.4551  6.4358  6.4352  6.4347  6.4335  6.4297  6.4031  6.4015  6.3983  6.3944
  6.3784  6.3626  6.3474  6.3386  6.3197  6.2586  6.1531  6.1019  4.5110  4.5098
  4.5078  4.5067  4.4651  4.4639  4.4614  4.4601  4.4495  4.4494  4.4482  4.4480
  4.4121  4.4086  4.4075  4.4047  4.3998  4.3935  4.3887  4.3846  4.3747  4.3542
 highest evec of mol 1
  0.0001  0.0001 -0.0000
  0.0001  0.0001 -0.0002
 -0.0000  0.0001 -0.0001
  0.0004 -0.0065 -0.0004
  0.0288  0.0428 -0.0451
 -0.0887  0.2435  0.1264
 -0.0007 -0.0016  0.0012
  0.0010 -0.0028 -0.0014
  0.0001 -0.0002 -0.0001
  0.0005  0.0001 -0.0008
 -0.0001  0.0001  0.0002
  0.0000 -0.0002 -0.0001
  0.0002  0.0000 -0.0002
 -0.0002  0.0002  0.0003
 -0.0000  0.0002  0.0000
  0.0001  0.0000 -0.0001
  0.0001 -0.0001 -0.0001
 -0.0001  0.0002  0.0001
  0.0000 -0.0001 -0.0000
 -0.0001  0.0000  0.0002
  0.0000 -0.0000 -0.0000
  0.0000  0.0002 -0.0001
  0.0001 -0.0001 -0.0001
 -0.0003 -0.0004  0.0004
  0.0000  0.0000 -0.0000
  0.0000 -0.0000 -0.0000
  0.0001 -0.0001 -0.0001
  0.0000 -0.0001 -0.0001
 -0.0000 -0.0004  0.0001
 -0.0000 -0.0000 -0.0001
 -0.0004  0.0003  0.0003
 -0.0001 -0.0004  0.0000
 -0.0002  0.0003  0.0005
  0.0001 -0.0000 -0.0000
 -0.0654 -0.1377  0.1037
  0.2713 -0.8104 -0.3844
 -0.0015 -0.0000  0.0023
 -0.0004 -0.0000  0.0006
  0.0001  0.0003 -0.0001
  0.0004 -0.0000 -0.0006
  0.0001 -0.0002 -0.0001
 -0.0002 -0.0006  0.0003
 -0.0002  0.0000  0.0003
  0.0006  0.0012 -0.0010
 -0.0002  0.0002  0.0003
  0.0000  0.0000 -0.0000
 -0.0001 -0.0000 -0.0000
  0.0001 -0.0000  0.0001
  0.0000  0.0000 -0.0000
 -0.0002  0.0002  0.0003
 generating redundant internal coords
         300        3600          50
 Adding extra bonds for z output only
           6           6           6           6           6           6
          16           6           6           6           6           6
           6           6           6          16           6           6
           6           6           6           6           6           6
           6           6           6           6           1           1
           1           1           1           1           1           1
           1           1           1           1           1           1
           1           1           1           1           1           1
           1           1
 search for int coords
   1 str   2   1   1.544
   2 str   3   2   1.544
   3 str   4   2   1.520
   4 str   5   4   1.408
   5 str   6   5   1.378
   6 str   7   6   1.750
   7 str   8   4   1.395
   8 str   8   7   1.741
   9 str   9   8   1.423
  10 str  10   9   1.415
  11 str  11  10   1.372
  12 str  12  11   1.446
  13 str  13  12   1.421
  14 str  14   2   1.538
  15 str  14   9   1.438
  16 str  14  13   1.372
  17 str  15  12   1.407
  18 str  16  15   1.745
  19 str  17  16   1.795
  20 str  18  17   1.431
  21 str  19  18   1.422
  22 str  20  19   1.385
  23 str  21  20   1.398
  24 str  22  21   1.400
  25 str  23  18   1.423
  26 str  23  22   1.383
  27 str  24  17   1.413
  28 str  25  15   1.414
  29 str  25  24   1.384
  30 str  26  11   1.537
  31 str  26  25   1.521
  32 str  27  26   1.544
  33 str  28  26   1.544
  34 str  29   1   1.094
  35 str  30   1   1.092
  36 str  31   1   1.094
  37 str  32   3   1.094
  38 str  33   3   1.094
  39 str  34   3   1.092
  40 str  35   5   1.082
  41 str  36   6   1.079
  42 str  37  10   1.085
  43 str  38  13   1.085
  44 str  39  19   1.084
  45 str  40  20   1.085
  46 str  41  21   1.084
  47 str  42  22   1.085
  48 str  43  23   1.083
  49 str  44  24   1.081
  50 str  45  27   1.094
  51 str  46  27   1.094
  52 str  47  27   1.092
  53 str  48  28   1.092
  54 str  49  28   1.094
  55 str  50  28   1.094
 nber stretches=          55
  56 ben   1   2   3
  57 prop tor   1   2   3  32
  58 prop tor   1   2   3  33
  59 prop tor   1   2   3  34
  60 ben   1   2   4
  61 prop tor   1   2   4   5
  62 prop tor   1   2   4   8
  63 ben   1   2  14
  64 prop tor   1   2  14   9
  65 prop tor   1   2  14  13
  66 ben   2   1  29
  67 ben   2   1  30
  68 ben   2   1  31
  69 ben   2   3  32
  70 ben   2   3  33
  71 ben   2   3  34
  72 ben   2   4   5
  73 prop tor   2   4   5   6
  74 prop tor   2   4   5  35
  75 ben   2   4   8
  76 prop tor   2   4   8   7
  77 prop tor   2   4   8   9
  78 ben   2  14   9
  79 ben   2  14  13
  80 ben   3   2   4
  81 prop tor   3   2   4   5
  82 prop tor   3   2   4   8
  83 ben   3   2  14
  84 prop tor   3   2  14   9
  85 prop tor   3   2  14  13
  86 prop tor   4   2   3  32
  87 prop tor   4   2   3  33
  88 prop tor   4   2   3  34
  89 ben   4   2  14
  90 prop tor   4   2  14   9
  91 prop tor   4   2  14  13
  92 ben   4   5   6
  93 prop tor   4   5   6   7
  94 prop tor   4   5   6  36
  95 ben   4   5  35
  96 ben   4   8   7
  97 ben   4   8   9
  98 prop tor   4   8   9  10
  99 prop tor   4   8   9  14
 100 ben   5   4   8
 101 prop tor   5   4   8   7
 102 prop tor   5   4   8   9
 103 ben   5   6   7
 104 prop tor   5   6   7   8
 105 ben   5   6  36
 106 ben   6   5  35
 107 ben   6   7   8
 108 prop tor   6   7   8   4
 109 prop tor   6   7   8   9
 110 ben   7   6  36
 111 ben   7   8   9
 112 prop tor   7   8   9  10
 113 prop tor   7   8   9  14
 114 prop tor   8   4   5   6
 115 prop tor   8   4   5  35
 116 ben   8   9  10
 117 prop tor   8   9  10  11
 118 prop tor   8   9  10  37
 119 ben   8   9  14
 120 prop tor   8   9  14   2
 121 prop tor   8   9  14  13
 122 ben   9  10  11
 123 prop tor   9  10  11  12
 124 prop tor   9  10  11  26
 125 ben   9  10  37
 126 ben   9  14  13
 127 ben  10   9  14
 128 prop tor  10   9  14   2
 129 prop tor  10   9  14  13
 130 ben  10  11  12
 131 prop tor  10  11  12  13
 132 prop tor  10  11  12  15
 133 ben  10  11  26
 134 prop tor  10  11  26  25
 135 prop tor  10  11  26  27
 136 prop tor  10  11  26  28
 137 ben  11  10  37
 138 ben  11  12  13
 139 prop tor  11  12  13  14
 140 prop tor  11  12  13  38
 141 ben  11  12  15
 142 prop tor  11  12  15  16
 143 prop tor  11  12  15  25
 144 ben  11  26  25
 145 ben  11  26  27
 146 prop tor  11  26  27  45
 147 prop tor  11  26  27  46
 148 prop tor  11  26  27  47
 149 ben  11  26  28
 150 prop tor  11  26  28  48
 151 prop tor  11  26  28  49
 152 prop tor  11  26  28  50
 153 ben  12  11  26
 154 prop tor  12  11  26  25
 155 prop tor  12  11  26  27
 156 prop tor  12  11  26  28
 157 ben  12  13  14
 158 prop tor  12  13  14   2
 159 prop tor  12  13  14   9
 160 ben  12  13  38
 161 ben  12  15  16
 162 prop tor  12  15  16  17
 163 ben  12  15  25
 164 prop tor  12  15  25  24
 165 prop tor  12  15  25  26
 166 ben  13  12  15
 167 prop tor  13  12  15  16
 168 prop tor  13  12  15  25
 169 prop tor  14   2   3  32
 170 prop tor  14   2   3  33
 171 prop tor  14   2   3  34
 172 prop tor  14   2   4   5
 173 prop tor  14   2   4   8
 174 prop tor  14   9  10  11
 175 prop tor  14   9  10  37
 176 ben  14  13  38
 177 prop tor  15  12  13  14
 178 prop tor  15  12  13  38
 179 ben  15  16  17
 180 prop tor  15  16  17  18
 181 prop tor  15  16  17  24
 182 ben  15  25  24
 183 ben  15  25  26
 184 prop tor  15  25  26  11
 185 prop tor  15  25  26  27
 186 prop tor  15  25  26  28
 187 ben  16  15  25
 188 prop tor  16  15  25  24
 189 prop tor  16  15  25  26
 190 ben  16  17  18
 191 prop tor  16  17  18  19
 192 prop tor  16  17  18  23
 193 ben  16  17  24
 194 prop tor  16  17  24  25
 195 prop tor  16  17  24  44
 196 ben  17  18  19
 197 prop tor  17  18  19  20
 198 prop tor  17  18  19  39
 199 ben  17  18  23
 200 prop tor  17  18  23  22
 201 prop tor  17  18  23  43
 202 ben  17  24  25
 203 prop tor  17  24  25  15
 204 prop tor  17  24  25  26
 205 ben  17  24  44
 206 ben  18  17  24
 207 prop tor  18  17  24  25
 208 prop tor  18  17  24  44
 209 ben  18  19  20
 210 prop tor  18  19  20  21
 211 prop tor  18  19  20  40
 212 ben  18  19  39
 213 ben  18  23  22
 214 ben  18  23  43
 215 ben  19  18  23
 216 prop tor  19  18  23  22
 217 prop tor  19  18  23  43
 218 ben  19  20  21
 219 prop tor  19  20  21  22
 220 prop tor  19  20  21  41
 221 ben  19  20  40
 222 ben  20  19  39
 223 ben  20  21  22
 224 prop tor  20  21  22  23
 225 prop tor  20  21  22  42
 226 ben  20  21  41
 227 ben  21  20  40
 228 ben  21  22  23
 229 prop tor  21  22  23  18
 230 prop tor  21  22  23  43
 231 ben  21  22  42
 232 ben  22  21  41
 233 ben  22  23  43
 234 prop tor  23  18  19  20
 235 prop tor  23  18  19  39
 236 ben  23  22  42
 237 prop tor  24  17  18  19
 238 prop tor  24  17  18  23
 239 ben  24  25  26
 240 prop tor  24  25  26  11
 241 prop tor  24  25  26  27
 242 prop tor  24  25  26  28
 243 prop tor  25  15  16  17
 244 ben  25  24  44
 245 ben  25  26  27
 246 prop tor  25  26  27  45
 247 prop tor  25  26  27  46
 248 prop tor  25  26  27  47
 249 ben  25  26  28
 250 prop tor  25  26  28  48
 251 prop tor  25  26  28  49
 252 prop tor  25  26  28  50
 253 prop tor  26  11  12  13
 254 prop tor  26  11  12  15
 255 ben  26  27  45
 256 ben  26  27  46
 257 ben  26  27  47
 258 ben  26  28  48
 259 ben  26  28  49
 260 ben  26  28  50
 261 ben  27  26  28
 262 prop tor  27  26  28  48
 263 prop tor  27  26  28  49
 264 prop tor  27  26  28  50
 265 prop tor  28  26  27  45
 266 prop tor  28  26  27  46
 267 prop tor  28  26  27  47
 268 prop tor  29   1   2   3
 269 prop tor  29   1   2   4
 270 prop tor  29   1   2  14
 271 ben  29   1  30
 272 ben  29   1  31
 273 prop tor  30   1   2   3
 274 prop tor  30   1   2   4
 275 prop tor  30   1   2  14
 276 ben  30   1  31
 277 prop tor  31   1   2   3
 278 prop tor  31   1   2   4
 279 prop tor  31   1   2  14
 280 ben  32   3  33
 281 ben  32   3  34
 282 ben  33   3  34
 283 prop tor  35   5   6   7
 284 prop tor  35   5   6  36
 285 prop tor  36   6   7   8
 286 prop tor  37  10  11  12
 287 prop tor  37  10  11  26
 288 prop tor  38  13  14   2
 289 prop tor  38  13  14   9
 290 prop tor  39  19  20  21
 291 prop tor  39  19  20  40
 292 prop tor  40  20  21  22
 293 prop tor  40  20  21  41
 294 prop tor  41  21  22  23
 295 prop tor  41  21  22  42
 296 prop tor  42  22  23  18
 297 prop tor  42  22  23  43
 298 prop tor  44  24  25  15
 299 prop tor  44  24  25  26
 300 ben  45  27  46
 301 ben  45  27  47
 302 ben  46  27  47
 303 ben  48  28  49
 304 ben  48  28  50
 305 ben  49  28  50
 nber bend=              98
 nber lin bend=           0
 nber prop tor=         152
 nber impr tor=           0
 nber tot redund int=         305
 Reading file: 
 ./IDT_1_C1S0.log                                                               
                                          
  Entering Gaussian System, Link 0=g16                                          
  
 Gaussian format, type: g94, g98, g03= F F F
  #P Geom=AllCheck Guess=TCheck SCRF=Check GenChk UB3LYP/6-311G(d,p) Fre    
 energy type= B3LYP   
 Original G94 input coords:
  6  1.190264 -0.922128 -0.068296
  6  2.705975 -0.623738 -0.106927
  6  3.339453 -0.862258  1.282353
  6  3.403756 -1.437516 -1.180905
  6  3.610064 -2.802611 -1.448560
  6  4.341224 -2.984430 -2.603069
 16  4.790817 -1.498574 -3.384082
  6  3.981966 -0.603805 -2.137250
  6  3.751236  0.766454 -1.830587
  6  4.136062  1.949330 -2.495522
  6  3.756598  3.149084 -1.944724
  6  2.991343  3.180315 -0.728994
  6  2.605571  1.993590 -0.063588
  6  2.985352  0.796671 -0.614045
  6  2.761053  4.542679 -0.424092
 16  1.955574  5.430479  0.822390
  6  2.397147  6.956945  0.044135
  6  1.995049  8.225159  0.616365
  6  1.003595  8.298577  1.617833
  6  0.626276  9.519527  2.153259
  6  1.227703 10.697144  1.705571
  6  2.212327 10.643935  0.717131
  6  2.593664  9.426434  0.176682
  6  3.143594  6.733762 -1.122140
  6  3.345998  5.385390 -1.383710
  6  4.038399  4.566690 -2.457928
  6  3.400218  4.802410 -3.845488
  6  5.554545  4.861527 -2.501918
  1  1.016847 -1.961493  0.219927
  1  0.726251 -0.754265 -1.042163
  1  0.692080 -0.284841  0.666135
  1  3.195995 -1.900643  1.589908
  1  2.868724 -0.223751  2.033635
  1  4.410730 -0.652096  1.273120
  1  3.254042 -3.626797 -0.845902
  1  4.647123 -3.920035 -3.047964
  1  4.712707  1.902048 -3.412205
  1  2.027889  2.040075  0.852658
  1  0.512692  7.396024  1.963177
  1 -0.141100  9.557638  2.916697
  1  0.931627 11.650935  2.125482
  1  2.686035 11.555550  0.373728
  1  3.374583  9.402207 -0.572505
  1  3.491710  7.542449 -1.748740
  1  3.863819  4.155244 -4.593441
  1  3.549693  5.837552 -4.161227
  1  2.327839  4.598322 -3.831338
  1  6.020965  4.699767 -1.528178
  1  5.731326  5.897363 -2.800883
  1  6.047950  4.215266 -3.231355
 nber atoms=          50
  SCF Done:  E(UB3LYP) =  -1800.46137999     A.U. after    1 cycles             
  
          23          40 "  -1800.46137999"
After scan for Atom:   Atom  AN      X      Y      Z        X      Y      Z        X      Y      Z   
After scan for Atom:   Atom  AN      X      Y      Z        X      Y      Z        X      Y      Z   
After scan for Atom:   Atom  AN      X      Y      Z        X      Y      Z        X      Y      Z   
After scan for Atom:   Atom  AN      X      Y      Z        X      Y      Z        X      Y      Z   
After scan for Atom:   Atom  AN      X      Y      Z        X      Y      Z        X      Y      Z   
After scan for Atom:   Atom  AN      X      Y      Z        X      Y      Z        X      Y      Z   
After scan for Atom:   Atom  AN      X      Y      Z        X      Y      Z        X      Y      Z   
After scan for Atom:   Atom  AN      X      Y      Z        X      Y      Z        X      Y      Z   
After scan for Atom:   Atom  AN      X      Y      Z        X      Y      Z        X      Y      Z   
After scan for Atom:   Atom  AN      X      Y      Z        X      Y      Z        X      Y      Z   
After scan for Atom:   Atom  AN      X      Y      Z        X      Y      Z        X      Y      Z   
After scan for Atom:   Atom  AN      X      Y      Z        X      Y      Z        X      Y      Z   
After scan for Atom:   Atom  AN      X      Y      Z        X      Y      Z        X      Y      Z   
After scan for Atom:   Atom  AN      X      Y      Z        X      Y      Z        X      Y      Z   
After scan for Atom:   Atom  AN      X      Y      Z        X      Y      Z        X      Y      Z   
After scan for Atom:   Atom  AN      X      Y      Z        X      Y      Z        X      Y      Z   
After scan for Atom:   Atom  AN      X      Y      Z        X      Y      Z        X      Y      Z   
After scan for Atom:   Atom  AN      X      Y      Z        X      Y      Z        X      Y      Z   
After scan for Atom:   Atom  AN      X      Y      Z        X      Y      Z        X      Y      Z   
After scan for Atom:   Atom  AN      X      Y      Z        X      Y      Z        X      Y      Z   
After scan for Atom:   Atom  AN      X      Y      Z        X      Y      Z        X      Y      Z   
After scan for Atom:   Atom  AN      X      Y      Z        X      Y      Z        X      Y      Z   
After scan for Atom:   Atom  AN      X      Y      Z        X      Y      Z        X      Y      Z   
After scan for Atom:   Atom  AN      X      Y      Z        X      Y      Z        X      Y      Z   
After scan for Atom:   Atom  AN      X      Y      Z        X      Y      Z        X      Y      Z   
After scan for Atom:   Atom  AN      X      Y      Z        X      Y      Z        X      Y      Z   
After scan for Atom:   Atom  AN      X      Y      Z        X      Y      Z        X      Y      Z   
After scan for Atom:   Atom  AN      X      Y      Z        X      Y      Z        X      Y      Z   
After scan for Atom:   Atom  AN      X      Y      Z        X      Y      Z        X      Y      Z   
After scan for Atom:   Atom  AN      X      Y      Z        X      Y      Z        X      Y      Z   
After scan for Atom:   Atom  AN      X      Y      Z        X      Y      Z        X      Y      Z   
After scan for Atom:   Atom  AN      X      Y      Z        X      Y      Z        X      Y      Z   
After scan for Atom:   Atom  AN      X      Y      Z        X      Y      Z        X      Y      Z   
After scan for Atom:   Atom  AN      X      Y      Z        X      Y      Z        X      Y      Z   
After scan for Atom:   Atom  AN      X      Y      Z        X      Y      Z        X      Y      Z   
After scan for Atom:   Atom  AN      X      Y      Z        X      Y      Z        X      Y      Z   
After scan for Atom:   Atom  AN      X      Y      Z        X      Y      Z        X      Y      Z   
After scan for Atom:   Atom  AN      X      Y      Z        X      Y      Z        X      Y      Z   
After scan for Atom:   Atom  AN      X      Y      Z        X      Y      Z        X      Y      Z   
After scan for Atom:   Atom  AN      X      Y      Z        X      Y      Z        X      Y      Z   
After scan for Atom:   Atom  AN      X      Y      Z        X      Y      Z        X      Y      Z   
After scan for Atom:   Atom  AN      X      Y      Z        X      Y      Z        X      Y      Z   
After scan for Atom:   Atom  AN      X      Y      Z        X      Y      Z        X      Y      Z   
After scan for Atom:   Atom  AN      X      Y      Z        X      Y      Z        X      Y      Z   
After scan for Atom:   Atom  AN      X      Y      Z        X      Y      Z        X      Y      Z   
After scan for Atom:   Atom  AN      X      Y      Z        X      Y      Z        X      Y      Z   
After scan for Atom:   Atom  AN      X      Y      Z        X      Y      Z        X      Y      Z   
After scan for Atom:   Atom  AN      X      Y      Z        X      Y      Z        X      Y      Z   
 g94    frequencies=
     0.0    0.0    0.0    0.0    0.0    0.0   21.2   23.4   45.4   58.4
    66.5   87.7  105.2  125.0  134.7  149.7  158.4  163.2  206.9  217.0
   223.8  241.4  244.1  249.2  251.8  272.9  282.8  298.8  316.2  320.2
   353.0  377.9  400.7  417.0  419.7  431.7  449.2  455.5  484.0  497.8
   515.7  549.7  572.4  581.5  596.2  625.7  629.6  654.1  665.4  685.4
   691.1  692.8  699.8  723.9  727.0  733.7  760.6  779.7  785.1  796.4
   834.1  838.9  866.7  871.3  901.1  904.3  905.8  908.6  939.3  945.4
   953.0  953.5  982.4  990.6  997.1 1002.7 1011.9 1021.0 1031.6 1032.0
  1049.3 1069.9 1097.1 1108.2 1111.5 1151.0 1151.7 1165.4 1168.9 1192.2
  1207.5 1216.2 1227.7 1235.8 1242.7 1257.3 1277.6 1290.8 1330.2 1346.0
  1364.9 1370.4 1375.3 1393.0 1404.0 1404.6 1426.0 1429.4 1450.7 1461.5
  1482.7 1484.4 1484.5 1484.6 1489.0 1489.5 1494.5 1505.2 1505.8 1508.1
  1514.7 1524.6 1527.0 1533.9 1549.6 1600.8 1626.8 1636.7 3034.7 3035.6
  3037.9 3038.7 3102.4 3103.7 3107.0 3108.3 3111.9 3112.6 3113.6 3114.3
  3174.8 3179.7 3181.3 3182.5 3191.0 3198.9 3205.2 3214.9 3222.5 3241.3
 g94    symmetries=
                                                 A      A      A      A
       A      A      A      A      A      A      A      A      A      A
       A      A      A      A      A      A      A      A      A      A
       A      A      A      A      A      A      A      A      A      A
       A      A      A      A      A      A      A      A      A      A
       A      A      A      A      A      A      A      A      A      A
       A      A      A      A      A      A      A      A      A      A
       A      A      A      A      A      A      A      A      A      A
       A      A      A      A      A      A      A      A      A      A
       A      A      A      A      A      A      A      A      A      A
       A      A      A      A      A      A      A      A      A      A
       A      A      A      A      A      A      A      A      A      A
       A      A      A      A      A      A      A      A      A      A
       A      A      A      A      A      A      A      A      A      A
       A      A      A      A      A      A      A      A      A      A
 atomic masses:
 12.0000 12.0000 12.0000 12.0000 12.0000 12.0000 31.9721 12.0000 12.0000 12.0000
 12.0000 12.0000 12.0000 12.0000 12.0000 31.9721 12.0000 12.0000 12.0000 12.0000
 12.0000 12.0000 12.0000 12.0000 12.0000 12.0000 12.0000 12.0000  1.0078  1.0078
  1.0078  1.0078  1.0078  1.0078  1.0078  1.0078  1.0078  1.0078  1.0078  1.0078
  1.0078  1.0078  1.0078  1.0078  1.0078  1.0078  1.0078  1.0078  1.0078  1.0078
 looking for force constants in 
 ./IDT_1_C1S0.fchk                                                              
  
 Cartesian Force Constants                  R   N=       11325                  
  
 n3=         150       11325
 g94-fc frequencies=
    -5.8   -0.8   -0.0    0.0    0.0    1.5   21.2   23.4   45.4   58.4
    66.5   87.7  105.2  125.0  134.7  149.7  158.4  163.2  206.9  217.0
   223.8  241.4  244.1  249.2  251.8  272.9  282.8  298.8  316.2  320.2
   353.0  377.9  400.7  417.0  419.7  431.7  449.2  455.6  484.0  497.8
   515.7  549.7  572.5  581.5  596.3  625.7  629.6  654.2  665.4  685.4
   691.1  692.8  699.8  724.0  727.0  733.7  760.7  779.8  785.1  796.4
   834.1  839.0  866.7  871.3  901.1  904.3  905.8  908.6  939.3  945.4
   953.1  953.5  982.4  990.6  997.2 1002.7 1011.9 1021.0 1031.7 1032.1
  1049.3 1069.9 1097.1 1108.2 1111.6 1151.0 1151.8 1165.4 1169.0 1192.2
  1207.6 1216.2 1227.7 1235.9 1242.7 1257.3 1277.6 1290.8 1330.2 1346.0
  1364.9 1370.4 1375.3 1393.0 1404.1 1404.6 1426.0 1429.4 1450.7 1461.5
  1482.8 1484.4 1484.5 1484.6 1489.0 1489.5 1494.6 1505.2 1505.8 1508.1
  1514.7 1524.6 1527.0 1534.0 1549.6 1600.8 1626.9 1636.7 3034.8 3035.7
  3037.9 3038.7 3102.4 3103.8 3107.1 3108.3 3112.0 3112.7 3113.7 3114.3
  3174.9 3179.7 3181.4 3182.6 3191.0 3199.0 3205.3 3214.9 3222.6 3241.4
 at 99999: n3=         150
 symm operator            1 :  F  nop=           0
 symm operator            2 :  F  nop=           0
 symm operator            3 :  F  nop=           0
 symm operator            4 :  F  nop=           0
 symm operator            5 :  F  nop=           0
 symm operator            6 :  F  nop=           0
 symm operator            7 :  F  nop=           0
 The point group of the molecule is  C1
 Symmetry rotation matrix:
   1.00000   0.00000   0.00000
   0.00000   1.00000   0.00000
   0.00000   0.00000   1.00000

 Projecting out zero-frequency components
 generating redundant internal coords
         300        3600          50
 search for int coords
   1 str   2   1   1.545
   2 str   3   2   1.545
   3 str   4   2   1.517
   4 str   5   4   1.406
   5 str   6   5   1.379
   6 str   7   6   1.738
   7 str   8   4   1.394
   8 str   8   7   1.735
   9 str   9   8   1.423
  10 str  10   9   1.410
  11 str  11  10   1.374
  12 str  12  11   1.437
  13 str  13  12   1.414
  14 str  14   2   1.534
  15 str  14   9   1.438
  16 str  14  13   1.371
  17 str  15  12   1.415
  18 str  16  15   1.729
  19 str  17  16   1.769
  20 str  18  17   1.448
  21 str  19  18   1.411
  22 str  20  19   1.386
  23 str  21  20   1.396
  24 str  22  21   1.396
  25 str  23  18   1.412
  26 str  23  22   1.386
  27 str  24  17   1.403
  28 str  25  15   1.405
  29 str  25  24   1.388
  30 str  26  11   1.534
  31 str  26  25   1.518
  32 str  27  26   1.545
  33 str  28  26   1.545
  34 str  29   1   1.092
  35 str  30   1   1.092
  36 str  31   1   1.093
  37 str  32   3   1.092
  38 str  33   3   1.093
  39 str  34   3   1.092
  40 str  35   5   1.081
  41 str  36   6   1.080
  42 str  37  10   1.084
  43 str  38  13   1.084
  44 str  39  19   1.084
  45 str  40  20   1.083
  46 str  41  21   1.083
  47 str  42  22   1.083
  48 str  43  23   1.082
  49 str  44  24   1.081
  50 str  45  27   1.092
  51 str  46  27   1.092
  52 str  47  27   1.092
  53 str  48  28   1.092
  54 str  49  28   1.093
  55 str  50  28   1.092
 nber stretches=          55
  56 ben   1   2   3
  57 prop tor   1   2   3  32
  58 prop tor   1   2   3  33
  59 prop tor   1   2   3  34
  60 ben   1   2   4
  61 prop tor   1   2   4   5
  62 prop tor   1   2   4   8
  63 ben   1   2  14
  64 prop tor   1   2  14   9
  65 prop tor   1   2  14  13
  66 ben   2   1  29
  67 ben   2   1  30
  68 ben   2   1  31
  69 ben   2   3  32
  70 ben   2   3  33
  71 ben   2   3  34
  72 ben   2   4   5
  73 prop tor   2   4   5   6
  74 prop tor   2   4   5  35
  75 ben   2   4   8
  76 prop tor   2   4   8   7
  77 prop tor   2   4   8   9
  78 ben   2  14   9
  79 ben   2  14  13
  80 ben   3   2   4
  81 prop tor   3   2   4   5
  82 prop tor   3   2   4   8
  83 ben   3   2  14
  84 prop tor   3   2  14   9
  85 prop tor   3   2  14  13
  86 prop tor   4   2   3  32
  87 prop tor   4   2   3  33
  88 prop tor   4   2   3  34
  89 ben   4   2  14
  90 prop tor   4   2  14   9
  91 prop tor   4   2  14  13
  92 ben   4   5   6
  93 prop tor   4   5   6   7
  94 prop tor   4   5   6  36
  95 ben   4   5  35
  96 ben   4   8   7
  97 ben   4   8   9
  98 prop tor   4   8   9  10
  99 prop tor   4   8   9  14
 100 ben   5   4   8
 101 prop tor   5   4   8   7
 102 prop tor   5   4   8   9
 103 ben   5   6   7
 104 prop tor   5   6   7   8
 105 ben   5   6  36
 106 ben   6   5  35
 107 ben   6   7   8
 108 prop tor   6   7   8   4
 109 prop tor   6   7   8   9
 110 ben   7   6  36
 111 ben   7   8   9
 112 prop tor   7   8   9  10
 113 prop tor   7   8   9  14
 114 prop tor   8   4   5   6
 115 prop tor   8   4   5  35
 116 ben   8   9  10
 117 prop tor   8   9  10  11
 118 prop tor   8   9  10  37
 119 ben   8   9  14
 120 prop tor   8   9  14   2
 121 prop tor   8   9  14  13
 122 ben   9  10  11
 123 prop tor   9  10  11  12
 124 prop tor   9  10  11  26
 125 ben   9  10  37
 126 ben   9  14  13
 127 ben  10   9  14
 128 prop tor  10   9  14   2
 129 prop tor  10   9  14  13
 130 ben  10  11  12
 131 prop tor  10  11  12  13
 132 prop tor  10  11  12  15
 133 ben  10  11  26
 134 prop tor  10  11  26  25
 135 prop tor  10  11  26  27
 136 prop tor  10  11  26  28
 137 ben  11  10  37
 138 ben  11  12  13
 139 prop tor  11  12  13  14
 140 prop tor  11  12  13  38
 141 ben  11  12  15
 142 prop tor  11  12  15  16
 143 prop tor  11  12  15  25
 144 ben  11  26  25
 145 ben  11  26  27
 146 prop tor  11  26  27  45
 147 prop tor  11  26  27  46
 148 prop tor  11  26  27  47
 149 ben  11  26  28
 150 prop tor  11  26  28  48
 151 prop tor  11  26  28  49
 152 prop tor  11  26  28  50
 153 ben  12  11  26
 154 prop tor  12  11  26  25
 155 prop tor  12  11  26  27
 156 prop tor  12  11  26  28
 157 ben  12  13  14
 158 prop tor  12  13  14   2
 159 prop tor  12  13  14   9
 160 ben  12  13  38
 161 ben  12  15  16
 162 prop tor  12  15  16  17
 163 ben  12  15  25
 164 prop tor  12  15  25  24
 165 prop tor  12  15  25  26
 166 ben  13  12  15
 167 prop tor  13  12  15  16
 168 prop tor  13  12  15  25
 169 prop tor  14   2   3  32
 170 prop tor  14   2   3  33
 171 prop tor  14   2   3  34
 172 prop tor  14   2   4   5
 173 prop tor  14   2   4   8
 174 prop tor  14   9  10  11
 175 prop tor  14   9  10  37
 176 ben  14  13  38
 177 prop tor  15  12  13  14
 178 prop tor  15  12  13  38
 179 ben  15  16  17
 180 prop tor  15  16  17  18
 181 prop tor  15  16  17  24
 182 ben  15  25  24
 183 ben  15  25  26
 184 prop tor  15  25  26  11
 185 prop tor  15  25  26  27
 186 prop tor  15  25  26  28
 187 ben  16  15  25
 188 prop tor  16  15  25  24
 189 prop tor  16  15  25  26
 190 ben  16  17  18
 191 prop tor  16  17  18  19
 192 prop tor  16  17  18  23
 193 ben  16  17  24
 194 prop tor  16  17  24  25
 195 prop tor  16  17  24  44
 196 ben  17  18  19
 197 prop tor  17  18  19  20
 198 prop tor  17  18  19  39
 199 ben  17  18  23
 200 prop tor  17  18  23  22
 201 prop tor  17  18  23  43
 202 ben  17  24  25
 203 prop tor  17  24  25  15
 204 prop tor  17  24  25  26
 205 ben  17  24  44
 206 ben  18  17  24
 207 prop tor  18  17  24  25
 208 prop tor  18  17  24  44
 209 ben  18  19  20
 210 prop tor  18  19  20  21
 211 prop tor  18  19  20  40
 212 ben  18  19  39
 213 ben  18  23  22
 214 ben  18  23  43
 215 ben  19  18  23
 216 prop tor  19  18  23  22
 217 prop tor  19  18  23  43
 218 ben  19  20  21
 219 prop tor  19  20  21  22
 220 prop tor  19  20  21  41
 221 ben  19  20  40
 222 ben  20  19  39
 223 ben  20  21  22
 224 prop tor  20  21  22  23
 225 prop tor  20  21  22  42
 226 ben  20  21  41
 227 ben  21  20  40
 228 ben  21  22  23
 229 prop tor  21  22  23  18
 230 prop tor  21  22  23  43
 231 ben  21  22  42
 232 ben  22  21  41
 233 ben  22  23  43
 234 prop tor  23  18  19  20
 235 prop tor  23  18  19  39
 236 ben  23  22  42
 237 prop tor  24  17  18  19
 238 prop tor  24  17  18  23
 239 ben  24  25  26
 240 prop tor  24  25  26  11
 241 prop tor  24  25  26  27
 242 prop tor  24  25  26  28
 243 prop tor  25  15  16  17
 244 ben  25  24  44
 245 ben  25  26  27
 246 prop tor  25  26  27  45
 247 prop tor  25  26  27  46
 248 prop tor  25  26  27  47
 249 ben  25  26  28
 250 prop tor  25  26  28  48
 251 prop tor  25  26  28  49
 252 prop tor  25  26  28  50
 253 prop tor  26  11  12  13
 254 prop tor  26  11  12  15
 255 ben  26  27  45
 256 ben  26  27  46
 257 ben  26  27  47
 258 ben  26  28  48
 259 ben  26  28  49
 260 ben  26  28  50
 261 ben  27  26  28
 262 prop tor  27  26  28  48
 263 prop tor  27  26  28  49
 264 prop tor  27  26  28  50
 265 prop tor  28  26  27  45
 266 prop tor  28  26  27  46
 267 prop tor  28  26  27  47
 268 prop tor  29   1   2   3
 269 prop tor  29   1   2   4
 270 prop tor  29   1   2  14
 271 ben  29   1  30
 272 ben  29   1  31
 273 prop tor  30   1   2   3
 274 prop tor  30   1   2   4
 275 prop tor  30   1   2  14
 276 ben  30   1  31
 277 prop tor  31   1   2   3
 278 prop tor  31   1   2   4
 279 prop tor  31   1   2  14
 280 ben  32   3  33
 281 ben  32   3  34
 282 ben  33   3  34
 283 prop tor  35   5   6   7
 284 prop tor  35   5   6  36
 285 prop tor  36   6   7   8
 286 prop tor  37  10  11  12
 287 prop tor  37  10  11  26
 288 prop tor  38  13  14   2
 289 prop tor  38  13  14   9
 290 prop tor  39  19  20  21
 291 prop tor  39  19  20  40
 292 prop tor  40  20  21  22
 293 prop tor  40  20  21  41
 294 prop tor  41  21  22  23
 295 prop tor  41  21  22  42
 296 prop tor  42  22  23  18
 297 prop tor  42  22  23  43
 298 prop tor  44  24  25  15
 299 prop tor  44  24  25  26
 300 ben  45  27  46
 301 ben  45  27  47
 302 ben  46  27  47
 303 ben  48  28  49
 304 ben  48  28  50
 305 ben  49  28  50
 nber bend=              98
 nber lin bend=           0
 nber prop tor=         152
 nber impr tor=           0
 nber tot redund int=         305
 Eigenvalues of G in red int coords
    Gval -0.00000000 -0.00000000 -0.00000000 -0.00000000 -0.00000000 -0.00000000 -0.00000000 -0.00000000
    Gval -0.00000000 -0.00000000 -0.00000000 -0.00000000 -0.00000000 -0.00000000 -0.00000000 -0.00000000
    Gval -0.00000000 -0.00000000 -0.00000000 -0.00000000 -0.00000000 -0.00000000 -0.00000000 -0.00000000
    Gval -0.00000000 -0.00000000 -0.00000000 -0.00000000 -0.00000000 -0.00000000 -0.00000000 -0.00000000
    Gval -0.00000000 -0.00000000 -0.00000000 -0.00000000 -0.00000000 -0.00000000 -0.00000000 -0.00000000
    Gval -0.00000000 -0.00000000 -0.00000000 -0.00000000 -0.00000000 -0.00000000 -0.00000000 -0.00000000
    Gval -0.00000000 -0.00000000 -0.00000000 -0.00000000 -0.00000000 -0.00000000 -0.00000000 -0.00000000
    Gval -0.00000000 -0.00000000 -0.00000000 -0.00000000 -0.00000000 -0.00000000 -0.00000000 -0.00000000
    Gval -0.00000000 -0.00000000 -0.00000000 -0.00000000 -0.00000000 -0.00000000 -0.00000000 -0.00000000
    Gval -0.00000000 -0.00000000 -0.00000000 -0.00000000 -0.00000000 -0.00000000 -0.00000000 -0.00000000
    Gval  0.00000000  0.00000000  0.00000000  0.00000000  0.00000000  0.00000000  0.00000000  0.00000000
    Gval  0.00000000  0.00000000  0.00000000  0.00000000  0.00000000  0.00000000  0.00000000  0.00000000
    Gval  0.00000000  0.00000000  0.00000000  0.00000000  0.00000000  0.00000000  0.00000000  0.00000000
    Gval  0.00000000  0.00000000  0.00000000  0.00000000  0.00000000  0.00000000  0.00000000  0.00000000
    Gval  0.00000000  0.00000000  0.00000000  0.00000000  0.00000000  0.00000000  0.00000000  0.00000000
    Gval  0.00000000  0.00000000  0.00000000  0.00000000  0.00000000  0.00000000  0.00000000  0.00000000
    Gval  0.00000000  0.00000000  0.00000000  0.00000000  0.00000000  0.00000000  0.00000000  0.00000000
    Gval  0.00000000  0.00000000  0.00000000  0.00000000  0.00000000  0.00000000  0.00000000  0.00000000
    Gval  0.00000000  0.00000000  0.00000000  0.00000000  0.00000000  0.00000000  0.00000000  0.00000000
    Gval  0.00000000  0.00000000  0.00000000  0.00000000  0.00000000  0.00000000  0.00000000  0.00000000
    Gval  0.00000000  0.00000068  0.00000245  0.00000263  0.00000334  0.00000632  0.00000930  0.00001012
    Gval  0.00001368  0.00001471  0.00001716  0.00002068  0.00002281  0.00002453  0.00002973  0.00003120
    Gval  0.00003635  0.00003792  0.00003868  0.00004095  0.00004252  0.00004377  0.00004673  0.00004776
    Gval  0.00004905  0.00005218  0.00005388  0.00005805  0.00006144  0.00006442  0.00007135  0.00007223
    Gval  0.00007735  0.00007940  0.00009052  0.00009487  0.00010459  0.00010691  0.00011315  0.00012082
    Gval  0.00013209  0.00013408  0.00014406  0.00014808  0.00016804  0.00017457  0.00017844  0.00018122
    Gval  0.00021655  0.00023307  0.00025019  0.00026238  0.00027841  0.00030331  0.00030897  0.00032296
    Gval  0.00035969  0.00036705  0.00040077  0.00041431  0.00042513  0.00043006  0.00044902  0.00046097
    Gval  0.00046311  0.00050638  0.00051022  0.00052186  0.00053162  0.00053338  0.00053582  0.00053591
    Gval  0.00055617  0.00055619  0.00055621  0.00055621  0.00057838  0.00057840  0.00058563  0.00059239
    Gval  0.00059305  0.00059443  0.00059486  0.00059671  0.00059900  0.00060420  0.00061918  0.00062263
    Gval  0.00062568  0.00063246  0.00063656  0.00063847  0.00066062  0.00067685  0.00067730  0.00076183
    Gval  0.00084652  0.00098647  0.00099096  0.00104024  0.00106447  0.00108042  0.00109700  0.00110178
    Gval  0.00110867  0.00111036  0.00113590  0.00113656  0.00113916  0.00115002  0.00116035  0.00117247
    Gval  0.00117352  0.00118117  0.00118138  0.00118143  0.00118222  0.00118481  0.00145062  0.00158668
    Gval  0.00161098  0.00167331  0.00167368  0.00171175  0.00184231  0.00195605  0.00203678  0.00215300
    Gval  0.00232797  0.00235044  0.00302714  0.00303080  0.00303984  0.00304004  0.00304681  0.00304684
    Gval  0.00310053  0.00310126  0.00311626  0.00342097  0.00342725  0.00368767  0.00374161  0.00403449
    Gval  0.00406670
  6.799499714984804E-007  6.799499714984804E-007
  2.452501271845307E-006  6.799499714984804E-007
  2.628559293326979E-006  6.799499714984804E-007
  3.338295952243700E-006  6.799499714984804E-007
  6.318306310758530E-006  6.799499714984804E-007
  9.298300957328779E-006  6.799499714984804E-007
  1.012153336345423E-005  6.799499714984804E-007
  1.367845112640581E-005  6.799499714984804E-007
  1.471464107238155E-005  6.799499714984804E-007
  1.715545485971067E-005  6.799499714984804E-007
  2.067904735991800E-005  6.799499714984804E-007
  2.280644305882677E-005  6.799499714984804E-007
  2.453107061398685E-005  6.799499714984804E-007
  2.973210810183414E-005  6.799499714984804E-007
  3.120014021045060E-005  6.799499714984804E-007
  3.635476169547091E-005  6.799499714984804E-007
  3.792022638096876E-005  6.799499714984804E-007
  3.867862131558303E-005  6.799499714984804E-007
  4.095010406756325E-005  6.799499714984804E-007
  4.252448177530248E-005  6.799499714984804E-007
  4.377364575981708E-005  6.799499714984804E-007
  4.672996295614209E-005  6.799499714984804E-007
  4.775880372850902E-005  6.799499714984804E-007
  4.905135675046863E-005  6.799499714984804E-007
  5.218423474799021E-005  6.799499714984804E-007
  5.387896363375268E-005  6.799499714984804E-007
  5.804691877916511E-005  6.799499714984804E-007
  6.143781197669199E-005  6.799499714984804E-007
  6.442398591869761E-005  6.799499714984804E-007
  7.135342453635017E-005  6.799499714984804E-007
  7.222763730401888E-005  6.799499714984804E-007
  7.735442669852343E-005  6.799499714984804E-007
  7.939772724361587E-005  6.799499714984804E-007
  9.051722375652335E-005  6.799499714984804E-007
  9.487270420600922E-005  6.799499714984804E-007
  1.045926956427826E-004  6.799499714984804E-007
  1.069055759927841E-004  6.799499714984804E-007
  1.131515372596390E-004  6.799499714984804E-007
  1.208228785149356E-004  6.799499714984804E-007
  1.320927149108495E-004  6.799499714984804E-007
  1.340765109653353E-004  6.799499714984804E-007
  1.440550176166116E-004  6.799499714984804E-007
  1.480803575965718E-004  6.799499714984804E-007
  1.680364225021752E-004  6.799499714984804E-007
  1.745710089035626E-004  6.799499714984804E-007
  1.784359701011498E-004  6.799499714984804E-007
  1.812197782186832E-004  6.799499714984804E-007
  2.165488364014500E-004  6.799499714984804E-007
  2.330703281352282E-004  6.799499714984804E-007
  2.501946524995281E-004  6.799499714984804E-007
  2.623783236959710E-004  6.799499714984804E-007
  2.784144959289712E-004  6.799499714984804E-007
  3.033068074941671E-004  6.799499714984804E-007
  3.089726924535861E-004  6.799499714984804E-007
  3.229584027983631E-004  6.799499714984804E-007
  3.596942254203205E-004  6.799499714984804E-007
  3.670455959681451E-004  6.799499714984804E-007
  4.007695685228969E-004  6.799499714984804E-007
  4.143101228494939E-004  6.799499714984804E-007
  4.251332311062355E-004  6.799499714984804E-007
  4.300584465826017E-004  6.799499714984804E-007
  4.490168134864650E-004  6.799499714984804E-007
  4.609695645084498E-004  6.799499714984804E-007
  4.631111021259613E-004  6.799499714984804E-007
  5.063844794862389E-004  6.799499714984804E-007
  5.102238818399483E-004  6.799499714984804E-007
  5.218565342155982E-004  6.799499714984804E-007
  5.316230776047375E-004  6.799499714984804E-007
  5.333781571744525E-004  6.799499714984804E-007
  5.358175924553989E-004  6.799499714984804E-007
  5.359055678380137E-004  6.799499714984804E-007
  5.561699614672436E-004  6.799499714984804E-007
  5.561908381671077E-004  6.799499714984804E-007
  5.562087450898588E-004  6.799499714984804E-007
  5.562094275023545E-004  6.799499714984804E-007
  5.783759423689849E-004  6.799499714984804E-007
  5.784045093500670E-004  6.799499714984804E-007
  5.856310419679027E-004  6.799499714984804E-007
  5.923923822603110E-004  6.799499714984804E-007
  5.930496214109383E-004  6.799499714984804E-007
  5.944300826556128E-004  6.799499714984804E-007
  5.948615659683620E-004  6.799499714984804E-007
  5.967080700947474E-004  6.799499714984804E-007
  5.989957743819837E-004  6.799499714984804E-007
  6.042009473517670E-004  6.799499714984804E-007
  6.191775260591327E-004  6.799499714984804E-007
  6.226329492802540E-004  6.799499714984804E-007
  6.256834270859442E-004  6.799499714984804E-007
  6.324595594035465E-004  6.799499714984804E-007
  6.365557226177220E-004  6.799499714984804E-007
  6.384701365180451E-004  6.799499714984804E-007
  6.606163472550925E-004  6.799499714984804E-007
  6.768468000205586E-004  6.799499714984804E-007
  6.773024983548809E-004  6.799499714984804E-007
  7.618323857020189E-004  6.799499714984804E-007
  8.465151176456435E-004  6.799499714984804E-007
  9.864723169002423E-004  6.799499714984804E-007
  9.909584705507406E-004  6.799499714984804E-007
  1.040236014799755E-003  6.799499714984804E-007
  1.064469268318450E-003  6.799499714984804E-007
  1.080416294869518E-003  6.799499714984804E-007
  1.096999627689412E-003  6.799499714984804E-007
  1.101784347629709E-003  6.799499714984804E-007
  1.108670918547473E-003  6.799499714984804E-007
  1.110359100736087E-003  6.799499714984804E-007
  1.135898707984143E-003  6.799499714984804E-007
  1.136555095604775E-003  6.799499714984804E-007
  1.139159286061320E-003  6.799499714984804E-007
  1.150021351560288E-003  6.799499714984804E-007
  1.160345671406421E-003  6.799499714984804E-007
  1.172468987580790E-003  6.799499714984804E-007
  1.173523062874210E-003  6.799499714984804E-007
  1.181166761513677E-003  6.799499714984804E-007
  1.181378467235263E-003  6.799499714984804E-007
  1.181427124652351E-003  6.799499714984804E-007
  1.182217687007912E-003  6.799499714984804E-007
  1.184807219843685E-003  6.799499714984804E-007
  1.450615495887609E-003  6.799499714984804E-007
  1.586676481138542E-003  6.799499714984804E-007
  1.610980110831331E-003  6.799499714984804E-007
  1.673311378893488E-003  6.799499714984804E-007
  1.673682266840087E-003  6.799499714984804E-007
  1.711746493327874E-003  6.799499714984804E-007
  1.842309819963152E-003  6.799499714984804E-007
  1.956051947093688E-003  6.799499714984804E-007
  2.036776072605539E-003  6.799499714984804E-007
  2.153004980996429E-003  6.799499714984804E-007
  2.327968346865714E-003  6.799499714984804E-007
  2.350435828011744E-003  6.799499714984804E-007
  3.027139492088526E-003  6.799499714984804E-007
  3.030798405851048E-003  6.799499714984804E-007
  3.039837246218328E-003  6.799499714984804E-007
  3.040043729400730E-003  6.799499714984804E-007
  3.046806091141628E-003  6.799499714984804E-007
  3.046837828422398E-003  6.799499714984804E-007
  3.100533546544421E-003  6.799499714984804E-007
  3.101264906908526E-003  6.799499714984804E-007
  3.116255965454905E-003  6.799499714984804E-007
  3.420966678087363E-003  6.799499714984804E-007
  3.427253930215539E-003  6.799499714984804E-007
  3.687674563893554E-003  6.799499714984804E-007
  3.741605230475754E-003  6.799499714984804E-007
  4.034493634352669E-003  6.799499714984804E-007
  4.066697238797099E-003  6.799499714984804E-007
 cut=1d-8, nber non-redundant internal coords=         144
 Check on Eigenvals of non-red overlap matrix:
  0.00000068  0.00000245  0.00000263  0.00000334  0.00000632  0.00000930  0.00001012  0.00001368
  0.00001471  0.00001716  0.00002068  0.00002281  0.00002453  0.00002973  0.00003120  0.00003635
  0.00003792  0.00003868  0.00004095  0.00004252  0.00004377  0.00004673  0.00004776  0.00004905
  0.00005218  0.00005388  0.00005805  0.00006144  0.00006442  0.00007135  0.00007223  0.00007735
  0.00007940  0.00009052  0.00009487  0.00010459  0.00010691  0.00011315  0.00012082  0.00013209
  0.00013408  0.00014406  0.00014808  0.00016804  0.00017457  0.00017844  0.00018122  0.00021655
  0.00023307  0.00025019  0.00026238  0.00027841  0.00030331  0.00030897  0.00032296  0.00035969
  0.00036705  0.00040077  0.00041431  0.00042513  0.00043006  0.00044902  0.00046097  0.00046311
  0.00050638  0.00051022  0.00052186  0.00053162  0.00053338  0.00053582  0.00053591  0.00055617
  0.00055619  0.00055621  0.00055621  0.00057838  0.00057840  0.00058563  0.00059239  0.00059305
  0.00059443  0.00059486  0.00059671  0.00059900  0.00060420  0.00061918  0.00062263  0.00062568
  0.00063246  0.00063656  0.00063847  0.00066062  0.00067685  0.00067730  0.00076183  0.00084652
  0.00098647  0.00099096  0.00104024  0.00106447  0.00108042  0.00109700  0.00110178  0.00110867
  0.00111036  0.00113590  0.00113656  0.00113916  0.00115002  0.00116035  0.00117247  0.00117352
  0.00118117  0.00118138  0.00118143  0.00118222  0.00118481  0.00145062  0.00158668  0.00161098
  0.00167331  0.00167368  0.00171175  0.00184231  0.00195605  0.00203678  0.00215300  0.00232797
  0.00235044  0.00302714  0.00303080  0.00303984  0.00304004  0.00304681  0.00304684  0.00310053
  0.00310126  0.00311626  0.00342097  0.00342725  0.00368767  0.00374161  0.00403449  0.00406670
 Checking for correct frequencies
 recalc frequencies=
    -0.0   -0.0   -0.0    0.0    0.0    0.0   21.2   23.4   45.4   58.4
    66.5   87.7  105.2  125.0  134.7  149.7  158.4  163.2  206.9  217.0
   223.8  241.4  244.1  249.2  251.8  272.9  282.8  298.8  316.2  320.2
[...]
 nber times 1st assigned=          47           0
 nber times 1st assigned=          48           0
 nber times 1st assigned=          49           0
 nber times 1st assigned=          50           0
 nber times 1st assigned=          51           0
 nber times 1st assigned=          52           0
 nber times 1st assigned=          53           0
 nber times 1st assigned=          54           0
 nber times 1st assigned=          55           0
 nber times 1st assigned=          56           0
 nber times 1st assigned=          57           0
 nber times 1st assigned=          58           0
 nber times 1st assigned=          59           0
 nber times 1st assigned=          60           0
 nber times 1st assigned=          61           0
 nber times 1st assigned=          62           0
 nber times 1st assigned=          63           0
 nber times 1st assigned=          64           0
 nber times 1st assigned=          65           0
 nber times 1st assigned=          66           0
 nber times 1st assigned=          67           0
 nber times 1st assigned=          68           0
 nber times 1st assigned=          69           0
 nber times 1st assigned=          70           0
 nber times 1st assigned=          71           0
 nber times 1st assigned=          72           0
 nber times 1st assigned=          73           0
 nber times 1st assigned=          74           0
 nber times 1st assigned=          75           0
 nber times 1st assigned=          76           0
 nber times 1st assigned=          77           0
 nber times 1st assigned=          78           0
 nber times 1st assigned=          79           0
 nber times 1st assigned=          80           0
 nber times 1st assigned=          81           0
 nber times 1st assigned=          82           0
 nber times 1st assigned=          83           0
 nber times 1st assigned=          84           0
 nber times 1st assigned=          85           0
 nber times 1st assigned=          86           0
 nber times 1st assigned=          87           0
 nber times 1st assigned=          88           0
 nber times 1st assigned=          89           0
 nber times 1st assigned=          90           0
 nber times 1st assigned=          91           0
 nber times 1st assigned=          92           0
 nber times 1st assigned=          93           0
 nber times 1st assigned=          94           0
 nber times 1st assigned=          95           0
 nber times 1st assigned=          96           0
 nber times 1st assigned=          97           0
 nber times 1st assigned=          98           0
 nber times 1st assigned=          99           0
 nber times 1st assigned=         100           0
 nber times 1st assigned=         101           0
 nber times 1st assigned=         102           0
 nber times 1st assigned=         103           0
 nber times 1st assigned=         104           0
 nber times 1st assigned=         105           0
 nber times 1st assigned=         106           0
 nber times 1st assigned=         107           0
 nber times 1st assigned=         108           0
 nber times 1st assigned=         109           0
 nber times 1st assigned=         110           0
 nber times 1st assigned=         111           0
 nber times 1st assigned=         112           0
 nber times 1st assigned=         113           0
 nber times 1st assigned=         114           0
 nber times 1st assigned=         115           0
 nber times 1st assigned=         116           0
 nber times 1st assigned=         117           0
 nber times 1st assigned=         118           0
 nber times 1st assigned=         119           0
 nber times 1st assigned=         120           0
 nber times 1st assigned=         121           0
 nber times 1st assigned=         122           0
 nber times 1st assigned=         123           0
 nber times 1st assigned=         124           0
 nber times 1st assigned=         125           0
 nber times 1st assigned=         126           0
 nber times 1st assigned=         127           0
 nber times 1st assigned=         128           0
 nber times 1st assigned=         129           0
 nber times 1st assigned=         130           0
 nber times 1st assigned=         131           0
 nber times 1st assigned=         132           0
 nber times 1st assigned=         133           0
 nber times 1st assigned=         134           0
 nber times 1st assigned=         135           0
 nber times 1st assigned=         136           0
 nber times 1st assigned=         137           0
 nber times 1st assigned=         138           0
 nber times 1st assigned=         139           0
 nber times 1st assigned=         140           0
 nber times 1st assigned=         141           0
 nber times 1st assigned=         142           0
 nber times 1st assigned=         143           0
 nber times 1st assigned=         144           0
 nber times 1st assigned=         145           0
 nber times 1st assigned=         146           0
 nber times 1st assigned=         147           0
 nber times 1st assigned=         148           0
 nber times 1st assigned=         149           0
 nber times 1st assigned=         150           0
 modes represented=   146.719831426204     
 p1=
   -0.   -0.   -0.    0.   -0.    0.    1.   98.   12.    1.    1.    5.    3.   -3.    3.    0.   -1.  -11.   -1.    2.
    1.   -0.    0.    0.   -5.    0.   -1.   -1.   -2.    0.   -1.    0.   -0.   -0.    3.    0.   -0.    0.   -0.   -0.
    0.   -2.    0.   -1.    2.    2.    0.   -1.    0.   -0.   -0.   -1.   -0.   -0.   -2.    0.    0.    0.   -0.   -1.
   -1.   -0.   -1.   -0.    0.    0.   -0.    0.    1.   -1.   -0.   -0.    0.   -0.   -0.   -0.   -1.   -1.   -0.   -0.
    0.   -1.    0.    0.   -0.   -0.    0.   -0.    0.    0.   -0.    0.   -0.    0.    0.    0.    0.    0.   -0.   -0.
   -1.    0.    0.   -1.   -0.    0.    0.   -0.    1.   -0.   -0.   -0.   -0.   -0.   -0.    0.    0.    0.   -0.   -1.
    0.    1.    1.    1.    1.   -0.    0.   -1.    0.    0.   -0.   -0.    0.    0.    0.   -0.    0.   -0.    0.    0.
    0.   -0.    0.    0.    0.   -0.    0.    0.    0.    0.
 p2=
    0.   -0.   -0.    0.    0.   -0.  -25.  -95.   -9.   -4.   -1.    4.    3.   -2.    3.   -0.   -6.    7.   -2.    1.
    0.   -0.    0.   -2.    4.   -0.    1.    0.   -2.   -1.   -0.   -0.   -1.   -2.    2.    1.   -0.   -1.    0.    0.
    0.    2.   -0.    0.    1.    1.   -1.   -1.   -1.   -0.    0.    1.   -0.   -2.   -0.   -0.    0.   -0.   -0.   -1.
    1.   -0.    0.   -0.   -1.    0.    0.   -0.   -0.   -1.   -0.    0.    0.   -0.    0.    0.   -1.   -0.    0.   -0.
    0.    1.    0.    0.    0.    0.   -0.   -0.   -0.    0.   -0.    0.    0.   -0.   -0.   -0.    0.   -0.   -0.   -0.
   -0.    0.    0.   -1.   -0.    0.   -0.    0.   -0.    0.    0.    0.   -0.    0.   -0.   -0.   -1.    0.    0.    0.
   -1.   -1.   -1.   -0.   -0.   -0.   -0.   -1.   -0.   -0.   -0.   -0.    0.   -0.    0.   -0.    0.   -0.   -0.   -0.
    0.    0.    0.    0.    0.    0.    0.    0.   -0.   -0.

 Displacement: in terms of nc of 1 THEN of nc of 2

   1     freq=    -0. Q= -0.000 lam=    -0.0     freq=    -0. Q= -0.000 lam=    -0.0
   2     freq=    -0. Q= -0.000 lam=    -0.0     freq=    -0. Q= -0.000 lam=    -0.0
   3     freq=     0. Q= -0.000 lam=     0.0     freq=    -0. Q= -0.000 lam=    -0.0
   4     freq=     0. Q=  0.000 lam=     0.0     freq=     0. Q=  0.000 lam=     0.0
   5     freq=     0. Q= -0.000 lam=     0.0     freq=     0. Q= -0.000 lam=     0.0
   6     freq=     0. Q=  0.000 lam=     0.0     freq=     0. Q=  0.000 lam=     0.0
   7     freq=    19. Q=  0.015 lam=     0.0     freq=    21. Q=  0.459 lam=     2.2
   8     freq=    27. Q=  2.032 lam=    54.9     freq=    23. Q=  1.854 lam=    40.2
   9     freq=    42. Q=  0.305 lam=     2.0     freq=    45. Q=  0.250 lam=     1.4
  10     freq=    58. Q=  0.024 lam=     0.0     freq=    58. Q=  0.114 lam=     0.4
  11     freq=    64. Q=  0.035 lam=     0.0     freq=    66. Q=  0.032 lam=     0.0
  12     freq=    80. Q=  0.178 lam=     1.3     freq=    88. Q=  0.163 lam=     1.2
  13     freq=   102. Q=  0.105 lam=     0.6     freq=   105. Q=  0.136 lam=     1.0
  14     freq=   125. Q= -0.117 lam=     0.9     freq=   125. Q= -0.107 lam=     0.7
  15     freq=   127. Q=  0.133 lam=     1.1     freq=   135. Q=  0.126 lam=     1.1
  16     freq=   144. Q=  0.005 lam=     0.0     freq=   150. Q=  0.007 lam=     0.0
  17     freq=   155. Q= -0.030 lam=     0.1     freq=   158. Q= -0.324 lam=     8.3
  18     freq=   160. Q= -0.574 lam=    26.3     freq=   163. Q= -0.376 lam=    11.6
  19     freq=   202. Q= -0.043 lam=     0.2     freq=   207. Q= -0.107 lam=     1.2
  20     freq=   206. Q=  0.121 lam=     1.5     freq=   217. Q=  0.043 lam=     0.2
  21     freq=   221. Q=  0.086 lam=     0.8     freq=   224. Q=  0.019 lam=     0.0
  22     freq=   234. Q= -0.015 lam=     0.0     freq=   241. Q= -0.028 lam=     0.1
  23     freq=   240. Q=  0.004 lam=     0.0     freq=   244. Q=  0.002 lam=     0.0
  24     freq=   243. Q=  0.002 lam=     0.0     freq=   249. Q=  0.115 lam=     1.6
  25     freq=   250. Q= -0.307 lam=    11.8     freq=   252. Q= -0.241 lam=     7.3
  26     freq=   272. Q=  0.009 lam=     0.0     freq=   273. Q=  0.013 lam=     0.0
  27     freq=   284. Q= -0.083 lam=     1.0     freq=   283. Q= -0.069 lam=     0.7
  28     freq=   293. Q= -0.037 lam=     0.2     freq=   299. Q= -0.024 lam=     0.1
  29     freq=   314. Q= -0.161 lam=     4.1     freq=   316. Q= -0.142 lam=     3.2
  30     freq=   318. Q=  0.004 lam=     0.0     freq=   320. Q=  0.087 lam=     1.2
  31     freq=   351. Q= -0.091 lam=     1.4     freq=   353. Q= -0.030 lam=     0.2
  32     freq=   360. Q=  0.010 lam=     0.0     freq=   378. Q=  0.011 lam=     0.0
  33     freq=   404. Q= -0.014 lam=     0.0     freq=   401. Q= -0.043 lam=     0.4
  34     freq=   408. Q= -0.009 lam=     0.0     freq=   417. Q= -0.132 lam=     3.6
  35     freq=   419. Q=  0.220 lam=    10.1     freq=   420. Q=  0.157 lam=     5.2
  36     freq=   423. Q=  0.024 lam=     0.1     freq=   432. Q=  0.083 lam=     1.5
  37     freq=   427. Q= -0.027 lam=     0.2     freq=   449. Q= -0.025 lam=     0.1
  38     freq=   437. Q=  0.014 lam=     0.0     freq=   456. Q=  0.087 lam=     1.7
  39     freq=   469. Q= -0.017 lam=     0.1     freq=   484. Q= -0.025 lam=     0.2
  40     freq=   491. Q= -0.019 lam=     0.1     freq=   498. Q= -0.009 lam=     0.0
  41     freq=   498. Q=  0.006 lam=     0.0     freq=   516. Q=  0.009 lam=     0.0
  42     freq=   539. Q= -0.222 lam=    13.3     freq=   550. Q= -0.183 lam=     9.2
  43     freq=   545. Q=  0.016 lam=     0.1     freq=   572. Q=  0.044 lam=     0.5
  44     freq=   565. Q= -0.059 lam=     1.0     freq=   582. Q= -0.039 lam=     0.5
  45     freq=   591. Q=  0.173 lam=     8.8     freq=   596. Q=  0.138 lam=     5.7
  46     freq=   615. Q=  0.172 lam=     9.1     freq=   626. Q=  0.137 lam=     5.9
  47     freq=   628. Q=  0.010 lam=     0.0     freq=   630. Q=  0.124 lam=     4.9
  48     freq=   647. Q= -0.082 lam=     2.2     freq=   654. Q= -0.072 lam=     1.7
  49     freq=   649. Q=  0.003 lam=     0.0     freq=   665. Q=  0.119 lam=     4.7
  50     freq=   654. Q= -0.044 lam=     0.6     freq=   685. Q= -0.008 lam=     0.0
  51     freq=   662. Q= -0.043 lam=     0.6     freq=   691. Q= -0.038 lam=     0.5
  52     freq=   674. Q= -0.087 lam=     2.5     freq=   693. Q= -0.114 lam=     4.5
  53     freq=   677. Q= -0.006 lam=     0.0     freq=   700. Q= -0.000 lam=     0.0
  54     freq=   696. Q= -0.013 lam=     0.1     freq=   724. Q= -0.231 lam=    19.3
  55     freq=   716. Q= -0.219 lam=    17.2     freq=   727. Q= -0.006 lam=     0.0
  56     freq=   724. Q=  0.003 lam=     0.0     freq=   734. Q=  0.030 lam=     0.3
  57     freq=   727. Q=  0.000 lam=     0.0     freq=   761. Q=  0.002 lam=     0.0
  58     freq=   754. Q=  0.010 lam=     0.0     freq=   780. Q=  0.012 lam=     0.1
  59     freq=   767. Q= -0.003 lam=     0.0     freq=   785. Q= -0.002 lam=     0.0
  60     freq=   788. Q= -0.142 lam=     7.9     freq=   796. Q= -0.134 lam=     7.2
  61     freq=   798. Q= -0.064 lam=     1.6     freq=   834. Q= -0.118 lam=     5.8
  62     freq=   809. Q= -0.008 lam=     0.0     freq=   839. Q= -0.045 lam=     0.9
  63     freq=   824. Q= -0.102 lam=     4.3     freq=   867. Q= -0.024 lam=     0.2
  64     freq=   858. Q= -0.024 lam=     0.2     freq=   871. Q= -0.021 lam=     0.2
  65     freq=   863. Q=  0.002 lam=     0.0     freq=   901. Q=  0.123 lam=     6.8
  66     freq=   871. Q=  0.007 lam=     0.0     freq=   904. Q=  0.000 lam=     0.0
  67     freq=   877. Q= -0.000 lam=     0.0     freq=   906. Q= -0.001 lam=     0.0
  68     freq=   882. Q=  0.000 lam=     0.0     freq=   909. Q=  0.000 lam=     0.0
  69     freq=   896. Q=  0.126 lam=     7.1     freq=   939. Q=  0.030 lam=     0.4
  70     freq=   932. Q= -0.089 lam=     3.7     freq=   945. Q= -0.099 lam=     4.6
  71     freq=   945. Q= -0.001 lam=     0.0     freq=   953. Q= -0.000 lam=     0.0
  72     freq=   947. Q= -0.001 lam=     0.0     freq=   954. Q= -0.001 lam=     0.0
  73     freq=   960. Q=  0.016 lam=     0.1     freq=   982. Q=  0.040 lam=     0.8
  74     freq=   977. Q= -0.049 lam=     1.2     freq=   991. Q= -0.000 lam=     0.0
  75     freq=   979. Q= -0.000 lam=     0.0     freq=   997. Q= -0.035 lam=     0.6
  76     freq=   983. Q= -0.055 lam=     1.5     freq=  1003. Q= -0.056 lam=     1.6
  77     freq=   993. Q= -0.083 lam=     3.4     freq=  1012. Q= -0.129 lam=     8.5
  78     freq=  1002. Q= -0.107 lam=     5.7     freq=  1021. Q= -0.001 lam=     0.0
  79     freq=  1027. Q= -0.000 lam=     0.0     freq=  1032. Q= -0.000 lam=     0.0
  80     freq=  1029. Q= -0.000 lam=     0.0     freq=  1032. Q= -0.000 lam=     0.0
  81     freq=  1040. Q=  0.029 lam=     0.5     freq=  1049. Q=  0.045 lam=     1.1
  82     freq=  1062. Q= -0.069 lam=     2.6     freq=  1070. Q= -0.072 lam=     2.8
  83     freq=  1087. Q=  0.048 lam=     1.3     freq=  1097. Q=  0.046 lam=     1.1
  84     freq=  1100. Q=  0.003 lam=     0.0     freq=  1108. Q=  0.005 lam=     0.0
  85     freq=  1100. Q= -0.003 lam=     0.0     freq=  1112. Q= -0.002 lam=     0.0
  86     freq=  1154. Q= -0.002 lam=     0.0     freq=  1151. Q= -0.001 lam=     0.0
  87     freq=  1155. Q=  0.000 lam=     0.0     freq=  1152. Q=  0.000 lam=     0.0
  88     freq=  1158. Q= -0.061 lam=     2.1     freq=  1165. Q= -0.034 lam=     0.7
  89     freq=  1163. Q=  0.022 lam=     0.3     freq=  1169. Q=  0.042 lam=     1.0
  90     freq=  1178. Q=  0.053 lam=     1.7     freq=  1192. Q=  0.028 lam=     0.5
  91     freq=  1194. Q= -0.040 lam=     1.0     freq=  1208. Q= -0.054 lam=     1.8
  92     freq=  1210. Q=  0.058 lam=     2.0     freq=  1216. Q=  0.001 lam=     0.0
  93     freq=  1217. Q= -0.040 lam=     1.0     freq=  1228. Q= -0.029 lam=     0.5
  94     freq=  1228. Q=  0.023 lam=     0.3     freq=  1236. Q=  0.037 lam=     0.9
  95     freq=  1240. Q=  0.018 lam=     0.2     freq=  1243. Q=  0.008 lam=     0.0
  96     freq=  1252. Q=  0.052 lam=     1.7     freq=  1257. Q=  0.026 lam=     0.4
  97     freq=  1267. Q=  0.041 lam=     1.1     freq=  1278. Q=  0.008 lam=     0.0
  98     freq=  1278. Q=  0.050 lam=     1.6     freq=  1291. Q=  0.060 lam=     2.4
  99     freq=  1321. Q= -0.052 lam=     1.8     freq=  1330. Q= -0.055 lam=     2.0
 100     freq=  1339. Q= -0.062 lam=     2.6     freq=  1346. Q= -0.067 lam=     3.0
 101     freq=  1354. Q= -0.085 lam=     4.9     freq=  1365. Q= -0.008 lam=     0.0
 102     freq=  1363. Q=  0.013 lam=     0.1     freq=  1370. Q=  0.054 lam=     2.0
 103     freq=  1365. Q=  0.001 lam=     0.0     freq=  1375. Q=  0.016 lam=     0.2
 104     freq=  1388. Q= -0.138 lam=    13.2     freq=  1393. Q= -0.218 lam=    33.1
 105     freq=  1397. Q= -0.000 lam=     0.0     freq=  1404. Q= -0.001 lam=     0.0
 106     freq=  1397. Q=  0.000 lam=     0.0     freq=  1405. Q=  0.001 lam=     0.0
 107     freq=  1418. Q=  0.018 lam=     0.2     freq=  1426. Q=  0.013 lam=     0.1
 108     freq=  1418. Q= -0.017 lam=     0.2     freq=  1429. Q= -0.065 lam=     3.0
 109     freq=  1431. Q=  0.110 lam=     8.6     freq=  1451. Q=  0.058 lam=     2.5
 110     freq=  1452. Q= -0.068 lam=     3.4     freq=  1461. Q= -0.076 lam=     4.2
 111     freq=  1475. Q= -0.044 lam=     1.4     freq=  1483. Q= -0.024 lam=     0.4
 112     freq=  1484. Q= -0.000 lam=     0.0     freq=  1484. Q= -0.027 lam=     0.6
 113     freq=  1484. Q= -0.000 lam=     0.0     freq=  1484. Q= -0.002 lam=     0.0
 114     freq=  1484. Q= -0.005 lam=     0.0     freq=  1485. Q= -0.002 lam=     0.0
 115     freq=  1485. Q= -0.000 lam=     0.0     freq=  1489. Q= -0.001 lam=     0.0
 116     freq=  1487. Q=  0.000 lam=     0.0     freq=  1489. Q=  0.000 lam=     0.0
 117     freq=  1499. Q=  0.029 lam=     0.6     freq=  1495. Q=  0.126 lam=    11.9
 118     freq=  1500. Q=  0.019 lam=     0.3     freq=  1505. Q=  0.002 lam=     0.0
 119     freq=  1501. Q= -0.025 lam=     0.5     freq=  1506. Q= -0.004 lam=     0.0
 120     freq=  1503. Q= -0.093 lam=     6.4     freq=  1508. Q= -0.059 lam=     2.7
 121     freq=  1511. Q=  0.037 lam=     1.1     freq=  1515. Q=  0.141 lam=    15.1
 122     freq=  1518. Q=  0.121 lam=    11.1     freq=  1525. Q=  0.095 lam=     6.9
 123     freq=  1525. Q=  0.079 lam=     4.8     freq=  1527. Q=  0.096 lam=     7.0
 124     freq=  1530. Q=  0.154 lam=    18.2     freq=  1534. Q=  0.034 lam=     0.9
 125     freq=  1539. Q=  0.121 lam=    11.2     freq=  1550. Q=  0.060 lam=     2.8
 126     freq=  1569. Q= -0.015 lam=     0.2     freq=  1601. Q= -0.016 lam=     0.2
 127     freq=  1623. Q=  0.071 lam=     4.1     freq=  1627. Q=  0.069 lam=     3.9
 128     freq=  1651. Q= -0.232 lam=    44.3     freq=  1637. Q= -0.162 lam=    21.5
 129     freq=  3020. Q=  0.000 lam=     0.0     freq=  3035. Q=  0.000 lam=     0.0
 130     freq=  3022. Q=  0.000 lam=     0.0     freq=  3036. Q=  0.000 lam=     0.0
 131     freq=  3024. Q= -0.025 lam=     1.0     freq=  3038. Q= -0.019 lam=     0.5
 132     freq=  3026. Q= -0.024 lam=     0.9     freq=  3039. Q= -0.026 lam=     1.0
 133     freq=  3083. Q=  0.000 lam=     0.0     freq=  3102. Q=  0.000 lam=     0.0
 134     freq=  3084. Q=  0.000 lam=     0.0     freq=  3104. Q=  0.000 lam=     0.0
 135     freq=  3088. Q=  0.003 lam=     0.0     freq=  3107. Q=  0.001 lam=     0.0
 136     freq=  3090. Q= -0.001 lam=     0.0     freq=  3108. Q= -0.002 lam=     0.0
 137     freq=  3104. Q=  0.000 lam=     0.0     freq=  3112. Q=  0.000 lam=     0.0
 138     freq=  3104. Q= -0.000 lam=     0.0     freq=  3113. Q= -0.001 lam=     0.0
 139     freq=  3106. Q=  0.011 lam=     0.2     freq=  3114. Q=  0.013 lam=     0.3
 140     freq=  3106. Q=  0.016 lam=     0.4     freq=  3114. Q=  0.018 lam=     0.5
 141     freq=  3157. Q=  0.015 lam=     0.3     freq=  3175. Q=  0.008 lam=     0.1
 142     freq=  3162. Q= -0.003 lam=     0.0     freq=  3180. Q= -0.001 lam=     0.0
 143     freq=  3164. Q=  0.009 lam=     0.1     freq=  3181. Q=  0.010 lam=     0.2
 144     freq=  3168. Q=  0.003 lam=     0.0     freq=  3182. Q=  0.008 lam=     0.1
 145     freq=  3175. Q=  0.002 lam=     0.0     freq=  3191. Q=  0.006 lam=     0.0
 146     freq=  3184. Q= -0.004 lam=     0.0     freq=  3199. Q= -0.000 lam=     0.0
 147     freq=  3191. Q=  0.011 lam=     0.2     freq=  3205. Q=  0.018 lam=     0.5
 148     freq=  3197. Q=  0.012 lam=     0.2     freq=  3215. Q=  0.014 lam=     0.3
 149     freq=  3211. Q=  0.002 lam=     0.0     freq=  3223. Q=  0.005 lam=     0.0
 150     freq=  3242. Q=  0.010 lam=     0.2     freq=  3241. Q=  0.009 lam=     0.1

 total reorg energy (cm**-1, kcal/mol)=      371.      333.      1.06      0.95
 Nber of molecules processed=           2
