 Enter ifcurve (0=recti, 1=orth curvi, 2=apprx curvi, -1 = skip
 And atom ordering flag, 0= never changes, 1= use the first order thenceforth,
  2= deduce it (does read on fail), 3= always read it
 Reading file: 
 ./TT-PDI_4_C0S1.log                                                            
                                          
  Entering Gaussian System, Link 0=g16                                          
  
 Gaussian format, type: g94, g98, g03= F F F
  #P Geom=AllCheck Guess=TCheck SCRF=Check GenChk RB3LYP TD(FC,Read)/6-3    
 energy type= TD      
 Original G94 input coords:
  6  1.159990 -0.741090 -0.675053
  6  2.124386  0.101133  0.167593
  6  3.316280 -0.698525  0.705534
  7  2.561375  1.333400 -0.552856
  6  3.315992  1.205967 -1.729264
  8  3.618089  0.102391 -2.167648
  6  3.722612  2.449616 -2.403840
  6  4.473192  2.374924 -3.576950
  6  4.870950  3.524286 -4.234529
  6  4.538942  4.810133 -3.753169
  6  4.949184  6.021453 -4.432795
  6  5.711046  5.986232 -5.627037
  6  6.096730  7.137433 -6.266559
  6  5.746973  8.399147 -5.755521
  6  6.185139  9.573916 -6.478980
  8  6.838958  9.561364 -7.504339
  7  5.793241 10.853207 -5.903560
  6  6.134800 12.040497 -6.479911
  6  6.854557 12.310070 -7.622731
  6  7.052341 13.656648 -7.979368
  6  7.754748 14.067855 -9.100596
  6  7.975772 15.399264 -9.493749
  6  8.690153 15.805213-10.633605
  6  8.739369 17.191215-10.757788
 16  9.443916 18.303531-11.905795
  6  8.832444 19.650752-10.987025
  6  8.128157 19.291859 -9.864798
  6  8.073741 17.889579 -9.731947
 16  7.365443 16.798941 -8.578676
  6  4.997881 10.988351 -4.657297
  8  4.730006 12.108576 -4.269597
  6  4.619306  9.754095 -4.026189
  6  3.862425  9.815518 -2.840317
  6  3.471714  8.671951 -2.193926
  6  3.810435  7.385210 -2.687602
  6  3.400235  6.176326 -2.009398
  6  2.639407  6.197296 -0.818241
  6  2.253096  5.034410 -0.179149
  6  2.605604  3.786326 -0.694555
  6  2.177614  2.569868  0.011233
  8  1.518282  2.615321  1.041783
  6  3.365317  3.711248 -1.881972
  6  3.772107  4.910317 -2.554723
  6  4.578932  7.290655 -3.889871
  6  4.987967  8.497522 -4.567481
  1  0.756920 -1.549444 -0.057917
  1  1.659245 -1.175645 -1.540035
  1  0.319399 -0.132751 -1.019276
  1  1.572260  0.495824  1.017781
  1  3.905079 -1.131161 -0.102208
  1  2.947241 -1.506314  1.344309
  1  3.963276 -0.060865  1.313771
  1  4.734052  1.394939 -3.955869
  1  5.451258  3.418291 -5.140092
  1  6.000971  5.037473 -6.053902
  1  6.678554  7.097031 -7.178414
  1  5.748820 12.872683 -5.899255
  1  7.256309 11.514612 -8.229412
  1  6.623221 14.415719 -7.328198
  1  8.180450 13.305594 -9.746288
  1  9.137293 15.094758-11.314625
  1  9.032666 20.652381-11.336272
  1  7.682453 20.004400 -9.186165
  1  3.596812 10.790541 -2.452273
  1  2.892046  8.765052 -1.287403
  1  2.343188  7.140657 -0.382009
  1  1.670282  5.065544  0.732596
 nber atoms=          67
  Total Energy, E(TD-HF/TD-DFT) =  -2630.52206945                               
  
          32          49 "  -2630.52206945"
After scan for Atom:   Atom  AN      X      Y      Z        X      Y      Z        X      Y      Z   
After scan for Atom:   Atom  AN      X      Y      Z        X      Y      Z        X      Y      Z   
After scan for Atom:   Atom  AN      X      Y      Z        X      Y      Z        X      Y      Z   
After scan for Atom:   Atom  AN      X      Y      Z        X      Y      Z        X      Y      Z   
After scan for Atom:   Atom  AN      X      Y      Z        X      Y      Z        X      Y      Z   
After scan for Atom:   Atom  AN      X      Y      Z        X      Y      Z        X      Y      Z   
After scan for Atom:   Atom  AN      X      Y      Z        X      Y      Z        X      Y      Z   
After scan for Atom:   Atom  AN      X      Y      Z        X      Y      Z        X      Y      Z   
After scan for Atom:   Atom  AN      X      Y      Z        X      Y      Z        X      Y      Z   
After scan for Atom:   Atom  AN      X      Y      Z        X      Y      Z        X      Y      Z   
After scan for Atom:   Atom  AN      X      Y      Z        X      Y      Z        X      Y      Z   
After scan for Atom:   Atom  AN      X      Y      Z        X      Y      Z        X      Y      Z   
After scan for Atom:   Atom  AN      X      Y      Z        X      Y      Z        X      Y      Z   
After scan for Atom:   Atom  AN      X      Y      Z        X      Y      Z        X      Y      Z   
After scan for Atom:   Atom  AN      X      Y      Z        X      Y      Z        X      Y      Z   
After scan for Atom:   Atom  AN      X      Y      Z        X      Y      Z        X      Y      Z   
After scan for Atom:   Atom  AN      X      Y      Z        X      Y      Z        X      Y      Z   
After scan for Atom:   Atom  AN      X      Y      Z        X      Y      Z        X      Y      Z   
After scan for Atom:   Atom  AN      X      Y      Z        X      Y      Z        X      Y      Z   
After scan for Atom:   Atom  AN      X      Y      Z        X      Y      Z        X      Y      Z   
After scan for Atom:   Atom  AN      X      Y      Z        X      Y      Z        X      Y      Z   
After scan for Atom:   Atom  AN      X      Y      Z        X      Y      Z        X      Y      Z   
After scan for Atom:   Atom  AN      X      Y      Z        X      Y      Z        X      Y      Z   
After scan for Atom:   Atom  AN      X      Y      Z        X      Y      Z        X      Y      Z   
After scan for Atom:   Atom  AN      X      Y      Z        X      Y      Z        X      Y      Z   
After scan for Atom:   Atom  AN      X      Y      Z        X      Y      Z        X      Y      Z   
After scan for Atom:   Atom  AN      X      Y      Z        X      Y      Z        X      Y      Z   
After scan for Atom:   Atom  AN      X      Y      Z        X      Y      Z        X      Y      Z   
After scan for Atom:   Atom  AN      X      Y      Z        X      Y      Z        X      Y      Z   
After scan for Atom:   Atom  AN      X      Y      Z        X      Y      Z        X      Y      Z   
After scan for Atom:   Atom  AN      X      Y      Z        X      Y      Z        X      Y      Z   
After scan for Atom:   Atom  AN      X      Y      Z        X      Y      Z        X      Y      Z   
After scan for Atom:   Atom  AN      X      Y      Z        X      Y      Z        X      Y      Z   
After scan for Atom:   Atom  AN      X      Y      Z        X      Y      Z        X      Y      Z   
After scan for Atom:   Atom  AN      X      Y      Z        X      Y      Z        X      Y      Z   
After scan for Atom:   Atom  AN      X      Y      Z        X      Y      Z        X      Y      Z   
After scan for Atom:   Atom  AN      X      Y      Z        X      Y      Z        X      Y      Z   
After scan for Atom:   Atom  AN      X      Y      Z        X      Y      Z        X      Y      Z   
After scan for Atom:   Atom  AN      X      Y      Z        X      Y      Z        X      Y      Z   
After scan for Atom:   Atom  AN      X      Y      Z        X      Y      Z        X      Y      Z   
After scan for Atom:   Atom  AN      X      Y      Z        X      Y      Z        X      Y      Z   
After scan for Atom:   Atom  AN      X      Y      Z        X      Y      Z        X      Y      Z   
After scan for Atom:   Atom  AN      X      Y      Z        X      Y      Z        X      Y      Z   
After scan for Atom:   Atom  AN      X      Y      Z        X      Y      Z        X      Y      Z   
After scan for Atom:   Atom  AN      X      Y      Z        X      Y      Z        X      Y      Z   
After scan for Atom:   Atom  AN      X      Y      Z        X      Y      Z        X      Y      Z   
After scan for Atom:   Atom  AN      X      Y      Z        X      Y      Z        X      Y      Z   
After scan for Atom:   Atom  AN      X      Y      Z        X      Y      Z        X      Y      Z   
After scan for Atom:   Atom  AN      X      Y      Z        X      Y      Z        X      Y      Z   
After scan for Atom:   Atom  AN      X      Y      Z        X      Y      Z        X      Y      Z   
After scan for Atom:   Atom  AN      X      Y      Z        X      Y      Z        X      Y      Z   
After scan for Atom:   Atom  AN      X      Y      Z        X      Y      Z        X      Y      Z   
After scan for Atom:   Atom  AN      X      Y      Z        X      Y      Z        X      Y      Z   
After scan for Atom:   Atom  AN      X      Y      Z        X      Y      Z        X      Y      Z   
After scan for Atom:   Atom  AN      X      Y      Z        X      Y      Z        X      Y      Z   
After scan for Atom:   Atom  AN      X      Y      Z        X      Y      Z        X      Y      Z   
After scan for Atom:   Atom  AN      X      Y      Z        X      Y      Z        X      Y      Z   
After scan for Atom:   Atom  AN      X      Y      Z        X      Y      Z        X      Y      Z   
After scan for Atom:   Atom  AN      X      Y      Z        X      Y      Z        X      Y      Z   
After scan for Atom:   Atom  AN      X      Y      Z        X      Y      Z        X      Y      Z   
After scan for Atom:   Atom  AN      X      Y      Z        X      Y      Z        X      Y      Z   
After scan for Atom:   Atom  AN      X      Y      Z        X      Y      Z        X      Y      Z   
After scan for Atom:   Atom  AN      X      Y      Z        X      Y      Z        X      Y      Z   
After scan for Atom:   Atom  AN      X      Y      Z        X      Y      Z        X      Y      Z   
After scan for Atom:   Atom  AN      X      Y      Z        X      Y      Z        X      Y      Z   
 g94    frequencies=
     0.0    0.0    0.0    0.0    0.0    0.0    6.5   17.7   17.9   24.4
    27.9   37.2   55.3   59.4   69.6   77.0   88.2   95.0  103.9  111.3
   131.1  163.6  169.3  180.5  194.9  195.1  207.5  211.8  214.8  220.4
   234.7  235.0  258.4  258.6  262.3  291.1  296.0  307.5  335.1  344.4
   350.9  376.6  395.7  398.7  417.2  423.6  424.1  434.7  442.4  450.0
   453.4  453.6  458.4  467.5  469.5  481.3  495.5  501.9  507.3  514.3
   516.7  540.4  549.9  579.1  580.0  590.6  598.8  623.7  624.4  629.7
   633.9  661.4  663.8  668.6  675.1  712.2  719.3  730.0  732.1  747.8
   758.4  764.9  765.3  772.3  786.5  804.3  808.1  816.3  823.6  825.4
   827.6  829.9  833.3  838.4  845.6  847.3  889.4  894.3  903.2  917.3
   922.5  926.5  943.6  954.7  955.6  972.7  973.8  975.7  976.9  978.5
   986.1  989.3 1051.3 1053.2 1068.9 1094.3 1106.1 1125.1 1150.5 1155.1
  1160.7 1165.0 1174.8 1189.8 1193.8 1201.0 1216.1 1221.6 1226.9 1232.8
  1236.5 1250.3 1264.4 1282.2 1290.5 1295.8 1298.6 1304.4 1316.6 1326.6
  1348.5 1360.8 1364.5 1371.4 1372.9 1379.2 1384.2 1393.5 1397.3 1397.7
  1411.6 1418.3 1426.3 1440.3 1458.6 1464.7 1469.6 1475.0 1484.1 1484.7
  1486.7 1496.2 1497.9 1506.5 1523.5 1551.2 1558.5 1574.4 1588.4 1592.8
  1611.0 1615.4 1619.3 1626.3 1638.1 1684.0 1720.6 1786.7 1881.0 3029.7
  3034.3 3086.9 3090.1 3109.5 3131.8 3134.0 3141.6 3162.3 3167.5 3193.1
  3193.4 3199.1 3199.4 3208.9 3209.0 3221.8 3224.4 3224.5 3225.7 3247.5
  3250.0
 g94    symmetries=
                                                 A      A      A      A
       A      A      A      A      A      A      A      A      A      A
       A      A      A      A      A      A      A      A      A      A
       A      A      A      A      A      A      A      A      A      A
       A      A      A      A      A      A      A      A      A      A
       A      A      A      A      A      A      A      A      A      A
       A      A      A      A      A      A      A      A      A      A
       A      A      A      A      A      A      A      A      A      A
       A      A      A      A      A      A      A      A      A      A
       A      A      A      A      A      A      A      A      A      A
       A      A      A      A      A      A      A      A      A      A
       A      A      A      A      A      A      A      A      A      A
       A      A      A      A      A      A      A      A      A      A
       A      A      A      A      A      A      A      A      A      A
       A      A      A      A      A      A      A      A      A      A
       A      A      A      A      A      A      A      A      A      A
       A      A      A      A      A      A      A      A      A      A
       A      A      A      A      A      A      A      A      A      A
       A      A      A      A      A      A      A      A      A      A
       A      A      A      A      A      A      A      A      A      A
       A
 atomic masses:
 12.0000 12.0000 12.0000 14.0031 12.0000 15.9949 12.0000 12.0000 12.0000 12.0000
 12.0000 12.0000 12.0000 12.0000 12.0000 15.9949 14.0031 12.0000 12.0000 12.0000
 12.0000 12.0000 12.0000 12.0000 31.9721 12.0000 12.0000 12.0000 31.9721 12.0000
 15.9949 12.0000 12.0000 12.0000 12.0000 12.0000 12.0000 12.0000 12.0000 12.0000
 15.9949 12.0000 12.0000 12.0000 12.0000  1.0078  1.0078  1.0078  1.0078  1.0078
  1.0078  1.0078  1.0078  1.0078  1.0078  1.0078  1.0078  1.0078  1.0078  1.0078
  1.0078  1.0078  1.0078  1.0078  1.0078  1.0078  1.0078
 looking for force constants in 
 ./TT-PDI_4_C0S1.fchk                                                           
  
 Cartesian Force Constants                  R   N=       20301                  
  
 n3=         201       20301
 g94-fc frequencies=
    -5.1   -1.2   -0.6   -0.0    0.0    0.0    6.5   17.7   17.9   24.4
    27.9   37.2   55.3   59.4   69.6   77.0   88.2   95.1  103.9  111.3
   131.1  163.6  169.3  180.5  194.9  195.1  207.5  211.8  214.9  220.4
   234.7  235.0  258.4  258.6  262.3  291.2  296.0  307.5  335.1  344.4
   350.9  376.6  395.7  398.7  417.2  423.6  424.1  434.7  442.4  450.1
   453.4  453.6  458.4  467.5  469.5  481.3  495.6  501.9  507.3  514.3
   516.7  540.4  549.9  579.1  580.1  590.6  598.8  623.8  624.5  629.7
   633.9  661.4  663.9  668.6  675.1  712.2  719.3  730.0  732.1  747.8
   758.4  765.0  765.3  772.4  786.5  804.3  808.2  816.3  823.7  825.4
   827.7  829.9  833.3  838.4  845.6  847.3  889.4  894.3  903.2  917.3
   922.5  926.5  943.7  954.7  955.6  972.7  973.9  975.7  976.9  978.5
   986.1  989.3 1051.3 1053.2 1068.9 1094.3 1106.1 1125.2 1150.5 1155.1
  1160.7 1165.1 1174.8 1189.8 1193.8 1201.1 1216.1 1221.6 1226.9 1232.8
  1236.6 1250.3 1264.4 1282.3 1290.5 1295.8 1298.7 1304.4 1316.6 1326.6
  1348.6 1360.9 1364.6 1371.4 1372.9 1379.2 1384.2 1393.5 1397.3 1397.7
  1411.6 1418.4 1426.4 1440.4 1458.6 1464.8 1469.7 1475.1 1484.1 1484.7
  1486.8 1496.2 1497.9 1506.6 1523.6 1551.2 1558.5 1574.5 1588.4 1592.8
  1611.0 1615.5 1619.4 1626.4 1638.1 1684.1 1720.7 1786.7 1881.0 3029.7
  3034.4 3087.0 3090.2 3109.6 3131.9 3134.0 3141.7 3162.4 3167.6 3193.2
  3193.5 3199.1 3199.4 3209.0 3209.1 3221.9 3224.4 3224.6 3225.7 3247.5
  3250.1
 at 99999: n3=         201
 symm operator            1 :  F  nop=           0
 symm operator            2 :  F  nop=           0
 symm operator            3 :  F  nop=           0
 symm operator            4 :  F  nop=           0
 symm operator            5 :  F  nop=           0
 symm operator            6 :  F  nop=           0
 symm operator            7 :  F  nop=           0
 The point group of the molecule is  C1
 Symmetry rotation matrix:
   1.00000   0.00000   0.00000
   0.00000   1.00000   0.00000
   0.00000   0.00000   1.00000

 Projecting out zero-frequency components
 generating redundant internal coords
         300        3600          67
 search for int coords
   1 str   2   1   1.533
   2 str   3   2   1.533
   3 str   4   2   1.493
   4 str   5   4   1.403
   5 str   6   5   1.225
   6 str   7   5   1.472
   7 str   8   7   1.395
   8 str   9   8   1.383
   9 str  10   9   1.413
  10 str  11  10   1.448
  11 str  12  11   1.417
  12 str  13  12   1.372
  13 str  14  13   1.405
  14 str  15  14   1.448
  15 str  16  15   1.216
  16 str  17  15   1.456
  17 str  18  17   1.363
  18 str  19  18   1.377
  19 str  20  19   1.407
  20 str  21  20   1.386
  21 str  22  21   1.406
  22 str  23  22   1.405
  23 str  24  23   1.392
  24 str  25  24   1.747
  25 str  26  25   1.742
  26 str  27  26   1.373
  27 str  28  24   1.408
  28 str  28  27   1.410
  29 str  29  22   1.780
  30 str  29  28   1.738
  31 str  30  17   1.485
  32 str  31  30   1.215
  33 str  32  30   1.437
  34 str  33  32   1.408
  35 str  34  33   1.370
  36 str  35  34   1.419
  37 str  36  35   1.446
  38 str  37  36   1.414
  39 str  38  37   1.382
  40 str  39  38   1.396
  41 str  40   4   1.412
  42 str  40  39   1.470
  43 str  41  40   1.224
  44 str  42   7   1.411
  45 str  42  39   1.412
  46 str  43  10   1.426
  47 str  43  36   1.428
  48 str  43  42   1.434
  49 str  44  11   1.429
  50 str  44  35   1.430
  51 str  45  14   1.413
  52 str  45  32   1.417
  53 str  45  44   1.443
  54 str  46   1   1.094
  55 str  47   1   1.089
  56 str  48   1   1.093
  57 str  49   2   1.088
  58 str  50   3   1.089
  59 str  51   3   1.094
  60 str  52   3   1.093
  61 str  53   8   1.083
  62 str  54   9   1.081
  63 str  55  12   1.080
  64 str  56  13   1.082
  65 str  57  18   1.086
  66 str  58  19   1.078
  67 str  59  20   1.088
  68 str  60  21   1.086
  69 str  61  23   1.081
  70 str  62  26   1.080
  71 str  63  27   1.080
  72 str  64  33   1.082
  73 str  65  34   1.080
  74 str  66  37   1.081
  75 str  67  38   1.083
 nber stretches=          75
  76 ben   1   2   3
  77 prop tor   1   2   3  50
  78 prop tor   1   2   3  51
  79 prop tor   1   2   3  52
  80 ben   1   2   4
  81 prop tor   1   2   4   5
  82 prop tor   1   2   4  40
  83 ben   1   2  49
  84 ben   2   1  46
  85 ben   2   1  47
  86 ben   2   1  48
  87 ben   2   3  50
  88 ben   2   3  51
  89 ben   2   3  52
  90 ben   2   4   5
  91 prop tor   2   4   5   6
  92 prop tor   2   4   5   7
  93 ben   2   4  40
  94 prop tor   2   4  40  39
  95 prop tor   2   4  40  41
  96 ben   3   2   4
  97 prop tor   3   2   4   5
  98 prop tor   3   2   4  40
  99 ben   3   2  49
 100 prop tor   4   2   3  50
 101 prop tor   4   2   3  51
 102 prop tor   4   2   3  52
 103 ben   4   2  49
 104 ben   4   5   6
 105 ben   4   5   7
 106 prop tor   4   5   7   8
 107 prop tor   4   5   7  42
 108 ben   4  40  39
 109 ben   4  40  41
 110 ben   5   4  40
 111 prop tor   5   4  40  39
 112 prop tor   5   4  40  41
 113 ben   5   7   8
 114 prop tor   5   7   8   9
 115 prop tor   5   7   8  53
 116 ben   5   7  42
 117 prop tor   5   7  42  39
 118 prop tor   5   7  42  43
 119 ben   6   5   7
 120 prop tor   6   5   7   8
 121 prop tor   6   5   7  42
 122 ben   7   8   9
 123 prop tor   7   8   9  10
 124 prop tor   7   8   9  54
 125 ben   7   8  53
 126 ben   7  42  39
 127 ben   7  42  43
 128 prop tor   7  42  43  10
 129 prop tor   7  42  43  36
 130 ben   8   7  42
 131 prop tor   8   7  42  39
 132 prop tor   8   7  42  43
 133 ben   8   9  10
 134 prop tor   8   9  10  11
 135 prop tor   8   9  10  43
 136 ben   8   9  54
 137 ben   9   8  53
 138 ben   9  10  11
 139 prop tor   9  10  11  12
 140 prop tor   9  10  11  44
 141 ben   9  10  43
 142 prop tor   9  10  43  36
 143 prop tor   9  10  43  42
 144 ben  10   9  54
 145 ben  10  11  12
 146 prop tor  10  11  12  13
 147 prop tor  10  11  12  55
 148 ben  10  11  44
 149 prop tor  10  11  44  35
 150 prop tor  10  11  44  45
 151 ben  10  43  36
 152 ben  10  43  42
 153 ben  11  10  43
 154 prop tor  11  10  43  36
 155 prop tor  11  10  43  42
 156 ben  11  12  13
 157 prop tor  11  12  13  14
 158 prop tor  11  12  13  56
 159 ben  11  12  55
 160 ben  11  44  35
 161 ben  11  44  45
 162 prop tor  11  44  45  14
 163 prop tor  11  44  45  32
 164 ben  12  11  44
 165 prop tor  12  11  44  35
 166 prop tor  12  11  44  45
 167 ben  12  13  14
 168 prop tor  12  13  14  15
 169 prop tor  12  13  14  45
 170 ben  12  13  56
 171 ben  13  12  55
 172 ben  13  14  15
 173 prop tor  13  14  15  16
 174 prop tor  13  14  15  17
 175 ben  13  14  45
 176 prop tor  13  14  45  32
 177 prop tor  13  14  45  44
 178 ben  14  13  56
 179 ben  14  15  16
 180 ben  14  15  17
 181 prop tor  14  15  17  18
 182 prop tor  14  15  17  30
 183 ben  14  45  32
 184 ben  14  45  44
 185 ben  15  14  45
 186 prop tor  15  14  45  32
 187 prop tor  15  14  45  44
 188 ben  15  17  18
 189 prop tor  15  17  18  19
 190 prop tor  15  17  18  57
 191 ben  15  17  30
 192 prop tor  15  17  30  31
 193 prop tor  15  17  30  32
 194 ben  16  15  17
 195 prop tor  16  15  17  18
 196 prop tor  16  15  17  30
 197 ben  17  18  19
 198 prop tor  17  18  19  20
 199 prop tor  17  18  19  58
 200 ben  17  18  57
 201 ben  17  30  31
 202 ben  17  30  32
 203 prop tor  17  30  32  33
 204 prop tor  17  30  32  45
 205 ben  18  17  30
 206 prop tor  18  17  30  31
 207 prop tor  18  17  30  32
 208 ben  18  19  20
 209 prop tor  18  19  20  21
 210 prop tor  18  19  20  59
 211 ben  18  19  58
 212 ben  19  18  57
 213 ben  19  20  21
 214 prop tor  19  20  21  22
 215 prop tor  19  20  21  60
 216 ben  19  20  59
 217 ben  20  19  58
 218 ben  20  21  22
 219 prop tor  20  21  22  23
 220 prop tor  20  21  22  29
 221 ben  20  21  60
 222 ben  21  20  59
 223 ben  21  22  23
 224 prop tor  21  22  23  24
 225 prop tor  21  22  23  61
 226 ben  21  22  29
 227 prop tor  21  22  29  28
 228 ben  22  21  60
 229 ben  22  23  24
 230 prop tor  22  23  24  25
 231 prop tor  22  23  24  28
 232 ben  22  23  61
 233 ben  22  29  28
 234 ben  23  22  29
 235 prop tor  23  22  29  28
 236 ben  23  24  25
 237 prop tor  23  24  25  26
 238 ben  23  24  28
 239 prop tor  23  24  28  27
 240 prop tor  23  24  28  29
 241 ben  24  23  61
 242 ben  24  25  26
 243 prop tor  24  25  26  27
 244 prop tor  24  25  26  62
 245 ben  24  28  27
 246 ben  24  28  29
 247 prop tor  24  28  29  22
 248 ben  25  24  28
 249 prop tor  25  24  28  27
 250 prop tor  25  24  28  29
 251 ben  25  26  27
 252 prop tor  25  26  27  28
 253 prop tor  25  26  27  63
 254 ben  25  26  62
 255 ben  26  27  28
 256 prop tor  26  27  28  24
 257 prop tor  26  27  28  29
 258 ben  26  27  63
 259 ben  27  26  62
 260 ben  27  28  29
 261 prop tor  27  28  29  22
 262 prop tor  28  24  25  26
 263 ben  28  27  63
 264 prop tor  29  22  23  24
 265 prop tor  29  22  23  61
 266 prop tor  30  17  18  19
 267 prop tor  30  17  18  57
 268 ben  30  32  33
 269 prop tor  30  32  33  34
 270 prop tor  30  32  33  64
 271 ben  30  32  45
 272 prop tor  30  32  45  14
 273 prop tor  30  32  45  44
 274 ben  31  30  32
 275 prop tor  31  30  32  33
 276 prop tor  31  30  32  45
 277 ben  32  33  34
 278 prop tor  32  33  34  35
 279 prop tor  32  33  34  65
 280 ben  32  33  64
 281 ben  32  45  44
 282 ben  33  32  45
 283 prop tor  33  32  45  14
 284 prop tor  33  32  45  44
 285 ben  33  34  35
 286 prop tor  33  34  35  36
 287 prop tor  33  34  35  44
 288 ben  33  34  65
 289 ben  34  33  64
 290 ben  34  35  36
 291 prop tor  34  35  36  37
 292 prop tor  34  35  36  43
 293 ben  34  35  44
 294 prop tor  34  35  44  11
 295 prop tor  34  35  44  45
 296 ben  35  34  65
 297 ben  35  36  37
 298 prop tor  35  36  37  38
 299 prop tor  35  36  37  66
 300 ben  35  36  43
 301 prop tor  35  36  43  10
 302 prop tor  35  36  43  42
 303 ben  35  44  45
 304 prop tor  35  44  45  14
 305 prop tor  35  44  45  32
 306 ben  36  35  44
 307 prop tor  36  35  44  11
 308 prop tor  36  35  44  45
 309 ben  36  37  38
 310 prop tor  36  37  38  39
 311 prop tor  36  37  38  67
 312 ben  36  37  66
 313 ben  36  43  42
 314 ben  37  36  43
 315 prop tor  37  36  43  10
 316 prop tor  37  36  43  42
 317 ben  37  38  39
 318 prop tor  37  38  39  40
 319 prop tor  37  38  39  42
 320 ben  37  38  67
 321 ben  38  37  66
 322 ben  38  39  40
 323 prop tor  38  39  40   4
 324 prop tor  38  39  40  41
 325 ben  38  39  42
 326 prop tor  38  39  42   7
 327 prop tor  38  39  42  43
 328 ben  39  38  67
 329 ben  39  40  41
 330 ben  39  42  43
 331 prop tor  39  42  43  10
 332 prop tor  39  42  43  36
 333 prop tor  40   4   5   6
 334 prop tor  40   4   5   7
 335 ben  40  39  42
 336 prop tor  40  39  42   7
 337 prop tor  40  39  42  43
 338 prop tor  42   7   8   9
 339 prop tor  42   7   8  53
 340 prop tor  42  39  40   4
 341 prop tor  42  39  40  41
 342 prop tor  43  10  11  12
 343 prop tor  43  10  11  44
 344 prop tor  43  36  37  38
 345 prop tor  43  36  37  66
 346 prop tor  44  11  12  13
 347 prop tor  44  11  12  55
 348 prop tor  44  35  36  37
 349 prop tor  44  35  36  43
 350 prop tor  45  14  15  16
 351 prop tor  45  14  15  17
 352 prop tor  45  32  33  34
 353 prop tor  45  32  33  64
 354 prop tor  46   1   2   3
 355 prop tor  46   1   2   4
 356 prop tor  46   1   2  49
 357 ben  46   1  47
 358 ben  46   1  48
 359 prop tor  47   1   2   3
 360 prop tor  47   1   2   4
 361 prop tor  47   1   2  49
 362 ben  47   1  48
 363 prop tor  48   1   2   3
 364 prop tor  48   1   2   4
 365 prop tor  48   1   2  49
 366 prop tor  49   2   3  50
 367 prop tor  49   2   3  51
 368 prop tor  49   2   3  52
 369 prop tor  49   2   4   5
 370 prop tor  49   2   4  40
 371 ben  50   3  51
 372 ben  50   3  52
 373 ben  51   3  52
 374 prop tor  53   8   9  10
 375 prop tor  53   8   9  54
 376 prop tor  54   9  10  11
 377 prop tor  54   9  10  43
 378 prop tor  55  12  13  14
 379 prop tor  55  12  13  56
 380 prop tor  56  13  14  15
 381 prop tor  56  13  14  45
 382 prop tor  57  18  19  20
 383 prop tor  57  18  19  58
 384 prop tor  58  19  20  21
 385 prop tor  58  19  20  59
 386 prop tor  59  20  21  22
 387 prop tor  59  20  21  60
 388 prop tor  60  21  22  23
 389 prop tor  60  21  22  29
 390 prop tor  61  23  24  25
 391 prop tor  61  23  24  28
 392 prop tor  62  26  27  28
 393 prop tor  62  26  27  63
 394 prop tor  63  27  28  24
 395 prop tor  63  27  28  29
 396 prop tor  64  33  34  35
 397 prop tor  64  33  34  65
 398 prop tor  65  34  35  36
 399 prop tor  65  34  35  44
 400 prop tor  66  37  38  39
 401 prop tor  66  37  38  67
 402 prop tor  67  38  39  40
 403 prop tor  67  38  39  42
 nber bend=             128
 nber lin bend=           0
 nber prop tor=         200
 nber impr tor=           0
 nber tot redund int=         403
 Eigenvalues of G in red int coords
    Gval -0.00000000 -0.00000000 -0.00000000 -0.00000000 -0.00000000 -0.00000000 -0.00000000 -0.00000000
    Gval -0.00000000 -0.00000000 -0.00000000 -0.00000000 -0.00000000 -0.00000000 -0.00000000 -0.00000000
    Gval -0.00000000 -0.00000000 -0.00000000 -0.00000000 -0.00000000 -0.00000000 -0.00000000 -0.00000000
    Gval -0.00000000 -0.00000000 -0.00000000 -0.00000000 -0.00000000 -0.00000000 -0.00000000 -0.00000000
    Gval -0.00000000 -0.00000000 -0.00000000 -0.00000000 -0.00000000 -0.00000000 -0.00000000 -0.00000000
    Gval -0.00000000 -0.00000000 -0.00000000 -0.00000000 -0.00000000 -0.00000000 -0.00000000 -0.00000000
    Gval -0.00000000 -0.00000000 -0.00000000 -0.00000000 -0.00000000 -0.00000000 -0.00000000 -0.00000000
    Gval -0.00000000 -0.00000000 -0.00000000 -0.00000000 -0.00000000 -0.00000000 -0.00000000 -0.00000000
    Gval -0.00000000 -0.00000000 -0.00000000 -0.00000000 -0.00000000 -0.00000000 -0.00000000 -0.00000000
    Gval -0.00000000 -0.00000000 -0.00000000 -0.00000000 -0.00000000 -0.00000000 -0.00000000 -0.00000000
    Gval -0.00000000 -0.00000000 -0.00000000 -0.00000000 -0.00000000 -0.00000000 -0.00000000 -0.00000000
    Gval -0.00000000 -0.00000000 -0.00000000 -0.00000000 -0.00000000 -0.00000000 -0.00000000 -0.00000000
    Gval -0.00000000 -0.00000000 -0.00000000 -0.00000000 -0.00000000  0.00000000  0.00000000  0.00000000
    Gval  0.00000000  0.00000000  0.00000000  0.00000000  0.00000000  0.00000000  0.00000000  0.00000000
    Gval  0.00000000  0.00000000  0.00000000  0.00000000  0.00000000  0.00000000  0.00000000  0.00000000
    Gval  0.00000000  0.00000000  0.00000000  0.00000000  0.00000000  0.00000000  0.00000000  0.00000000
    Gval  0.00000000  0.00000000  0.00000000  0.00000000  0.00000000  0.00000000  0.00000000  0.00000000
    Gval  0.00000000  0.00000000  0.00000000  0.00000000  0.00000000  0.00000000  0.00000000  0.00000000
    Gval  0.00000000  0.00000000  0.00000000  0.00000000  0.00000000  0.00000000  0.00000000  0.00000000
    Gval  0.00000000  0.00000000  0.00000000  0.00000000  0.00000000  0.00000000  0.00000000  0.00000000
    Gval  0.00000000  0.00000000  0.00000000  0.00000000  0.00000000  0.00000000  0.00000000  0.00000000
    Gval  0.00000000  0.00000000  0.00000000  0.00000000  0.00000000  0.00000000  0.00000000  0.00000000
    Gval  0.00000000  0.00000000  0.00000000  0.00000000  0.00000000  0.00000000  0.00000000  0.00000000
    Gval  0.00000000  0.00000000  0.00000000  0.00000000  0.00000000  0.00000000  0.00000000  0.00000000
    Gval  0.00000000  0.00000000  0.00000000  0.00000000  0.00000000  0.00000000  0.00000000  0.00000000
    Gval  0.00000000  0.00000000  0.00000000  0.00000000  0.00000000  0.00000000  0.00000000  0.00000000
    Gval  0.00000009  0.00000031  0.00000065  0.00000105  0.00000234  0.00000284  0.00000302  0.00000337
    Gval  0.00000560  0.00000799  0.00000847  0.00001036  0.00001173  0.00001215  0.00001303  0.00001566
    Gval  0.00001638  0.00001701  0.00001771  0.00001800  0.00001842  0.00002097  0.00002214  0.00002405
    Gval  0.00002426  0.00002534  0.00002979  0.00003069  0.00003162  0.00003601  0.00003652  0.00003956
    Gval  0.00003995  0.00004758  0.00004862  0.00004890  0.00005067  0.00005139  0.00005318  0.00005645
    Gval  0.00005732  0.00006004  0.00006282  0.00006836  0.00006992  0.00007083  0.00007375  0.00008059
    Gval  0.00008153  0.00008234  0.00008500  0.00008649  0.00008706  0.00009304  0.00009477  0.00009620
    Gval  0.00010347  0.00010357  0.00010667  0.00011480  0.00011541  0.00011872  0.00012246  0.00013524
    Gval  0.00013626  0.00013709  0.00014036  0.00015029  0.00015606  0.00015734  0.00015912  0.00016711
    Gval  0.00017795  0.00018198  0.00019288  0.00019993  0.00022027  0.00022112  0.00022500  0.00022887
    Gval  0.00023138  0.00025191  0.00026640  0.00028160  0.00028835  0.00029029  0.00029855  0.00030717
    Gval  0.00031277  0.00034240  0.00034348  0.00035879  0.00036764  0.00037495  0.00038423  0.00038670
    Gval  0.00039153  0.00040458  0.00041138  0.00041686  0.00041706  0.00042798  0.00043068  0.00043554
    Gval  0.00044104  0.00044225  0.00046369  0.00046666  0.00046946  0.00049338  0.00052124  0.00053367
    Gval  0.00053728  0.00055155  0.00055369  0.00055594  0.00055616  0.00059069  0.00059659  0.00059676
    Gval  0.00059853  0.00059925  0.00059958  0.00059986  0.00060221  0.00060687  0.00061673  0.00062326
    Gval  0.00063103  0.00064142  0.00064331  0.00064491  0.00064569  0.00064747  0.00066619  0.00067156
    Gval  0.00068529  0.00069376  0.00069704  0.00079552  0.00082345  0.00094458  0.00097809  0.00100127
    Gval  0.00103729  0.00108208  0.00109253  0.00109375  0.00109466  0.00109538  0.00109589  0.00114158
    Gval  0.00114599  0.00114957  0.00116449  0.00116500  0.00116659  0.00116711  0.00116877  0.00116933
    Gval  0.00118563  0.00118890  0.00121424  0.00126015  0.00128642  0.00129240  0.00137690  0.00149405
    Gval  0.00155030  0.00172377  0.00176920  0.00191557  0.00207088  0.00227759  0.00234136  0.00251922
    Gval  0.00252309  0.00255687  0.00263254  0.00277970  0.00289905  0.00292457  0.00294860  0.00302226
    Gval  0.00304261  0.00308283  0.00309212  0.00354474  0.00366496  0.00366717  0.00369903  0.00371271
    Gval  0.00371507  0.00393399  0.00395833
  8.670167168336599E-008  8.670167168336599E-008
  3.081723287733604E-007  8.670167168336599E-008
  6.464906690228768E-007  8.670167168336599E-008
  1.052158316285117E-006  8.670167168336599E-008
  2.344215632064819E-006  8.670167168336599E-008
  2.843778266876540E-006  8.670167168336599E-008
  3.018143500159673E-006  8.670167168336599E-008
  3.371994563869329E-006  8.670167168336599E-008
  5.600555484054969E-006  8.670167168336599E-008
  7.987083494836413E-006  8.670167168336599E-008
  8.471049179021897E-006  8.670167168336599E-008
  1.036483909913366E-005  8.670167168336599E-008
  1.172781209866224E-005  8.670167168336599E-008
  1.214956903671719E-005  8.670167168336599E-008
  1.303400399304355E-005  8.670167168336599E-008
  1.565766752212150E-005  8.670167168336599E-008
  1.637531387259492E-005  8.670167168336599E-008
  1.701486251291757E-005  8.670167168336599E-008
  1.770878336583597E-005  8.670167168336599E-008
  1.799784258873459E-005  8.670167168336599E-008
  1.841668802758349E-005  8.670167168336599E-008
  2.097405633899038E-005  8.670167168336599E-008
  2.213970105180913E-005  8.670167168336599E-008
  2.405406677037890E-005  8.670167168336599E-008
  2.425812277459017E-005  8.670167168336599E-008
  2.534330635421322E-005  8.670167168336599E-008
  2.978968373799651E-005  8.670167168336599E-008
  3.069171894974657E-005  8.670167168336599E-008
  3.162472872632853E-005  8.670167168336599E-008
  3.600707231436355E-005  8.670167168336599E-008
  3.652297419545812E-005  8.670167168336599E-008
  3.956115279598435E-005  8.670167168336599E-008
  3.994937436466561E-005  8.670167168336599E-008
  4.758032499628732E-005  8.670167168336599E-008
  4.862031699147867E-005  8.670167168336599E-008
  4.890300154331923E-005  8.670167168336599E-008
  5.067381433821349E-005  8.670167168336599E-008
  5.139194684792313E-005  8.670167168336599E-008
  5.318038541467604E-005  8.670167168336599E-008
  5.645453513141416E-005  8.670167168336599E-008
  5.731866441820888E-005  8.670167168336599E-008
  6.003873445068135E-005  8.670167168336599E-008
  6.282424764874726E-005  8.670167168336599E-008
  6.835893035429420E-005  8.670167168336599E-008
  6.991532766081996E-005  8.670167168336599E-008
  7.082923031807337E-005  8.670167168336599E-008
  7.375071108442630E-005  8.670167168336599E-008
  8.058887651599728E-005  8.670167168336599E-008
  8.152650009554034E-005  8.670167168336599E-008
  8.234434197245249E-005  8.670167168336599E-008
  8.499604067277089E-005  8.670167168336599E-008
  8.648952625597000E-005  8.670167168336599E-008
  8.706131959767454E-005  8.670167168336599E-008
  9.304397865941036E-005  8.670167168336599E-008
  9.476890809534091E-005  8.670167168336599E-008
  9.619696323628834E-005  8.670167168336599E-008
  1.034663975115721E-004  8.670167168336599E-008
  1.035697126612250E-004  8.670167168336599E-008
  1.066686950249866E-004  8.670167168336599E-008
  1.148008849708113E-004  8.670167168336599E-008
  1.154133879672209E-004  8.670167168336599E-008
  1.187181313850743E-004  8.670167168336599E-008
  1.224601404631101E-004  8.670167168336599E-008
  1.352387505332416E-004  8.670167168336599E-008
  1.362618600930297E-004  8.670167168336599E-008
  1.370945915355964E-004  8.670167168336599E-008
  1.403601113616540E-004  8.670167168336599E-008
  1.502898695842408E-004  8.670167168336599E-008
  1.560561996623074E-004  8.670167168336599E-008
  1.573448413065392E-004  8.670167168336599E-008
  1.591163282315755E-004  8.670167168336599E-008
  1.671118830389929E-004  8.670167168336599E-008
  1.779455475685069E-004  8.670167168336599E-008
  1.819814178107039E-004  8.670167168336599E-008
  1.928817458709046E-004  8.670167168336599E-008
  1.999319267774861E-004  8.670167168336599E-008
  2.202695000173898E-004  8.670167168336599E-008
  2.211152485210574E-004  8.670167168336599E-008
  2.250025911079782E-004  8.670167168336599E-008
  2.288718692727295E-004  8.670167168336599E-008
  2.313788713207420E-004  8.670167168336599E-008
  2.519088960634009E-004  8.670167168336599E-008
  2.663976109061782E-004  8.670167168336599E-008
  2.815954216825923E-004  8.670167168336599E-008
  2.883522229957737E-004  8.670167168336599E-008
  2.902899578680065E-004  8.670167168336599E-008
  2.985529539915933E-004  8.670167168336599E-008
  3.071728235138126E-004  8.670167168336599E-008
  3.127723365025275E-004  8.670167168336599E-008
  3.424017768552490E-004  8.670167168336599E-008
  3.434757072885423E-004  8.670167168336599E-008
  3.587922126856107E-004  8.670167168336599E-008
  3.676436062783802E-004  8.670167168336599E-008
  3.749479260076310E-004  8.670167168336599E-008
  3.842298049361849E-004  8.670167168336599E-008
  3.867002693800354E-004  8.670167168336599E-008
  3.915292643262570E-004  8.670167168336599E-008
  4.045805739228789E-004  8.670167168336599E-008
  4.113795058336001E-004  8.670167168336599E-008
  4.168636509228362E-004  8.670167168336599E-008
  4.170621924186949E-004  8.670167168336599E-008
  4.279825634139756E-004  8.670167168336599E-008
  4.306769803589435E-004  8.670167168336599E-008
  4.355427407721748E-004  8.670167168336599E-008
  4.410426196183024E-004  8.670167168336599E-008
  4.422504495591428E-004  8.670167168336599E-008
  4.636909663976633E-004  8.670167168336599E-008
  4.666598666593038E-004  8.670167168336599E-008
  4.694594508075969E-004  8.670167168336599E-008
  4.933811454318939E-004  8.670167168336599E-008
  5.212435236391218E-004  8.670167168336599E-008
  5.336662734362470E-004  8.670167168336599E-008
  5.372849833019031E-004  8.670167168336599E-008
  5.515477457304972E-004  8.670167168336599E-008
  5.536891328252495E-004  8.670167168336599E-008
  5.559382599818635E-004  8.670167168336599E-008
  5.561631003606663E-004  8.670167168336599E-008
  5.906927655302552E-004  8.670167168336599E-008
  5.965854811368526E-004  8.670167168336599E-008
  5.967611290379469E-004  8.670167168336599E-008
  5.985251915769176E-004  8.670167168336599E-008
  5.992467692981899E-004  8.670167168336599E-008
  5.995752815939700E-004  8.670167168336599E-008
  5.998553099115562E-004  8.670167168336599E-008
  6.022117348730428E-004  8.670167168336599E-008
  6.068698938275890E-004  8.670167168336599E-008
  6.167262835514314E-004  8.670167168336599E-008
  6.232629731124537E-004  8.670167168336599E-008
  6.310305726092176E-004  8.670167168336599E-008
  6.414184590318461E-004  8.670167168336599E-008
  6.433071091387311E-004  8.670167168336599E-008
  6.449065699183612E-004  8.670167168336599E-008
  6.456909972516464E-004  8.670167168336599E-008
  6.474700012583451E-004  8.670167168336599E-008
  6.661861527880030E-004  8.670167168336599E-008
  6.715635758689065E-004  8.670167168336599E-008
  6.852895595840398E-004  8.670167168336599E-008
  6.937596149856943E-004  8.670167168336599E-008
  6.970395369772532E-004  8.670167168336599E-008
  7.955221097681391E-004  8.670167168336599E-008
  8.234512307875553E-004  8.670167168336599E-008
  9.445807069200676E-004  8.670167168336599E-008
  9.780903607755985E-004  8.670167168336599E-008
  1.001268733371491E-003  8.670167168336599E-008
  1.037293182490013E-003  8.670167168336599E-008
  1.082080060887617E-003  8.670167168336599E-008
  1.092529609968433E-003  8.670167168336599E-008
  1.093752346604848E-003  8.670167168336599E-008
  1.094664942955842E-003  8.670167168336599E-008
  1.095382284980372E-003  8.670167168336599E-008
  1.095890561112538E-003  8.670167168336599E-008
  1.141580186240544E-003  8.670167168336599E-008
  1.145985060727435E-003  8.670167168336599E-008
  1.149570402519167E-003  8.670167168336599E-008
  1.164490972375898E-003  8.670167168336599E-008
  1.165001445456695E-003  8.670167168336599E-008
  1.166594716627708E-003  8.670167168336599E-008
  1.167108987383739E-003  8.670167168336599E-008
  1.168770695276360E-003  8.670167168336599E-008
  1.169330350302573E-003  8.670167168336599E-008
  1.185630553763100E-003  8.670167168336599E-008
  1.188900977108946E-003  8.670167168336599E-008
  1.214237495273453E-003  8.670167168336599E-008
  1.260148632971116E-003  8.670167168336599E-008
  1.286420590037467E-003  8.670167168336599E-008
  1.292395751013346E-003  8.670167168336599E-008
  1.376899912162882E-003  8.670167168336599E-008
  1.494047182030608E-003  8.670167168336599E-008
  1.550304002262968E-003  8.670167168336599E-008
  1.723769453827657E-003  8.670167168336599E-008
  1.769199432341962E-003  8.670167168336599E-008
  1.915573064311083E-003  8.670167168336599E-008
  2.070883770040019E-003  8.670167168336599E-008
  2.277594094263390E-003  8.670167168336599E-008
  2.341361188363168E-003  8.670167168336599E-008
  2.519222696153565E-003  8.670167168336599E-008
  2.523089973500561E-003  8.670167168336599E-008
  2.556872585858682E-003  8.670167168336599E-008
  2.632544933910632E-003  8.670167168336599E-008
  2.779697605982188E-003  8.670167168336599E-008
  2.899052860483805E-003  8.670167168336599E-008
  2.924572441191386E-003  8.670167168336599E-008
  2.948599968617563E-003  8.670167168336599E-008
  3.022256133591603E-003  8.670167168336599E-008
  3.042608756433378E-003  8.670167168336599E-008
  3.082828498694177E-003  8.670167168336599E-008
  3.092118207992451E-003  8.670167168336599E-008
  3.544742427434524E-003  8.670167168336599E-008
  3.664957319877019E-003  8.670167168336599E-008
  3.667167954953848E-003  8.670167168336599E-008
  3.699030524337427E-003  8.670167168336599E-008
  3.712707389334462E-003  8.670167168336599E-008
  3.715074657978446E-003  8.670167168336599E-008
  3.933990838202206E-003  8.670167168336599E-008
  3.958325037321019E-003  8.670167168336599E-008
 cut=1d-8, nber non-redundant internal coords=         195
 Check on Eigenvals of non-red overlap matrix:
  0.00000009  0.00000031  0.00000065  0.00000105  0.00000234  0.00000284  0.00000302  0.00000337
  0.00000560  0.00000799  0.00000847  0.00001036  0.00001173  0.00001215  0.00001303  0.00001566
  0.00001638  0.00001701  0.00001771  0.00001800  0.00001842  0.00002097  0.00002214  0.00002405
  0.00002426  0.00002534  0.00002979  0.00003069  0.00003162  0.00003601  0.00003652  0.00003956
  0.00003995  0.00004758  0.00004862  0.00004890  0.00005067  0.00005139  0.00005318  0.00005645
  0.00005732  0.00006004  0.00006282  0.00006836  0.00006992  0.00007083  0.00007375  0.00008059
  0.00008153  0.00008234  0.00008500  0.00008649  0.00008706  0.00009304  0.00009477  0.00009620
  0.00010347  0.00010357  0.00010667  0.00011480  0.00011541  0.00011872  0.00012246  0.00013524
  0.00013626  0.00013709  0.00014036  0.00015029  0.00015606  0.00015734  0.00015912  0.00016711
  0.00017795  0.00018198  0.00019288  0.00019993  0.00022027  0.00022112  0.00022500  0.00022887
  0.00023138  0.00025191  0.00026640  0.00028160  0.00028835  0.00029029  0.00029855  0.00030717
  0.00031277  0.00034240  0.00034348  0.00035879  0.00036764  0.00037495  0.00038423  0.00038670
  0.00039153  0.00040458  0.00041138  0.00041686  0.00041706  0.00042798  0.00043068  0.00043554
  0.00044104  0.00044225  0.00046369  0.00046666  0.00046946  0.00049338  0.00052124  0.00053367
  0.00053728  0.00055155  0.00055369  0.00055594  0.00055616  0.00059069  0.00059659  0.00059676
  0.00059853  0.00059925  0.00059958  0.00059986  0.00060221  0.00060687  0.00061673  0.00062326
  0.00063103  0.00064142  0.00064331  0.00064491  0.00064569  0.00064747  0.00066619  0.00067156
  0.00068529  0.00069376  0.00069704  0.00079552  0.00082345  0.00094458  0.00097809  0.00100127
  0.00103729  0.00108208  0.00109253  0.00109375  0.00109466  0.00109538  0.00109589  0.00114158
  0.00114599  0.00114957  0.00116449  0.00116500  0.00116659  0.00116711  0.00116877  0.00116933
  0.00118563  0.00118890  0.00121424  0.00126015  0.00128642  0.00129240  0.00137690  0.00149405
  0.00155030  0.00172377  0.00176920  0.00191557  0.00207088  0.00227759  0.00234136  0.00251922
  0.00252309  0.00255687  0.00263254  0.00277970  0.00289905  0.00292457  0.00294860  0.00302226
  0.00304261  0.00308283  0.00309212  0.00354474  0.00366496  0.00366717  0.00369903  0.00371271
  0.00371507  0.00393399  0.00395833
 Checking for correct frequencies
 recalc frequencies=
    -0.0   -0.0    0.0    0.0    0.0    0.0    6.5   17.7   17.9   24.4
    27.9   37.2   55.3   59.4   69.6   77.0   88.2   95.1  103.9  111.3
   131.1  163.6  169.3  180.5  194.9  195.1  207.5  211.8  214.9  220.4
   234.7  235.0  258.4  258.6  262.3  291.2  296.0  307.5  335.1  344.4
   350.9  376.6  395.7  398.7  417.2  423.6  424.1  434.7  442.4  450.1
   453.4  453.6  458.4  467.5  469.5  481.3  495.6  501.9  507.3  514.3
   516.7  540.4  549.9  579.1  580.1  590.6  598.8  623.8  624.5  629.7
   633.9  661.4  663.9  668.6  675.1  712.2  719.3  730.0  732.1  747.8
   758.4  765.0  765.3  772.4  786.5  804.3  808.2  816.3  823.7  825.4
   827.7  829.9  833.3  838.4  845.6  847.3  889.4  894.3  903.2  917.3
   922.5  926.5  943.7  954.7  955.6  972.7  973.9  975.7  976.9  978.5
   986.1  989.3 1051.3 1053.2 1068.9 1094.3 1106.1 1125.2 1150.5 1155.1
  1160.7 1165.1 1174.8 1189.8 1193.8 1201.1 1216.1 1221.6 1226.9 1232.8
  1236.6 1250.3 1264.4 1282.3 1290.5 1295.8 1298.7 1304.4 1316.6 1326.6
  1348.6 1360.9 1364.6 1371.4 1372.9 1379.2 1384.2 1393.5 1397.3 1397.7
  1411.6 1418.4 1426.4 1440.4 1458.6 1464.8 1469.7 1475.1 1484.1 1484.7
  1486.8 1496.2 1497.9 1506.6 1523.6 1551.2 1558.5 1574.5 1588.4 1592.8
  1611.0 1615.5 1619.4 1626.4 1638.1 1684.1 1720.7 1786.7 1881.0 3029.7
  3034.4 3087.0 3090.2 3109.6 3131.9 3134.0 3141.7 3162.4 3167.6 3193.2
  3193.5 3199.1 3199.4 3209.0 3209.1 3221.9 3224.4 3224.6 3225.7 3247.5
  3250.1
 recalc symmetries=
                                                                       
                                                                       
                                                                       
                                                                       
                                                                       
                                                                       
                                                                       
                                                                       
                                                                       
                                                                       
                                                                       
                                                                       
                                                                       
                                                                       
                                                                       
                                                                       
                                                                       
                                                                       
                                                                       
                                                                       
        
 recalc freqs check OK
 Zero-point lengths:
 10.0000 10.0000 10.0000 10.0000 10.0000 10.0000 97.4780 58.9102 58.5943 50.1674
 46.9028 40.6231 33.3265 32.1782 29.7075 28.2553 26.3916 25.4284 24.3164 23.4972
 21.6483 19.3809 19.0544 18.4505 17.7579 17.7474 17.2087 17.0346 16.9132 16.6995
 16.1825 16.1721 15.4208 15.4172 15.3068 14.5289 14.4093 14.1381 13.5427 13.3581
 13.2351 12.7743 12.4627 12.4155 12.1372 12.0453 12.0384 11.8909 11.7867 11.6859
 11.6425 11.6402 11.5793 11.4659 11.4415 11.2999 11.1365 11.0657 11.0063 10.9317
 10.9061 10.6646 10.5721 10.3015 10.2935 10.2010 10.1309  9.9264  9.9207  9.8790
  9.8467  9.6396  9.6219  9.5876  9.5411  9.2897  9.2436  9.1755  9.1624  9.0656
  9.0023  8.9635  8.9614  8.9204  8.8398  8.7415  8.7207  8.6768  8.6382  8.6291
  8.6172  8.6057  8.5881  8.5617  8.5252  8.5169  8.3129  8.2900  8.2492  8.1855
  8.1621  8.1445  8.0703  8.0233  8.0196  7.9487  7.9442  7.9366  7.9316  7.9253
  7.8947  7.8818  7.6461  7.6389  7.5827  7.4942  7.4540  7.3907  7.3088  7.2943
  7.2766  7.2631  7.2330  7.1872  7.1750  7.1534  7.1090  7.0930  7.0776  7.0606
  7.0500  7.0111  6.9718  6.9232  6.9010  6.8869  6.8794  6.8641  6.8322  6.8066
  6.7508  6.7203  6.7111  6.6943  6.6908  6.6755  6.6634  6.6411  6.6321  6.6311
  6.5984  6.5827  6.5642  6.5322  6.4912  6.4776  6.4668  6.4549  6.4351  6.4338
  6.4295  6.4091  6.4055  6.3870  6.3513  6.2945  6.2798  6.2478  6.2203  6.2118
  6.1765  6.1680  6.1606  6.1473  6.1253  6.0411  5.9765  5.8650  5.7161  4.5040
  4.5005  4.4620  4.4597  4.4458  4.4299  4.4284  4.4230  4.4085  4.4048  4.3871
  4.3869  4.3831  4.3829  4.3764  4.3763  4.3676  4.3658  4.3657  4.3650  4.3503
  4.3486
 highest evec of mol 1
 -0.0000  0.0000  0.0000
  0.0000  0.0000 -0.0000
 -0.0000  0.0000  0.0000
 -0.0000  0.0000  0.0000
  0.0000  0.0000 -0.0000
  0.0000 -0.0000 -0.0000
 -0.0000 -0.0000  0.0000
  0.0000  0.0000 -0.0000
 -0.0000 -0.0000  0.0000
  0.0000  0.0001 -0.0001
 -0.0000 -0.0001  0.0001
  0.0000  0.0001 -0.0001
 -0.0000 -0.0002  0.0001
  0.0003  0.0002 -0.0004
 -0.0014  0.0015  0.0021
  0.0005 -0.0047 -0.0007
  0.0004 -0.0024 -0.0006
 -0.0002 -0.0144  0.0008
  0.1104 -0.2056 -0.1672
  0.0058 -0.0002 -0.0091
  0.0014 -0.0031 -0.0021
 -0.0004 -0.0001  0.0006
  0.0002 -0.0002 -0.0004
  0.0000 -0.0000 -0.0000
 -0.0000  0.0000  0.0000
 -0.0010 -0.0044  0.0018
  0.0009 -0.0011 -0.0014
 -0.0001  0.0002  0.0001
  0.0000  0.0001 -0.0000
  0.0005  0.0003 -0.0008
  0.0001  0.0001 -0.0002
 -0.0000 -0.0004  0.0001
  0.0001 -0.0000 -0.0001
  0.0000 -0.0001 -0.0000
  0.0000  0.0001 -0.0000
 -0.0000 -0.0001  0.0000
  0.0000 -0.0000 -0.0000
 -0.0000 -0.0000  0.0000
  0.0000  0.0000 -0.0000
 -0.0000 -0.0000  0.0000
  0.0000  0.0000 -0.0000
  0.0000  0.0000 -0.0000
 -0.0000  0.0000  0.0000
  0.0000  0.0001 -0.0000
 -0.0002  0.0001  0.0002
 -0.0000 -0.0000  0.0000
  0.0000 -0.0000 -0.0000
  0.0000 -0.0000  0.0000
 -0.0000 -0.0000  0.0000
  0.0000 -0.0000 -0.0000
 -0.0000 -0.0000  0.0000
 -0.0000 -0.0000 -0.0000
  0.0000 -0.0001 -0.0000
  0.0001 -0.0000 -0.0001
  0.0000 -0.0002 -0.0001
  0.0000 -0.0000 -0.0000
 -0.0220  0.0462  0.0331
 -0.3588  0.6983  0.5422
 -0.0184  0.0396  0.0278
 -0.0063  0.0077  0.0097
 -0.0005  0.0008  0.0008
  0.0029  0.0143 -0.0051
 -0.0025  0.0039  0.0038
 -0.0001  0.0002  0.0001
 -0.0001  0.0000  0.0002
 -0.0000  0.0001  0.0000
 -0.0000  0.0000  0.0000
 generating redundant internal coords
         300        3600          67
 Adding extra bonds for z output only
           6           6           6           7           6           8
           6           6           6           6           6           6
           6           6           6           8           7           6
           6           6           6           6           6           6
          16           6           6           6          16           6
           8           6           6           6           6           6
           6           6           6           6           8           6
           6           6           6           1           1           1
           1           1           1           1           1           1
           1           1           1           1           1           1
           1           1           1           1           1           1
           1
 search for int coords
   1 str   2   1   1.533
   2 str   3   2   1.533
   3 str   4   2   1.493
   4 str   5   4   1.403
   5 str   6   5   1.225
   6 str   7   5   1.472
   7 str   8   7   1.395
   8 str   9   8   1.383
   9 str  10   9   1.413
  10 str  11  10   1.448
  11 str  12  11   1.417
  12 str  13  12   1.372
  13 str  14  13   1.405
  14 str  15  14   1.448
  15 str  16  15   1.216
  16 str  17  15   1.456
  17 str  18  17   1.363
  18 str  19  18   1.377
  19 str  20  19   1.407
  20 str  21  20   1.386
  21 str  22  21   1.406
  22 str  23  22   1.405
  23 str  24  23   1.392
  24 str  25  24   1.747
  25 str  26  25   1.742
  26 str  27  26   1.373
  27 str  28  24   1.408
  28 str  28  27   1.410
  29 str  29  22   1.780
  30 str  29  28   1.738
  31 str  30  17   1.485
  32 str  31  30   1.215
  33 str  32  30   1.437
  34 str  33  32   1.408
  35 str  34  33   1.370
  36 str  35  34   1.419
  37 str  36  35   1.446
  38 str  37  36   1.414
  39 str  38  37   1.382
  40 str  39  38   1.396
  41 str  40   4   1.412
  42 str  40  39   1.470
  43 str  41  40   1.224
  44 str  42   7   1.411
  45 str  42  39   1.412
  46 str  43  10   1.426
  47 str  43  36   1.428
  48 str  43  42   1.434
  49 str  44  11   1.429
  50 str  44  35   1.430
  51 str  45  14   1.413
  52 str  45  32   1.417
  53 str  45  44   1.443
  54 str  46   1   1.094
  55 str  47   1   1.089
  56 str  48   1   1.093
  57 str  49   2   1.088
  58 str  50   3   1.089
  59 str  51   3   1.094
  60 str  52   3   1.093
  61 str  53   8   1.083
  62 str  54   9   1.081
  63 str  55  12   1.080
  64 str  56  13   1.082
  65 str  57  18   1.086
  66 str  58  19   1.078
  67 str  59  20   1.088
  68 str  60  21   1.086
  69 str  61  23   1.081
  70 str  62  26   1.080
  71 str  63  27   1.080
  72 str  64  33   1.082
  73 str  65  34   1.080
  74 str  66  37   1.081
  75 str  67  38   1.083
 nber stretches=          75
  76 ben   1   2   3
  77 prop tor   1   2   3  50
  78 prop tor   1   2   3  51
  79 prop tor   1   2   3  52
  80 ben   1   2   4
  81 prop tor   1   2   4   5
  82 prop tor   1   2   4  40
  83 ben   1   2  49
  84 ben   2   1  46
  85 ben   2   1  47
  86 ben   2   1  48
  87 ben   2   3  50
  88 ben   2   3  51
  89 ben   2   3  52
  90 ben   2   4   5
  91 prop tor   2   4   5   6
  92 prop tor   2   4   5   7
  93 ben   2   4  40
  94 prop tor   2   4  40  39
  95 prop tor   2   4  40  41
  96 ben   3   2   4
  97 prop tor   3   2   4   5
  98 prop tor   3   2   4  40
  99 ben   3   2  49
 100 prop tor   4   2   3  50
 101 prop tor   4   2   3  51
 102 prop tor   4   2   3  52
 103 ben   4   2  49
 104 ben   4   5   6
 105 ben   4   5   7
 106 prop tor   4   5   7   8
 107 prop tor   4   5   7  42
 108 ben   4  40  39
 109 ben   4  40  41
 110 ben   5   4  40
 111 prop tor   5   4  40  39
 112 prop tor   5   4  40  41
 113 ben   5   7   8
 114 prop tor   5   7   8   9
 115 prop tor   5   7   8  53
 116 ben   5   7  42
 117 prop tor   5   7  42  39
 118 prop tor   5   7  42  43
 119 ben   6   5   7
 120 prop tor   6   5   7   8
 121 prop tor   6   5   7  42
 122 ben   7   8   9
 123 prop tor   7   8   9  10
 124 prop tor   7   8   9  54
 125 ben   7   8  53
 126 ben   7  42  39
 127 ben   7  42  43
 128 prop tor   7  42  43  10
 129 prop tor   7  42  43  36
 130 ben   8   7  42
 131 prop tor   8   7  42  39
 132 prop tor   8   7  42  43
 133 ben   8   9  10
 134 prop tor   8   9  10  11
 135 prop tor   8   9  10  43
 136 ben   8   9  54
 137 ben   9   8  53
 138 ben   9  10  11
 139 prop tor   9  10  11  12
 140 prop tor   9  10  11  44
 141 ben   9  10  43
 142 prop tor   9  10  43  36
 143 prop tor   9  10  43  42
 144 ben  10   9  54
 145 ben  10  11  12
 146 prop tor  10  11  12  13
 147 prop tor  10  11  12  55
 148 ben  10  11  44
 149 prop tor  10  11  44  35
 150 prop tor  10  11  44  45
 151 ben  10  43  36
 152 ben  10  43  42
 153 ben  11  10  43
 154 prop tor  11  10  43  36
 155 prop tor  11  10  43  42
 156 ben  11  12  13
 157 prop tor  11  12  13  14
 158 prop tor  11  12  13  56
 159 ben  11  12  55
 160 ben  11  44  35
 161 ben  11  44  45
 162 prop tor  11  44  45  14
 163 prop tor  11  44  45  32
 164 ben  12  11  44
 165 prop tor  12  11  44  35
 166 prop tor  12  11  44  45
 167 ben  12  13  14
 168 prop tor  12  13  14  15
 169 prop tor  12  13  14  45
 170 ben  12  13  56
 171 ben  13  12  55
 172 ben  13  14  15
 173 prop tor  13  14  15  16
 174 prop tor  13  14  15  17
 175 ben  13  14  45
 176 prop tor  13  14  45  32
 177 prop tor  13  14  45  44
 178 ben  14  13  56
 179 ben  14  15  16
 180 ben  14  15  17
 181 prop tor  14  15  17  18
 182 prop tor  14  15  17  30
 183 ben  14  45  32
 184 ben  14  45  44
 185 ben  15  14  45
 186 prop tor  15  14  45  32
 187 prop tor  15  14  45  44
 188 ben  15  17  18
 189 prop tor  15  17  18  19
 190 prop tor  15  17  18  57
 191 ben  15  17  30
 192 prop tor  15  17  30  31
 193 prop tor  15  17  30  32
 194 ben  16  15  17
 195 prop tor  16  15  17  18
 196 prop tor  16  15  17  30
 197 ben  17  18  19
 198 prop tor  17  18  19  20
 199 prop tor  17  18  19  58
 200 ben  17  18  57
 201 ben  17  30  31
 202 ben  17  30  32
 203 prop tor  17  30  32  33
 204 prop tor  17  30  32  45
 205 ben  18  17  30
 206 prop tor  18  17  30  31
 207 prop tor  18  17  30  32
 208 ben  18  19  20
 209 prop tor  18  19  20  21
 210 prop tor  18  19  20  59
 211 ben  18  19  58
 212 ben  19  18  57
 213 ben  19  20  21
 214 prop tor  19  20  21  22
 215 prop tor  19  20  21  60
 216 ben  19  20  59
 217 ben  20  19  58
 218 ben  20  21  22
 219 prop tor  20  21  22  23
 220 prop tor  20  21  22  29
 221 ben  20  21  60
 222 ben  21  20  59
 223 ben  21  22  23
 224 prop tor  21  22  23  24
 225 prop tor  21  22  23  61
 226 ben  21  22  29
 227 prop tor  21  22  29  28
 228 ben  22  21  60
 229 ben  22  23  24
 230 prop tor  22  23  24  25
 231 prop tor  22  23  24  28
 232 ben  22  23  61
 233 ben  22  29  28
 234 ben  23  22  29
 235 prop tor  23  22  29  28
 236 ben  23  24  25
 237 prop tor  23  24  25  26
 238 ben  23  24  28
 239 prop tor  23  24  28  27
 240 prop tor  23  24  28  29
 241 ben  24  23  61
 242 ben  24  25  26
 243 prop tor  24  25  26  27
 244 prop tor  24  25  26  62
 245 ben  24  28  27
 246 ben  24  28  29
 247 prop tor  24  28  29  22
 248 ben  25  24  28
 249 prop tor  25  24  28  27
 250 prop tor  25  24  28  29
 251 ben  25  26  27
 252 prop tor  25  26  27  28
 253 prop tor  25  26  27  63
 254 ben  25  26  62
 255 ben  26  27  28
 256 prop tor  26  27  28  24
 257 prop tor  26  27  28  29
 258 ben  26  27  63
 259 ben  27  26  62
 260 ben  27  28  29
 261 prop tor  27  28  29  22
 262 prop tor  28  24  25  26
 263 ben  28  27  63
 264 prop tor  29  22  23  24
 265 prop tor  29  22  23  61
 266 prop tor  30  17  18  19
 267 prop tor  30  17  18  57
 268 ben  30  32  33
 269 prop tor  30  32  33  34
 270 prop tor  30  32  33  64
 271 ben  30  32  45
 272 prop tor  30  32  45  14
 273 prop tor  30  32  45  44
 274 ben  31  30  32
 275 prop tor  31  30  32  33
 276 prop tor  31  30  32  45
 277 ben  32  33  34
 278 prop tor  32  33  34  35
 279 prop tor  32  33  34  65
 280 ben  32  33  64
 281 ben  32  45  44
 282 ben  33  32  45
 283 prop tor  33  32  45  14
 284 prop tor  33  32  45  44
 285 ben  33  34  35
 286 prop tor  33  34  35  36
 287 prop tor  33  34  35  44
 288 ben  33  34  65
 289 ben  34  33  64
 290 ben  34  35  36
 291 prop tor  34  35  36  37
 292 prop tor  34  35  36  43
 293 ben  34  35  44
 294 prop tor  34  35  44  11
 295 prop tor  34  35  44  45
 296 ben  35  34  65
 297 ben  35  36  37
 298 prop tor  35  36  37  38
 299 prop tor  35  36  37  66
 300 ben  35  36  43
 301 prop tor  35  36  43  10
 302 prop tor  35  36  43  42
 303 ben  35  44  45
 304 prop tor  35  44  45  14
 305 prop tor  35  44  45  32
 306 ben  36  35  44
 307 prop tor  36  35  44  11
 308 prop tor  36  35  44  45
 309 ben  36  37  38
 310 prop tor  36  37  38  39
 311 prop tor  36  37  38  67
 312 ben  36  37  66
 313 ben  36  43  42
 314 ben  37  36  43
 315 prop tor  37  36  43  10
 316 prop tor  37  36  43  42
 317 ben  37  38  39
 318 prop tor  37  38  39  40
 319 prop tor  37  38  39  42
 320 ben  37  38  67
 321 ben  38  37  66
 322 ben  38  39  40
 323 prop tor  38  39  40   4
 324 prop tor  38  39  40  41
 325 ben  38  39  42
 326 prop tor  38  39  42   7
 327 prop tor  38  39  42  43
 328 ben  39  38  67
 329 ben  39  40  41
 330 ben  39  42  43
 331 prop tor  39  42  43  10
 332 prop tor  39  42  43  36
 333 prop tor  40   4   5   6
 334 prop tor  40   4   5   7
 335 ben  40  39  42
 336 prop tor  40  39  42   7
 337 prop tor  40  39  42  43
 338 prop tor  42   7   8   9
 339 prop tor  42   7   8  53
 340 prop tor  42  39  40   4
 341 prop tor  42  39  40  41
 342 prop tor  43  10  11  12
 343 prop tor  43  10  11  44
 344 prop tor  43  36  37  38
 345 prop tor  43  36  37  66
 346 prop tor  44  11  12  13
 347 prop tor  44  11  12  55
 348 prop tor  44  35  36  37
 349 prop tor  44  35  36  43
 350 prop tor  45  14  15  16
 351 prop tor  45  14  15  17
 352 prop tor  45  32  33  34
 353 prop tor  45  32  33  64
 354 prop tor  46   1   2   3
 355 prop tor  46   1   2   4
 356 prop tor  46   1   2  49
 357 ben  46   1  47
 358 ben  46   1  48
 359 prop tor  47   1   2   3
 360 prop tor  47   1   2   4
 361 prop tor  47   1   2  49
 362 ben  47   1  48
 363 prop tor  48   1   2   3
 364 prop tor  48   1   2   4
 365 prop tor  48   1   2  49
 366 prop tor  49   2   3  50
 367 prop tor  49   2   3  51
 368 prop tor  49   2   3  52
 369 prop tor  49   2   4   5
 370 prop tor  49   2   4  40
 371 ben  50   3  51
 372 ben  50   3  52
 373 ben  51   3  52
 374 prop tor  53   8   9  10
 375 prop tor  53   8   9  54
 376 prop tor  54   9  10  11
 377 prop tor  54   9  10  43
 378 prop tor  55  12  13  14
 379 prop tor  55  12  13  56
 380 prop tor  56  13  14  15
 381 prop tor  56  13  14  45
 382 prop tor  57  18  19  20
 383 prop tor  57  18  19  58
 384 prop tor  58  19  20  21
 385 prop tor  58  19  20  59
 386 prop tor  59  20  21  22
 387 prop tor  59  20  21  60
 388 prop tor  60  21  22  23
 389 prop tor  60  21  22  29
 390 prop tor  61  23  24  25
 391 prop tor  61  23  24  28
 392 prop tor  62  26  27  28
 393 prop tor  62  26  27  63
 394 prop tor  63  27  28  24
 395 prop tor  63  27  28  29
 396 prop tor  64  33  34  35
 397 prop tor  64  33  34  65
 398 prop tor  65  34  35  36
 399 prop tor  65  34  35  44
 400 prop tor  66  37  38  39
 401 prop tor  66  37  38  67
 402 prop tor  67  38  39  40
 403 prop tor  67  38  39  42
 nber bend=             128
 nber lin bend=           0
 nber prop tor=         200
 nber impr tor=           0
 nber tot redund int=         403
 Reading file: 
 ./TT-PDI_4_C0S3.log                                                            
                                          
  Entering Gaussian System, Link 0=g16                                          
  
 Gaussian format, type: g94, g98, g03= F F F
  #P Geom=AllCheck Guess=TCheck SCRF=Check GenChk RB3LYP TD(FC,Read)/6-3    
 energy type= TD      
 Original G94 input coords:
  6  1.205739 -0.261310  1.010793
  6  2.220560 -0.028117 -0.114283
  6  1.667459 -0.357901 -1.505463
  7  2.807706  1.341557 -0.059142
  6  4.194896  1.428789  0.193198
  8  4.869362  0.418686  0.356954
  6  4.777294  2.775300  0.247879
  6  6.144086  2.919161  0.494153
  6  6.723660  4.171929  0.551874
  6  5.968355  5.352005  0.366326
  6  6.563937  6.670217  0.424663
  6  7.945242  6.860037  0.672798
  6  8.502601  8.115484  0.726503
  6  7.716880  9.262599  0.535921
  6  8.358529 10.563439  0.603748
  8  9.549481 10.731077  0.817596
  7  7.504538 11.702213  0.401169
  6  7.997342 12.999557  0.442896
  6  9.248664 13.458793  0.657460
  6  9.462090 14.883209  0.643427
  6 10.646357 15.501282  0.839699
  6 10.862948 16.930854  0.826297
  6 12.032871 17.628103  1.009638
  6 11.840441 19.053354  0.923889
 16 12.855453 20.424101  1.054522
  6 11.530527 21.533215  0.778012
  6 10.351625 20.870465  0.592283
  6 10.538053 19.448646  0.677525
 16  9.518997 18.070696  0.546512
  6  6.072025 11.609186  0.139066
  8  5.433723 12.638652 -0.019637
  6  5.520812 10.275714  0.089353
  6  4.146279 10.121547 -0.159276
  6  3.574278  8.874235 -0.215718
  6  4.338358  7.694962 -0.027248
  6  3.743173  6.378209 -0.084667
  6  2.365072  6.180209 -0.330582
  6  1.808195  4.917134 -0.383194
  6  2.596328  3.780387 -0.193353
  6  1.970982  2.452906 -0.256183
  8  0.772204  2.305066 -0.470470
  6  3.978696  3.923795  0.055595
  6  4.568988  5.229666  0.112984
  6  5.739879  7.821562  0.226888
  6  6.332574  9.132697  0.284808
  1  0.911912 -1.315255  1.017411
  1  0.314980  0.351289  0.878133
  1  1.651661 -0.032395  1.982397
  1  3.078685 -0.671560  0.067919
  1  0.795859  0.250561 -1.742938
  1  1.380939 -1.413384 -1.537639
  1  2.431886 -0.195462 -2.270009
  1  6.734522  2.023248  0.638084
  1  7.785233  4.235161  0.745074
  1  8.587341  6.004667  0.825400
  1  9.560127  8.246220  0.917125
  1  7.193367 13.705809  0.266863
  1 10.077029 12.792661  0.836274
  1  8.573564 15.487612  0.455945
  1 11.537174 14.910494  1.026282
  1 12.979545 17.142983  1.195600
  1 11.721543 22.593578  0.773407
  1  9.408500 21.363653  0.406305
  1  3.550082 11.013243 -0.305172
  1  2.513856  8.802484 -0.409546
  1  1.716396  7.031154 -0.483476
  1  0.751109  4.779514 -0.572263
 nber atoms=          67
  Total Energy, E(TD-HF/TD-DFT) =  -2630.47640943                               
  
          32          49 "  -2630.47640943"
After scan for Atom:   Atom  AN      X      Y      Z        X      Y      Z        X      Y      Z   
After scan for Atom:   Atom  AN      X      Y      Z        X      Y      Z        X      Y      Z   
After scan for Atom:   Atom  AN      X      Y      Z        X      Y      Z        X      Y      Z   
After scan for Atom:   Atom  AN      X      Y      Z        X      Y      Z        X      Y      Z   
After scan for Atom:   Atom  AN      X      Y      Z        X      Y      Z        X      Y      Z   
After scan for Atom:   Atom  AN      X      Y      Z        X      Y      Z        X      Y      Z   
After scan for Atom:   Atom  AN      X      Y      Z        X      Y      Z        X      Y      Z   
After scan for Atom:   Atom  AN      X      Y      Z        X      Y      Z        X      Y      Z   
After scan for Atom:   Atom  AN      X      Y      Z        X      Y      Z        X      Y      Z   
After scan for Atom:   Atom  AN      X      Y      Z        X      Y      Z        X      Y      Z   
After scan for Atom:   Atom  AN      X      Y      Z        X      Y      Z        X      Y      Z   
After scan for Atom:   Atom  AN      X      Y      Z        X      Y      Z        X      Y      Z   
After scan for Atom:   Atom  AN      X      Y      Z        X      Y      Z        X      Y      Z   
After scan for Atom:   Atom  AN      X      Y      Z        X      Y      Z        X      Y      Z   
After scan for Atom:   Atom  AN      X      Y      Z        X      Y      Z        X      Y      Z   
After scan for Atom:   Atom  AN      X      Y      Z        X      Y      Z        X      Y      Z   
After scan for Atom:   Atom  AN      X      Y      Z        X      Y      Z        X      Y      Z   
After scan for Atom:   Atom  AN      X      Y      Z        X      Y      Z        X      Y      Z   
After scan for Atom:   Atom  AN      X      Y      Z        X      Y      Z        X      Y      Z   
After scan for Atom:   Atom  AN      X      Y      Z        X      Y      Z        X      Y      Z   
After scan for Atom:   Atom  AN      X      Y      Z        X      Y      Z        X      Y      Z   
After scan for Atom:   Atom  AN      X      Y      Z        X      Y      Z        X      Y      Z   
After scan for Atom:   Atom  AN      X      Y      Z        X      Y      Z        X      Y      Z   
After scan for Atom:   Atom  AN      X      Y      Z        X      Y      Z        X      Y      Z   
After scan for Atom:   Atom  AN      X      Y      Z        X      Y      Z        X      Y      Z   
After scan for Atom:   Atom  AN      X      Y      Z        X      Y      Z        X      Y      Z   
After scan for Atom:   Atom  AN      X      Y      Z        X      Y      Z        X      Y      Z   
After scan for Atom:   Atom  AN      X      Y      Z        X      Y      Z        X      Y      Z   
After scan for Atom:   Atom  AN      X      Y      Z        X      Y      Z        X      Y      Z   
After scan for Atom:   Atom  AN      X      Y      Z        X      Y      Z        X      Y      Z   
After scan for Atom:   Atom  AN      X      Y      Z        X      Y      Z        X      Y      Z   
After scan for Atom:   Atom  AN      X      Y      Z        X      Y      Z        X      Y      Z   
After scan for Atom:   Atom  AN      X      Y      Z        X      Y      Z        X      Y      Z   
After scan for Atom:   Atom  AN      X      Y      Z        X      Y      Z        X      Y      Z   
After scan for Atom:   Atom  AN      X      Y      Z        X      Y      Z        X      Y      Z   
After scan for Atom:   Atom  AN      X      Y      Z        X      Y      Z        X      Y      Z   
After scan for Atom:   Atom  AN      X      Y      Z        X      Y      Z        X      Y      Z   
After scan for Atom:   Atom  AN      X      Y      Z        X      Y      Z        X      Y      Z   
After scan for Atom:   Atom  AN      X      Y      Z        X      Y      Z        X      Y      Z   
After scan for Atom:   Atom  AN      X      Y      Z        X      Y      Z        X      Y      Z   
After scan for Atom:   Atom  AN      X      Y      Z        X      Y      Z        X      Y      Z   
After scan for Atom:   Atom  AN      X      Y      Z        X      Y      Z        X      Y      Z   
After scan for Atom:   Atom  AN      X      Y      Z        X      Y      Z        X      Y      Z   
After scan for Atom:   Atom  AN      X      Y      Z        X      Y      Z        X      Y      Z   
After scan for Atom:   Atom  AN      X      Y      Z        X      Y      Z        X      Y      Z   
After scan for Atom:   Atom  AN      X      Y      Z        X      Y      Z        X      Y      Z   
After scan for Atom:   Atom  AN      X      Y      Z        X      Y      Z        X      Y      Z   
After scan for Atom:   Atom  AN      X      Y      Z        X      Y      Z        X      Y      Z   
After scan for Atom:   Atom  AN      X      Y      Z        X      Y      Z        X      Y      Z   
After scan for Atom:   Atom  AN      X      Y      Z        X      Y      Z        X      Y      Z   
After scan for Atom:   Atom  AN      X      Y      Z        X      Y      Z        X      Y      Z   
After scan for Atom:   Atom  AN      X      Y      Z        X      Y      Z        X      Y      Z   
After scan for Atom:   Atom  AN      X      Y      Z        X      Y      Z        X      Y      Z   
After scan for Atom:   Atom  AN      X      Y      Z        X      Y      Z        X      Y      Z   
After scan for Atom:   Atom  AN      X      Y      Z        X      Y      Z        X      Y      Z   
After scan for Atom:   Atom  AN      X      Y      Z        X      Y      Z        X      Y      Z   
After scan for Atom:   Atom  AN      X      Y      Z        X      Y      Z        X      Y      Z   
After scan for Atom:   Atom  AN      X      Y      Z        X      Y      Z        X      Y      Z   
After scan for Atom:   Atom  AN      X      Y      Z        X      Y      Z        X      Y      Z   
After scan for Atom:   Atom  AN      X      Y      Z        X      Y      Z        X      Y      Z   
After scan for Atom:   Atom  AN      X      Y      Z        X      Y      Z        X      Y      Z   
After scan for Atom:   Atom  AN      X      Y      Z        X      Y      Z        X      Y      Z   
After scan for Atom:   Atom  AN      X      Y      Z        X      Y      Z        X      Y      Z   
After scan for Atom:   Atom  AN      X      Y      Z        X      Y      Z        X      Y      Z   
After scan for Atom:   Atom  AN      X      Y      Z        X      Y      Z        X      Y      Z   
 g94    frequencies=
     0.0    0.0    0.0    0.0    0.0    0.0    7.3   10.2   17.6   22.3
    27.1   38.8   55.9   61.1   69.1   78.1   89.4   91.0  105.7  109.8
   126.8  134.3  168.1  170.6  173.1  194.3  195.8  205.2  212.7  213.6
   234.9  235.4  246.2  259.3  262.0  289.3  298.5  305.8  309.1  342.3
   350.7  373.9  393.9  398.6  417.6  417.8  419.1  435.3  443.5  448.5
   452.6  453.2  454.0  458.6  466.8  477.9  498.6  503.4  508.1  513.0
   517.3  541.0  542.0  579.6  580.3  586.1  587.4  591.0  615.2  624.3
   628.0  632.3  658.7  667.6  674.5  690.0  712.9  721.2  730.8  737.2
   748.0  756.8  759.8  770.3  784.9  794.2  803.7  812.9  814.6  816.3
   824.5  826.1  831.3  837.5  843.8  844.0  848.1  896.0  902.4  920.6
   925.5  936.8  943.2  955.4  960.0  971.4  974.7  975.7  979.9  983.7
   986.9 1011.3 1058.6 1059.9 1070.7 1090.6 1091.5 1121.5 1146.2 1147.8
  1155.1 1155.3 1162.7 1174.4 1181.7 1188.6 1199.3 1203.2 1204.1 1226.3
  1235.5 1246.1 1249.2 1263.9 1272.3 1289.7 1297.5 1303.7 1317.1 1329.2
  1331.4 1337.4 1355.1 1359.1 1364.6 1371.5 1384.4 1392.3 1394.5 1396.1
  1397.5 1410.5 1425.6 1438.9 1441.8 1464.2 1471.9 1477.2 1483.8 1484.3
  1485.7 1495.7 1507.1 1523.8 1526.4 1536.1 1560.7 1573.6 1581.7 1594.7
  1613.6 1620.2 1631.9 1667.0 1668.7 1679.4 1715.7 1722.3 1762.2 3028.1
  3032.8 3085.3 3088.4 3099.9 3108.2 3131.2 3140.8 3165.3 3174.8 3190.4
  3190.7 3197.2 3197.6 3206.8 3207.1 3220.5 3220.7 3233.9 3235.9 3248.1
  3269.5
 g94    symmetries=
                                                 A      A      A      A
       A      A      A      A      A      A      A      A      A      A
       A      A      A      A      A      A      A      A      A      A
       A      A      A      A      A      A      A      A      A      A
       A      A      A      A      A      A      A      A      A      A
       A      A      A      A      A      A      A      A      A      A
       A      A      A      A      A      A      A      A      A      A
       A      A      A      A      A      A      A      A      A      A
       A      A      A      A      A      A      A      A      A      A
       A      A      A      A      A      A      A      A      A      A
       A      A      A      A      A      A      A      A      A      A
       A      A      A      A      A      A      A      A      A      A
       A      A      A      A      A      A      A      A      A      A
       A      A      A      A      A      A      A      A      A      A
       A      A      A      A      A      A      A      A      A      A
       A      A      A      A      A      A      A      A      A      A
       A      A      A      A      A      A      A      A      A      A
       A      A      A      A      A      A      A      A      A      A
       A      A      A      A      A      A      A      A      A      A
       A      A      A      A      A      A      A      A      A      A
       A
 atomic masses:
 12.0000 12.0000 12.0000 14.0031 12.0000 15.9949 12.0000 12.0000 12.0000 12.0000
 12.0000 12.0000 12.0000 12.0000 12.0000 15.9949 14.0031 12.0000 12.0000 12.0000
 12.0000 12.0000 12.0000 12.0000 31.9721 12.0000 12.0000 12.0000 31.9721 12.0000
 15.9949 12.0000 12.0000 12.0000 12.0000 12.0000 12.0000 12.0000 12.0000 12.0000
 15.9949 12.0000 12.0000 12.0000 12.0000  1.0078  1.0078  1.0078  1.0078  1.0078
  1.0078  1.0078  1.0078  1.0078  1.0078  1.0078  1.0078  1.0078  1.0078  1.0078
  1.0078  1.0078  1.0078  1.0078  1.0078  1.0078  1.0078
 looking for force constants in 
 ./TT-PDI_4_C0S3.fchk                                                           
  
 Cartesian Force Constants                  R   N=       20301                  
  
 n3=         201       20301
 g94-fc frequencies=
    -3.3   -1.2   -0.0   -0.0    0.0    0.7    7.3   10.2   17.6   22.3
    27.1   38.8   55.9   61.1   69.1   78.1   89.4   91.0  105.7  109.8
   126.8  134.3  168.1  170.7  173.1  194.3  195.8  205.2  212.7  213.6
   234.9  235.4  246.2  259.3  262.0  289.3  298.5  305.8  309.1  342.3
   350.7  373.9  393.9  398.6  417.6  417.8  419.1  435.3  443.5  448.5
   452.6  453.3  454.0  458.6  466.8  477.9  498.6  503.4  508.2  513.1
   517.3  541.0  542.0  579.6  580.3  586.1  587.4  591.0  615.2  624.3
   628.0  632.3  658.7  667.6  674.5  690.0  713.0  721.3  730.8  737.2
   748.0  756.8  759.8  770.3  785.0  794.2  803.7  812.9  814.6  816.3
   824.5  826.1  831.3  837.5  843.8  844.0  848.1  896.0  902.4  920.6
   925.6  936.9  943.3  955.4  960.1  971.4  974.7  975.8  980.0  983.7
   987.0 1011.3 1058.7 1059.9 1070.7 1090.6 1091.5 1121.6 1146.2 1147.8
  1155.1 1155.4 1162.7 1174.4 1181.7 1188.6 1199.3 1203.3 1204.1 1226.3
  1235.5 1246.2 1249.2 1263.9 1272.3 1289.7 1297.6 1303.7 1317.1 1329.3
  1331.4 1337.4 1355.1 1359.1 1364.7 1371.5 1384.4 1392.3 1394.5 1396.1
  1397.5 1410.5 1425.6 1438.9 1441.8 1464.3 1471.9 1477.2 1483.9 1484.4
  1485.7 1495.7 1507.1 1523.8 1526.4 1536.2 1560.7 1573.6 1581.8 1594.7
  1613.6 1620.3 1631.9 1667.1 1668.7 1679.4 1715.8 1722.4 1762.2 3028.1
  3032.9 3085.3 3088.5 3099.9 3108.3 3131.3 3140.9 3165.4 3174.8 3190.5
  3190.8 3197.3 3197.7 3206.9 3207.2 3220.5 3220.7 3234.0 3235.9 3248.1
  3269.5
 at 99999: n3=         201
 symm operator            1 :  F  nop=           0
 symm operator            2 :  F  nop=           0
 symm operator            3 :  F  nop=           0
 symm operator            4 :  F  nop=           0
 symm operator            5 :  F  nop=           0
 symm operator            6 :  F  nop=           0
 symm operator            7 :  F  nop=           0
 The point group of the molecule is  C1
 Symmetry rotation matrix:
   1.00000   0.00000   0.00000
   0.00000   1.00000   0.00000
   0.00000   0.00000   1.00000

 Projecting out zero-frequency components
 generating redundant internal coords
         300        3600          67
 search for int coords
   1 str   2   1   1.533
   2 str   3   2   1.533
   3 str   4   2   1.491
   4 str   5   4   1.413
   5 str   6   5   1.226
   6 str   7   5   1.468
   7 str   8   7   1.396
   8 str   9   8   1.382
   9 str  10   9   1.413
  10 str  11  10   1.448
  11 str  12  11   1.416
  12 str  13  12   1.375
  13 str  14  13   1.403
  14 str  15  14   1.452
  15 str  16  15   1.222
  16 str  17  15   1.438
  17 str  18  17   1.388
  18 str  19  18   1.350
  19 str  20  19   1.440
  20 str  21  20   1.350
  21 str  22  21   1.446
  22 str  23  22   1.374
  23 str  24  23   1.441
  24 str  25  24   1.711
  25 str  26  25   1.750
  26 str  27  26   1.365
  27 str  28  24   1.383
  28 str  28  25   2.542
  29 str  28  27   1.437
  30 str  29  22   1.784
  31 str  29  24   2.549
  32 str  29  28   1.719
  33 str  30  17   1.459
  34 str  31  30   1.222
  35 str  32  30   1.444
  36 str  33  32   1.405
  37 str  34  33   1.373
  38 str  35  34   1.418
  39 str  36  35   1.446
  40 str  37  36   1.414
  41 str  38  37   1.381
  42 str  39  38   1.396
  43 str  40   4   1.405
  44 str  40  39   1.469
  45 str  41  40   1.227
  46 str  42   7   1.412
  47 str  42  39   1.412
  48 str  43  10   1.427
  49 str  43  36   1.428
  50 str  43  42   1.434
  51 str  44  11   1.430
  52 str  44  35   1.430
  53 str  45  14   1.413
  54 str  45  32   1.416
  55 str  45  44   1.440
  56 str  46   1   1.094
  57 str  47   1   1.089
  58 str  48   1   1.093
  59 str  49   2   1.088
  60 str  50   3   1.089
  61 str  51   3   1.094
  62 str  52   3   1.093
  63 str  53   8   1.083
  64 str  54   9   1.081
  65 str  55  12   1.080
  66 str  56  13   1.082
  67 str  57  18   1.085
  68 str  58  19   1.078
  69 str  59  20   1.091
  70 str  60  21   1.085
  71 str  61  23   1.080
  72 str  62  26   1.077
  73 str  63  27   1.080
  74 str  64  33   1.083
  75 str  65  34   1.080
  76 str  66  37   1.081
  77 str  67  38   1.083
 nber stretches=          77
  78 ben   1   2   3
  79 prop tor   1   2   3  50
  80 prop tor   1   2   3  51
  81 prop tor   1   2   3  52
  82 ben   1   2   4
  83 prop tor   1   2   4   5
  84 prop tor   1   2   4  40
  85 ben   1   2  49
  86 ben   2   1  46
  87 ben   2   1  47
  88 ben   2   1  48
  89 ben   2   3  50
  90 ben   2   3  51
  91 ben   2   3  52
  92 ben   2   4   5
  93 prop tor   2   4   5   6
  94 prop tor   2   4   5   7
  95 ben   2   4  40
  96 prop tor   2   4  40  39
  97 prop tor   2   4  40  41
  98 ben   3   2   4
  99 prop tor   3   2   4   5
 100 prop tor   3   2   4  40
 101 ben   3   2  49
 102 prop tor   4   2   3  50
 103 prop tor   4   2   3  51
 104 prop tor   4   2   3  52
 105 ben   4   2  49
 106 ben   4   5   6
 107 ben   4   5   7
 108 prop tor   4   5   7   8
 109 prop tor   4   5   7  42
 110 ben   4  40  39
 111 ben   4  40  41
 112 ben   5   4  40
 113 prop tor   5   4  40  39
 114 prop tor   5   4  40  41
 115 ben   5   7   8
 116 prop tor   5   7   8   9
 117 prop tor   5   7   8  53
[...]
 380 prop tor  43  10  11  44
 381 prop tor  43  36  37  38
 382 prop tor  43  36  37  66
 383 prop tor  44  11  12  13
 384 prop tor  44  11  12  55
 385 prop tor  44  35  36  37
 386 prop tor  44  35  36  43
 387 prop tor  45  14  15  16
 388 prop tor  45  14  15  17
 389 prop tor  45  32  33  34
 390 prop tor  45  32  33  64
 391 prop tor  46   1   2   3
 392 prop tor  46   1   2   4
 393 prop tor  46   1   2  49
 394 ben  46   1  47
 395 ben  46   1  48
 396 prop tor  47   1   2   3
 397 prop tor  47   1   2   4
 398 prop tor  47   1   2  49
 399 ben  47   1  48
 400 prop tor  48   1   2   3
 401 prop tor  48   1   2   4
 402 prop tor  48   1   2  49
 403 prop tor  49   2   3  50
 404 prop tor  49   2   3  51
 405 prop tor  49   2   3  52
 406 prop tor  49   2   4   5
 407 prop tor  49   2   4  40
 408 ben  50   3  51
 409 ben  50   3  52
 410 ben  51   3  52
 411 prop tor  53   8   9  10
 412 prop tor  53   8   9  54
 413 prop tor  54   9  10  11
 414 prop tor  54   9  10  43
 415 prop tor  55  12  13  14
 416 prop tor  55  12  13  56
 417 prop tor  56  13  14  15
 418 prop tor  56  13  14  45
 419 prop tor  57  18  19  20
 420 prop tor  57  18  19  58
 421 prop tor  58  19  20  21
 422 prop tor  58  19  20  59
 423 prop tor  59  20  21  22
 424 prop tor  59  20  21  60
 425 prop tor  60  21  22  23
 426 prop tor  60  21  22  29
 427 prop tor  61  23  24  25
 428 prop tor  61  23  24  28
 429 prop tor  61  23  24  29
 430 prop tor  62  26  27  28
 431 prop tor  62  26  27  63
 432 prop tor  63  27  28  24
 433 prop tor  63  27  28  25
 434 prop tor  63  27  28  29
 435 prop tor  64  33  34  35
 436 prop tor  64  33  34  65
 437 prop tor  65  34  35  36
 438 prop tor  65  34  35  44
 439 prop tor  66  37  38  39
 440 prop tor  66  37  38  67
 441 prop tor  67  38  39  40
 442 prop tor  67  38  39  42
 nber bend=             138
 nber lin bend=           0
 nber prop tor=         227
 nber impr tor=           0
 nber tot redund int=         442
 Eigenvalues of G in red int coords
    Gval -0.00000000 -0.00000000 -0.00000000 -0.00000000 -0.00000000 -0.00000000 -0.00000000 -0.00000000
    Gval -0.00000000 -0.00000000 -0.00000000 -0.00000000 -0.00000000 -0.00000000 -0.00000000 -0.00000000
    Gval -0.00000000 -0.00000000 -0.00000000 -0.00000000 -0.00000000 -0.00000000 -0.00000000 -0.00000000
    Gval -0.00000000 -0.00000000 -0.00000000 -0.00000000 -0.00000000 -0.00000000 -0.00000000 -0.00000000
    Gval -0.00000000 -0.00000000 -0.00000000 -0.00000000 -0.00000000 -0.00000000 -0.00000000 -0.00000000
    Gval -0.00000000 -0.00000000 -0.00000000 -0.00000000 -0.00000000 -0.00000000 -0.00000000 -0.00000000
    Gval -0.00000000 -0.00000000 -0.00000000 -0.00000000 -0.00000000 -0.00000000 -0.00000000 -0.00000000
    Gval -0.00000000 -0.00000000 -0.00000000 -0.00000000 -0.00000000 -0.00000000 -0.00000000 -0.00000000
    Gval -0.00000000 -0.00000000 -0.00000000 -0.00000000 -0.00000000 -0.00000000 -0.00000000 -0.00000000
    Gval -0.00000000 -0.00000000 -0.00000000 -0.00000000 -0.00000000 -0.00000000 -0.00000000 -0.00000000
    Gval -0.00000000 -0.00000000 -0.00000000 -0.00000000 -0.00000000 -0.00000000 -0.00000000 -0.00000000
    Gval -0.00000000 -0.00000000 -0.00000000 -0.00000000 -0.00000000 -0.00000000 -0.00000000 -0.00000000
    Gval -0.00000000 -0.00000000 -0.00000000 -0.00000000 -0.00000000 -0.00000000 -0.00000000 -0.00000000
    Gval -0.00000000 -0.00000000 -0.00000000 -0.00000000 -0.00000000 -0.00000000 -0.00000000 -0.00000000
    Gval -0.00000000 -0.00000000 -0.00000000 -0.00000000 -0.00000000 -0.00000000 -0.00000000 -0.00000000
    Gval -0.00000000 -0.00000000  0.00000000  0.00000000  0.00000000  0.00000000  0.00000000  0.00000000
    Gval  0.00000000  0.00000000  0.00000000  0.00000000  0.00000000  0.00000000  0.00000000  0.00000000
    Gval  0.00000000  0.00000000  0.00000000  0.00000000  0.00000000  0.00000000  0.00000000  0.00000000
    Gval  0.00000000  0.00000000  0.00000000  0.00000000  0.00000000  0.00000000  0.00000000  0.00000000
    Gval  0.00000000  0.00000000  0.00000000  0.00000000  0.00000000  0.00000000  0.00000000  0.00000000
    Gval  0.00000000  0.00000000  0.00000000  0.00000000  0.00000000  0.00000000  0.00000000  0.00000000
    Gval  0.00000000  0.00000000  0.00000000  0.00000000  0.00000000  0.00000000  0.00000000  0.00000000
    Gval  0.00000000  0.00000000  0.00000000  0.00000000  0.00000000  0.00000000  0.00000000  0.00000000
    Gval  0.00000000  0.00000000  0.00000000  0.00000000  0.00000000  0.00000000  0.00000000  0.00000000
    Gval  0.00000000  0.00000000  0.00000000  0.00000000  0.00000000  0.00000000  0.00000000  0.00000000
    Gval  0.00000000  0.00000000  0.00000000  0.00000000  0.00000000  0.00000000  0.00000000  0.00000000
    Gval  0.00000000  0.00000000  0.00000000  0.00000000  0.00000000  0.00000000  0.00000000  0.00000000
    Gval  0.00000000  0.00000000  0.00000000  0.00000000  0.00000000  0.00000000  0.00000000  0.00000000
    Gval  0.00000000  0.00000000  0.00000000  0.00000000  0.00000000  0.00000000  0.00000000  0.00000000
    Gval  0.00000000  0.00000000  0.00000000  0.00000000  0.00000000  0.00000000  0.00000000  0.00000000
    Gval  0.00000000  0.00000000  0.00000000  0.00000000  0.00000000  0.00000000  0.00000000  0.00000009
    Gval  0.00000031  0.00000064  0.00000107  0.00000247  0.00000282  0.00000326  0.00000335  0.00000569
    Gval  0.00000853  0.00000870  0.00001047  0.00001196  0.00001230  0.00001344  0.00001611  0.00001646
    Gval  0.00001765  0.00001785  0.00001822  0.00001847  0.00002155  0.00002387  0.00002428  0.00002537
    Gval  0.00002911  0.00003103  0.00003163  0.00003601  0.00003827  0.00003995  0.00004146  0.00004892
    Gval  0.00004990  0.00005122  0.00005134  0.00005287  0.00005320  0.00005654  0.00005941  0.00006200
    Gval  0.00006810  0.00006921  0.00007132  0.00007326  0.00007772  0.00007861  0.00008149  0.00008228
    Gval  0.00008348  0.00008607  0.00008675  0.00009281  0.00009476  0.00009510  0.00010231  0.00010922
    Gval  0.00011350  0.00011523  0.00011954  0.00012248  0.00013413  0.00013616  0.00013723  0.00014082
    Gval  0.00015428  0.00015507  0.00015925  0.00016433  0.00017412  0.00018039  0.00018181  0.00018692
    Gval  0.00018835  0.00020438  0.00022129  0.00022404  0.00022690  0.00023119  0.00023337  0.00024773
    Gval  0.00026745  0.00028550  0.00028705  0.00029480  0.00030899  0.00031070  0.00034251  0.00035247
    Gval  0.00035981  0.00037291  0.00038453  0.00038741  0.00038812  0.00039204  0.00040309  0.00041091
    Gval  0.00042109  0.00042123  0.00043035  0.00043575  0.00044061  0.00044224  0.00046205  0.00046321
    Gval  0.00046688  0.00046878  0.00049354  0.00049369  0.00052223  0.00053034  0.00053395  0.00053732
    Gval  0.00055356  0.00055511  0.00055591  0.00055788  0.00059069  0.00059652  0.00059834  0.00059853
    Gval  0.00059926  0.00059959  0.00059987  0.00060222  0.00060381  0.00061856  0.00062785  0.00063909
    Gval  0.00064147  0.00064491  0.00064574  0.00064750  0.00066709  0.00067204  0.00068186  0.00069680
    Gval  0.00070353  0.00079355  0.00082846  0.00093922  0.00100056  0.00103441  0.00108820  0.00109015
    Gval  0.00109345  0.00109438  0.00109507  0.00109558  0.00114676  0.00114681  0.00115517  0.00116441
    Gval  0.00116492  0.00116580  0.00116632  0.00116795  0.00116848  0.00118819  0.00119170  0.00120123
    Gval  0.00121700  0.00127018  0.00129152  0.00137303  0.00149507  0.00155371  0.00170690  0.00172320
    Gval  0.00177069  0.00191380  0.00227657  0.00234048  0.00252004  0.00252306  0.00255680  0.00262643
    Gval  0.00270434  0.00278004  0.00292001  0.00292520  0.00299994  0.00302185  0.00304260  0.00308327
    Gval  0.00309081  0.00324595  0.00366396  0.00366539  0.00367988  0.00371184  0.00371352  0.00393076
    Gval  0.00452670  0.00493472
  8.639348008618964E-008  8.639348008618964E-008
  3.062043829563541E-007  8.639348008618964E-008
  6.384510046969201E-007  8.639348008618964E-008
  1.066138539877989E-006  8.639348008618964E-008
  2.465166782276949E-006  8.639348008618964E-008
  2.820686141327595E-006  8.639348008618964E-008
  3.260287942249067E-006  8.639348008618964E-008
  3.348266684404335E-006  8.639348008618964E-008
  5.685815338276733E-006  8.639348008618964E-008
  8.528801458263715E-006  8.639348008618964E-008
  8.697642745678602E-006  8.639348008618964E-008
  1.047212228173308E-005  8.639348008618964E-008
  1.196229320424188E-005  8.639348008618964E-008
  1.230238830446466E-005  8.639348008618964E-008
  1.343898647057201E-005  8.639348008618964E-008
  1.611368969705207E-005  8.639348008618964E-008
  1.646210074442665E-005  8.639348008618964E-008
  1.764970573756574E-005  8.639348008618964E-008
  1.785439526726958E-005  8.639348008618964E-008
  1.821501897546474E-005  8.639348008618964E-008
  1.846825675026637E-005  8.639348008618964E-008
  2.154969411174278E-005  8.639348008618964E-008
  2.387407553535410E-005  8.639348008618964E-008
  2.428338831781413E-005  8.639348008618964E-008
  2.537430356621070E-005  8.639348008618964E-008
  2.910669348979579E-005  8.639348008618964E-008
  3.103090904057971E-005  8.639348008618964E-008
  3.162534212967732E-005  8.639348008618964E-008
  3.601085996818126E-005  8.639348008618964E-008
  3.826647507238630E-005  8.639348008618964E-008
  3.995275252491472E-005  8.639348008618964E-008
  4.146151583400552E-005  8.639348008618964E-008
  4.891821667785356E-005  8.639348008618964E-008
  4.989639879703520E-005  8.639348008618964E-008
  5.122281097767556E-005  8.639348008618964E-008
  5.133581939882980E-005  8.639348008618964E-008
  5.287031957981519E-005  8.639348008618964E-008
  5.320176025586210E-005  8.639348008618964E-008
  5.654478408111281E-005  8.639348008618964E-008
  5.941308972101315E-005  8.639348008618964E-008
  6.200093395258659E-005  8.639348008618964E-008
  6.810278834714916E-005  8.639348008618964E-008
  6.921499095534785E-005  8.639348008618964E-008
  7.132141009892298E-005  8.639348008618964E-008
  7.325526465683733E-005  8.639348008618964E-008
  7.772142301869746E-005  8.639348008618964E-008
  7.861325223426305E-005  8.639348008618964E-008
  8.149495668954035E-005  8.639348008618964E-008
  8.228491489644991E-005  8.639348008618964E-008
  8.347842179853280E-005  8.639348008618964E-008
  8.607490389168790E-005  8.639348008618964E-008
  8.674907066198744E-005  8.639348008618964E-008
  9.280661170530896E-005  8.639348008618964E-008
  9.475737883430155E-005  8.639348008618964E-008
  9.510120475089297E-005  8.639348008618964E-008
  1.023129990620130E-004  8.639348008618964E-008
  1.092220960488764E-004  8.639348008618964E-008
  1.134952385355310E-004  8.639348008618964E-008
  1.152295905315058E-004  8.639348008618964E-008
  1.195378364883757E-004  8.639348008618964E-008
  1.224793160842074E-004  8.639348008618964E-008
  1.341313703707546E-004  8.639348008618964E-008
  1.361552611774174E-004  8.639348008618964E-008
  1.372283008151746E-004  8.639348008618964E-008
  1.408244932271337E-004  8.639348008618964E-008
  1.542806340537476E-004  8.639348008618964E-008
  1.550721219335786E-004  8.639348008618964E-008
  1.592511387219514E-004  8.639348008618964E-008
  1.643329283863074E-004  8.639348008618964E-008
  1.741177585761451E-004  8.639348008618964E-008
  1.803852474732731E-004  8.639348008618964E-008
  1.818110042181921E-004  8.639348008618964E-008
  1.869219990276835E-004  8.639348008618964E-008
  1.883468276841071E-004  8.639348008618964E-008
  2.043832528453160E-004  8.639348008618964E-008
  2.212854102663151E-004  8.639348008618964E-008
  2.240382190069642E-004  8.639348008618964E-008
  2.268954118905731E-004  8.639348008618964E-008
  2.311895584914240E-004  8.639348008618964E-008
  2.333738138243960E-004  8.639348008618964E-008
  2.477289684032720E-004  8.639348008618964E-008
  2.674511348711420E-004  8.639348008618964E-008
  2.855007942073412E-004  8.639348008618964E-008
  2.870485632025209E-004  8.639348008618964E-008
  2.947959585719611E-004  8.639348008618964E-008
  3.089877738076781E-004  8.639348008618964E-008
  3.106975547595685E-004  8.639348008618964E-008
  3.425108522389967E-004  8.639348008618964E-008
  3.524739852452449E-004  8.639348008618964E-008
  3.598147221128131E-004  8.639348008618964E-008
  3.729100794763246E-004  8.639348008618964E-008
  3.845251301342527E-004  8.639348008618964E-008
  3.874073496207431E-004  8.639348008618964E-008
  3.881238308113435E-004  8.639348008618964E-008
  3.920378760606393E-004  8.639348008618964E-008
  4.030884066717748E-004  8.639348008618964E-008
  4.109134473248593E-004  8.639348008618964E-008
  4.210899042927958E-004  8.639348008618964E-008
  4.212264442706963E-004  8.639348008618964E-008
  4.303524548697709E-004  8.639348008618964E-008
  4.357472963065213E-004  8.639348008618964E-008
  4.406089424682638E-004  8.639348008618964E-008
  4.422426177907351E-004  8.639348008618964E-008
  4.620489625947573E-004  8.639348008618964E-008
  4.632139284972324E-004  8.639348008618964E-008
  4.668844262724337E-004  8.639348008618964E-008
  4.687822993060654E-004  8.639348008618964E-008
  4.935430859112873E-004  8.639348008618964E-008
  4.936893708582385E-004  8.639348008618964E-008
  5.222251325777809E-004  8.639348008618964E-008
  5.303430721875045E-004  8.639348008618964E-008
  5.339543172314987E-004  8.639348008618964E-008
  5.373202370369571E-004  8.639348008618964E-008
  5.535555327546228E-004  8.639348008618964E-008
  5.551059218536102E-004  8.639348008618964E-008
  5.559135837758946E-004  8.639348008618964E-008
  5.578847594664249E-004  8.639348008618964E-008
  5.906875803122447E-004  8.639348008618964E-008
  5.965243665062600E-004  8.639348008618964E-008
  5.983387079359890E-004  8.639348008618964E-008
  5.985324447649801E-004  8.639348008618964E-008
  5.992575384205860E-004  8.639348008618964E-008
  5.995877161069718E-004  8.639348008618964E-008
  5.998672810569387E-004  8.639348008618964E-008
  6.022166955994396E-004  8.639348008618964E-008
  6.038138794863919E-004  8.639348008618964E-008
  6.185589825177046E-004  8.639348008618964E-008
  6.278450089766140E-004  8.639348008618964E-008
  6.390949840999879E-004  8.639348008618964E-008
  6.414668697918225E-004  8.639348008618964E-008
  6.449075074432672E-004  8.639348008618964E-008
  6.457358730833678E-004  8.639348008618964E-008
  6.474986914277698E-004  8.639348008618964E-008
  6.670870891012516E-004  8.639348008618964E-008
  6.720366636890873E-004  8.639348008618964E-008
  6.818596865313565E-004  8.639348008618964E-008
  6.968006464172523E-004  8.639348008618964E-008
  7.035263633605117E-004  8.639348008618964E-008
  7.935468723631910E-004  8.639348008618964E-008
  8.284635631073962E-004  8.639348008618964E-008
  9.392154913938933E-004  8.639348008618964E-008
  1.000563045188137E-003  8.639348008618964E-008
  1.034412218595215E-003  8.639348008618964E-008
  1.088200457941081E-003  8.639348008618964E-008
  1.090149013036735E-003  8.639348008618964E-008
  1.093452524476399E-003  8.639348008618964E-008
  1.094383488912530E-003  8.639348008618964E-008
  1.095071035306022E-003  8.639348008618964E-008
  1.095583832323803E-003  8.639348008618964E-008
  1.146756000596278E-003  8.639348008618964E-008
  1.146811915568067E-003  8.639348008618964E-008
  1.155171729050850E-003  8.639348008618964E-008
  1.164409994769554E-003  8.639348008618964E-008
  1.164916710013466E-003  8.639348008618964E-008
  1.165801273019201E-003  8.639348008618964E-008
  1.166316626241895E-003  8.639348008618964E-008
  1.167951030047539E-003  8.639348008618964E-008
  1.168476475823092E-003  8.639348008618964E-008
  1.188187581283283E-003  8.639348008618964E-008
  1.191701788991453E-003  8.639348008618964E-008
  1.201228601320870E-003  8.639348008618964E-008
  1.217003263093626E-003  8.639348008618964E-008
  1.270181656121937E-003  8.639348008618964E-008
  1.291515872222378E-003  8.639348008618964E-008
  1.373031856460882E-003  8.639348008618964E-008
  1.495071016534554E-003  8.639348008618964E-008
  1.553705246479865E-003  8.639348008618964E-008
  1.706901332132154E-003  8.639348008618964E-008
  1.723203577341542E-003  8.639348008618964E-008
  1.770692280761463E-003  8.639348008618964E-008
  1.913804091057663E-003  8.639348008618964E-008
  2.276570013648302E-003  8.639348008618964E-008
  2.340475879675932E-003  8.639348008618964E-008
  2.520036369209774E-003  8.639348008618964E-008
  2.523056920026902E-003  8.639348008618964E-008
  2.556795485539822E-003  8.639348008618964E-008
  2.626429627694437E-003  8.639348008618964E-008
  2.704336972415175E-003  8.639348008618964E-008
  2.780038195407560E-003  8.639348008618964E-008
  2.920014591443975E-003  8.639348008618964E-008
  2.925196639863826E-003  8.639348008618964E-008
  2.999937636648335E-003  8.639348008618964E-008
  3.021847693743404E-003  8.639348008618964E-008
  3.042604923805944E-003  8.639348008618964E-008
  3.083271198745396E-003  8.639348008618964E-008
  3.090806114045779E-003  8.639348008618964E-008
  3.245947125136575E-003  8.639348008618964E-008
  3.663960865203633E-003  8.639348008618964E-008
  3.665392767868517E-003  8.639348008618964E-008
  3.679877711184682E-003  8.639348008618964E-008
  3.711841876495146E-003  8.639348008618964E-008
  3.713520844425883E-003  8.639348008618964E-008
  3.930764844217299E-003  8.639348008618964E-008
  4.526698819794771E-003  8.639348008618964E-008
  4.934719853883741E-003  8.639348008618964E-008
 cut=1d-8, nber non-redundant internal coords=         195
 Check on Eigenvals of non-red overlap matrix:
  0.00000009  0.00000031  0.00000064  0.00000107  0.00000247  0.00000282  0.00000326  0.00000335
  0.00000569  0.00000853  0.00000870  0.00001047  0.00001196  0.00001230  0.00001344  0.00001611
  0.00001646  0.00001765  0.00001785  0.00001822  0.00001847  0.00002155  0.00002387  0.00002428
  0.00002537  0.00002911  0.00003103  0.00003163  0.00003601  0.00003827  0.00003995  0.00004146
  0.00004892  0.00004990  0.00005122  0.00005134  0.00005287  0.00005320  0.00005654  0.00005941
  0.00006200  0.00006810  0.00006921  0.00007132  0.00007326  0.00007772  0.00007861  0.00008149
  0.00008228  0.00008348  0.00008607  0.00008675  0.00009281  0.00009476  0.00009510  0.00010231
  0.00010922  0.00011350  0.00011523  0.00011954  0.00012248  0.00013413  0.00013616  0.00013723
  0.00014082  0.00015428  0.00015507  0.00015925  0.00016433  0.00017412  0.00018039  0.00018181
  0.00018692  0.00018835  0.00020438  0.00022129  0.00022404  0.00022690  0.00023119  0.00023337
  0.00024773  0.00026745  0.00028550  0.00028705  0.00029480  0.00030899  0.00031070  0.00034251
  0.00035247  0.00035981  0.00037291  0.00038453  0.00038741  0.00038812  0.00039204  0.00040309
  0.00041091  0.00042109  0.00042123  0.00043035  0.00043575  0.00044061  0.00044224  0.00046205
  0.00046321  0.00046688  0.00046878  0.00049354  0.00049369  0.00052223  0.00053034  0.00053395
  0.00053732  0.00055356  0.00055511  0.00055591  0.00055788  0.00059069  0.00059652  0.00059834
  0.00059853  0.00059926  0.00059959  0.00059987  0.00060222  0.00060381  0.00061856  0.00062785
  0.00063909  0.00064147  0.00064491  0.00064574  0.00064750  0.00066709  0.00067204  0.00068186
  0.00069680  0.00070353  0.00079355  0.00082846  0.00093922  0.00100056  0.00103441  0.00108820
  0.00109015  0.00109345  0.00109438  0.00109507  0.00109558  0.00114676  0.00114681  0.00115517
  0.00116441  0.00116492  0.00116580  0.00116632  0.00116795  0.00116848  0.00118819  0.00119170
  0.00120123  0.00121700  0.00127018  0.00129152  0.00137303  0.00149507  0.00155371  0.00170690
  0.00172320  0.00177069  0.00191380  0.00227657  0.00234048  0.00252004  0.00252306  0.00255680
  0.00262643  0.00270434  0.00278004  0.00292001  0.00292520  0.00299994  0.00302185  0.00304260
  0.00308327  0.00309081  0.00324595  0.00366396  0.00366539  0.00367988  0.00371184  0.00371352
  0.00393076  0.00452670  0.00493472
 int defn changed for coord          28
          28          27           0           0
          28          25           0           0
