 Enter ifcurve (0=recti, 1=orth curvi, 2=apprx curvi, -1 = skip
 And atom ordering flag, 0= never changes, 1= use the first order thenceforth,
  2= deduce it (does read on fail), 3= always read it
 Reading file: 
 ./Benzene-bridges_1_C0S0.log                                                   
                                          
  Entering Gaussian System, Link 0=g16                                          
  
 Gaussian format, type: g94, g98, g03= F F F
  #P Geom=AllCheck Guess=TCheck SCRF=Check GenChk RB3LYP/6-311G(d,p) Fre    
 energy type= B3LYP   
 Original G94 input coords:
  6  1.006135  0.069779 -0.249341
  6  0.169839  1.020476  0.203834
  6 -1.295022  0.999011  0.171908
  6 -1.999026  2.055408  0.774379
  6 -3.389736  2.088753  0.780801
  6 -4.115303  1.063385  0.180389
  6 -3.433738  0.007268 -0.427037
  6 -2.045894 -0.025354 -0.433234
  6  2.470999  0.091330 -0.217842
  6  3.224229  1.190168  0.234395
  6  4.611830  1.149105  0.245100
  6  5.290839  0.012338 -0.197144
  6  4.563019 -1.083625 -0.652637
  6  3.172567 -1.041893 -0.663017
  1  0.584122 -0.832249 -0.684772
  1  0.591558  1.912969  0.658771
  1 -1.441177  2.858538  1.245118
  1 -3.906239  2.916143  1.254571
  1 -5.199067  1.085210  0.181836
  1 -3.990212 -0.793867 -0.900980
  1 -1.541484 -0.852644 -0.918250
  1  2.721990  2.087611  0.575619
  1  5.170189  2.009385  0.597597
  1  6.374446 -0.014792 -0.188007
  1  5.077577 -1.972310 -1.000883
  1  2.612940 -1.900805 -1.019243
 nber atoms=          26
  SCF Done:  E(RB3LYP) =  -540.841252928     A.U. after    1 cycles             
  
          23          40 "  -540.841252928"
After scan for Atom:   Atom  AN      X      Y      Z        X      Y      Z        X      Y      Z   
After scan for Atom:   Atom  AN      X      Y      Z        X      Y      Z        X      Y      Z   
After scan for Atom:   Atom  AN      X      Y      Z        X      Y      Z        X      Y      Z   
After scan for Atom:   Atom  AN      X      Y      Z        X      Y      Z        X      Y      Z   
After scan for Atom:   Atom  AN      X      Y      Z        X      Y      Z        X      Y      Z   
After scan for Atom:   Atom  AN      X      Y      Z        X      Y      Z        X      Y      Z   
After scan for Atom:   Atom  AN      X      Y      Z        X      Y      Z        X      Y      Z   
After scan for Atom:   Atom  AN      X      Y      Z        X      Y      Z        X      Y      Z   
After scan for Atom:   Atom  AN      X      Y      Z        X      Y      Z        X      Y      Z   
After scan for Atom:   Atom  AN      X      Y      Z        X      Y      Z        X      Y      Z   
After scan for Atom:   Atom  AN      X      Y      Z        X      Y      Z        X      Y      Z   
After scan for Atom:   Atom  AN      X      Y      Z        X      Y      Z        X      Y      Z   
After scan for Atom:   Atom  AN      X      Y      Z        X      Y      Z        X      Y      Z   
After scan for Atom:   Atom  AN      X      Y      Z        X      Y      Z        X      Y      Z   
After scan for Atom:   Atom  AN      X      Y      Z        X      Y      Z        X      Y      Z   
After scan for Atom:   Atom  AN      X      Y      Z        X      Y      Z        X      Y      Z   
After scan for Atom:   Atom  AN      X      Y      Z        X      Y      Z        X      Y      Z   
After scan for Atom:   Atom  AN      X      Y      Z        X      Y      Z        X      Y      Z   
After scan for Atom:   Atom  AN      X      Y      Z        X      Y      Z        X      Y      Z   
After scan for Atom:   Atom  AN      X      Y      Z        X      Y      Z        X      Y      Z   
After scan for Atom:   Atom  AN      X      Y      Z        X      Y      Z        X      Y      Z   
After scan for Atom:   Atom  AN      X      Y      Z        X      Y      Z        X      Y      Z   
After scan for Atom:   Atom  AN      X      Y      Z        X      Y      Z        X      Y      Z   
After scan for Atom:   Atom  AN      X      Y      Z        X      Y      Z        X      Y      Z   
 g94    frequencies=
     0.0    0.0    0.0    0.0    0.0    0.0    7.5   58.3   62.4   83.4
   203.8  218.1  279.6  294.2  411.2  412.3  468.5  480.2  541.2  552.2
   633.4  636.9  655.9  701.9  704.5  751.0  781.3  833.9  843.7  845.4
   876.9  881.7  919.9  929.5  974.1  974.8  987.0  998.0 1005.0 1014.0
  1014.6 1049.7 1051.6 1103.5 1106.5 1182.3 1182.6 1204.2 1205.7 1212.5
  1250.7 1290.9 1329.0 1349.5 1355.4 1364.6 1371.1 1477.1 1485.3 1523.8
  1532.1 1612.7 1618.1 1636.7 1645.6 1688.1 3134.8 3143.3 3155.8 3155.9
  3162.6 3163.1 3172.6 3173.0 3182.0 3182.3 3190.0 3190.3
 g94    symmetries=
                                                 A      A      A      A
       A      A      A      A      A      A      A      A      A      A
       A      A      A      A      A      A      A      A      A      A
       A      A      A      A      A      A      A      A      A      A
       A      A      A      A      A      A      A      A      A      A
       A      A      A      A      A      A      A      A      A      A
       A      A      A      A      A      A      A      A      A      A
       A      A      A      A      A      A      A      A
 atomic masses:
 12.0000 12.0000 12.0000 12.0000 12.0000 12.0000 12.0000 12.0000 12.0000 12.0000
 12.0000 12.0000 12.0000 12.0000  1.0078  1.0078  1.0078  1.0078  1.0078  1.0078
  1.0078  1.0078  1.0078  1.0078  1.0078  1.0078
 looking for force constants in 
 ./Benzene-bridges_1_C0S0.fchk                                                  
  
 Cartesian Force Constants                  R   N=        3081                  
  
 n3=          78        3081
 g94-fc frequencies=
    -6.4   -0.0   -0.0    0.0    1.4    2.0   10.7   58.3   62.4   83.4
   203.8  218.1  279.6  294.2  411.2  412.3  468.5  480.2  541.3  552.2
   633.4  637.0  655.9  701.9  704.5  751.1  781.4  833.9  843.8  845.4
   876.9  881.7  919.9  929.6  974.1  974.8  987.0  998.0 1005.0 1014.0
  1014.6 1049.8 1051.6 1103.6 1106.5 1182.3 1182.6 1204.2 1205.8 1212.5
  1250.8 1290.9 1329.0 1349.5 1355.5 1364.6 1371.1 1477.2 1485.3 1523.9
  1532.1 1612.8 1618.2 1636.8 1645.6 1688.1 3134.9 3143.4 3155.9 3155.9
  3162.6 3163.1 3172.7 3173.0 3182.1 3182.4 3190.1 3190.3
 at 99999: n3=          78
 symm operator            1 :  F  nop=           0
 symm operator            2 :  F  nop=           0
 symm operator            3 :  F  nop=           0
 symm operator            4 :  F  nop=           0
 symm operator            5 :  F  nop=           0
 symm operator            6 :  F  nop=           0
 symm operator            7 :  F  nop=           0
 The point group of the molecule is  C1
 Symmetry rotation matrix:
   1.00000   0.00000   0.00000
   0.00000   1.00000   0.00000
   0.00000   0.00000   1.00000

 Projecting out zero-frequency components
 generating redundant internal coords
         300        3600          26
 search for int coords
   1 str   2   1   1.345
   2 str   3   2   1.465
   3 str   4   3   1.405
   4 str   5   4   1.391
   5 str   6   5   1.392
   6 str   7   6   1.396
   7 str   8   3   1.407
   8 str   8   7   1.388
   9 str   9   1   1.465
  10 str  10   9   1.407
  11 str  11  10   1.388
  12 str  12  11   1.396
  13 str  13  12   1.392
  14 str  14   9   1.405
  15 str  14  13   1.391
  16 str  15   1   1.087
  17 str  16   2   1.087
  18 str  17   4   1.085
  19 str  18   5   1.084
  20 str  19   6   1.084
  21 str  20   7   1.084
  22 str  21   8   1.084
  23 str  22  10   1.084
  24 str  23  11   1.084
  25 str  24  12   1.084
  26 str  25  13   1.084
  27 str  26  14   1.085
 nber stretches=          27
  28 ben   1   2   3
  29 prop tor   1   2   3   4
  30 prop tor   1   2   3   8
  31 ben   1   2  16
  32 ben   1   9  10
  33 prop tor   1   9  10  11
  34 prop tor   1   9  10  22
  35 ben   1   9  14
  36 prop tor   1   9  14  13
  37 prop tor   1   9  14  26
  38 ben   2   1   9
  39 prop tor   2   1   9  10
  40 prop tor   2   1   9  14
  41 ben   2   1  15
  42 ben   2   3   4
  43 prop tor   2   3   4   5
  44 prop tor   2   3   4  17
  45 ben   2   3   8
  46 prop tor   2   3   8   7
  47 prop tor   2   3   8  21
  48 ben   3   2  16
  49 ben   3   4   5
  50 prop tor   3   4   5   6
  51 prop tor   3   4   5  18
  52 ben   3   4  17
  53 ben   3   8   7
  54 ben   3   8  21
  55 ben   4   3   8
  56 prop tor   4   3   8   7
  57 prop tor   4   3   8  21
  58 ben   4   5   6
  59 prop tor   4   5   6   7
  60 prop tor   4   5   6  19
  61 ben   4   5  18
  62 ben   5   4  17
  63 ben   5   6   7
  64 prop tor   5   6   7   8
  65 prop tor   5   6   7  20
  66 ben   5   6  19
  67 ben   6   5  18
  68 ben   6   7   8
  69 prop tor   6   7   8   3
  70 prop tor   6   7   8  21
  71 ben   6   7  20
  72 ben   7   6  19
  73 ben   7   8  21
  74 prop tor   8   3   4   5
  75 prop tor   8   3   4  17
  76 ben   8   7  20
  77 prop tor   9   1   2   3
  78 prop tor   9   1   2  16
  79 ben   9   1  15
  80 ben   9  10  11
  81 prop tor   9  10  11  12
  82 prop tor   9  10  11  23
  83 ben   9  10  22
  84 ben   9  14  13
  85 ben   9  14  26
  86 ben  10   9  14
  87 prop tor  10   9  14  13
  88 prop tor  10   9  14  26
  89 ben  10  11  12
  90 prop tor  10  11  12  13
  91 prop tor  10  11  12  24
  92 ben  10  11  23
  93 ben  11  10  22
  94 ben  11  12  13
  95 prop tor  11  12  13  14
  96 prop tor  11  12  13  25
  97 ben  11  12  24
  98 ben  12  11  23
  99 ben  12  13  14
 100 prop tor  12  13  14   9
 101 prop tor  12  13  14  26
 102 ben  12  13  25
 103 ben  13  12  24
 104 ben  13  14  26
 105 prop tor  14   9  10  11
 106 prop tor  14   9  10  22
 107 ben  14  13  25
 108 prop tor  15   1   2   3
 109 prop tor  15   1   2  16
 110 prop tor  15   1   9  10
 111 prop tor  15   1   9  14
 112 prop tor  16   2   3   4
 113 prop tor  16   2   3   8
 114 prop tor  17   4   5   6
 115 prop tor  17   4   5  18
 116 prop tor  18   5   6   7
 117 prop tor  18   5   6  19
 118 prop tor  19   6   7   8
 119 prop tor  19   6   7  20
 120 prop tor  20   7   8   3
 121 prop tor  20   7   8  21
 122 prop tor  22  10  11  12
 123 prop tor  22  10  11  23
 124 prop tor  23  11  12  13
 125 prop tor  23  11  12  24
 126 prop tor  24  12  13  14
 127 prop tor  24  12  13  25
 128 prop tor  25  13  14   9
 129 prop tor  25  13  14  26
 nber bend=              42
 nber lin bend=           0
 nber prop tor=          60
 nber impr tor=           0
 nber tot redund int=         129
 Eigenvalues of G in red int coords
    Gval -0.00000000 -0.00000000 -0.00000000 -0.00000000 -0.00000000 -0.00000000 -0.00000000 -0.00000000
    Gval -0.00000000 -0.00000000 -0.00000000 -0.00000000 -0.00000000 -0.00000000 -0.00000000 -0.00000000
    Gval -0.00000000 -0.00000000 -0.00000000 -0.00000000 -0.00000000 -0.00000000 -0.00000000 -0.00000000
    Gval -0.00000000 -0.00000000 -0.00000000 -0.00000000  0.00000000  0.00000000  0.00000000  0.00000000
    Gval  0.00000000  0.00000000  0.00000000  0.00000000  0.00000000  0.00000000  0.00000000  0.00000000
    Gval  0.00000000  0.00000000  0.00000000  0.00000000  0.00000000  0.00000000  0.00000000  0.00000000
    Gval  0.00000000  0.00000000  0.00000000  0.00000000  0.00000000  0.00000000  0.00000000  0.00000000
    Gval  0.00000000  0.00000192  0.00000391  0.00001127  0.00001340  0.00001917  0.00002768  0.00003963
    Gval  0.00004522  0.00005064  0.00005623  0.00005961  0.00006846  0.00007035  0.00008654  0.00009005
    Gval  0.00011085  0.00011230  0.00011905  0.00012274  0.00012904  0.00018619  0.00024294  0.00026425
    Gval  0.00026963  0.00026998  0.00033327  0.00036567  0.00036610  0.00039680  0.00041006  0.00053248
    Gval  0.00057462  0.00059242  0.00059306  0.00059306  0.00059317  0.00059658  0.00060424  0.00060426
    Gval  0.00061692  0.00062376  0.00065697  0.00066067  0.00066078  0.00081009  0.00083302  0.00103531
    Gval  0.00103925  0.00106457  0.00110763  0.00110802  0.00113546  0.00113716  0.00115769  0.00116916
    Gval  0.00116976  0.00117230  0.00117230  0.00141469  0.00144118  0.00170374  0.00182876  0.00233431
    Gval  0.00234079  0.00271422  0.00306592  0.00318593  0.00321615  0.00372630  0.00373055  0.00406564
    Gval  0.00406725
  1.919257660769353E-006  1.919257660769353E-006
  3.905749360619250E-006  1.919257660769353E-006
  1.126850697884755E-005  1.919257660769353E-006
  1.340172898487134E-005  1.919257660769353E-006
  1.916538130637220E-005  1.919257660769353E-006
  2.768405864434848E-005  1.919257660769353E-006
  3.963276530976715E-005  1.919257660769353E-006
  4.522125766338651E-005  1.919257660769353E-006
  5.064321691742070E-005  1.919257660769353E-006
  5.622696665443860E-005  1.919257660769353E-006
  5.960543392150717E-005  1.919257660769353E-006
  6.845740115632223E-005  1.919257660769353E-006
  7.034539955759589E-005  1.919257660769353E-006
  8.654171468888568E-005  1.919257660769353E-006
  9.005387441607644E-005  1.919257660769353E-006
  1.108524092393183E-004  1.919257660769353E-006
  1.122981386905857E-004  1.919257660769353E-006
  1.190450292106807E-004  1.919257660769353E-006
  1.227373408235329E-004  1.919257660769353E-006
  1.290442084568060E-004  1.919257660769353E-006
  1.861873393698369E-004  1.919257660769353E-006
  2.429416708696483E-004  1.919257660769353E-006
  2.642479088062837E-004  1.919257660769353E-006
  2.696275967809885E-004  1.919257660769353E-006
  2.699821942644322E-004  1.919257660769353E-006
  3.332723901432432E-004  1.919257660769353E-006
  3.656707489528025E-004  1.919257660769353E-006
  3.660974106840859E-004  1.919257660769353E-006
  3.968008987138793E-004  1.919257660769353E-006
  4.100619515293800E-004  1.919257660769353E-006
  5.324793725059966E-004  1.919257660769353E-006
  5.746161940307930E-004  1.919257660769353E-006
  5.924180243331861E-004  1.919257660769353E-006
  5.930583637672410E-004  1.919257660769353E-006
  5.930621403478572E-004  1.919257660769353E-006
  5.931700679581455E-004  1.919257660769353E-006
  5.965797321867784E-004  1.919257660769353E-006
  6.042383882192024E-004  1.919257660769353E-006
  6.042621095375209E-004  1.919257660769353E-006
  6.169150034023699E-004  1.919257660769353E-006
  6.237600870991948E-004  1.919257660769353E-006
  6.569705362978010E-004  1.919257660769353E-006
  6.606667925206314E-004  1.919257660769353E-006
  6.607775159312320E-004  1.919257660769353E-006
  8.100874371803035E-004  1.919257660769353E-006
  8.330202486102448E-004  1.919257660769353E-006
  1.035309689834746E-003  1.919257660769353E-006
  1.039249031055883E-003  1.919257660769353E-006
  1.064571531068176E-003  1.919257660769353E-006
  1.107631656617653E-003  1.919257660769353E-006
  1.108019301234242E-003  1.919257660769353E-006
  1.135458692478390E-003  1.919257660769353E-006
  1.137159522897242E-003  1.919257660769353E-006
  1.157686158246448E-003  1.919257660769353E-006
  1.169163572801085E-003  1.919257660769353E-006
  1.169759019183514E-003  1.919257660769353E-006
  1.172296106954880E-003  1.919257660769353E-006
  1.172299308080791E-003  1.919257660769353E-006
  1.414685384480902E-003  1.919257660769353E-006
  1.441182222002089E-003  1.919257660769353E-006
  1.703735399473508E-003  1.919257660769353E-006
  1.828757916775556E-003  1.919257660769353E-006
  2.334314151064584E-003  1.919257660769353E-006
  2.340786215734596E-003  1.919257660769353E-006
  2.714215265904262E-003  1.919257660769353E-006
  3.065918829613171E-003  1.919257660769353E-006
  3.185928339967167E-003  1.919257660769353E-006
  3.216152936241807E-003  1.919257660769353E-006
  3.726301920691783E-003  1.919257660769353E-006
  3.730554682850879E-003  1.919257660769353E-006
  4.065639180820372E-003  1.919257660769353E-006
  4.067249281821961E-003  1.919257660769353E-006
 cut=1d-8, nber non-redundant internal coords=          72
 Check on Eigenvals of non-red overlap matrix:
  0.00000192  0.00000391  0.00001127  0.00001340  0.00001917  0.00002768  0.00003963  0.00004522
  0.00005064  0.00005623  0.00005961  0.00006846  0.00007035  0.00008654  0.00009005  0.00011085
  0.00011230  0.00011905  0.00012274  0.00012904  0.00018619  0.00024294  0.00026425  0.00026963
  0.00026998  0.00033327  0.00036567  0.00036610  0.00039680  0.00041006  0.00053248  0.00057462
  0.00059242  0.00059306  0.00059306  0.00059317  0.00059658  0.00060424  0.00060426  0.00061692
  0.00062376  0.00065697  0.00066067  0.00066078  0.00081009  0.00083302  0.00103531  0.00103925
  0.00106457  0.00110763  0.00110802  0.00113546  0.00113716  0.00115769  0.00116916  0.00116976
  0.00117230  0.00117230  0.00141469  0.00144118  0.00170374  0.00182876  0.00233431  0.00234079
  0.00271422  0.00306592  0.00318593  0.00321615  0.00372630  0.00373055  0.00406564  0.00406725
 Checking for correct frequencies
 recalc frequencies=
    -0.0   -0.0    0.0    0.0    0.0    0.0    7.5   58.3   62.4   83.4
   203.8  218.1  279.6  294.2  411.2  412.3  468.5  480.2  541.3  552.2
   633.4  637.0  655.9  701.9  704.5  751.1  781.4  833.9  843.8  845.4
   876.9  881.7  919.9  929.6  974.1  974.8  987.0  998.0 1005.0 1014.0
  1014.6 1049.8 1051.6 1103.6 1106.5 1182.3 1182.6 1204.2 1205.8 1212.5
  1250.8 1290.9 1329.0 1349.5 1355.5 1364.6 1371.1 1477.2 1485.3 1523.9
  1532.1 1612.8 1618.2 1636.8 1645.6 1688.1 3134.9 3143.4 3155.9 3155.9
  3162.6 3163.1 3172.7 3173.0 3182.1 3182.4 3190.1 3190.3
 recalc symmetries=
                                                                       
                                                                       
                                                                       
                                                                       
                                                                       
                                                                       
                                                                       
                                                         
 recalc freqs check OK
 Zero-point lengths:
 10.0000 10.0000 10.0000 10.0000 10.0000 10.0000 90.3616 32.4563 31.3881 27.1492
 17.3648 16.7864 14.8255 14.4543 12.2251 12.2094 11.4535 11.3127 10.6560 10.5497
  9.8505  9.8229  9.6799  9.3576  9.3400  9.0460  8.8690  8.5848  8.5347  8.5264
  8.3718  8.3489  8.1738  8.1312  7.9432  7.9404  7.8911  7.8474  7.8201  7.7854
  7.7829  7.6516  7.6449  7.4627  7.4527  7.2100  7.2091  7.1441  7.1395  7.1195
  7.0099  6.9000  6.8004  6.7486  6.7336  6.7110  6.6951  6.4503  6.4327  6.3507
  6.3335  6.1732  6.1629  6.1277  6.1112  6.0339  4.4278  4.4218  4.4130  4.4130
  4.4083  4.4080  4.4013  4.4011  4.3948  4.3946  4.3893  4.3891
 highest evec of mol 1
  0.0043  0.0081  0.0039
 -0.0043 -0.0080 -0.0041
 -0.0030 -0.0011 -0.0007
 -0.0194 -0.0230 -0.0135
  0.0380 -0.0677 -0.0388
  0.1276 -0.0033 -0.0006
  0.0527  0.0788  0.0465
 -0.0469  0.0687  0.0403
  0.0030  0.0012  0.0005
  0.0468 -0.0748 -0.0284
 -0.0528 -0.0844 -0.0346
 -0.1274  0.0040 -0.0008
 -0.0378  0.0726  0.0285
  0.0194  0.0245  0.0102
 -0.0154 -0.0298 -0.0145
  0.0154  0.0294  0.0150
  0.0532  0.0748  0.0438
 -0.1298  0.2106  0.1206
 -0.4082  0.0086  0.0008
 -0.1702 -0.2468 -0.1460
  0.1425 -0.2283 -0.1337
 -0.1423  0.2484  0.0945
  0.1705  0.2645  0.1084
  0.4074 -0.0107  0.0033
  0.1291 -0.2259 -0.0885
 -0.0533 -0.0798 -0.0332
 generating redundant internal coords
         300        3600          26
 Adding extra bonds for z output only
           6           6           6           6           6           6
           6           6           6           6           6           6
           6           6           1           1           1           1
           1           1           1           1           1           1
           1           1
 search for int coords
   1 str   2   1   1.345
   2 str   3   2   1.465
   3 str   4   3   1.405
   4 str   5   4   1.391
   5 str   6   5   1.392
   6 str   7   6   1.396
   7 str   8   3   1.407
   8 str   8   7   1.388
   9 str   9   1   1.465
  10 str  10   9   1.407
  11 str  11  10   1.388
  12 str  12  11   1.396
  13 str  13  12   1.392
  14 str  14   9   1.405
  15 str  14  13   1.391
  16 str  15   1   1.087
  17 str  16   2   1.087
  18 str  17   4   1.085
  19 str  18   5   1.084
  20 str  19   6   1.084
  21 str  20   7   1.084
  22 str  21   8   1.084
  23 str  22  10   1.084
  24 str  23  11   1.084
  25 str  24  12   1.084
  26 str  25  13   1.084
  27 str  26  14   1.085
 nber stretches=          27
  28 ben   1   2   3
  29 prop tor   1   2   3   4
  30 prop tor   1   2   3   8
  31 ben   1   2  16
  32 ben   1   9  10
  33 prop tor   1   9  10  11
  34 prop tor   1   9  10  22
  35 ben   1   9  14
  36 prop tor   1   9  14  13
  37 prop tor   1   9  14  26
  38 ben   2   1   9
  39 prop tor   2   1   9  10
  40 prop tor   2   1   9  14
  41 ben   2   1  15
  42 ben   2   3   4
  43 prop tor   2   3   4   5
  44 prop tor   2   3   4  17
  45 ben   2   3   8
  46 prop tor   2   3   8   7
  47 prop tor   2   3   8  21
  48 ben   3   2  16
  49 ben   3   4   5
  50 prop tor   3   4   5   6
  51 prop tor   3   4   5  18
  52 ben   3   4  17
  53 ben   3   8   7
  54 ben   3   8  21
  55 ben   4   3   8
  56 prop tor   4   3   8   7
  57 prop tor   4   3   8  21
  58 ben   4   5   6
  59 prop tor   4   5   6   7
  60 prop tor   4   5   6  19
  61 ben   4   5  18
  62 ben   5   4  17
  63 ben   5   6   7
  64 prop tor   5   6   7   8
  65 prop tor   5   6   7  20
  66 ben   5   6  19
  67 ben   6   5  18
  68 ben   6   7   8
  69 prop tor   6   7   8   3
  70 prop tor   6   7   8  21
  71 ben   6   7  20
  72 ben   7   6  19
  73 ben   7   8  21
  74 prop tor   8   3   4   5
  75 prop tor   8   3   4  17
  76 ben   8   7  20
  77 prop tor   9   1   2   3
  78 prop tor   9   1   2  16
  79 ben   9   1  15
  80 ben   9  10  11
  81 prop tor   9  10  11  12
  82 prop tor   9  10  11  23
  83 ben   9  10  22
  84 ben   9  14  13
  85 ben   9  14  26
  86 ben  10   9  14
  87 prop tor  10   9  14  13
  88 prop tor  10   9  14  26
  89 ben  10  11  12
  90 prop tor  10  11  12  13
  91 prop tor  10  11  12  24
  92 ben  10  11  23
  93 ben  11  10  22
  94 ben  11  12  13
  95 prop tor  11  12  13  14
  96 prop tor  11  12  13  25
  97 ben  11  12  24
  98 ben  12  11  23
  99 ben  12  13  14
 100 prop tor  12  13  14   9
 101 prop tor  12  13  14  26
 102 ben  12  13  25
 103 ben  13  12  24
 104 ben  13  14  26
 105 prop tor  14   9  10  11
 106 prop tor  14   9  10  22
 107 ben  14  13  25
 108 prop tor  15   1   2   3
 109 prop tor  15   1   2  16
 110 prop tor  15   1   9  10
 111 prop tor  15   1   9  14
 112 prop tor  16   2   3   4
 113 prop tor  16   2   3   8
 114 prop tor  17   4   5   6
 115 prop tor  17   4   5  18
 116 prop tor  18   5   6   7
 117 prop tor  18   5   6  19
 118 prop tor  19   6   7   8
 119 prop tor  19   6   7  20
 120 prop tor  20   7   8   3
 121 prop tor  20   7   8  21
 122 prop tor  22  10  11  12
 123 prop tor  22  10  11  23
 124 prop tor  23  11  12  13
 125 prop tor  23  11  12  24
 126 prop tor  24  12  13  14
 127 prop tor  24  12  13  25
 128 prop tor  25  13  14   9
 129 prop tor  25  13  14  26
 nber bend=              42
 nber lin bend=           0
 nber prop tor=          60
 nber impr tor=           0
 nber tot redund int=         129
 Reading file: 
 ./Benzene-bridges_1_C0S1.log                                                   
                                          
  Entering Gaussian System, Link 0=g16                                          
  
 Gaussian format, type: g94, g98, g03= F F F
  #P Geom=AllCheck Guess=TCheck SCRF=Check GenChk RB3LYP TD(FC,Read)/6-3    
 energy type= TD      
 Original G94 input coords:
  6  1.008122 -0.027756 -0.145705
  6  0.164339  0.998986  0.343007
  6 -1.245164  1.012017  0.245515
  6 -1.998830  2.071472  0.844177
  6 -3.373257  2.107797  0.769615
  6 -4.077127  1.091410  0.091300
  6 -3.368378  0.046389 -0.512826
  6 -1.988815 -0.008425 -0.447046
  6  2.419572  0.025133 -0.183057
  6  3.167363  1.190675  0.212294
  6  4.548597  1.193459  0.160269
  6  5.255058  0.066322 -0.275420
  6  4.547335 -1.086032 -0.675174
  6  3.171238 -1.107167 -0.632233
  1  0.548892 -0.944405 -0.501549
  1  0.621311  1.838334  0.857230
  1 -1.461179  2.854245  1.370024
  1 -3.918373  2.921436  1.235185
  1 -5.159330  1.120037  0.038363
  1 -3.909399 -0.731639 -1.041145
  1 -1.460966 -0.817110 -0.936920
  1  2.641826  2.080287  0.536270
  1  5.092774  2.082644  0.460894
  1  6.338441  0.078409 -0.305727
  1  5.090776 -1.959793 -1.017414
  1  2.630554 -1.997384 -0.937997
 nber atoms=          26
  Total Energy, E(TD-HF/TD-DFT) =  -540.706573374                               
  
          32          49 "  -540.706573374"
After scan for Atom:   Atom  AN      X      Y      Z        X      Y      Z        X      Y      Z   
After scan for Atom:   Atom  AN      X      Y      Z        X      Y      Z        X      Y      Z   
After scan for Atom:   Atom  AN      X      Y      Z        X      Y      Z        X      Y      Z   
After scan for Atom:   Atom  AN      X      Y      Z        X      Y      Z        X      Y      Z   
After scan for Atom:   Atom  AN      X      Y      Z        X      Y      Z        X      Y      Z   
After scan for Atom:   Atom  AN      X      Y      Z        X      Y      Z        X      Y      Z   
After scan for Atom:   Atom  AN      X      Y      Z        X      Y      Z        X      Y      Z   
After scan for Atom:   Atom  AN      X      Y      Z        X      Y      Z        X      Y      Z   
After scan for Atom:   Atom  AN      X      Y      Z        X      Y      Z        X      Y      Z   
After scan for Atom:   Atom  AN      X      Y      Z        X      Y      Z        X      Y      Z   
After scan for Atom:   Atom  AN      X      Y      Z        X      Y      Z        X      Y      Z   
After scan for Atom:   Atom  AN      X      Y      Z        X      Y      Z        X      Y      Z   
After scan for Atom:   Atom  AN      X      Y      Z        X      Y      Z        X      Y      Z   
After scan for Atom:   Atom  AN      X      Y      Z        X      Y      Z        X      Y      Z   
After scan for Atom:   Atom  AN      X      Y      Z        X      Y      Z        X      Y      Z   
After scan for Atom:   Atom  AN      X      Y      Z        X      Y      Z        X      Y      Z   
After scan for Atom:   Atom  AN      X      Y      Z        X      Y      Z        X      Y      Z   
After scan for Atom:   Atom  AN      X      Y      Z        X      Y      Z        X      Y      Z   
After scan for Atom:   Atom  AN      X      Y      Z        X      Y      Z        X      Y      Z   
After scan for Atom:   Atom  AN      X      Y      Z        X      Y      Z        X      Y      Z   
After scan for Atom:   Atom  AN      X      Y      Z        X      Y      Z        X      Y      Z   
After scan for Atom:   Atom  AN      X      Y      Z        X      Y      Z        X      Y      Z   
After scan for Atom:   Atom  AN      X      Y      Z        X      Y      Z        X      Y      Z   
After scan for Atom:   Atom  AN      X      Y      Z        X      Y      Z        X      Y      Z   
 g94    frequencies=
     0.0    0.0    0.0    0.0    0.0    0.0   22.1   48.5   76.1  118.4
   185.5  220.6  278.9  286.8  403.5  409.9  444.7  469.4  473.6  537.0
   611.1  618.5  637.1  649.3  653.5  723.7  738.6  763.4  772.2  792.1
   811.9  818.3  858.9  865.3  869.0  961.2  962.1  975.9  976.2  987.4
   996.1 1022.1 1022.4 1098.0 1100.9 1169.2 1170.3 1190.0 1194.4 1210.4
  1242.1 1269.0 1321.8 1353.3 1370.4 1371.4 1391.6 1456.9 1467.4 1490.7
  1508.5 1536.4 1537.7 1570.2 1613.7 1651.5 3149.7 3153.3 3154.8 3158.2
  3160.1 3162.3 3172.4 3172.7 3185.4 3185.6 3192.1 3192.4
 g94    symmetries=
                                                 A      A      A      A
       A      A      A      A      A      A      A      A      A      A
       A      A      A      A      A      A      A      A      A      A
       A      A      A      A      A      A      A      A      A      A
       A      A      A      A      A      A      A      A      A      A
       A      A      A      A      A      A      A      A      A      A
       A      A      A      A      A      A      A      A      A      A
       A      A      A      A      A      A      A      A
 atomic masses:
 12.0000 12.0000 12.0000 12.0000 12.0000 12.0000 12.0000 12.0000 12.0000 12.0000
 12.0000 12.0000 12.0000 12.0000  1.0078  1.0078  1.0078  1.0078  1.0078  1.0078
  1.0078  1.0078  1.0078  1.0078  1.0078  1.0078
 looking for force constants in 
 ./Benzene-bridges_1_C0S1.fchk                                                  
  
 Cartesian Force Constants                  R   N=        3081                  
  
 n3=          78        3081
 g94-fc frequencies=
    -4.3   -2.3   -0.0   -0.0    0.0    1.0   22.1   48.5   76.1  118.4
   185.5  220.6  278.9  286.8  403.5  409.9  444.7  469.4  473.6  537.0
   611.1  618.5  637.2  649.3  653.5  723.7  738.6  763.4  772.2  792.1
   811.9  818.3  859.0  865.3  869.0  961.2  962.1  975.9  976.2  987.5
   996.1 1022.1 1022.4 1098.0 1100.9 1169.2 1170.3 1190.0 1194.4 1210.5
  1242.1 1269.1 1321.9 1353.4 1370.4 1371.4 1391.7 1456.9 1467.5 1490.7
  1508.5 1536.4 1537.7 1570.2 1613.7 1651.6 3149.8 3153.4 3154.9 3158.2
  3160.1 3162.3 3172.5 3172.7 3185.5 3185.7 3192.2 3192.5
 at 99999: n3=          78
 symm operator            1 :  F  nop=           0
 symm operator            2 :  F  nop=           0
 symm operator            3 :  F  nop=           0
 symm operator            4 :  F  nop=           0
 symm operator            5 :  F  nop=           0
 symm operator            6 :  F  nop=           0
 symm operator            7 :  F  nop=           0
 The point group of the molecule is  C1
 Symmetry rotation matrix:
   1.00000   0.00000   0.00000
   0.00000   1.00000   0.00000
   0.00000   0.00000   1.00000

 Projecting out zero-frequency components
 generating redundant internal coords
         300        3600          26
 search for int coords
   1 str   2   1   1.416
   2 str   3   2   1.413
   3 str   4   3   1.431
   4 str   5   4   1.377
   5 str   6   5   1.410
   6 str   7   6   1.400
   7 str   8   3   1.440
   8 str   8   7   1.382
   9 str   9   1   1.413
  10 str  10   9   1.440
  11 str  11  10   1.382
  12 str  12  11   1.400
  13 str  13  12   1.410
  14 str  14   9   1.431
  15 str  14  13   1.377
  16 str  15   1   1.085
  17 str  16   2   1.085
  18 str  17   4   1.086
  19 str  18   5   1.084
  20 str  19   6   1.084
  21 str  20   7   1.085
  22 str  21   8   1.083
  23 str  22  10   1.083
  24 str  23  11   1.085
  25 str  24  12   1.084
  26 str  25  13   1.084
  27 str  26  14   1.086
 nber stretches=          27
  28 ben   1   2   3
  29 prop tor   1   2   3   4
  30 prop tor   1   2   3   8
  31 ben   1   2  16
  32 ben   1   9  10
  33 prop tor   1   9  10  11
  34 prop tor   1   9  10  22
  35 ben   1   9  14
  36 prop tor   1   9  14  13
  37 prop tor   1   9  14  26
  38 ben   2   1   9
  39 prop tor   2   1   9  10
  40 prop tor   2   1   9  14
  41 ben   2   1  15
  42 ben   2   3   4
  43 prop tor   2   3   4   5
  44 prop tor   2   3   4  17
  45 ben   2   3   8
  46 prop tor   2   3   8   7
  47 prop tor   2   3   8  21
  48 ben   3   2  16
  49 ben   3   4   5
  50 prop tor   3   4   5   6
  51 prop tor   3   4   5  18
  52 ben   3   4  17
  53 ben   3   8   7
  54 ben   3   8  21
  55 ben   4   3   8
  56 prop tor   4   3   8   7
  57 prop tor   4   3   8  21
  58 ben   4   5   6
  59 prop tor   4   5   6   7
  60 prop tor   4   5   6  19
  61 ben   4   5  18
  62 ben   5   4  17
  63 ben   5   6   7
  64 prop tor   5   6   7   8
  65 prop tor   5   6   7  20
  66 ben   5   6  19
  67 ben   6   5  18
  68 ben   6   7   8
  69 prop tor   6   7   8   3
  70 prop tor   6   7   8  21
  71 ben   6   7  20
  72 ben   7   6  19
  73 ben   7   8  21
  74 prop tor   8   3   4   5
  75 prop tor   8   3   4  17
  76 ben   8   7  20
  77 prop tor   9   1   2   3
  78 prop tor   9   1   2  16
  79 ben   9   1  15
  80 ben   9  10  11
  81 prop tor   9  10  11  12
  82 prop tor   9  10  11  23
  83 ben   9  10  22
  84 ben   9  14  13
  85 ben   9  14  26
  86 ben  10   9  14
  87 prop tor  10   9  14  13
  88 prop tor  10   9  14  26
  89 ben  10  11  12
  90 prop tor  10  11  12  13
  91 prop tor  10  11  12  24
  92 ben  10  11  23
  93 ben  11  10  22
  94 ben  11  12  13
  95 prop tor  11  12  13  14
  96 prop tor  11  12  13  25
  97 ben  11  12  24
  98 ben  12  11  23
  99 ben  12  13  14
 100 prop tor  12  13  14   9
 101 prop tor  12  13  14  26
 102 ben  12  13  25
 103 ben  13  12  24
 104 ben  13  14  26
 105 prop tor  14   9  10  11
 106 prop tor  14   9  10  22
 107 ben  14  13  25
 108 prop tor  15   1   2   3
 109 prop tor  15   1   2  16
 110 prop tor  15   1   9  10
 111 prop tor  15   1   9  14
 112 prop tor  16   2   3   4
 113 prop tor  16   2   3   8
 114 prop tor  17   4   5   6
 115 prop tor  17   4   5  18
 116 prop tor  18   5   6   7
 117 prop tor  18   5   6  19
 118 prop tor  19   6   7   8
 119 prop tor  19   6   7  20
 120 prop tor  20   7   8   3
 121 prop tor  20   7   8  21
 122 prop tor  22  10  11  12
 123 prop tor  22  10  11  23
 124 prop tor  23  11  12  13
 125 prop tor  23  11  12  24
 126 prop tor  24  12  13  14
 127 prop tor  24  12  13  25
 128 prop tor  25  13  14   9
 129 prop tor  25  13  14  26
 nber bend=              42
 nber lin bend=           0
 nber prop tor=          60
 nber impr tor=           0
 nber tot redund int=         129
 Eigenvalues of G in red int coords
    Gval -0.00000000 -0.00000000 -0.00000000 -0.00000000 -0.00000000 -0.00000000 -0.00000000 -0.00000000
    Gval -0.00000000 -0.00000000 -0.00000000 -0.00000000 -0.00000000 -0.00000000 -0.00000000 -0.00000000
    Gval -0.00000000 -0.00000000 -0.00000000 -0.00000000 -0.00000000 -0.00000000 -0.00000000 -0.00000000
    Gval -0.00000000 -0.00000000 -0.00000000 -0.00000000 -0.00000000  0.00000000  0.00000000  0.00000000
    Gval  0.00000000  0.00000000  0.00000000  0.00000000  0.00000000  0.00000000  0.00000000  0.00000000
    Gval  0.00000000  0.00000000  0.00000000  0.00000000  0.00000000  0.00000000  0.00000000  0.00000000
    Gval  0.00000000  0.00000000  0.00000000  0.00000000  0.00000000  0.00000000  0.00000000  0.00000000
    Gval  0.00000000  0.00000192  0.00000382  0.00001080  0.00001379  0.00001874  0.00002753  0.00003989
    Gval  0.00004506  0.00005039  0.00005602  0.00005954  0.00006829  0.00007038  0.00008759  0.00008927
    Gval  0.00010939  0.00011283  0.00011887  0.00012237  0.00012756  0.00018968  0.00023915  0.00026560
    Gval  0.00026564  0.00026880  0.00033545  0.00035999  0.00036064  0.00039063  0.00039694  0.00053367
    Gval  0.00056490  0.00059264  0.00059303  0.00059303  0.00059317  0.00059795  0.00060379  0.00060381
    Gval  0.00061645  0.00062364  0.00065514  0.00065905  0.00065941  0.00079416  0.00084456  0.00103531
    Gval  0.00103830  0.00107379  0.00110431  0.00110455  0.00113615  0.00113849  0.00115658  0.00116941
    Gval  0.00116983  0.00117041  0.00117042  0.00139972  0.00143167  0.00168598  0.00181235  0.00231841
    Gval  0.00232273  0.00271007  0.00307166  0.00321390  0.00323826  0.00372819  0.00373318  0.00405315
    Gval  0.00405473
  1.924307762160925E-006  1.924307762160925E-006
  3.822785779831049E-006  1.924307762160925E-006
  1.080205367926756E-005  1.924307762160925E-006
  1.379219584575180E-005  1.924307762160925E-006
  1.873731367970014E-005  1.924307762160925E-006
  2.753226783170672E-005  1.924307762160925E-006
  3.988506531259358E-005  1.924307762160925E-006
  4.506094875720274E-005  1.924307762160925E-006
  5.038633311565891E-005  1.924307762160925E-006
  5.602401380489414E-005  1.924307762160925E-006
  5.953711952397759E-005  1.924307762160925E-006
  6.828862372319620E-005  1.924307762160925E-006
  7.037661731554675E-005  1.924307762160925E-006
  8.758569906107325E-005  1.924307762160925E-006
  8.926837202858436E-005  1.924307762160925E-006
  1.093913376345197E-004  1.924307762160925E-006
  1.128276332351451E-004  1.924307762160925E-006
  1.188710643009866E-004  1.924307762160925E-006
  1.223710997192858E-004  1.924307762160925E-006
  1.275614166775509E-004  1.924307762160925E-006
  1.896754219599593E-004  1.924307762160925E-006
  2.391516299548842E-004  1.924307762160925E-006
  2.656045576209288E-004  1.924307762160925E-006
  2.656361709099611E-004  1.924307762160925E-006
  2.688018134355346E-004  1.924307762160925E-006
  3.354463294126262E-004  1.924307762160925E-006
  3.599919017216694E-004  1.924307762160925E-006
  3.606425182926327E-004  1.924307762160925E-006
  3.906294588314519E-004  1.924307762160925E-006
  3.969415225823928E-004  1.924307762160925E-006
  5.336662402899852E-004  1.924307762160925E-006
  5.649033924945205E-004  1.924307762160925E-006
  5.926408770577671E-004  1.924307762160925E-006
  5.930312566894524E-004  1.924307762160925E-006
  5.930331942003503E-004  1.924307762160925E-006
  5.931651160277356E-004  1.924307762160925E-006
  5.979456608790021E-004  1.924307762160925E-006
  6.037929283180919E-004  1.924307762160925E-006
  6.038131230409942E-004  1.924307762160925E-006
  6.164474235531652E-004  1.924307762160925E-006
  6.236356595230458E-004  1.924307762160925E-006
  6.551367901350577E-004  1.924307762160925E-006
  6.590541328706708E-004  1.924307762160925E-006
  6.594082715159634E-004  1.924307762160925E-006
  7.941613390418755E-004  1.924307762160925E-006
  8.445574268806002E-004  1.924307762160925E-006
  1.035305909279481E-003  1.924307762160925E-006
  1.038301713510512E-003  1.924307762160925E-006
  1.073785768209954E-003  1.924307762160925E-006
  1.104308377607988E-003  1.924307762160925E-006
  1.104554717173243E-003  1.924307762160925E-006
  1.136150267016200E-003  1.924307762160925E-006
  1.138493929624950E-003  1.924307762160925E-006
  1.156580058017690E-003  1.924307762160925E-006
  1.169413843283873E-003  1.924307762160925E-006
  1.169826591643792E-003  1.924307762160925E-006
  1.170405941388045E-003  1.924307762160925E-006
  1.170424267207118E-003  1.924307762160925E-006
  1.399721151809761E-003  1.924307762160925E-006
  1.431673978018525E-003  1.924307762160925E-006
  1.685977480742025E-003  1.924307762160925E-006
  1.812352299797633E-003  1.924307762160925E-006
  2.318408813502026E-003  1.924307762160925E-006
  2.322727664403034E-003  1.924307762160925E-006
  2.710068368521303E-003  1.924307762160925E-006
  3.071662085228369E-003  1.924307762160925E-006
  3.213899993746167E-003  1.924307762160925E-006
  3.238261872288786E-003  1.924307762160925E-006
  3.728193644088072E-003  1.924307762160925E-006
  3.733182844448753E-003  1.924307762160925E-006
  4.053145132648162E-003  1.924307762160925E-006
  4.054733152148287E-003  1.924307762160925E-006
 cut=1d-8, nber non-redundant internal coords=          72
 Check on Eigenvals of non-red overlap matrix:
  0.00000192  0.00000382  0.00001080  0.00001379  0.00001874  0.00002753  0.00003989  0.00004506
  0.00005039  0.00005602  0.00005954  0.00006829  0.00007038  0.00008759  0.00008927  0.00010939
  0.00011283  0.00011887  0.00012237  0.00012756  0.00018968  0.00023915  0.00026560  0.00026564
  0.00026880  0.00033545  0.00035999  0.00036064  0.00039063  0.00039694  0.00053367  0.00056490
  0.00059264  0.00059303  0.00059303  0.00059317  0.00059795  0.00060379  0.00060381  0.00061645
  0.00062364  0.00065514  0.00065905  0.00065941  0.00079416  0.00084456  0.00103531  0.00103830
  0.00107379  0.00110431  0.00110455  0.00113615  0.00113849  0.00115658  0.00116941  0.00116983
  0.00117041  0.00117042  0.00139972  0.00143167  0.00168598  0.00181235  0.00231841  0.00232273
  0.00271007  0.00307166  0.00321390  0.00323826  0.00372819  0.00373318  0.00405315  0.00405473
 Checking for correct frequencies
 recalc frequencies=
    -0.0   -0.0   -0.0   -0.0    0.0    0.0   22.1   48.5   76.1  118.4
   185.5  220.6  278.9  286.8  403.5  409.9  444.7  469.4  473.6  537.0
   611.1  618.5  637.2  649.3  653.5  723.7  738.6  763.4  772.2  792.1
   811.9  818.3  859.0  865.3  869.0  961.2  962.1  975.9  976.2  987.5
   996.1 1022.1 1022.4 1098.0 1100.9 1169.2 1170.3 1190.0 1194.4 1210.5
  1242.1 1269.1 1321.9 1353.4 1370.4 1371.4 1391.7 1456.9 1467.5 1490.7
  1508.5 1536.4 1537.7 1570.2 1613.7 1651.6 3149.8 3153.4 3154.9 3158.2
  3160.1 3162.3 3172.5 3172.7 3185.5 3185.7 3192.2 3192.5
 recalc symmetries=
                                                                       
                                                                       
                                                                       
                                                                       
                                                                       
                                                                       
                                                                       
                                                         
 recalc freqs check OK
 Zero-point lengths:
 10.0000 10.0000 10.0000 10.0000 10.0000 10.0000 52.7921 35.5938 28.4095 22.7843
 18.2030 16.6918 14.8451 14.6393 12.3421 12.2450 11.7564 11.4426 11.3918 10.6979
 10.0282  9.9687  9.8213  9.7293  9.6976  9.2152  9.1221  8.9727  8.9214  8.8085
  8.7004  8.6662  8.4588  8.4277  8.4098  7.9961  7.9926  7.9359  7.9346  7.8893
  7.8549  7.7543  7.7533  7.4815  7.4716  7.2501  7.2467  7.1865  7.1732  7.1255
  7.0342  6.9591  6.8187  6.7389  6.6969  6.6943  6.6455  6.4950  6.4716  6.4209
  6.3829  6.3247  6.3221  6.2562  6.1713  6.1003  4.4173  4.4148  4.4137  4.4114
  4.4100  4.4085  4.4015  4.4013  4.3925  4.3923  4.3879  4.3877
 highest evec of mol 2
  0.0095  0.0229  0.0089
 -0.0083 -0.0187 -0.0113
 -0.0045 -0.0017 -0.0012
 -0.0130 -0.0175 -0.0119
  0.0266 -0.0434 -0.0250
  0.1017 -0.0053  0.0035
  0.0469  0.0653  0.0446
 -0.0808  0.1162  0.0695
  0.0040  0.0017  0.0007
  0.0714 -0.1130 -0.0417
 -0.0421 -0.0669 -0.0225
 -0.0916  0.0014  0.0036
 -0.0240  0.0422  0.0164
  0.0120  0.0185  0.0062
 -0.0427 -0.0792 -0.0324
  0.0383  0.0659  0.0388
  0.0374  0.0544  0.0366
 -0.0897  0.1358  0.0779
 -0.3259  0.0096 -0.0157
 -0.1423 -0.2042 -0.1388
  0.2583 -0.3893 -0.2339
 -0.2284  0.3789  0.1394
  0.1280  0.2088  0.0705
  0.2935  0.0026 -0.0088
  0.0809 -0.1321 -0.0516
 -0.0348 -0.0573 -0.0196
 Enter nber and list of atoms to keep of mol #2
 keep list:          26           1           2           3           4
           5           6           7           8           9          10
          11          12          13          14          15          16
          17          18          19          20          21          22
          23          24          25          26
 reordering atoms
           1  0.510892648536751     
           2 -0.510866962221675     
           3  -1.89649966973620     
           4  -2.84129076564315     
           5  -4.19738116699542     
           6  -4.69135188209456     
           7  -3.79275198788586     
           8  -2.42817997858376     
           9   1.89651863611435     
          10   2.42806512324482     
          11   3.79260051042277     
          12   4.69131561311724     
          13   4.19749274519402     
          14   2.84143713653067     
          15  0.222686012797026     
          16 -0.222643361281834     
          17  -2.46544415277629     
          18  -4.89011098950664     
          19  -5.75947727609529     
          20  -4.17250645430611     
          21  -1.75174338830219     
          22   1.75156513399867     
          23   4.17223774966370     
          24   5.75941222360292     
          25   4.89030664788427     
          26   2.46572149337082     
           1           1
           2           2
           3           3
           4           4
           5           5
           6           6
           7           7
           8           8
           9           9
          10          10
          11          11
          12          12
          13          13
          14          14
          15          15
          16          16
          17          17
          18          18
          19          19
          20          20
          21          21
          22          22
          23          23
          24          24
          25          25
          26          26
 initial cartes coords mol 1
   6   0.00615  -0.45293   0.49687
   6   0.00496   0.45317  -0.49690
   6   0.00540   0.18641  -1.93778
   6  -0.08192   1.27222  -2.82546
   6  -0.09095   1.08254  -4.20356
   6  -0.01027  -0.20308  -4.73174
   6   0.08133  -1.29437  -3.86596
   6   0.09045  -1.10442  -2.49081
   6   0.00613  -0.18628   1.93776
   6   0.09117   1.10447   2.49098
   6   0.08139   1.29425   3.86616
   6  -0.01084   0.20288   4.73176
   6  -0.09137  -1.08268   4.20339
   6  -0.08163  -1.27219   2.82527
   1  -0.00345  -1.50906   0.24027
   1  -0.00716   1.50929  -0.24031
   1  -0.14566   2.27773  -2.42211
   1  -0.16060   1.93936  -4.86449
   1  -0.01594  -0.35613  -5.80485
   1   0.14885  -2.29929  -4.26807
   1   0.17009  -1.96797  -1.84118
   1   0.17154   1.96804   1.84146
   1   0.14897   2.29910   4.26843
   1  -0.01701   0.35579   5.80489
   1  -0.16143  -1.93957   4.86418
   1  -0.14527  -2.27764   2.42177
 initial cartes coords mol 2
   6  -0.12620  -0.49027   0.51089
   6  -0.12609   0.49005  -0.51087
   6  -0.05092   0.22407  -1.89650
   6  -0.13412   1.29612  -2.84129
   6  -0.06889   1.06658  -4.19738
   6   0.08599  -0.24514  -4.69135
   6   0.17985  -1.31428  -3.79275
   6   0.11448  -1.10406  -2.42818
   6  -0.05126  -0.22417   1.89652
   6   0.11411   1.10403   2.42807
   6   0.17987   1.31436   3.79260
   6   0.08633   0.24529   4.69132
   6  -0.06878  -1.06646   4.19749
   6  -0.13436  -1.29612   2.84144
   1  -0.21423  -1.53283   0.22269
   1  -0.21431   1.53259  -0.22264
   1  -0.25656   2.30710  -2.46544
   1  -0.13757   1.89803  -4.89011
   1   0.13218  -0.42335  -5.75948
   1   0.30655  -2.32269  -4.17251
   1   0.20695  -1.94457  -1.75174
   1   0.20623   1.94451   1.75157
   1   0.30658   2.32281   4.17224
   1   0.13282   0.42359   5.75941
   1  -0.13731  -1.89786   4.89031
   1  -0.25686  -2.30714   2.46572
 loop 1 0
 mod cartes coords mol 2
   6  -0.12620  -0.49027   0.51089
   6  -0.12609   0.49005  -0.51087
   6  -0.05092   0.22407  -1.89650
   6  -0.13412   1.29612  -2.84129
   6  -0.06889   1.06658  -4.19738
   6   0.08599  -0.24514  -4.69135
   6   0.17985  -1.31428  -3.79275
   6   0.11448  -1.10406  -2.42818
   6  -0.05126  -0.22417   1.89652
   6   0.11411   1.10403   2.42807
   6   0.17987   1.31436   3.79260
   6   0.08633   0.24529   4.69132
   6  -0.06878  -1.06646   4.19749
   6  -0.13436  -1.29612   2.84144
   1  -0.21423  -1.53283   0.22269
   1  -0.21431   1.53259  -0.22264
   1  -0.25656   2.30710  -2.46544
   1  -0.13757   1.89803  -4.89011
   1   0.13218  -0.42335  -5.75948
   1   0.30655  -2.32269  -4.17251
   1   0.20695  -1.94457  -1.75174
   1   0.20623   1.94451   1.75157
   1   0.30658   2.32281   4.17224
   1   0.13282   0.42359   5.75941
   1  -0.13731  -1.89786   4.89031
   1  -0.25686  -2.30714   2.46572
 read in order, maxerr=  0.21 for atom  15
 final axis swaps:           1           1           1
 final xyz swap pattern=           1
 reorder list:
   1   2   3   4   5   6   7   8   9  10  11  12  13  14  15  16  17  18  19  20
  21  22  23  24  25  26
 axis signs=           1           1           1
  6    -0.126198 -0.490265  0.510893     0.006148 -0.452928  0.496867
  6    -0.126091  0.490049 -0.510867     0.004957  0.453173 -0.496895
  6    -0.050922  0.224070 -1.896500     0.005399  0.186415 -1.937776
  6    -0.134120  1.296124 -2.841291    -0.081916  1.272216 -2.825458
  6    -0.068892  1.066575 -4.197381    -0.090953  1.082544 -4.203561
  6     0.085994 -0.245137 -4.691352    -0.010268 -0.203083 -4.731742
  6     0.179852 -1.314282 -3.792752     0.081334 -1.294373 -3.865961
  6     0.114476 -1.104057 -2.428180     0.090449 -1.104419 -2.490808
  6    -0.051260 -0.224167  1.896519     0.006128 -0.186278  1.937763
  6     0.114106  1.104025  2.428065     0.091172  1.104472  2.490981
  6     0.179873  1.314357  3.792601     0.081393  1.294253  3.866163
  6     0.086329  0.245287  4.691316    -0.010842  0.202877  4.731763
  6    -0.068781 -1.066457  4.197493    -0.091372 -1.082684  4.203390
  6    -0.134364 -1.296122  2.841437    -0.081629 -1.272185  2.825275
  1    -0.214225 -1.532835  0.222686    -0.003450 -1.509060  0.240270
  1    -0.214315  1.532592 -0.222643    -0.007158  1.509286 -0.240310
  1    -0.256555  2.307097 -2.465444    -0.145661  2.277727 -2.422105
  1    -0.137574  1.898034 -4.890111    -0.160601  1.939361 -4.864486
  1     0.132177 -0.423352 -5.759477    -0.015937 -0.356126 -5.804854
  1     0.306546 -2.322691 -4.172506     0.148851 -2.299288 -4.268066
  1     0.206949 -1.944565 -1.751743     0.170092 -1.967967 -1.841176
  1     0.206232  1.944513  1.751565     0.171535  1.968039  1.841461
  1     0.306577  2.322809  4.172238     0.148971  2.299099  4.268428
  1     0.132821  0.423589  5.759412    -0.017013  0.355794  5.804890
  1    -0.137314 -1.897858  4.890307    -0.161427 -1.939574  4.864176
  1    -0.256857 -2.307136  2.465721    -0.145273 -2.277642  2.421772
 generating redundant internal coords
         300        3600          26
 Adding extra bonds for z output only
           6           6           6           6           6           6
           6           6           6           6           6           6
           6           6           1           1           1           1
           1           1           1           1           1           1
           1           1
 search for int coords
   1 str   2   1   1.416
   2 str   3   2   1.413
   3 str   4   3   1.431
   4 str   5   4   1.377
   5 str   6   5   1.410
   6 str   7   6   1.400
   7 str   8   3   1.440
   8 str   8   7   1.382
   9 str   9   1   1.413
  10 str  10   9   1.440
  11 str  11  10   1.382
  12 str  12  11   1.400
  13 str  13  12   1.410
  14 str  14   9   1.431
  15 str  14  13   1.377
  16 str  15   1   1.085
  17 str  16   2   1.085
  18 str  17   4   1.086
  19 str  18   5   1.084
  20 str  19   6   1.084
  21 str  20   7   1.085
  22 str  21   8   1.083
  23 str  22  10   1.083
  24 str  23  11   1.085
  25 str  24  12   1.084
  26 str  25  13   1.084
  27 str  26  14   1.086
 nber stretches=          27
  28 ben   1   2   3
  29 prop tor   1   2   3   4
  30 prop tor   1   2   3   8
  31 ben   1   2  16
  32 ben   1   9  10
  33 prop tor   1   9  10  11
  34 prop tor   1   9  10  22
  35 ben   1   9  14
  36 prop tor   1   9  14  13
  37 prop tor   1   9  14  26
  38 ben   2   1   9
  39 prop tor   2   1   9  10
  40 prop tor   2   1   9  14
  41 ben   2   1  15
  42 ben   2   3   4
  43 prop tor   2   3   4   5
  44 prop tor   2   3   4  17
  45 ben   2   3   8
  46 prop tor   2   3   8   7
  47 prop tor   2   3   8  21
  48 ben   3   2  16
  49 ben   3   4   5
  50 prop tor   3   4   5   6
  51 prop tor   3   4   5  18
  52 ben   3   4  17
  53 ben   3   8   7
  54 ben   3   8  21
  55 ben   4   3   8
  56 prop tor   4   3   8   7
  57 prop tor   4   3   8  21
  58 ben   4   5   6
  59 prop tor   4   5   6   7
  60 prop tor   4   5   6  19
  61 ben   4   5  18
  62 ben   5   4  17
  63 ben   5   6   7
  64 prop tor   5   6   7   8
  65 prop tor   5   6   7  20
  66 ben   5   6  19
  67 ben   6   5  18
  68 ben   6   7   8
  69 prop tor   6   7   8   3
  70 prop tor   6   7   8  21
  71 ben   6   7  20
  72 ben   7   6  19
  73 ben   7   8  21
  74 prop tor   8   3   4   5
  75 prop tor   8   3   4  17
  76 ben   8   7  20
  77 prop tor   9   1   2   3
  78 prop tor   9   1   2  16
  79 ben   9   1  15
  80 ben   9  10  11
  81 prop tor   9  10  11  12
  82 prop tor   9  10  11  23
  83 ben   9  10  22
  84 ben   9  14  13
  85 ben   9  14  26
  86 ben  10   9  14
  87 prop tor  10   9  14  13
  88 prop tor  10   9  14  26
  89 ben  10  11  12
  90 prop tor  10  11  12  13
  91 prop tor  10  11  12  24
  92 ben  10  11  23
  93 ben  11  10  22
  94 ben  11  12  13
  95 prop tor  11  12  13  14
  96 prop tor  11  12  13  25
  97 ben  11  12  24
  98 ben  12  11  23
  99 ben  12  13  14
 100 prop tor  12  13  14   9
 101 prop tor  12  13  14  26
 102 ben  12  13  25
 103 ben  13  12  24
 104 ben  13  14  26
 105 prop tor  14   9  10  11
 106 prop tor  14   9  10  22
 107 ben  14  13  25
 108 prop tor  15   1   2   3
 109 prop tor  15   1   2  16
 110 prop tor  15   1   9  10
 111 prop tor  15   1   9  14
 112 prop tor  16   2   3   4
 113 prop tor  16   2   3   8
 114 prop tor  17   4   5   6
 115 prop tor  17   4   5  18
 116 prop tor  18   5   6   7
 117 prop tor  18   5   6  19
 118 prop tor  19   6   7   8
 119 prop tor  19   6   7  20
 120 prop tor  20   7   8   3
 121 prop tor  20   7   8  21
 122 prop tor  22  10  11  12
 123 prop tor  22  10  11  23
 124 prop tor  23  11  12  13
 125 prop tor  23  11  12  24
 126 prop tor  24  12  13  14
 127 prop tor  24  12  13  25
 128 prop tor  25  13  14   9
 129 prop tor  25  13  14  26
 nber bend=              42
 nber lin bend=           0
 nber prop tor=          60
 nber impr tor=           0
 nber tot redund int=         129
 generating redundant internal coords
         300        3600          26
 search for int coords
   1 str   2   1   1.345
   2 str   3   2   1.465
   3 str   4   3   1.405
   4 str   5   4   1.391
   5 str   6   5   1.392
   6 str   7   6   1.396
   7 str   8   3   1.407
   8 str   8   7   1.388
   9 str   9   1   1.465
  10 str  10   9   1.407
  11 str  11  10   1.388
  12 str  12  11   1.396
  13 str  13  12   1.392
  14 str  14   9   1.405
  15 str  14  13   1.391
  16 str  15   1   1.087
  17 str  16   2   1.087
  18 str  17   4   1.085
  19 str  18   5   1.084
  20 str  19   6   1.084
  21 str  20   7   1.084
  22 str  21   8   1.084
  23 str  22  10   1.084
  24 str  23  11   1.084
  25 str  24  12   1.084
  26 str  25  13   1.084
  27 str  26  14   1.085
 nber stretches=          27
  28 ben   1   2   3
  29 prop tor   1   2   3   4
  30 prop tor   1   2   3   8
  31 ben   1   2  16
  32 ben   1   9  10
  33 prop tor   1   9  10  11
  34 prop tor   1   9  10  22
  35 ben   1   9  14
  36 prop tor   1   9  14  13
  37 prop tor   1   9  14  26
  38 ben   2   1   9
  39 prop tor   2   1   9  10
  40 prop tor   2   1   9  14
  41 ben   2   1  15
  42 ben   2   3   4
  43 prop tor   2   3   4   5
  44 prop tor   2   3   4  17
  45 ben   2   3   8
  46 prop tor   2   3   8   7
  47 prop tor   2   3   8  21
  48 ben   3   2  16
  49 ben   3   4   5
  50 prop tor   3   4   5   6
  51 prop tor   3   4   5  18
  52 ben   3   4  17
  53 ben   3   8   7
  54 ben   3   8  21
  55 ben   4   3   8
  56 prop tor   4   3   8   7
  57 prop tor   4   3   8  21
  58 ben   4   5   6
  59 prop tor   4   5   6   7
  60 prop tor   4   5   6  19
  61 ben   4   5  18
  62 ben   5   4  17
  63 ben   5   6   7
  64 prop tor   5   6   7   8
  65 prop tor   5   6   7  20
  66 ben   5   6  19
  67 ben   6   5  18
  68 ben   6   7   8
  69 prop tor   6   7   8   3
  70 prop tor   6   7   8  21
  71 ben   6   7  20
  72 ben   7   6  19
  73 ben   7   8  21
  74 prop tor   8   3   4   5
  75 prop tor   8   3   4  17
  76 ben   8   7  20
  77 prop tor   9   1   2   3
  78 prop tor   9   1   2  16
  79 ben   9   1  15
  80 ben   9  10  11
  81 prop tor   9  10  11  12
  82 prop tor   9  10  11  23
  83 ben   9  10  22
  84 ben   9  14  13
  85 ben   9  14  26
  86 ben  10   9  14
  87 prop tor  10   9  14  13
  88 prop tor  10   9  14  26
  89 ben  10  11  12
  90 prop tor  10  11  12  13
  91 prop tor  10  11  12  24
  92 ben  10  11  23
  93 ben  11  10  22
  94 ben  11  12  13
  95 prop tor  11  12  13  14
  96 prop tor  11  12  13  25
  97 ben  11  12  24
  98 ben  12  11  23
  99 ben  12  13  14
 100 prop tor  12  13  14   9
 101 prop tor  12  13  14  26
 102 ben  12  13  25
 103 ben  13  12  24
 104 ben  13  14  26
 105 prop tor  14   9  10  11
 106 prop tor  14   9  10  22
 107 ben  14  13  25
 108 prop tor  15   1   2   3
 109 prop tor  15   1   2  16
 110 prop tor  15   1   9  10
 111 prop tor  15   1   9  14
 112 prop tor  16   2   3   4
 113 prop tor  16   2   3   8
 114 prop tor  17   4   5   6
 115 prop tor  17   4   5  18
 116 prop tor  18   5   6   7
 117 prop tor  18   5   6  19
 118 prop tor  19   6   7   8
 119 prop tor  19   6   7  20
 120 prop tor  20   7   8   3
 121 prop tor  20   7   8  21
 122 prop tor  22  10  11  12
 123 prop tor  22  10  11  23
 124 prop tor  23  11  12  13
 125 prop tor  23  11  12  24
 126 prop tor  24  12  13  14
 127 prop tor  24  12  13  25
 128 prop tor  25  13  14   9
 129 prop tor  25  13  14  26
 nber bend=              42
 nber lin bend=           0
 nber prop tor=          60
 nber impr tor=           0
 nber tot redund int=         129
 Eigenvalues of G in red int coords
    Gval -0.00000000 -0.00000000 -0.00000000 -0.00000000 -0.00000000 -0.00000000 -0.00000000 -0.00000000
    Gval -0.00000000 -0.00000000 -0.00000000 -0.00000000 -0.00000000 -0.00000000 -0.00000000 -0.00000000
    Gval -0.00000000 -0.00000000 -0.00000000 -0.00000000 -0.00000000 -0.00000000 -0.00000000 -0.00000000
    Gval -0.00000000 -0.00000000 -0.00000000  0.00000000  0.00000000  0.00000000  0.00000000  0.00000000
    Gval  0.00000000  0.00000000  0.00000000  0.00000000  0.00000000  0.00000000  0.00000000  0.00000000
    Gval  0.00000000  0.00000000  0.00000000  0.00000000  0.00000000  0.00000000  0.00000000  0.00000000
    Gval  0.00000000  0.00000000  0.00000000  0.00000000  0.00000000  0.00000000  0.00000000  0.00000000
    Gval  0.00000000  0.00000192  0.00000391  0.00001127  0.00001340  0.00001917  0.00002768  0.00003963
    Gval  0.00004522  0.00005064  0.00005623  0.00005961  0.00006846  0.00007035  0.00008654  0.00009005
    Gval  0.00011085  0.00011230  0.00011905  0.00012274  0.00012904  0.00018619  0.00024294  0.00026425
    Gval  0.00026963  0.00026998  0.00033327  0.00036567  0.00036610  0.00039680  0.00041006  0.00053248
    Gval  0.00057462  0.00059242  0.00059306  0.00059306  0.00059317  0.00059658  0.00060424  0.00060426
    Gval  0.00061692  0.00062376  0.00065697  0.00066067  0.00066078  0.00081009  0.00083302  0.00103531
    Gval  0.00103925  0.00106457  0.00110763  0.00110802  0.00113546  0.00113716  0.00115769  0.00116916
    Gval  0.00116976  0.00117230  0.00117230  0.00141469  0.00144118  0.00170374  0.00182876  0.00233431
    Gval  0.00234079  0.00271422  0.00306592  0.00318593  0.00321615  0.00372630  0.00373055  0.00406564
    Gval  0.00406725
  1.919257660769147E-006  1.919257660769147E-006
  3.905749360618669E-006  1.919257660769147E-006
  1.126850697884761E-005  1.919257660769147E-006
  1.340172898487130E-005  1.919257660769147E-006
  1.916538130637193E-005  1.919257660769147E-006
  2.768405864434810E-005  1.919257660769147E-006
  3.963276530976695E-005  1.919257660769147E-006
  4.522125766338657E-005  1.919257660769147E-006
  5.064321691742100E-005  1.919257660769147E-006
  5.622696665443816E-005  1.919257660769147E-006
  5.960543392150749E-005  1.919257660769147E-006
  6.845740115632200E-005  1.919257660769147E-006
  7.034539955759554E-005  1.919257660769147E-006
  8.654171468888419E-005  1.919257660769147E-006
  9.005387441607605E-005  1.919257660769147E-006
  1.108524092393184E-004  1.919257660769147E-006
  1.122981386905860E-004  1.919257660769147E-006
  1.190450292106802E-004  1.919257660769147E-006
  1.227373408235327E-004  1.919257660769147E-006
  1.290442084568055E-004  1.919257660769147E-006
  1.861873393698363E-004  1.919257660769147E-006
  2.429416708696478E-004  1.919257660769147E-006
  2.642479088062827E-004  1.919257660769147E-006
  2.696275967809881E-004  1.919257660769147E-006
  2.699821942644317E-004  1.919257660769147E-006
  3.332723901432424E-004  1.919257660769147E-006
  3.656707489528012E-004  1.919257660769147E-006
  3.660974106840847E-004  1.919257660769147E-006
  3.968008987138776E-004  1.919257660769147E-006
  4.100619515293781E-004  1.919257660769147E-006
  5.324793725059968E-004  1.919257660769147E-006
  5.746161940307916E-004  1.919257660769147E-006
  5.924180243331854E-004  1.919257660769147E-006
  5.930583637672408E-004  1.919257660769147E-006
  5.930621403478569E-004  1.919257660769147E-006
  5.931700679581453E-004  1.919257660769147E-006
  5.965797321867776E-004  1.919257660769147E-006
  6.042383882192016E-004  1.919257660769147E-006
  6.042621095375202E-004  1.919257660769147E-006
  6.169150034023690E-004  1.919257660769147E-006
  6.237600870991943E-004  1.919257660769147E-006
  6.569705362978002E-004  1.919257660769147E-006
  6.606667925206308E-004  1.919257660769147E-006
  6.607775159312312E-004  1.919257660769147E-006
  8.100874371803023E-004  1.919257660769147E-006
  8.330202486102445E-004  1.919257660769147E-006
  1.035309689834745E-003  1.919257660769147E-006
  1.039249031055883E-003  1.919257660769147E-006
  1.064571531068174E-003  1.919257660769147E-006
  1.107631656617652E-003  1.919257660769147E-006
  1.108019301234241E-003  1.919257660769147E-006
  1.135458692478389E-003  1.919257660769147E-006
  1.137159522897239E-003  1.919257660769147E-006
  1.157686158246447E-003  1.919257660769147E-006
  1.169163572801084E-003  1.919257660769147E-006
  1.169759019183514E-003  1.919257660769147E-006
  1.172296106954878E-003  1.919257660769147E-006
  1.172299308080789E-003  1.919257660769147E-006
  1.414685384480903E-003  1.919257660769147E-006
  1.441182222002094E-003  1.919257660769147E-006
  1.703735399473513E-003  1.919257660769147E-006
  1.828757916775558E-003  1.919257660769147E-006
  2.334314151064582E-003  1.919257660769147E-006
  2.340786215734600E-003  1.919257660769147E-006
  2.714215265904262E-003  1.919257660769147E-006
  3.065918829613168E-003  1.919257660769147E-006
  3.185928339967162E-003  1.919257660769147E-006
  3.216152936241809E-003  1.919257660769147E-006
  3.726301920691775E-003  1.919257660769147E-006
  3.730554682850870E-003  1.919257660769147E-006
  4.065639180820369E-003  1.919257660769147E-006
  4.067249281821958E-003  1.919257660769147E-006
 cut=1d-8, nber non-redundant internal coords=          72
 Check on Eigenvals of non-red overlap matrix:
  0.00000192  0.00000391  0.00001127  0.00001340  0.00001917  0.00002768  0.00003963  0.00004522
  0.00005064  0.00005623  0.00005961  0.00006846  0.00007035  0.00008654  0.00009005  0.00011085
  0.00011230  0.00011905  0.00012274  0.00012904  0.00018619  0.00024294  0.00026425  0.00026963
  0.00026998  0.00033327  0.00036567  0.00036610  0.00039680  0.00041006  0.00053248  0.00057462
  0.00059242  0.00059306  0.00059306  0.00059317  0.00059658  0.00060424  0.00060426  0.00061692
  0.00062376  0.00065697  0.00066067  0.00066078  0.00081009  0.00083302  0.00103531  0.00103925
  0.00106457  0.00110763  0.00110802  0.00113546  0.00113716  0.00115769  0.00116916  0.00116976
  0.00117230  0.00117230  0.00141469  0.00144118  0.00170374  0.00182876  0.00233431  0.00234079
  0.00271422  0.00306592  0.00318593  0.00321615  0.00372630  0.00373055  0.00406564  0.00406725
 generating redundant internal coords
         300        3600          26
 search for int coords
   1 str   2   1   1.416
   2 str   3   2   1.413
   3 str   4   3   1.431
   4 str   5   4   1.377
   5 str   6   5   1.410
   6 str   7   6   1.400
   7 str   8   3   1.440
   8 str   8   7   1.382
   9 str   9   1   1.413
  10 str  10   9   1.440
  11 str  11  10   1.382
  12 str  12  11   1.400
  13 str  13  12   1.410
  14 str  14   9   1.431
  15 str  14  13   1.377
  16 str  15   1   1.085
  17 str  16   2   1.085
  18 str  17   4   1.086
  19 str  18   5   1.084
  20 str  19   6   1.084
  21 str  20   7   1.085
  22 str  21   8   1.083
  23 str  22  10   1.083
  24 str  23  11   1.085
  25 str  24  12   1.084
  26 str  25  13   1.084
  27 str  26  14   1.086
 nber stretches=          27
  28 ben   1   2   3
  29 prop tor   1   2   3   4
  30 prop tor   1   2   3   8
  31 ben   1   2  16
  32 ben   1   9  10
  33 prop tor   1   9  10  11
  34 prop tor   1   9  10  22
  35 ben   1   9  14
  36 prop tor   1   9  14  13
  37 prop tor   1   9  14  26
  38 ben   2   1   9
  39 prop tor   2   1   9  10
  40 prop tor   2   1   9  14
  41 ben   2   1  15
  42 ben   2   3   4
  43 prop tor   2   3   4   5
  44 prop tor   2   3   4  17
  45 ben   2   3   8
  46 prop tor   2   3   8   7
  47 prop tor   2   3   8  21
  48 ben   3   2  16
  49 ben   3   4   5
  50 prop tor   3   4   5   6
  51 prop tor   3   4   5  18
  52 ben   3   4  17
  53 ben   3   8   7
  54 ben   3   8  21
  55 ben   4   3   8
  56 prop tor   4   3   8   7
  57 prop tor   4   3   8  21
  58 ben   4   5   6
  59 prop tor   4   5   6   7
  60 prop tor   4   5   6  19
  61 ben   4   5  18
  62 ben   5   4  17
  63 ben   5   6   7
  64 prop tor   5   6   7   8
  65 prop tor   5   6   7  20
  66 ben   5   6  19
  67 ben   6   5  18
  68 ben   6   7   8
  69 prop tor   6   7   8   3
  70 prop tor   6   7   8  21
  71 ben   6   7  20
  72 ben   7   6  19
  73 ben   7   8  21
  74 prop tor   8   3   4   5
  75 prop tor   8   3   4  17
  76 ben   8   7  20
  77 prop tor   9   1   2   3
  78 prop tor   9   1   2  16
  79 ben   9   1  15
  80 ben   9  10  11
  81 prop tor   9  10  11  12
  82 prop tor   9  10  11  23
  83 ben   9  10  22
  84 ben   9  14  13
  85 ben   9  14  26
  86 ben  10   9  14
  87 prop tor  10   9  14  13
  88 prop tor  10   9  14  26
  89 ben  10  11  12
  90 prop tor  10  11  12  13
  91 prop tor  10  11  12  24
  92 ben  10  11  23
  93 ben  11  10  22
  94 ben  11  12  13
  95 prop tor  11  12  13  14
  96 prop tor  11  12  13  25
  97 ben  11  12  24
  98 ben  12  11  23
  99 ben  12  13  14
 100 prop tor  12  13  14   9
 101 prop tor  12  13  14  26
 102 ben  12  13  25
 103 ben  13  12  24
 104 ben  13  14  26
 105 prop tor  14   9  10  11
 106 prop tor  14   9  10  22
 107 ben  14  13  25
 108 prop tor  15   1   2   3
 109 prop tor  15   1   2  16
 110 prop tor  15   1   9  10
 111 prop tor  15   1   9  14
 112 prop tor  16   2   3   4
 113 prop tor  16   2   3   8
 114 prop tor  17   4   5   6
 115 prop tor  17   4   5  18
 116 prop tor  18   5   6   7
 117 prop tor  18   5   6  19
 118 prop tor  19   6   7   8
 119 prop tor  19   6   7  20
 120 prop tor  20   7   8   3
 121 prop tor  20   7   8  21
 122 prop tor  22  10  11  12
 123 prop tor  22  10  11  23
 124 prop tor  23  11  12  13
 125 prop tor  23  11  12  24
 126 prop tor  24  12  13  14
 127 prop tor  24  12  13  25
 128 prop tor  25  13  14   9
 129 prop tor  25  13  14  26
 nber bend=              42
 nber lin bend=           0
 nber prop tor=          60
 nber impr tor=           0
 nber tot redund int=         129
 Eigenvalues of G in red int coords
    Gval -0.00000000 -0.00000000 -0.00000000 -0.00000000 -0.00000000 -0.00000000 -0.00000000 -0.00000000
    Gval -0.00000000 -0.00000000 -0.00000000 -0.00000000 -0.00000000 -0.00000000 -0.00000000 -0.00000000
    Gval -0.00000000 -0.00000000 -0.00000000 -0.00000000 -0.00000000 -0.00000000 -0.00000000 -0.00000000
    Gval -0.00000000 -0.00000000 -0.00000000  0.00000000  0.00000000  0.00000000  0.00000000  0.00000000
    Gval  0.00000000  0.00000000  0.00000000  0.00000000  0.00000000  0.00000000  0.00000000  0.00000000
    Gval  0.00000000  0.00000000  0.00000000  0.00000000  0.00000000  0.00000000  0.00000000  0.00000000
    Gval  0.00000000  0.00000000  0.00000000  0.00000000  0.00000000  0.00000000  0.00000000  0.00000000
    Gval  0.00000000  0.00000192  0.00000382  0.00001080  0.00001379  0.00001874  0.00002753  0.00003989
    Gval  0.00004506  0.00005039  0.00005602  0.00005954  0.00006829  0.00007038  0.00008759  0.00008927
    Gval  0.00010939  0.00011283  0.00011887  0.00012237  0.00012756  0.00018968  0.00023915  0.00026560
    Gval  0.00026564  0.00026880  0.00033545  0.00035999  0.00036064  0.00039063  0.00039694  0.00053367
    Gval  0.00056490  0.00059264  0.00059303  0.00059303  0.00059317  0.00059795  0.00060379  0.00060381
    Gval  0.00061645  0.00062364  0.00065514  0.00065905  0.00065941  0.00079416  0.00084456  0.00103531
    Gval  0.00103830  0.00107379  0.00110431  0.00110455  0.00113615  0.00113849  0.00115658  0.00116941
    Gval  0.00116983  0.00117041  0.00117042  0.00139972  0.00143167  0.00168598  0.00181235  0.00231841
    Gval  0.00232273  0.00271007  0.00307166  0.00321390  0.00323826  0.00372819  0.00373318  0.00405315
    Gval  0.00405473
  1.924307762160787E-006  1.924307762160787E-006
  3.822785779830938E-006  1.924307762160787E-006
  1.080205367926785E-005  1.924307762160787E-006
  1.379219584575212E-005  1.924307762160787E-006
  1.873731367970037E-005  1.924307762160787E-006
  2.753226783170670E-005  1.924307762160787E-006
  3.988506531259357E-005  1.924307762160787E-006
  4.506094875720251E-005  1.924307762160787E-006
  5.038633311565864E-005  1.924307762160787E-006
  5.602401380489455E-005  1.924307762160787E-006
  5.953711952397733E-005  1.924307762160787E-006
  6.828862372319617E-005  1.924307762160787E-006
  7.037661731554644E-005  1.924307762160787E-006
  8.758569906107356E-005  1.924307762160787E-006
  8.926837202858453E-005  1.924307762160787E-006
  1.093913376345197E-004  1.924307762160787E-006
  1.128276332351451E-004  1.924307762160787E-006
  1.188710643009867E-004  1.924307762160787E-006
  1.223710997192856E-004  1.924307762160787E-006
  1.275614166775506E-004  1.924307762160787E-006
  1.896754219599592E-004  1.924307762160787E-006
  2.391516299548842E-004  1.924307762160787E-006
  2.656045576209293E-004  1.924307762160787E-006
  2.656361709099612E-004  1.924307762160787E-006
  2.688018134355350E-004  1.924307762160787E-006
  3.354463294126258E-004  1.924307762160787E-006
  3.599919017216697E-004  1.924307762160787E-006
  3.606425182926329E-004  1.924307762160787E-006
  3.906294588314537E-004  1.924307762160787E-006
  3.969415225823929E-004  1.924307762160787E-006
  5.336662402899852E-004  1.924307762160787E-006
  5.649033924945208E-004  1.924307762160787E-006
  5.926408770577673E-004  1.924307762160787E-006
  5.930312566894520E-004  1.924307762160787E-006
  5.930331942003499E-004  1.924307762160787E-006
  5.931651160277363E-004  1.924307762160787E-006
  5.979456608790017E-004  1.924307762160787E-006
  6.037929283180923E-004  1.924307762160787E-006
  6.038131230409950E-004  1.924307762160787E-006
  6.164474235531650E-004  1.924307762160787E-006
  6.236356595230456E-004  1.924307762160787E-006
  6.551367901350588E-004  1.924307762160787E-006
  6.590541328706717E-004  1.924307762160787E-006
  6.594082715159638E-004  1.924307762160787E-006
  7.941613390418737E-004  1.924307762160787E-006
  8.445574268805998E-004  1.924307762160787E-006
  1.035305909279481E-003  1.924307762160787E-006
  1.038301713510511E-003  1.924307762160787E-006
  1.073785768209954E-003  1.924307762160787E-006
  1.104308377607987E-003  1.924307762160787E-006
  1.104554717173243E-003  1.924307762160787E-006
  1.136150267016200E-003  1.924307762160787E-006
  1.138493929624951E-003  1.924307762160787E-006
  1.156580058017689E-003  1.924307762160787E-006
  1.169413843283875E-003  1.924307762160787E-006
  1.169826591643794E-003  1.924307762160787E-006
  1.170405941388046E-003  1.924307762160787E-006
  1.170424267207121E-003  1.924307762160787E-006
  1.399721151809760E-003  1.924307762160787E-006
  1.431673978018528E-003  1.924307762160787E-006
  1.685977480742025E-003  1.924307762160787E-006
  1.812352299797634E-003  1.924307762160787E-006
  2.318408813502029E-003  1.924307762160787E-006
  2.322727664403042E-003  1.924307762160787E-006
  2.710068368521292E-003  1.924307762160787E-006
  3.071662085228377E-003  1.924307762160787E-006
  3.213899993746171E-003  1.924307762160787E-006
  3.238261872288787E-003  1.924307762160787E-006
  3.728193644088081E-003  1.924307762160787E-006
  3.733182844448762E-003  1.924307762160787E-006
  4.053145132648169E-003  1.924307762160787E-006
  4.054733152148294E-003  1.924307762160787E-006
 cut=1d-8, nber non-redundant internal coords=          72
 Check on Eigenvals of non-red overlap matrix:
  0.00000192  0.00000382  0.00001080  0.00001379  0.00001874  0.00002753  0.00003989  0.00004506
  0.00005039  0.00005602  0.00005954  0.00006829  0.00007038  0.00008759  0.00008927  0.00010939
  0.00011283  0.00011887  0.00012237  0.00012756  0.00018968  0.00023915  0.00026560  0.00026564
  0.00026880  0.00033545  0.00035999  0.00036064  0.00039063  0.00039694  0.00053367  0.00056490
  0.00059264  0.00059303  0.00059303  0.00059317  0.00059795  0.00060379  0.00060381  0.00061645
  0.00062364  0.00065514  0.00065905  0.00065941  0.00079416  0.00084456  0.00103531  0.00103830
  0.00107379  0.00110431  0.00110455  0.00113615  0.00113849  0.00115658  0.00116941  0.00116983
  0.00117041  0.00117042  0.00139972  0.00143167  0.00168598  0.00181235  0.00231841  0.00232273
  0.00271007  0.00307166  0.00321390  0.00323826  0.00372819  0.00373318  0.00405315  0.00405473
 d1=
  -0.2 -16.7 -46.5 -10.5 -13.5  -0.0   0.0   6.1  -0.0  -0.4   5.1   0.0   0.0   0.2   2.1   7.3  -0.0   0.0   3.0   1.7
  -0.0   3.7   5.5   0.0   2.9   0.0  -1.2   0.0   0.6  -0.1   0.6   0.1   0.0   0.1   0.0  -0.1  -0.0   0.0   0.0  -0.6
   0.0   0.7   0.0   0.1   0.1  -1.7  -0.0   0.3   0.0  -1.0  -0.0  -0.2   0.0  -1.5  -0.0  -0.8  -0.0  -0.0  -0.0   0.5
  -0.0  -0.9  -0.1  -0.0   0.0  -2.8  -2.7   0.0  -0.0  -0.7  -0.1  -0.0
 d2=
  -0.0  24.3  46.5 -13.4 -13.1  -0.0  -0.0  -6.1   0.0  -0.9  -5.0  -0.0   0.1   0.3  -2.1  -7.3  -0.0  -0.0   2.7  -2.2
   0.0  -4.3  -0.8   0.1  -5.7  -0.0  -1.1   0.0  -0.1  -0.1   0.5   0.0  -0.0  -0.1   0.0   0.1   0.0  -0.0   0.0   0.6
  -0.0   0.6  -0.0   0.2  -0.1   1.8  -0.0   0.4   0.0  -1.0  -0.0  -0.3   0.0  -1.6  -0.0   0.8   0.0   0.1   0.0  -0.6
  -0.0  -1.0  -0.1   0.0  -0.0   2.4   0.0  -3.0  -0.0   0.8   0.1   0.0
 curvilinear- renormalizn of Dush matrix done
  mol 1 sym            1  -> mol 2 sym            1

 Dushinsky matrix, ncs 2 in terms of ncs 1

   mode   freq    coeff     %      %tot     of    at

   1        -0.  0.0000     0.0     0.0   7         8.
   2        -0.  0.0000     0.0     0.0   7         8.
   3        -0.  0.0000     0.0     0.0   8        58.
   4        -0. -0.0000     0.0     0.0   8        58.
   5         0. -0.0000     0.0     0.0   7         8.
   6         0. -0.0000     0.0     0.0   7         8.
   7        22.  0.6941    48.2    97.2   7         8.
                -0.7089    50.2           8        58.
   8        49. -0.7221    52.1    98.7   7         8.
                -0.6898    47.6           8        58.
   9        76. -0.6081    37.0    92.6   9        62.
                -0.7864    61.8          10        83.
  10       118.  0.5714    32.7   106.4   9        62.
                -0.6377    40.7          10        83.
                 0.5139    26.4          12       218.
  11       185.  0.7906    62.5    90.9  11       204.
                -0.4688    22.0          13       280.
                -0.3409    11.6          14       294.
  12       221. -0.5725    32.8   104.9  11       204.
                -0.6475    41.9          13       280.
                -0.4926    24.3          14       294.
  13       279. -0.4717    22.3   104.7  10        83.
                -0.7985    63.8          12       218.
  14       287. -0.6145    37.8   104.8  13       280.
                 0.7879    62.1          14       294.
  15       403. -0.9950    99.0   100.6  15       411.
  16       410. -0.9429    88.9   100.4  16       412.
  17       445.  0.6992    48.9   100.5  17       468.
                 0.6260    39.2          18       480.
  18       469. -0.9805    96.1   102.2  19       541.
  19       474. -0.6519    42.5   106.4  17       468.
                 0.7493    56.1          18       480.
  20       537. -0.9943    98.9    97.4  20       552.
  21       611.  0.9674    93.6    99.0  21       633.
  22       618.  0.9982    99.6    99.9  22       637.
  23       637.  0.9548    91.2    98.4  23       656.
  24       649. -0.9766    95.4   100.2  24       702.
  25       654. -0.9792    95.9   100.2  25       705.
  26       724. -0.9487    90.0   102.2  26       751.
  27       739.  0.7446    55.5    99.6  27       781.
                -0.4784    22.9          37       987.
                -0.3194    10.2          39      1005.
  28       763. -0.4673    21.8   102.1  27       781.
                 0.7043    49.6          30       845.
                -0.3216    10.3          37       987.
                -0.3384    11.5          39      1005.
  29       772.  0.8999    81.0   102.2  29       844.
  30       792. -0.4374    19.1   102.7  27       781.
                -0.5964    35.6          30       845.
                -0.3669    13.5          33       920.
                -0.3921    15.4          37       987.
                -0.3434    11.8          39      1005.
  31       812.  0.8975    80.5   110.9  31       877.
  32       818.  0.9655    93.2   100.0  28       834.
  33       859.  0.9408    88.5   102.4  32       882.
  34       865.  0.9169    84.1   100.6  34       930.
  35       869. -0.8329    69.4   100.5  33       920.
                 0.4020    16.2          37       987.
  36       961. -0.9740    94.9   100.0  35       974.
  37       962. -0.9758    95.2   100.1  36       975.
  38       976.  0.9779    95.6    99.9  38       998.
  39       976.  0.5681    32.3    99.9  37       987.
                -0.7904    62.5          39      1005.
  40       987.  0.9807    96.2    99.4  41      1015.
  41       996.  0.9771    95.5    99.8  40      1014.
  42      1022.  0.9775    95.6    99.8  42      1050.
  43      1022. -0.9841    96.8    99.9  43      1052.
  44      1098. -0.9848    97.0    99.6  44      1104.
  45      1101.  0.9715    94.4    99.5  45      1107.
  46      1169. -0.8205    67.3   100.7  47      1183.
                 0.3803    14.5          49      1206.
  47      1170.  0.9563    91.5   100.0  46      1182.
  48      1190.  0.5362    28.8   101.7  47      1183.
                 0.6170    38.1          49      1206.
  49      1194. -0.9831    96.7   100.3  48      1204.
  50      1210.  0.5897    34.8   100.9  49      1206.
                 0.7428    55.2          50      1212.
  51      1242. -0.8965    80.4   100.1  51      1251.
                -0.3163    10.0          52      1291.
  52      1269. -0.4307    18.5   100.1  50      1212.
                 0.5928    35.1          53      1329.
                -0.5537    30.7          54      1349.
  53      1322.  0.3288    10.8   100.3  51      1251.
                -0.7213    52.0          52      1291.
                 0.4925    24.3          57      1371.
  54      1353. -0.6067    36.8   100.6  53      1329.
                 0.6869    47.2          56      1365.
  55      1370. -0.4006    16.0   100.1  53      1329.
                -0.6931    48.0          54      1349.
                -0.5526    30.5          56      1365.
  56      1371. -0.3755    14.1    99.9  52      1291.
                -0.8086    65.4          55      1355.
                -0.3892    15.1          57      1371.
  57      1392.  0.5072    25.7   100.6  55      1355.
                -0.7684    59.1          57      1371.
  58      1457.  0.8035    64.6   100.0  58      1477.
                -0.3380    11.4          60      1524.
                -0.3656    13.4          62      1613.
  59      1467. -0.8038    64.6   100.2  59      1485.
                 0.4401    19.4          63      1618.
  60      1491.  0.8692    75.6   100.3  60      1524.
  61      1509.  0.9458    89.5    99.8  61      1532.
  62      1536.  0.4575    20.9    99.9  59      1485.
                 0.8590    73.8          63      1618.
  63      1538. -0.3923    15.4   100.1  58      1477.
                -0.8342    69.6          62      1613.
[...]
 nber times 1st assigned=          57           0
 nber times 1st assigned=          58           0
 nber times 1st assigned=          59           0
 nber times 1st assigned=          60           0
 nber times 1st assigned=          61           0
 nber times 1st assigned=          62           0
 nber times 1st assigned=          63           0
 nber times 1st assigned=          64           0
 nber times 1st assigned=          65           0
 nber times 1st assigned=          66           0
 nber times 1st assigned=          67           0
 nber times 1st assigned=          68           0
 nber times 1st assigned=          69           0
 nber times 1st assigned=          70           0
 nber times 1st assigned=          71           0
 nber times 1st assigned=          72           0
 nber times 1st assigned=          73           0
 nber times 1st assigned=          74           0
 nber times 1st assigned=          75           0
 nber times 1st assigned=          76           0
 nber times 1st assigned=          77           0
 nber times 1st assigned=          78           0
 Dushinsky matrix written to .out file
 modes represented=   72.3340428123277     

 Dushinsky matrix, ncs 1 in terms of ncs 2

   mode   freq    coeff     %      %tot     of    at

   7         8.  0.6941    48.2   109.2   7        22.
                -0.7221    52.1           8        49.
   8        58. -0.7089    50.2   104.2   7        22.
                -0.6898    47.6           8        49.
   9        62. -0.6081    37.0    87.2   9        76.
                 0.5714    32.7          10       118.
  10        83. -0.7864    61.8   136.4   9        76.
                -0.6377    40.7          10       118.
                -0.4717    22.3          13       279.
  11       204.  0.7906    62.5    95.0  11       185.
                -0.5725    32.8          12       221.
  12       218.  0.5139    26.4   103.6  10       118.
                -0.7985    63.8          13       279.
  13       280. -0.4688    22.0   105.3  11       185.
                -0.6475    41.9          12       221.
                -0.6145    37.8          14       287.
  14       294. -0.3409    11.6   102.6  11       185.
                -0.4926    24.3          12       221.
                 0.7879    62.1          14       287.
  15       411. -0.9950    99.0   100.5  15       403.
  16       412. -0.9429    88.9   100.4  16       410.
  17       468.  0.6992    48.9   102.7  17       445.
                -0.6519    42.5          19       474.
  18       480.  0.6260    39.2   102.7  17       445.
                 0.7493    56.1          19       474.
  19       541. -0.9805    96.1   101.7  18       469.
  20       552. -0.9943    98.9    97.7  20       537.
  21       633.  0.9674    93.6    99.7  21       611.
  22       637.  0.9982    99.6    99.9  22       618.
  23       656.  0.9548    91.2    96.3  23       637.
  24       702. -0.9766    95.4    99.6  24       649.
  25       705. -0.9792    95.9    99.9  25       654.
  26       751. -0.9487    90.0    98.5  26       724.
  27       781.  0.7446    55.5    98.8  27       739.
                -0.4673    21.8          28       763.
                -0.4374    19.1          30       792.
  28       834.  0.9655    93.2    99.6  32       818.
  29       844.  0.8999    81.0    98.9  29       772.
  30       845.  0.7043    49.6    99.4  28       763.
                -0.5964    35.6          30       792.
  31       877.  0.8975    80.5    99.0  31       812.
  32       882.  0.9408    88.5    98.3  33       859.
  33       920. -0.3669    13.5    99.8  30       792.
                -0.8329    69.4          35       869.
  34       930.  0.9169    84.1    99.4  34       865.
  35       974. -0.9740    94.9   100.0  36       961.
  36       975. -0.9758    95.2   100.1  37       962.
  37       987. -0.4784    22.9   100.6  27       739.
                -0.3216    10.3          28       763.
                -0.3921    15.4          30       792.
                 0.4020    16.2          35       869.
                 0.5681    32.3          39       976.
  38       998.  0.9779    95.6    99.7  38       976.
  39      1005. -0.3194    10.2   100.4  27       739.
                -0.3384    11.5          28       763.
                -0.3434    11.8          30       792.
                -0.7904    62.5          39       976.
  40      1014.  0.9771    95.5    99.5  41       996.
  41      1015.  0.9807    96.2    99.4  40       987.
  42      1050.  0.9775    95.6   100.0  42      1022.
  43      1052. -0.9841    96.8    99.9  43      1022.
  44      1104. -0.9848    97.0    99.5  44      1098.
  45      1107.  0.9715    94.4    99.5  45      1101.
  46      1182.  0.9563    91.5   100.0  47      1170.
  47      1183. -0.8205    67.3   100.0  46      1169.
                 0.5362    28.8          48      1190.
  48      1204. -0.9831    96.7   100.3  49      1194.
  49      1206.  0.3803    14.5   100.3  46      1169.
                 0.6170    38.1          48      1190.
                 0.5897    34.8          50      1210.
  50      1212.  0.7428    55.2   100.5  50      1210.
                -0.4307    18.5          52      1269.
  51      1251. -0.8965    80.4   100.5  51      1242.
                 0.3288    10.8          53      1322.
  52      1291. -0.3163    10.0    99.2  51      1242.
                -0.7213    52.0          53      1322.
                -0.3755    14.1          56      1371.
  53      1329.  0.5928    35.1    99.5  52      1269.
                -0.6067    36.8          54      1353.
                -0.4006    16.0          55      1370.
  54      1349. -0.5537    30.7    99.3  52      1269.
                -0.6931    48.0          55      1370.
  55      1355. -0.8086    65.4   100.0  56      1371.
                 0.5072    25.7          57      1392.
  56      1365.  0.6869    47.2    99.7  54      1353.
                -0.5526    30.5          55      1370.
  57      1371.  0.4925    24.3   100.7  53      1322.
                -0.3892    15.1          56      1371.
                -0.7684    59.1          57      1392.
  58      1477.  0.8035    64.6    99.3  58      1457.
                -0.3923    15.4          63      1538.
  59      1485. -0.8038    64.6    99.6  59      1467.
                 0.4575    20.9          62      1536.
  60      1524. -0.3380    11.4   100.0  58      1457.
                 0.8692    75.6          60      1491.
                 0.3162    10.0          64      1570.
  61      1532.  0.9458    89.5    99.9  61      1509.
  62      1613. -0.3656    13.4    99.9  58      1457.
                -0.8342    69.6          63      1538.
  63      1618.  0.4401    19.4   100.2  59      1467.
                 0.8590    73.8          62      1536.
  64      1637. -0.9581    91.8    99.6  66      1652.
  65      1646.  0.9824    96.5    99.6  65      1614.
  66      1688. -0.3426    11.7   100.4  63      1538.
                 0.7945    63.1          64      1570.
  67      3135.  0.9236    85.3   100.0  67      3150.
                -0.3538    12.5          69      3155.
  68      3143. -0.3808    14.5   100.0  68      3153.
                -0.6230    38.8          70      3158.
                 0.6778    45.9          72      3162.
  69      3156.  0.3565    12.7   100.0  67      3150.
                 0.8975    80.6          69      3155.
  70      3156.  0.8835    78.1   100.0  68      3153.
                -0.3741    14.0          70      3158.
  71      3163. -0.9698    94.1   100.0  71      3160.
  72      3163. -0.6671    44.5   100.0  70      3158.
                -0.7022    49.3          72      3162.
  73      3173. -0.9734    94.7   100.0  73      3172.
  74      3173.  0.9734    94.8   100.0  74      3173.
  75      3182. -0.9146    83.6   100.0  75      3185.
                -0.3232    10.4          78      3192.
  76      3182. -0.9000    81.0   100.0  76      3186.
                -0.3563    12.7          77      3192.
  77      3190.  0.3808    14.5   100.0  76      3186.
                -0.9135    83.5          77      3192.
  78      3190. -0.3454    11.9   100.0  75      3185.
                 0.9275    86.0          78      3192.
 nber times 1st assigned=           1           0
 nber times 1st assigned=           2           0
 nber times 1st assigned=           3           0
 nber times 1st assigned=           4           0
 nber times 1st assigned=           5           0
 nber times 1st assigned=           6           0
 nber times 1st assigned=           7           0
 nber times 1st assigned=           8           0
 nber times 1st assigned=           9           0
 nber times 1st assigned=          10           0
 nber times 1st assigned=          11           0
 nber times 1st assigned=          12           0
 nber times 1st assigned=          13           0
 nber times 1st assigned=          14           0
 nber times 1st assigned=          15           0
 nber times 1st assigned=          16           0
 nber times 1st assigned=          17           0
 nber times 1st assigned=          18           0
 nber times 1st assigned=          19           0
 nber times 1st assigned=          20           0
 nber times 1st assigned=          21           0
 nber times 1st assigned=          22           0
 nber times 1st assigned=          23           0
 nber times 1st assigned=          24           0
 nber times 1st assigned=          25           0
 nber times 1st assigned=          26           0
 nber times 1st assigned=          27           0
 nber times 1st assigned=          28           0
 nber times 1st assigned=          29           0
 nber times 1st assigned=          30           0
 nber times 1st assigned=          31           0
 nber times 1st assigned=          32           0
 nber times 1st assigned=          33           0
 nber times 1st assigned=          34           0
 nber times 1st assigned=          35           0
 nber times 1st assigned=          36           0
 nber times 1st assigned=          37           0
 nber times 1st assigned=          38           0
 nber times 1st assigned=          39           0
 nber times 1st assigned=          40           0
 nber times 1st assigned=          41           0
 nber times 1st assigned=          42           0
 nber times 1st assigned=          43           0
 nber times 1st assigned=          44           0
 nber times 1st assigned=          45           0
 nber times 1st assigned=          46           0
 nber times 1st assigned=          47           0
 nber times 1st assigned=          48           0
 nber times 1st assigned=          49           0
 nber times 1st assigned=          50           0
 nber times 1st assigned=          51           0
 nber times 1st assigned=          52           0
 nber times 1st assigned=          53           0
 nber times 1st assigned=          54           0
 nber times 1st assigned=          55           0
 nber times 1st assigned=          56           0
 nber times 1st assigned=          57           0
 nber times 1st assigned=          58           0
 nber times 1st assigned=          59           0
 nber times 1st assigned=          60           0
 nber times 1st assigned=          61           0
 nber times 1st assigned=          62           0
 nber times 1st assigned=          63           0
 nber times 1st assigned=          64           0
 nber times 1st assigned=          65           0
 nber times 1st assigned=          66           0
 nber times 1st assigned=          67           0
 nber times 1st assigned=          68           0
 nber times 1st assigned=          69           0
 nber times 1st assigned=          70           0
 nber times 1st assigned=          71           0
 nber times 1st assigned=          72           0
 nber times 1st assigned=          73           0
 nber times 1st assigned=          74           0
 nber times 1st assigned=          75           0
 nber times 1st assigned=          76           0
 nber times 1st assigned=          77           0
 nber times 1st assigned=          78           0
 modes represented=   72.3340428123277     
 p1=
   -0.   -0.   -0.   -0.    0.    0.   16.  -44.    3.    0.  -24.   -0.    7.    1.   -1.    0.   -0.   -0.   -2.   -0.
    1.    0.    2.   -0.   -0.   -0.   -1.    0.    0.    0.    0.    3.    1.    0.    0.   -0.    3.    0.    3.   -4.
   -0.    0.   -0.    0.    1.   -0.   -1.   -0.   -4.    2.   -0.    0.   -1.    2.    0.   -3.   -0.   -2.    0.   -2.
   -0.    3.   -0.   -5.    0.   -5.    0.    0.   -0.    0.   -0.    0.   -0.    0.    0.    0.    0.   -0.
 p2=
   -0.   -0.    0.   -0.   -0.    0.  -46.  -21.   -0.    0.   21.  -11.    0.    3.   -0.   -0.    0.   -1.   -0.   -0.
   -2.   -0.   -2.   -0.   -0.   -0.    1.   -0.   -0.    1.    0.   -0.   -4.   -0.   -1.    0.   -0.   -0.    0.   -0.
    3.   -1.   -0.    0.   -1.   -1.   -0.   -0.   -0.    3.    0.    4.    0.    3.   -0.   -0.    0.    1.   -0.    1.
   -0.    0.   -1.    4.    0.   -6.   -0.    0.    0.   -0.   -0.    0.   -0.   -0.   -0.    0.    0.    0.

 Displacement: in terms of nc of 1 THEN of nc of 2

   1     freq=    -0. Q= -0.000 lam=    -0.0     freq=    -0. Q= -0.000 lam=    -0.0
   2     freq=    -0. Q= -0.000 lam=    -0.0     freq=    -0. Q= -0.000 lam=    -0.0
   3     freq=     0. Q= -0.000 lam=     0.0     freq=    -0. Q= -0.000 lam=    -0.0
   4     freq=     0. Q= -0.000 lam=     0.0     freq=    -0. Q= -0.000 lam=    -0.0
   5     freq=     0. Q=  0.000 lam=     0.0     freq=     0. Q=  0.000 lam=     0.0
   6     freq=     0. Q=  0.000 lam=     0.0     freq=     0. Q=  0.000 lam=     0.0
   7     freq=     8. Q=  0.180 lam=     0.1     freq=    22. Q=  0.879 lam=     8.5
   8     freq=    58. Q= -1.342 lam=    52.5     freq=    49. Q= -0.601 lam=     8.7
   9     freq=    62. Q=  0.086 lam=     0.2     freq=    76. Q=  0.005 lam=     0.0
  10     freq=    83. Q=  0.001 lam=     0.0     freq=   118. Q=  0.010 lam=     0.0
  11     freq=   204. Q= -1.380 lam=   194.0     freq=   185. Q= -1.142 lam=   121.0
  12     freq=   218. Q= -0.002 lam=     0.0     freq=   221. Q= -0.673 lam=    50.0
  13     freq=   280. Q=  0.465 lam=    30.2     freq=   279. Q=  0.006 lam=     0.0
  14     freq=   294. Q=  0.062 lam=     0.6     freq=   287. Q=  0.235 lam=     7.9
  15     freq=   411. Q= -0.056 lam=     0.7     freq=   403. Q= -0.032 lam=     0.2
  16     freq=   412. Q=  0.003 lam=     0.0     freq=   410. Q=  0.002 lam=     0.0
  17     freq=   468. Q= -0.001 lam=     0.0     freq=   445. Q= -0.002 lam=     0.0
  18     freq=   480. Q= -0.000 lam=     0.0     freq=   469. Q= -0.045 lam=     0.5
  19     freq=   541. Q= -0.223 lam=    13.4     freq=   474. Q= -0.001 lam=     0.0
  20     freq=   552. Q= -0.000 lam=     0.0     freq=   537. Q= -0.000 lam=     0.0
  21     freq=   633. Q=  0.104 lam=     3.4     freq=   611. Q=  0.184 lam=    10.4
  22     freq=   637. Q=  0.000 lam=     0.0     freq=   618. Q=  0.000 lam=     0.0
  23     freq=   656. Q=  0.244 lam=    19.5     freq=   637. Q=  0.239 lam=    18.2
  24     freq=   702. Q= -0.001 lam=     0.0     freq=   649. Q= -0.001 lam=     0.0
  25     freq=   705. Q= -0.042 lam=     0.6     freq=   654. Q= -0.017 lam=     0.1
  26     freq=   751. Q= -0.000 lam=     0.0     freq=   724. Q= -0.000 lam=     0.0
  27     freq=   781. Q= -0.135 lam=     7.1     freq=   739. Q= -0.110 lam=     4.5
  28     freq=   834. Q=  0.000 lam=     0.0     freq=   763. Q=  0.011 lam=     0.0
  29     freq=   844. Q=  0.000 lam=     0.0     freq=   772. Q=  0.001 lam=     0.0
  30     freq=   845. Q=  0.036 lam=     0.6     freq=   792. Q=  0.100 lam=     4.0
  31     freq=   877. Q=  0.001 lam=     0.0     freq=   812. Q=  0.000 lam=     0.0
  32     freq=   882. Q=  0.372 lam=    61.1     freq=   818. Q=  0.000 lam=     0.0
  33     freq=   920. Q=  0.152 lam=    10.6     freq=   859. Q=  0.430 lam=    79.5
  34     freq=   930. Q=  0.001 lam=     0.0     freq=   865. Q=  0.001 lam=     0.0
  35     freq=   974. Q=  0.052 lam=     1.3     freq=   869. Q=  0.157 lam=    10.8
  36     freq=   975. Q= -0.002 lam=     0.0     freq=   961. Q= -0.007 lam=     0.0
  37     freq=   987. Q=  0.384 lam=    72.8     freq=   962. Q=  0.000 lam=     0.0
  38     freq=   998. Q=  0.002 lam=     0.0     freq=   976. Q=  0.001 lam=     0.0
  39     freq=  1005. Q=  0.344 lam=    59.5     freq=   976. Q=  0.013 lam=     0.1
  40     freq=  1014. Q= -0.471 lam=   112.5     freq=   987. Q= -0.001 lam=     0.0
  41     freq=  1015. Q= -0.004 lam=     0.0     freq=   996. Q= -0.436 lam=    94.6
  42     freq=  1050. Q=  0.031 lam=     0.5     freq=  1022. Q=  0.074 lam=     2.8
  43     freq=  1052. Q= -0.001 lam=     0.0     freq=  1022. Q= -0.008 lam=     0.0
  44     freq=  1104. Q=  0.000 lam=     0.0     freq=  1098. Q=  0.002 lam=     0.0
  45     freq=  1107. Q=  0.071 lam=     2.8     freq=  1101. Q=  0.172 lam=    16.2
  46     freq=  1182. Q= -0.004 lam=     0.0     freq=  1169. Q= -0.153 lam=    13.6
  47     freq=  1183. Q= -0.149 lam=    13.0     freq=  1170. Q= -0.001 lam=     0.0
  48     freq=  1204. Q= -0.006 lam=     0.0     freq=  1190. Q= -0.004 lam=     0.0
  49     freq=  1206. Q= -0.499 lam=   149.9     freq=  1194. Q= -0.001 lam=     0.0
  50     freq=  1212. Q=  0.240 lam=    35.0     freq=  1210. Q=  0.373 lam=    84.2
  51     freq=  1251. Q= -0.001 lam=     0.0     freq=  1242. Q= -0.001 lam=     0.0
  52     freq=  1291. Q=  0.000 lam=     0.0     freq=  1269. Q=  0.616 lam=   240.5
  53     freq=  1329. Q= -0.098 lam=     6.4     freq=  1322. Q= -0.000 lam=     0.0
  54     freq=  1349. Q=  0.319 lam=    68.9     freq=  1353. Q=  0.435 lam=   128.2
  55     freq=  1355. Q=  0.001 lam=     0.0     freq=  1370. Q=  0.056 lam=     2.2
  56     freq=  1365. Q= -0.519 lam=   183.5     freq=  1371. Q= -0.002 lam=     0.0
  57     freq=  1371. Q= -0.001 lam=     0.0     freq=  1392. Q= -0.000 lam=     0.0
  58     freq=  1477. Q= -0.302 lam=    67.3     freq=  1457. Q= -0.229 lam=    38.3
  59     freq=  1485. Q=  0.001 lam=     0.0     freq=  1467. Q=  0.000 lam=     0.0
  60     freq=  1524. Q= -0.276 lam=    57.9     freq=  1491. Q= -0.120 lam=    10.6
  61     freq=  1532. Q= -0.001 lam=     0.0     freq=  1509. Q= -0.000 lam=     0.0
  62     freq=  1613. Q=  0.457 lam=   168.5     freq=  1536. Q=  0.002 lam=     0.0
  63     freq=  1618. Q= -0.001 lam=     0.0     freq=  1538. Q= -0.109 lam=     9.1
  64     freq=  1637. Q= -0.796 lam=   518.2     freq=  1570. Q= -0.643 lam=   324.4
  65     freq=  1646. Q=  0.001 lam=     0.0     freq=  1614. Q=  0.000 lam=     0.0
  66     freq=  1688. Q= -0.872 lam=   641.7     freq=  1652. Q= -1.045 lam=   901.8
  67     freq=  3135. Q=  0.038 lam=     2.3     freq=  3150. Q=  0.015 lam=     0.3
  68     freq=  3143. Q=  0.000 lam=     0.0     freq=  3153. Q=  0.000 lam=     0.0
  69     freq=  3156. Q= -0.011 lam=     0.2     freq=  3155. Q= -0.013 lam=     0.3
  70     freq=  3156. Q=  0.003 lam=     0.0     freq=  3158. Q=  0.000 lam=     0.0
  71     freq=  3163. Q= -0.007 lam=     0.1     freq=  3160. Q= -0.011 lam=     0.2
  72     freq=  3163. Q=  0.000 lam=     0.0     freq=  3162. Q=  0.000 lam=     0.0
  73     freq=  3173. Q= -0.000 lam=     0.0     freq=  3172. Q= -0.000 lam=     0.0
  74     freq=  3173. Q=  0.010 lam=     0.2     freq=  3173. Q=  0.005 lam=     0.0
  75     freq=  3182. Q=  0.004 lam=     0.0     freq=  3185. Q=  0.002 lam=     0.0
  76     freq=  3182. Q=  0.000 lam=     0.0     freq=  3186. Q=  0.000 lam=     0.0
  77     freq=  3190. Q=  0.000 lam=     0.0     freq=  3192. Q=  0.001 lam=     0.0
  78     freq=  3190. Q= -0.015 lam=     0.3     freq=  3192. Q= -0.022 lam=     0.8

 total reorg energy (cm**-1, kcal/mol)=     2557.     2193.      7.31      6.27
 Nber of molecules processed=           2
