 Enter ifcurve (0=recti, 1=orth curvi, 2=apprx curvi, -1 = skip
 And atom ordering flag, 0= never changes, 1= use the first order thenceforth,
  2= deduce it (does read on fail), 3= always read it
 Reading file: 
 ./conjugated_carbonyls_0_C-2S0.log                                             
                                          
  Entering Gaussian System, Link 0=g16                                          
  
 Gaussian format, type: g94, g98, g03= F F F
  #P Geom=AllCheck Guess=TCheck SCRF=Check Test GenChk UB3LYP/6-311G(d,p    
 energy type= B3LYP   
 Original G94 input coords:
  8  1.396465 -3.616902  0.000000
  6  0.740267 -2.545868  0.000000
  6 -0.740267 -2.545868  0.000000
  8 -1.396465 -3.616902  0.000000
  6 -1.427618 -1.235923  0.000000
  6 -2.831512 -1.209216  0.000000
  6 -3.522389  0.000000  0.000000
  6 -2.831512  1.209216  0.000000
  6 -1.427618  1.235923  0.000000
  6 -0.740267  2.545868  0.000000
  8 -1.396465  3.616902  0.000000
  6  0.740267  2.545868  0.000000
  8  1.396465  3.616902  0.000000
  6  1.427618  1.235923  0.000000
  6  2.831512  1.209216  0.000000
  6  3.522389  0.000000  0.000000
  6  2.831512 -1.209216  0.000000
  6  1.427618 -1.235923  0.000000
  6  0.717134  0.000000  0.000000
  6 -0.717134  0.000000  0.000000
  1 -3.342444 -2.166002  0.000000
  1 -4.612171  0.000000  0.000000
  1 -3.342444  2.166002  0.000000
  1  3.342444  2.166002  0.000000
  1  4.612171  0.000000  0.000000
  1  3.342444 -2.166002  0.000000
 nber atoms=          26
  SCF Done:  E(UB3LYP) =  -914.467643967     A.U. after    1 cycles             
  
          23          40 "  -914.467643967"
After scan for Atom:   Atom  AN      X      Y      Z        X      Y      Z        X      Y      Z   
After scan for Atom:   Atom  AN      X      Y      Z        X      Y      Z        X      Y      Z   
After scan for Atom:   Atom  AN      X      Y      Z        X      Y      Z        X      Y      Z   
After scan for Atom:   Atom  AN      X      Y      Z        X      Y      Z        X      Y      Z   
After scan for Atom:   Atom  AN      X      Y      Z        X      Y      Z        X      Y      Z   
After scan for Atom:   Atom  AN      X      Y      Z        X      Y      Z        X      Y      Z   
After scan for Atom:   Atom  AN      X      Y      Z        X      Y      Z        X      Y      Z   
After scan for Atom:   Atom  AN      X      Y      Z        X      Y      Z        X      Y      Z   
After scan for Atom:   Atom  AN      X      Y      Z        X      Y      Z        X      Y      Z   
After scan for Atom:   Atom  AN      X      Y      Z        X      Y      Z        X      Y      Z   
After scan for Atom:   Atom  AN      X      Y      Z        X      Y      Z        X      Y      Z   
After scan for Atom:   Atom  AN      X      Y      Z        X      Y      Z        X      Y      Z   
After scan for Atom:   Atom  AN      X      Y      Z        X      Y      Z        X      Y      Z   
After scan for Atom:   Atom  AN      X      Y      Z        X      Y      Z        X      Y      Z   
After scan for Atom:   Atom  AN      X      Y      Z        X      Y      Z        X      Y      Z   
After scan for Atom:   Atom  AN      X      Y      Z        X      Y      Z        X      Y      Z   
After scan for Atom:   Atom  AN      X      Y      Z        X      Y      Z        X      Y      Z   
After scan for Atom:   Atom  AN      X      Y      Z        X      Y      Z        X      Y      Z   
After scan for Atom:   Atom  AN      X      Y      Z        X      Y      Z        X      Y      Z   
After scan for Atom:   Atom  AN      X      Y      Z        X      Y      Z        X      Y      Z   
After scan for Atom:   Atom  AN      X      Y      Z        X      Y      Z        X      Y      Z   
After scan for Atom:   Atom  AN      X      Y      Z        X      Y      Z        X      Y      Z   
After scan for Atom:   Atom  AN      X      Y      Z        X      Y      Z        X      Y      Z   
After scan for Atom:   Atom  AN      X      Y      Z        X      Y      Z        X      Y      Z   
 g94    frequencies=
     0.0    0.0    0.0    0.0    0.0    0.0   62.8   66.9   87.0  141.6
   187.2  205.7  290.7  300.7  332.3  340.0  352.5  374.8  377.0  379.9
   383.9  445.3  470.6  508.8  513.3  520.1  528.3  567.8  642.5  643.3
   658.7  711.7  722.7  737.4  754.3  769.0  798.3  802.4  806.6  828.7
   911.9  912.4  917.7  946.5  950.0 1006.4 1048.0 1056.8 1082.0 1085.8
  1088.6 1152.7 1165.0 1243.2 1252.5 1258.3 1270.9 1302.8 1339.3 1359.2
  1402.7 1438.5 1454.5 1481.9 1501.9 1526.7 1534.7 1563.6 1579.1 1595.0
  1600.2 1606.0 3090.9 3091.6 3167.2 3167.4 3169.6 3170.4
 g94    symmetries=
                                                 A      A      A      A
       A      A      A      A      A      A      A      A      A      A
       A      A      A      A      A      A      A      A      A      A
       A      A      A      A      A      A      A      A      A      A
       A      A      A      A      A      A      A      A      A      A
       A      A      A      A      A      A      A      A      A      A
       A      A      A      A      A      A      A      A      A      A
       A      A      A      A      A      A      A      A
 atomic masses:
 15.9949 12.0000 12.0000 15.9949 12.0000 12.0000 12.0000 12.0000 12.0000 12.0000
 15.9949 12.0000 15.9949 12.0000 12.0000 12.0000 12.0000 12.0000 12.0000 12.0000
  1.0078  1.0078  1.0078  1.0078  1.0078  1.0078
 looking for force constants in 
 ./conjugated_carbonyls_0_C-2S0.fchk                                            
  
 Cartesian Force Constants                  R   N=        3081                  
  
 n3=          78        3081
 g94-fc frequencies=
    -7.5   -7.4   -6.6   -0.0    0.0    0.0   62.8   66.9   87.0  141.6
   187.2  205.7  290.7  300.7  332.4  340.0  352.5  374.8  377.0  379.9
   383.9  445.3  470.6  508.8  513.3  520.1  528.3  567.8  642.5  643.3
   658.7  711.7  722.8  737.4  754.3  769.0  798.3  802.4  806.6  828.7
   911.9  912.5  917.7  946.5  950.0 1006.4 1048.0 1056.8 1082.0 1085.8
  1088.6 1152.7 1165.1 1243.3 1252.6 1258.4 1270.9 1302.8 1339.3 1359.3
  1402.7 1438.5 1454.5 1482.0 1501.9 1526.8 1534.7 1563.7 1579.2 1595.0
  1600.2 1606.1 3091.0 3091.7 3167.2 3167.4 3169.7 3170.5
 at 99999: n3=          78
 symm operator            1 :  T  nop=           1
 symm operator            2 :  T  nop=           2
 symm operator            3 :  T  nop=           3
 symm operator            4 :  T  nop=           4
 symm operator            5 :  T  nop=           5
 symm operator            6 :  T  nop=           6
 symm operator            7 :  T  nop=           7
 The point group of the molecule is D2H
 enforcing symm op           1  jsymt=          -1          -1           1
 enforcing symm op           2  jsymt=          -1           1          -1
 enforcing symm op           3  jsymt=           1          -1          -1
 enforcing symm op           4  jsymt=          -1          -1          -1
 enforcing symm op           5  jsymt=           1           1          -1
 enforcing symm op           6  jsymt=           1          -1           1
 enforcing symm op           7  jsymt=          -1           1           1
 cartesian coord symmetries:
 Ag :   13 Au :    5 B1g:   13 B1u:    8 B2g:    8 B2u:   13 B3g:    5 B3u:   13
 Symmetry rotation matrix:
   1.00000   0.00000   0.00000
   0.00000   1.00000   0.00000
   0.00000   0.00000   1.00000

 Projecting out zero-frequency components
 generating redundant internal coords
         300        3600          26
 search for int coords
   1 str   2   1   1.256
   2 str   3   2   1.481
   3 str   4   3   1.256
   4 str   5   3   1.479
   5 str   6   5   1.404
   6 str   7   6   1.393
   7 str   8   7   1.393
   8 str   9   8   1.404
   9 str  10   9   1.479
  10 str  11  10   1.256
  11 str  12  10   1.481
  12 str  13  12   1.256
  13 str  14  12   1.479
  14 str  15  14   1.404
  15 str  16  15   1.393
  16 str  17  16   1.393
  17 str  18   2   1.479
  18 str  18  17   1.404
  19 str  19  14   1.426
  20 str  19  18   1.426
  21 str  20   5   1.426
  22 str  20   9   1.426
  23 str  20  19   1.434
  24 str  21   6   1.085
  25 str  22   7   1.090
  26 str  23   8   1.085
  27 str  24  15   1.085
  28 str  25  16   1.090
  29 str  26  17   1.085
 nber stretches=          29
  30 ben   1   2   3
  31 prop tor   1   2   3   4
  32 prop tor   1   2   3   5
  33 ben   1   2  18
  34 prop tor   1   2  18  17
  35 prop tor   1   2  18  19
  36 ben   2   3   4
  37 ben   2   3   5
  38 prop tor   2   3   5   6
  39 prop tor   2   3   5  20
  40 ben   2  18  17
  41 ben   2  18  19
  42 prop tor   2  18  19  14
  43 prop tor   2  18  19  20
  44 ben   3   2  18
  45 prop tor   3   2  18  17
  46 prop tor   3   2  18  19
  47 ben   3   5   6
  48 prop tor   3   5   6   7
  49 prop tor   3   5   6  21
  50 ben   3   5  20
  51 prop tor   3   5  20   9
  52 prop tor   3   5  20  19
  53 ben   4   3   5
  54 prop tor   4   3   5   6
  55 prop tor   4   3   5  20
  56 ben   5   6   7
  57 prop tor   5   6   7   8
  58 prop tor   5   6   7  22
  59 ben   5   6  21
  60 ben   5  20   9
  61 ben   5  20  19
  62 ben   6   5  20
  63 prop tor   6   5  20   9
  64 prop tor   6   5  20  19
  65 ben   6   7   8
  66 prop tor   6   7   8   9
  67 prop tor   6   7   8  23
  68 ben   6   7  22
  69 ben   7   6  21
  70 ben   7   8   9
  71 prop tor   7   8   9  10
  72 prop tor   7   8   9  20
  73 ben   7   8  23
  74 ben   8   7  22
  75 ben   8   9  10
  76 prop tor   8   9  10  11
  77 prop tor   8   9  10  12
  78 ben   8   9  20
  79 prop tor   8   9  20   5
  80 prop tor   8   9  20  19
  81 ben   9   8  23
  82 ben   9  10  11
  83 ben   9  10  12
  84 prop tor   9  10  12  13
  85 prop tor   9  10  12  14
  86 ben   9  20  19
  87 ben  10   9  20
  88 prop tor  10   9  20   5
  89 prop tor  10   9  20  19
  90 ben  10  12  13
  91 ben  10  12  14
  92 prop tor  10  12  14  15
  93 prop tor  10  12  14  19
  94 ben  11  10  12
  95 prop tor  11  10  12  13
  96 prop tor  11  10  12  14
  97 ben  12  14  15
  98 prop tor  12  14  15  16
  99 prop tor  12  14  15  24
 100 ben  12  14  19
 101 prop tor  12  14  19  18
 102 prop tor  12  14  19  20
 103 ben  13  12  14
 104 prop tor  13  12  14  15
 105 prop tor  13  12  14  19
 106 ben  14  15  16
 107 prop tor  14  15  16  17
 108 prop tor  14  15  16  25
 109 ben  14  15  24
 110 ben  14  19  18
 111 ben  14  19  20
 112 prop tor  14  19  20   5
 113 prop tor  14  19  20   9
 114 ben  15  14  19
 115 prop tor  15  14  19  18
 116 prop tor  15  14  19  20
 117 ben  15  16  17
 118 prop tor  15  16  17  18
 119 prop tor  15  16  17  26
 120 ben  15  16  25
 121 ben  16  15  24
 122 ben  16  17  18
 123 prop tor  16  17  18   2
 124 prop tor  16  17  18  19
 125 ben  16  17  26
 126 ben  17  16  25
 127 ben  17  18  19
 128 prop tor  17  18  19  14
 129 prop tor  17  18  19  20
 130 prop tor  18   2   3   4
 131 prop tor  18   2   3   5
 132 ben  18  17  26
 133 ben  18  19  20
 134 prop tor  18  19  20   5
 135 prop tor  18  19  20   9
 136 prop tor  19  14  15  16
 137 prop tor  19  14  15  24
 138 prop tor  20   5   6   7
 139 prop tor  20   5   6  21
 140 prop tor  20   9  10  11
 141 prop tor  20   9  10  12
 142 prop tor  21   6   7   8
 143 prop tor  21   6   7  22
 144 prop tor  22   7   8   9
 145 prop tor  22   7   8  23
 146 prop tor  23   8   9  10
 147 prop tor  23   8   9  20
 148 prop tor  24  15  16  17
 149 prop tor  24  15  16  25
 150 prop tor  25  16  17  18
 151 prop tor  25  16  17  26
 152 prop tor  26  17  18   2
 153 prop tor  26  17  18  19
 nber bend=              48
 nber lin bend=           0
 nber prop tor=          76
 nber impr tor=           0
 nber tot redund int=         153
 Eigenvalues of G in red int coords
    Gval -0.00000000 -0.00000000 -0.00000000 -0.00000000 -0.00000000 -0.00000000 -0.00000000 -0.00000000
    Gval -0.00000000 -0.00000000 -0.00000000 -0.00000000 -0.00000000 -0.00000000 -0.00000000 -0.00000000
    Gval -0.00000000 -0.00000000 -0.00000000 -0.00000000 -0.00000000 -0.00000000 -0.00000000 -0.00000000
    Gval -0.00000000 -0.00000000 -0.00000000 -0.00000000 -0.00000000 -0.00000000 -0.00000000 -0.00000000
    Gval -0.00000000 -0.00000000 -0.00000000 -0.00000000 -0.00000000 -0.00000000 -0.00000000 -0.00000000
    Gval -0.00000000 -0.00000000 -0.00000000 -0.00000000  0.00000000  0.00000000  0.00000000  0.00000000
    Gval  0.00000000  0.00000000  0.00000000  0.00000000  0.00000000  0.00000000  0.00000000  0.00000000
    Gval  0.00000000  0.00000000  0.00000000  0.00000000  0.00000000  0.00000000  0.00000000  0.00000000
    Gval  0.00000000  0.00000000  0.00000000  0.00000000  0.00000000  0.00000000  0.00000000  0.00000000
    Gval  0.00000000  0.00000000  0.00000000  0.00000000  0.00000000  0.00000000  0.00000000  0.00000000
    Gval  0.00000000  0.00000928  0.00000974  0.00001159  0.00001372  0.00001484  0.00001937  0.00002329
    Gval  0.00002394  0.00002614  0.00003129  0.00003967  0.00004561  0.00004701  0.00005377  0.00006139
    Gval  0.00006346  0.00006381  0.00006646  0.00008523  0.00008937  0.00009167  0.00009764  0.00010874
    Gval  0.00011103  0.00011722  0.00013369  0.00014859  0.00015525  0.00017395  0.00020846  0.00021021
    Gval  0.00021105  0.00025618  0.00030466  0.00031739  0.00032655  0.00032685  0.00036239  0.00038374
    Gval  0.00038473  0.00040776  0.00041676  0.00044953  0.00045961  0.00047770  0.00053822  0.00059426
    Gval  0.00059427  0.00060871  0.00060990  0.00064980  0.00065024  0.00076131  0.00077619  0.00101253
    Gval  0.00106049  0.00106091  0.00112818  0.00113887  0.00113890  0.00116331  0.00116340  0.00123383
    Gval  0.00161591  0.00171801  0.00192467  0.00211086  0.00261124  0.00310078  0.00310870  0.00391966
    Gval  0.00392016
  9.277017168260441E-006  9.277017168260441E-006
  9.744630313244136E-006  9.277017168260441E-006
  1.158802036786386E-005  9.277017168260441E-006
  1.372202467715052E-005  9.277017168260441E-006
  1.484449458036340E-005  9.277017168260441E-006
  1.937227498001163E-005  9.277017168260441E-006
  2.329025995344364E-005  9.277017168260441E-006
  2.394195248206560E-005  9.277017168260441E-006
  2.613762020808173E-005  9.277017168260441E-006
  3.128509822153831E-005  9.277017168260441E-006
  3.966867024534755E-005  9.277017168260441E-006
  4.560777438396888E-005  9.277017168260441E-006
  4.701324753608168E-005  9.277017168260441E-006
  5.377460144174867E-005  9.277017168260441E-006
  6.139441286307806E-005  9.277017168260441E-006
  6.345934066585852E-005  9.277017168260441E-006
  6.381065756113209E-005  9.277017168260441E-006
  6.646329657162349E-005  9.277017168260441E-006
  8.523374096698472E-005  9.277017168260441E-006
  8.937481713198128E-005  9.277017168260441E-006
  9.166552054754747E-005  9.277017168260441E-006
  9.763968883404683E-005  9.277017168260441E-006
  1.087403237048402E-004  9.277017168260441E-006
  1.110319650250000E-004  9.277017168260441E-006
  1.172222877370526E-004  9.277017168260441E-006
  1.336944022499791E-004  9.277017168260441E-006
  1.485938598901601E-004  9.277017168260441E-006
  1.552539845739182E-004  9.277017168260441E-006
  1.739513564164343E-004  9.277017168260441E-006
  2.084617999936901E-004  9.277017168260441E-006
  2.102121178927769E-004  9.277017168260441E-006
  2.110468496939702E-004  9.277017168260441E-006
  2.561825808889890E-004  9.277017168260441E-006
  3.046606396467409E-004  9.277017168260441E-006
  3.173855879224720E-004  9.277017168260441E-006
  3.265487593771999E-004  9.277017168260441E-006
  3.268472323166367E-004  9.277017168260441E-006
  3.623885447502981E-004  9.277017168260441E-006
  3.837351536689042E-004  9.277017168260441E-006
  3.847340625496334E-004  9.277017168260441E-006
  4.077592909832339E-004  9.277017168260441E-006
  4.167558250150982E-004  9.277017168260441E-006
  4.495348848454183E-004  9.277017168260441E-006
  4.596057779691838E-004  9.277017168260441E-006
  4.776984469940252E-004  9.277017168260441E-006
  5.382213438880677E-004  9.277017168260441E-006
  5.942587069522686E-004  9.277017168260441E-006
  5.942683895911343E-004  9.277017168260441E-006
  6.087084505674044E-004  9.277017168260441E-006
  6.098953420641265E-004  9.277017168260441E-006
  6.498042351555011E-004  9.277017168260441E-006
  6.502414013786359E-004  9.277017168260441E-006
  7.613116354255116E-004  9.277017168260441E-006
  7.761925042778078E-004  9.277017168260441E-006
  1.012532715105629E-003  9.277017168260441E-006
  1.060485818701229E-003  9.277017168260441E-006
  1.060912196572159E-003  9.277017168260441E-006
  1.128176300297842E-003  9.277017168260441E-006
  1.138871193374398E-003  9.277017168260441E-006
  1.138901048976502E-003  9.277017168260441E-006
  1.163309480235022E-003  9.277017168260441E-006
  1.163396969824795E-003  9.277017168260441E-006
  1.233833567380034E-003  9.277017168260441E-006
  1.615907451395420E-003  9.277017168260441E-006
  1.718013167834605E-003  9.277017168260441E-006
  1.924669616156315E-003  9.277017168260441E-006
  2.110855606035434E-003  9.277017168260441E-006
  2.611242605745368E-003  9.277017168260441E-006
  3.100778026896203E-003  9.277017168260441E-006
  3.108698775301892E-003  9.277017168260441E-006
  3.919657520518411E-003  9.277017168260441E-006
  3.920159661172392E-003  9.277017168260441E-006
 cut=1d-8, nber non-redundant internal coords=          72
 Check on Eigenvals of non-red overlap matrix:
  0.00000928  0.00000974  0.00001159  0.00001372  0.00001484  0.00001937  0.00002329  0.00002394
  0.00002614  0.00003129  0.00003967  0.00004561  0.00004701  0.00005377  0.00006139  0.00006346
  0.00006381  0.00006646  0.00008523  0.00008937  0.00009167  0.00009764  0.00010874  0.00011103
  0.00011722  0.00013369  0.00014859  0.00015525  0.00017395  0.00020846  0.00021021  0.00021105
  0.00025618  0.00030466  0.00031739  0.00032655  0.00032685  0.00036239  0.00038374  0.00038473
  0.00040776  0.00041676  0.00044953  0.00045961  0.00047770  0.00053822  0.00059426  0.00059427
  0.00060871  0.00060990  0.00064980  0.00065024  0.00076131  0.00077619  0.00101253  0.00106049
  0.00106091  0.00112818  0.00113887  0.00113890  0.00116331  0.00116340  0.00123383  0.00161591
  0.00171801  0.00192467  0.00211086  0.00261124  0.00310078  0.00310870  0.00391966  0.00392016
 Checking for correct frequencies
 recalc frequencies=
    -0.0   -0.0   -0.0   -0.0   -0.0    0.0   62.8   66.9   87.0  141.6
   187.2  205.7  290.7  300.7  332.4  340.0  352.5  374.8  377.0  379.9
   383.9  445.3  470.6  508.8  513.3  520.1  528.3  567.8  642.5  643.3
   658.7  711.7  722.8  737.4  754.3  769.0  798.3  802.4  806.6  828.7
   911.9  912.5  917.7  946.5  950.0 1006.4 1048.0 1056.8 1082.0 1085.8
  1088.6 1152.7 1165.1 1243.3 1252.6 1258.4 1270.9 1302.8 1339.3 1359.3
  1402.7 1438.5 1454.5 1482.0 1501.9 1526.8 1534.7 1563.7 1579.2 1595.0
  1600.2 1606.1 3091.0 3091.7 3167.2 3167.4 3169.7 3170.5
 recalc symmetries=
     B3u    B2u    B1g    B3g    B1u    B2g    Au     B1u    B2g    B1u
     B3g    Au     B3u    B2g    B2u    B1g    Ag     Ag     B3g    B1g
     B2u    B1u    Ag     Au     B2u    B1u    B3u    B2g    B3g    B1g
     B3u    B2g    B1u    B2g    B1g    Au     B2g    B1u    Ag     B2u
     Au     B3g    B3u    B1u    B2g    B3u    Ag     B1g    B3u    B2u
     Ag     B2u    B1g    B1g    Ag     B3u    B2u    Ag     B2u    B1g
     B3u    B2u    B1g    Ag     B3u    B2u    B1g    Ag     B1g    B2u
     Ag     B3u    B3u    Ag     B1g    B2u    B3u    Ag 
 recalc freqs check OK
 Zero-point lengths:
 10.0000 10.0000 10.0000 10.0000 10.0000 10.0000 31.2821 30.3129 26.5830 20.8368
 18.1170 17.2849 14.5413 14.2960 13.5986 13.4453 13.2038 12.8053 12.7681 12.7186
 12.6534 11.7482 11.4280 10.9910 10.9427 10.8709 10.7856 10.4036  9.7801  9.7744
  9.6594  9.2927  9.2214  9.1293  9.0268  8.9398  8.7744  8.7518  8.7289  8.6116
  8.2096  8.2071  8.1835  8.0579  8.0432  7.8147  7.6580  7.6260  7.5366  7.5236
  7.5138  7.3020  7.2631  7.0310  7.0048  6.9886  6.9541  6.8684  6.7741  6.7242
  6.6193  6.5364  6.5003  6.4399  6.3970  6.3447  6.3282  6.2694  6.2385  6.2075
  6.1973  6.1861  4.4591  4.4586  4.4051  4.4050  4.4034  4.4028
 highest evec of mol 1
  0.0016 -0.0007  0.0000
 -0.0011  0.0023  0.0000
  0.0011  0.0023  0.0000
 -0.0016 -0.0007  0.0000
 -0.0022  0.0015  0.0000
  0.0650  0.1252  0.0000
  0.0435  0.0000  0.0000
  0.0650 -0.1252  0.0000
 -0.0022 -0.0015  0.0000
  0.0011 -0.0023  0.0000
 -0.0016  0.0007  0.0000
 -0.0011 -0.0023  0.0000
  0.0016  0.0007  0.0000
  0.0022 -0.0015  0.0000
 -0.0650 -0.1252  0.0000
 -0.0435  0.0000  0.0000
 -0.0650  0.1252  0.0000
  0.0022  0.0015  0.0000
  0.0012  0.0000  0.0000
 -0.0012  0.0000  0.0000
 -0.2268 -0.4121  0.0000
 -0.1255  0.0000  0.0000
 -0.2268  0.4121  0.0000
  0.2268  0.4121  0.0000
  0.1255  0.0000  0.0000
  0.2268 -0.4121  0.0000
 generating redundant internal coords
         300        3600          26
 Adding extra bonds for z output only
           8           6           6           8           6           6
           6           6           6           6           8           6
           8           6           6           6           6           6
           6           6           1           1           1           1
           1           1
 search for int coords
   1 str   2   1   1.256
   2 str   3   2   1.481
   3 str   4   3   1.256
   4 str   5   3   1.479
   5 str   6   5   1.404
   6 str   7   6   1.393
   7 str   8   7   1.393
   8 str   9   8   1.404
   9 str  10   9   1.479
  10 str  11  10   1.256
  11 str  12  10   1.481
  12 str  13  12   1.256
  13 str  14  12   1.479
  14 str  15  14   1.404
  15 str  16  15   1.393
  16 str  17  16   1.393
  17 str  18   2   1.479
  18 str  18  17   1.404
  19 str  19  14   1.426
  20 str  19  18   1.426
  21 str  20   5   1.426
  22 str  20   9   1.426
  23 str  20  19   1.434
  24 str  21   6   1.085
  25 str  22   7   1.090
  26 str  23   8   1.085
  27 str  24  15   1.085
  28 str  25  16   1.090
  29 str  26  17   1.085
 nber stretches=          29
  30 ben   1   2   3
  31 prop tor   1   2   3   4
  32 prop tor   1   2   3   5
  33 ben   1   2  18
  34 prop tor   1   2  18  17
  35 prop tor   1   2  18  19
  36 ben   2   3   4
  37 ben   2   3   5
  38 prop tor   2   3   5   6
  39 prop tor   2   3   5  20
  40 ben   2  18  17
  41 ben   2  18  19
  42 prop tor   2  18  19  14
  43 prop tor   2  18  19  20
  44 ben   3   2  18
  45 prop tor   3   2  18  17
  46 prop tor   3   2  18  19
  47 ben   3   5   6
  48 prop tor   3   5   6   7
  49 prop tor   3   5   6  21
  50 ben   3   5  20
  51 prop tor   3   5  20   9
  52 prop tor   3   5  20  19
  53 ben   4   3   5
  54 prop tor   4   3   5   6
  55 prop tor   4   3   5  20
  56 ben   5   6   7
  57 prop tor   5   6   7   8
  58 prop tor   5   6   7  22
  59 ben   5   6  21
  60 ben   5  20   9
  61 ben   5  20  19
  62 ben   6   5  20
  63 prop tor   6   5  20   9
  64 prop tor   6   5  20  19
  65 ben   6   7   8
  66 prop tor   6   7   8   9
  67 prop tor   6   7   8  23
  68 ben   6   7  22
  69 ben   7   6  21
  70 ben   7   8   9
  71 prop tor   7   8   9  10
  72 prop tor   7   8   9  20
  73 ben   7   8  23
  74 ben   8   7  22
  75 ben   8   9  10
  76 prop tor   8   9  10  11
  77 prop tor   8   9  10  12
  78 ben   8   9  20
  79 prop tor   8   9  20   5
  80 prop tor   8   9  20  19
  81 ben   9   8  23
  82 ben   9  10  11
  83 ben   9  10  12
  84 prop tor   9  10  12  13
  85 prop tor   9  10  12  14
  86 ben   9  20  19
  87 ben  10   9  20
  88 prop tor  10   9  20   5
  89 prop tor  10   9  20  19
  90 ben  10  12  13
  91 ben  10  12  14
  92 prop tor  10  12  14  15
  93 prop tor  10  12  14  19
  94 ben  11  10  12
  95 prop tor  11  10  12  13
  96 prop tor  11  10  12  14
  97 ben  12  14  15
  98 prop tor  12  14  15  16
  99 prop tor  12  14  15  24
 100 ben  12  14  19
 101 prop tor  12  14  19  18
 102 prop tor  12  14  19  20
 103 ben  13  12  14
 104 prop tor  13  12  14  15
 105 prop tor  13  12  14  19
 106 ben  14  15  16
 107 prop tor  14  15  16  17
 108 prop tor  14  15  16  25
 109 ben  14  15  24
 110 ben  14  19  18
 111 ben  14  19  20
 112 prop tor  14  19  20   5
 113 prop tor  14  19  20   9
 114 ben  15  14  19
 115 prop tor  15  14  19  18
 116 prop tor  15  14  19  20
 117 ben  15  16  17
 118 prop tor  15  16  17  18
 119 prop tor  15  16  17  26
 120 ben  15  16  25
 121 ben  16  15  24
 122 ben  16  17  18
 123 prop tor  16  17  18   2
 124 prop tor  16  17  18  19
 125 ben  16  17  26
 126 ben  17  16  25
 127 ben  17  18  19
 128 prop tor  17  18  19  14
 129 prop tor  17  18  19  20
 130 prop tor  18   2   3   4
 131 prop tor  18   2   3   5
 132 ben  18  17  26
 133 ben  18  19  20
 134 prop tor  18  19  20   5
 135 prop tor  18  19  20   9
 136 prop tor  19  14  15  16
 137 prop tor  19  14  15  24
 138 prop tor  20   5   6   7
 139 prop tor  20   5   6  21
 140 prop tor  20   9  10  11
 141 prop tor  20   9  10  12
 142 prop tor  21   6   7   8
 143 prop tor  21   6   7  22
 144 prop tor  22   7   8   9
 145 prop tor  22   7   8  23
 146 prop tor  23   8   9  10
 147 prop tor  23   8   9  20
 148 prop tor  24  15  16  17
 149 prop tor  24  15  16  25
 150 prop tor  25  16  17  18
 151 prop tor  25  16  17  26
 152 prop tor  26  17  18   2
 153 prop tor  26  17  18  19
 nber bend=              48
 nber lin bend=           0
 nber prop tor=          76
 nber impr tor=           0
 nber tot redund int=         153
 Reading file: 
 ./conjugated_carbonyls_0_C-3S0.log                                             
                                          
  Entering Gaussian System, Link 0=g16                                          
  
 Gaussian format, type: g94, g98, g03= F F F
  File lengths (MBytes):  RWF=    177 Int=      0 D2E=      0 Chk=     15 Sc
