 Enter ifcurve (0=recti, 1=orth curvi, 2=apprx curvi, -1 = skip
 And atom ordering flag, 0= never changes, 1= use the first order thenceforth,
  2= deduce it (does read on fail), 3= always read it
 Reading file: 
 ./TT_0_C0S1.log                                                                
                                          
  Entering Gaussian System, Link 0=g16                                          
  
 Gaussian format, type: g94, g98, g03= F F F
  #P Geom=AllCheck Guess=TCheck SCRF=Check GenChk RB3LYP TD(FC,Read)/6-3    
 energy type= TD      
 Original G94 input coords:
  6 -2.308048 -0.012648 -0.000776
  6 -1.413012 -1.116603 -0.001425
  6 -0.096281 -0.706082 -0.001021
 16  1.504711 -1.532879 -0.001417
  6  2.302610  0.019490 -0.000304
  6  1.407570  1.123439  0.000345
  6  0.090842  0.712909 -0.000056
 16 -1.510142  1.539724  0.000340
  1 -3.386152 -0.053596 -0.000914
  1 -1.760755 -2.140205 -0.002145
  1  3.380713  0.060450 -0.000169
  1  1.755314  2.147041  0.001063
 nber atoms=          12
  Total Energy, E(TD-HF/TD-DFT) =  -1027.34166907                               
  
          32          49 "  -1027.34166907"
After scan for Atom:   Atom  AN      X      Y      Z        X      Y      Z        X      Y      Z   
After scan for Atom:   Atom  AN      X      Y      Z        X      Y      Z        X      Y      Z   
After scan for Atom:   Atom  AN      X      Y      Z        X      Y      Z        X      Y      Z   
After scan for Atom:   Atom  AN      X      Y      Z        X      Y      Z        X      Y      Z   
After scan for Atom:   Atom  AN      X      Y      Z        X      Y      Z        X      Y      Z   
After scan for Atom:   Atom  AN      X      Y      Z        X      Y      Z        X      Y      Z   
After scan for Atom:   Atom  AN      X      Y      Z        X      Y      Z        X      Y      Z   
After scan for Atom:   Atom  AN      X      Y      Z        X      Y      Z        X      Y      Z   
After scan for Atom:   Atom  AN      X      Y      Z        X      Y      Z        X      Y      Z   
After scan for Atom:   Atom  AN      X      Y      Z        X      Y      Z        X      Y      Z   
 g94    frequencies=
     0.0    0.0    0.0    0.0    0.0    0.0  -72.9  -72.0   97.7  329.1
   351.4  355.4  404.0  467.6  551.6  558.3  577.0  690.4  745.0  786.9
   793.3  826.7  866.7 1028.8 1050.6 1113.8 1230.5 1298.9 1299.3 1328.0
  1454.0 1550.4 3213.9 3214.1 3244.0 3244.8
 g94    symmetries=
                                                 A      A      A      A
       A      A      A      A      A      A      A      A      A      A
       A      A      A      A      A      A      A      A      A      A
       A      A      A      A      A      A
 atomic masses:
 12.0000 12.0000 12.0000 31.9721 12.0000 12.0000 12.0000 31.9721  1.0078  1.0078
  1.0078  1.0078
 looking for force constants in 
 ./TT_0_C0S1.fchk                                                               
  
 Cartesian Force Constants                  R   N=         666                  
  
 n3=          36         666
 g94-fc frequencies=
   -72.9  -72.1   -2.6   -0.0   -0.0    0.0    3.8    8.4   97.7  329.1
   351.4  355.4  404.0  467.6  551.6  558.3  577.0  690.4  745.0  787.0
   793.3  826.8  866.7 1028.8 1050.6 1113.9 1230.5 1298.9 1299.3 1328.0
  1454.0 1550.4 3213.9 3214.1 3244.0 3244.9
 at 99999: n3=          36
 symm operator            1 :  F  nop=           0
 symm operator            2 :  F  nop=           0
 symm operator            3 :  F  nop=           0
 symm operator            4 :  F  nop=           0
 symm operator            5 :  F  nop=           0
 symm operator            6 :  F  nop=           0
 symm operator            7 :  F  nop=           0
 The point group of the molecule is  C1
 Symmetry rotation matrix:
   1.00000   0.00000   0.00000
   0.00000   1.00000   0.00000
   0.00000   0.00000   1.00000

 Projecting out zero-frequency components
 generating redundant internal coords
         300        3600          12
 search for int coords
   1 str   2   1   1.421
   2 str   3   2   1.379
   3 str   4   3   1.802
   4 str   5   4   1.745
   5 str   6   5   1.421
   6 str   7   3   1.431
   7 str   7   6   1.379
   8 str   8   1   1.745
   9 str   8   7   1.802
  10 str   9   1   1.079
  11 str  10   2   1.081
  12 str  11   5   1.079
  13 str  12   6   1.081
 nber stretches=          13
  14 ben   1   2   3
  15 prop tor   1   2   3   4
  16 prop tor   1   2   3   7
  17 ben   1   2  10
  18 ben   1   8   7
  19 ben   2   1   8
  20 prop tor   2   1   8   7
  21 ben   2   1   9
  22 ben   2   3   4
  23 prop tor   2   3   4   5
  24 ben   2   3   7
  25 prop tor   2   3   7   6
  26 prop tor   2   3   7   8
  27 ben   3   2  10
  28 ben   3   4   5
  29 prop tor   3   4   5   6
  30 prop tor   3   4   5  11
  31 ben   3   7   6
  32 ben   3   7   8
  33 prop tor   3   7   8   1
  34 ben   4   3   7
  35 prop tor   4   3   7   6
  36 prop tor   4   3   7   8
  37 ben   4   5   6
  38 prop tor   4   5   6   7
  39 prop tor   4   5   6  12
  40 ben   4   5  11
  41 ben   5   6   7
  42 prop tor   5   6   7   3
  43 prop tor   5   6   7   8
  44 ben   5   6  12
  45 ben   6   5  11
  46 ben   6   7   8
  47 prop tor   6   7   8   1
  48 prop tor   7   3   4   5
  49 ben   7   6  12
  50 prop tor   8   1   2   3
  51 prop tor   8   1   2  10
  52 ben   8   1   9
  53 prop tor   9   1   2   3
  54 prop tor   9   1   2  10
  55 prop tor   9   1   8   7
  56 prop tor  10   2   3   4
  57 prop tor  10   2   3   7
  58 prop tor  11   5   6   7
  59 prop tor  11   5   6  12
  60 prop tor  12   6   7   3
  61 prop tor  12   6   7   8
 nber bend=              20
 nber lin bend=           0
 nber prop tor=          28
 nber impr tor=           0
 nber tot redund int=          61
 Eigenvalues of G in red int coords
    Gval -0.00000000 -0.00000000 -0.00000000 -0.00000000 -0.00000000 -0.00000000 -0.00000000 -0.00000000
    Gval -0.00000000 -0.00000000 -0.00000000 -0.00000000 -0.00000000 -0.00000000 -0.00000000 -0.00000000
    Gval -0.00000000  0.00000000  0.00000000  0.00000000  0.00000000  0.00000000  0.00000000  0.00000000
    Gval  0.00000000  0.00000000  0.00000000  0.00000000  0.00000000  0.00000000  0.00000000  0.00001793
    Gval  0.00002682  0.00003466  0.00004575  0.00005182  0.00007872  0.00009639  0.00010714  0.00011028
    Gval  0.00014944  0.00015886  0.00022373  0.00029103  0.00029769  0.00035867  0.00038276  0.00059643
    Gval  0.00059659  0.00062051  0.00062522  0.00062888  0.00108351  0.00108509  0.00117632  0.00117897
    Gval  0.00126057  0.00202851  0.00214952  0.00390308  0.00391490
  1.792613242490624E-005  1.792613242490624E-005
  2.682440302848550E-005  1.792613242490624E-005
  3.466306157177878E-005  1.792613242490624E-005
  4.574933415940808E-005  1.792613242490624E-005
  5.182071436291214E-005  1.792613242490624E-005
  7.872019350637155E-005  1.792613242490624E-005
  9.639164453393625E-005  1.792613242490624E-005
  1.071429557767487E-004  1.792613242490624E-005
  1.102808248730682E-004  1.792613242490624E-005
  1.494376040254304E-004  1.792613242490624E-005
  1.588639405396368E-004  1.792613242490624E-005
  2.237348288475203E-004  1.792613242490624E-005
  2.910302088337820E-004  1.792613242490624E-005
  2.976944159006356E-004  1.792613242490624E-005
  3.586717848634724E-004  1.792613242490624E-005
  3.827572738052292E-004  1.792613242490624E-005
  5.964279550108691E-004  1.792613242490624E-005
  5.965893160482278E-004  1.792613242490624E-005
  6.205077371346700E-004  1.792613242490624E-005
  6.252157509346603E-004  1.792613242490624E-005
  6.288803853961107E-004  1.792613242490624E-005
  1.083512779091132E-003  1.792613242490624E-005
  1.085089736713835E-003  1.792613242490624E-005
  1.176321788737784E-003  1.792613242490624E-005
  1.178971126540804E-003  1.792613242490624E-005
  1.260565397236318E-003  1.792613242490624E-005
  2.028510652472572E-003  1.792613242490624E-005
  2.149516711629445E-003  1.792613242490624E-005
  3.903080794796710E-003  1.792613242490624E-005
  3.914902203342365E-003  1.792613242490624E-005
 cut=1d-8, nber non-redundant internal coords=          30
 Check on Eigenvals of non-red overlap matrix:
  0.00001793  0.00002682  0.00003466  0.00004575  0.00005182  0.00007872  0.00009639  0.00010714
  0.00011028  0.00014944  0.00015886  0.00022373  0.00029103  0.00029769  0.00035867  0.00038276
  0.00059643  0.00059659  0.00062051  0.00062522  0.00062888  0.00108351  0.00108509  0.00117632
  0.00117897  0.00126057  0.00202851  0.00214952  0.00390308  0.00391490
 Checking for correct frequencies
 recalc frequencies=
   -72.9  -72.1   -0.0   -0.0   -0.0    0.0    0.0    0.0   97.7  329.1
   351.4  355.4  404.0  467.6  551.6  558.3  577.0  690.4  745.0  787.0
   793.3  826.8  866.7 1028.8 1050.6 1113.9 1230.5 1298.9 1299.3 1328.0
  1454.0 1550.4 3213.9 3214.1 3244.0 3244.9
 recalc symmetries=
                                                                       
                                                                       
                                                                       
                                           
 recalc freqs check OK
 Zero-point lengths:
 29.0264 29.2061 10.0000 10.0000 10.0000 10.0000 10.0000 10.0000 25.0753 13.6652
 13.2255 13.1506 12.3346 11.4644 10.5552 10.4923 10.3209  9.4353  9.0825  8.8373
  8.8020  8.6220  8.4210  7.7289  7.6486  7.4281  7.0673  6.8787  6.8776  6.8029
  6.5014  6.2961  4.3730  4.3728  4.3526  4.3521
 highest evec of mol 1
  0.2002  0.0024  0.0000
  0.0117  0.0465  0.0000
 -0.0066 -0.0022 -0.0000
 -0.0007 -0.0009 -0.0000
  0.2003  0.0024  0.0000
  0.0117  0.0465  0.0000
 -0.0066 -0.0022 -0.0000
 -0.0007 -0.0009 -0.0000
 -0.6612 -0.0226 -0.0001
 -0.0434 -0.1335 -0.0001
 -0.6614 -0.0226 -0.0001
 -0.0434 -0.1336 -0.0001
 generating redundant internal coords
         300        3600          12
 Adding extra bonds for z output only
           6           6           6          16           6           6
           6          16           1           1           1           1
 search for int coords
   1 str   2   1   1.421
   2 str   3   2   1.379
   3 str   4   3   1.802
   4 str   5   4   1.745
   5 str   6   5   1.421
   6 str   7   3   1.431
   7 str   7   6   1.379
   8 str   8   1   1.745
   9 str   8   7   1.802
  10 str   9   1   1.079
  11 str  10   2   1.081
  12 str  11   5   1.079
  13 str  12   6   1.081
 nber stretches=          13
  14 ben   1   2   3
  15 prop tor   1   2   3   4
  16 prop tor   1   2   3   7
  17 ben   1   2  10
  18 ben   1   8   7
  19 ben   2   1   8
  20 prop tor   2   1   8   7
  21 ben   2   1   9
  22 ben   2   3   4
  23 prop tor   2   3   4   5
  24 ben   2   3   7
  25 prop tor   2   3   7   6
  26 prop tor   2   3   7   8
  27 ben   3   2  10
  28 ben   3   4   5
  29 prop tor   3   4   5   6
  30 prop tor   3   4   5  11
  31 ben   3   7   6
  32 ben   3   7   8
  33 prop tor   3   7   8   1
  34 ben   4   3   7
  35 prop tor   4   3   7   6
  36 prop tor   4   3   7   8
  37 ben   4   5   6
  38 prop tor   4   5   6   7
  39 prop tor   4   5   6  12
  40 ben   4   5  11
  41 ben   5   6   7
  42 prop tor   5   6   7   3
  43 prop tor   5   6   7   8
  44 ben   5   6  12
  45 ben   6   5  11
  46 ben   6   7   8
  47 prop tor   6   7   8   1
  48 prop tor   7   3   4   5
  49 ben   7   6  12
  50 prop tor   8   1   2   3
  51 prop tor   8   1   2  10
  52 ben   8   1   9
  53 prop tor   9   1   2   3
  54 prop tor   9   1   2  10
  55 prop tor   9   1   8   7
  56 prop tor  10   2   3   4
  57 prop tor  10   2   3   7
  58 prop tor  11   5   6   7
  59 prop tor  11   5   6  12
  60 prop tor  12   6   7   3
  61 prop tor  12   6   7   8
 nber bend=              20
 nber lin bend=           0
 nber prop tor=          28
 nber impr tor=           0
 nber tot redund int=          61
 Reading file: 
 ./TT_0_C1S0.log                                                                
                                          
  Entering Gaussian System, Link 0=g16                                          
  
 Gaussian format, type: g94, g98, g03= F F F
  #P Geom=AllCheck Guess=TCheck SCRF=Check GenChk UB3LYP/6-311G(d,p) Fre    
 energy type= B3LYP   
 Original G94 input coords:
  6 -2.268074 -0.007488 -0.000769
  6 -1.402220 -1.119005 -0.001425
  6 -0.083834 -0.702758 -0.001019
 16  1.481496 -1.510139 -0.001408
  6  2.262634  0.014327 -0.000309
  6  1.396784  1.125838  0.000344
  6  0.078394  0.709596 -0.000062
 16 -1.486936  1.516988  0.000326
  1 -3.349477 -0.047698 -0.000904
  1 -1.756381 -2.140540 -0.002143
  1  3.344036  0.054547 -0.000173
  1  1.750949  2.147372  0.001062
 nber atoms=          12
  SCF Done:  E(UB3LYP) =  -1027.22028207     A.U. after    1 cycles             
  
          23          40 "  -1027.22028207"
After scan for Atom:   Atom  AN      X      Y      Z        X      Y      Z        X      Y      Z   
After scan for Atom:   Atom  AN      X      Y      Z        X      Y      Z        X      Y      Z   
After scan for Atom:   Atom  AN      X      Y      Z        X      Y      Z        X      Y      Z   
After scan for Atom:   Atom  AN      X      Y      Z        X      Y      Z        X      Y      Z   
After scan for Atom:   Atom  AN      X      Y      Z        X      Y      Z        X      Y      Z   
After scan for Atom:   Atom  AN      X      Y      Z        X      Y      Z        X      Y      Z   
After scan for Atom:   Atom  AN      X      Y      Z        X      Y      Z        X      Y      Z   
After scan for Atom:   Atom  AN      X      Y      Z        X      Y      Z        X      Y      Z   
After scan for Atom:   Atom  AN      X      Y      Z        X      Y      Z        X      Y      Z   
After scan for Atom:   Atom  AN      X      Y      Z        X      Y      Z        X      Y      Z   
 g94    frequencies=
     0.0    0.0    0.0    0.0    0.0    0.0  187.4  213.4  354.1  421.9
   443.9  461.1  519.9  631.7  646.9  762.6  764.0  770.8  784.2  862.0
   906.9  909.0  922.0 1085.2 1092.7 1174.8 1263.0 1337.4 1357.8 1377.0
  1472.8 1532.7 3221.9 3222.3 3233.8 3234.3
 g94    symmetries=
                                                 A      A      A      A
       A      A      A      A      A      A      A      A      A      A
       A      A      A      A      A      A      A      A      A      A
       A      A      A      A      A      A
 atomic masses:
 12.0000 12.0000 12.0000 31.9721 12.0000 12.0000 12.0000 31.9721  1.0078  1.0078
  1.0078  1.0078
 looking for force constants in 
 ./TT_0_C1S0.fchk                                                               
  
 Cartesian Force Constants                  R   N=         666                  
  
 n3=          36         666
 g94-fc frequencies=
    -3.8   -0.0   -0.0    0.0    4.0    9.4  187.4  213.4  354.1  422.0
   443.9  461.2  519.9  631.7  646.9  762.7  764.0  770.9  784.2  862.1
   906.9  909.0  922.1 1085.2 1092.7 1174.9 1263.0 1337.4 1357.8 1377.0
  1472.8 1532.7 3221.9 3222.3 3233.9 3234.4
 at 99999: n3=          36
 symm operator            1 :  F  nop=           0
 symm operator            2 :  F  nop=           0
 symm operator            3 :  F  nop=           0
 symm operator            4 :  F  nop=           0
 symm operator            5 :  F  nop=           0
 symm operator            6 :  F  nop=           0
 symm operator            7 :  F  nop=           0
 The point group of the molecule is  C1
 Symmetry rotation matrix:
   1.00000   0.00000   0.00000
   0.00000   1.00000   0.00000
   0.00000   0.00000   1.00000

 Projecting out zero-frequency components
 generating redundant internal coords
         300        3600          12
 search for int coords
   1 str   2   1   1.409
   2 str   3   2   1.383
   3 str   4   3   1.761
   4 str   5   4   1.713
   5 str   6   5   1.409
   6 str   7   3   1.422
   7 str   7   6   1.383
   8 str   8   1   1.713
   9 str   8   7   1.761
  10 str   9   1   1.082
  11 str  10   2   1.081
  12 str  11   5   1.082
  13 str  12   6   1.081
 nber stretches=          13
  14 ben   1   2   3
  15 prop tor   1   2   3   4
  16 prop tor   1   2   3   7
  17 ben   1   2  10
  18 ben   1   8   7
  19 ben   2   1   8
  20 prop tor   2   1   8   7
  21 ben   2   1   9
  22 ben   2   3   4
  23 prop tor   2   3   4   5
  24 ben   2   3   7
  25 prop tor   2   3   7   6
  26 prop tor   2   3   7   8
  27 ben   3   2  10
  28 ben   3   4   5
  29 prop tor   3   4   5   6
  30 prop tor   3   4   5  11
  31 ben   3   7   6
  32 ben   3   7   8
  33 prop tor   3   7   8   1
  34 ben   4   3   7
  35 prop tor   4   3   7   6
  36 prop tor   4   3   7   8
  37 ben   4   5   6
  38 prop tor   4   5   6   7
  39 prop tor   4   5   6  12
  40 ben   4   5  11
  41 ben   5   6   7
  42 prop tor   5   6   7   3
  43 prop tor   5   6   7   8
  44 ben   5   6  12
  45 ben   6   5  11
  46 ben   6   7   8
  47 prop tor   6   7   8   1
  48 prop tor   7   3   4   5
  49 ben   7   6  12
  50 prop tor   8   1   2   3
  51 prop tor   8   1   2  10
  52 ben   8   1   9
  53 prop tor   9   1   2   3
  54 prop tor   9   1   2  10
  55 prop tor   9   1   8   7
  56 prop tor  10   2   3   4
  57 prop tor  10   2   3   7
  58 prop tor  11   5   6   7
  59 prop tor  11   5   6  12
  60 prop tor  12   6   7   3
  61 prop tor  12   6   7   8
 nber bend=              20
 nber lin bend=           0
 nber prop tor=          28
 nber impr tor=           0
 nber tot redund int=          61
 Eigenvalues of G in red int coords
    Gval -0.00000000 -0.00000000 -0.00000000 -0.00000000 -0.00000000 -0.00000000 -0.00000000 -0.00000000
    Gval -0.00000000 -0.00000000 -0.00000000 -0.00000000 -0.00000000  0.00000000  0.00000000  0.00000000
    Gval  0.00000000  0.00000000  0.00000000  0.00000000  0.00000000  0.00000000  0.00000000  0.00000000
    Gval  0.00000000  0.00000000  0.00000000  0.00000000  0.00000000  0.00000000  0.00000000  0.00001796
    Gval  0.00002732  0.00003502  0.00004584  0.00005211  0.00007913  0.00009979  0.00010838  0.00011105
    Gval  0.00015230  0.00016166  0.00022905  0.00029188  0.00030328  0.00036887  0.00038263  0.00059646
    Gval  0.00059665  0.00062091  0.00062562  0.00062958  0.00107983  0.00108110  0.00117604  0.00117884
    Gval  0.00126449  0.00200214  0.00212272  0.00392271  0.00393706
  1.795550658774886E-005  1.795550658774886E-005
  2.731651167244994E-005  1.795550658774886E-005
  3.501929883154966E-005  1.795550658774886E-005
  4.583647915916962E-005  1.795550658774886E-005
  5.210846245797722E-005  1.795550658774886E-005
  7.912963340729463E-005  1.795550658774886E-005
  9.979116294037352E-005  1.795550658774886E-005
  1.083821709973722E-004  1.795550658774886E-005
  1.110507418801117E-004  1.795550658774886E-005
  1.523034232656485E-004  1.795550658774886E-005
  1.616597392081912E-004  1.795550658774886E-005
  2.290488432803003E-004  1.795550658774886E-005
  2.918788863182503E-004  1.795550658774886E-005
  3.032801383008016E-004  1.795550658774886E-005
  3.688702868801658E-004  1.795550658774886E-005
  3.826273298078005E-004  1.795550658774886E-005
  5.964600740602067E-004  1.795550658774886E-005
  5.966451004584764E-004  1.795550658774886E-005
  6.209135720075637E-004  1.795550658774886E-005
  6.256190704398601E-004  1.795550658774886E-005
  6.295802957474087E-004  1.795550658774886E-005
  1.079831294167028E-003  1.795550658774886E-005
  1.081100407405900E-003  1.795550658774886E-005
  1.176035730826441E-003  1.795550658774886E-005
  1.178844876325204E-003  1.795550658774886E-005
  1.264494629027834E-003  1.795550658774886E-005
  2.002143008112555E-003  1.795550658774886E-005
  2.122718698985548E-003  1.795550658774886E-005
  3.922712409749059E-003  1.795550658774886E-005
  3.937057536193048E-003  1.795550658774886E-005
 cut=1d-8, nber non-redundant internal coords=          30
 Check on Eigenvals of non-red overlap matrix:
  0.00001796  0.00002732  0.00003502  0.00004584  0.00005211  0.00007913  0.00009979  0.00010838
  0.00011105  0.00015230  0.00016166  0.00022905  0.00029188  0.00030328  0.00036887  0.00038263
  0.00059646  0.00059665  0.00062091  0.00062562  0.00062958  0.00107983  0.00108110  0.00117604
  0.00117884  0.00126449  0.00200214  0.00212272  0.00392271  0.00393706
 Checking for correct frequencies
 recalc frequencies=
    -0.0   -0.0   -0.0    0.0    0.0    0.0  187.4  213.4  354.1  422.0
   443.9  461.2  519.9  631.7  646.9  762.7  764.0  770.9  784.2  862.1
   906.9  909.0  922.1 1085.2 1092.7 1174.9 1263.0 1337.4 1357.8 1377.0
  1472.8 1532.7 3221.9 3222.3 3233.9 3234.4
 recalc symmetries=
                                                                       
                                                                       
                                                                       
                                           
 recalc freqs check OK
 Zero-point lengths:
 10.0000 10.0000 10.0000 10.0000 10.0000 10.0000 18.1114 16.9697 13.1752 12.0688
 11.7665 11.5444 10.8726  9.8639  9.7472  8.9770  8.9688  8.9291  8.8530  8.4436
  8.2322  8.2226  8.1643  7.5256  7.4996  7.2327  6.9757  6.7790  6.7278  6.6808
  6.4598  6.3323  4.3675  4.3673  4.3595  4.3591
 highest evec of mol 2
  0.1329 -0.0030  0.0000
  0.0525  0.1600  0.0001
 -0.0123 -0.0049 -0.0000
 -0.0005 -0.0019 -0.0000
  0.1316 -0.0029  0.0000
  0.0519  0.1584  0.0001
 -0.0123 -0.0049 -0.0000
 -0.0005 -0.0019 -0.0000
 -0.4213 -0.0132 -0.0001
 -0.1729 -0.5011 -0.0004
 -0.4174 -0.0131 -0.0001
 -0.1712 -0.4961 -0.0003
 Enter nber and list of atoms to keep of mol #2
 keep list:          12           1           2           3           4
           5           6           7           8           9          10
          11          12
 reordering atoms
           1  -2.01773412190306     
           2 -0.744094928683221     
           3  0.245591327309333     
           4   2.00680326380240     
           5   2.01773505246918     
           6  0.744102133327042     
           7 -0.245589945770029     
           8  -2.00680683570096     
           9  -2.96516899704559     
          10 -0.600281518370841     
          11   2.96516453121715     
          12  0.600292744791323     
           1           1
           2           2
           3           3
           4           4
           5           5
           6           6
           7           7
           8           8
           9           9
          10          10
          11          11
          12          12
 initial cartes coords mol 1
   6  -0.00000   1.05147  -2.05164
   6  -0.00000   1.63474  -0.75565
   6   0.00000   0.67574   0.23563
  16   0.00000   0.69390   2.03742
   6  -0.00000  -1.05147   2.05164
   6  -0.00000  -1.63474   0.75564
   6   0.00000  -0.67573  -0.23563
  16   0.00000  -0.69390  -2.03741
   1  -0.00001   1.57305  -2.99606
   1  -0.00000   2.70535  -0.60572
   1   0.00000  -1.57306   2.99605
   1  -0.00000  -2.70535   0.60571
 initial cartes coords mol 2
   6  -0.00000   1.02990  -2.01773
   6   0.00000   1.63241  -0.74409
   6   0.00000   0.66705   0.24559
  16  -0.00000   0.68301   2.00680
   6   0.00000  -1.02990   2.01774
   6  -0.00000  -1.63240   0.74410
   6  -0.00000  -0.66704  -0.24559
  16   0.00000  -0.68302  -2.00681
   1  -0.00000   1.55279  -2.96517
   1   0.00000   2.70399  -0.60028
   1   0.00001  -1.55280   2.96516
   1  -0.00000  -2.70398   0.60029
 loop 1 0
 mod cartes coords mol 2
   6  -0.00000   1.02990  -2.01773
   6   0.00000   1.63241  -0.74409
   6   0.00000   0.66705   0.24559
  16  -0.00000   0.68301   2.00680
   6   0.00000  -1.02990   2.01774
   6  -0.00000  -1.63240   0.74410
   6  -0.00000  -0.66704  -0.24559
  16   0.00000  -0.68302  -2.00681
   1  -0.00000   1.55279  -2.96517
   1   0.00000   2.70399  -0.60028
   1   0.00001  -1.55280   2.96516
   1  -0.00000  -2.70398   0.60029
 read in order, maxerr=  0.04 for atom   1
 final axis swaps:           1           1           1
 final xyz swap pattern=           1
 reorder list:
   1   2   3   4   5   6   7   8   9  10  11  12
 axis signs=           1           1           1
  6    -0.000000  1.029902 -2.017734    -0.000001  1.051466 -2.051639
  6     0.000002  1.632411 -0.744095    -0.000000  1.634741 -0.755647
  6     0.000001  0.667049  0.245591     0.000001  0.675741  0.235629
 16    -0.000001  0.683010  2.006803     0.000000  0.693895  2.037416
  6     0.000003 -1.029899  2.017735    -0.000001 -1.051467  2.051636
  6    -0.000002 -1.632404  0.744102    -0.000001 -1.634735  0.755643
  6    -0.000001 -0.667044 -0.245590     0.000000 -0.675728 -0.235626
 16     0.000000 -0.683015 -2.006807     0.000001 -0.693902 -2.037415
  1    -0.000003  1.552795 -2.965169    -0.000006  1.573051 -2.996062
  1     0.000001  2.703990 -0.600282    -0.000003  2.705352 -0.605717
  1     0.000007 -1.552800  2.965165     0.000001 -1.573063  2.996052
  1    -0.000001 -2.703984  0.600293    -0.000001 -2.705347  0.605714
 generating redundant internal coords
         300        3600          12
 Adding extra bonds for z output only
           6           6           6          16           6           6
           6          16           1           1           1           1
 search for int coords
   1 str   2   1   1.409
   2 str   3   2   1.383
   3 str   4   3   1.761
   4 str   5   4   1.713
   5 str   6   5   1.409
   6 str   7   3   1.422
   7 str   7   6   1.383
   8 str   8   1   1.713
   9 str   8   7   1.761
  10 str   9   1   1.082
  11 str  10   2   1.081
  12 str  11   5   1.082
  13 str  12   6   1.081
 nber stretches=          13
  14 ben   1   2   3
  15 prop tor   1   2   3   4
  16 prop tor   1   2   3   7
  17 ben   1   2  10
  18 ben   1   8   7
  19 ben   2   1   8
  20 prop tor   2   1   8   7
  21 ben   2   1   9
  22 ben   2   3   4
  23 prop tor   2   3   4   5
  24 ben   2   3   7
  25 prop tor   2   3   7   6
  26 prop tor   2   3   7   8
  27 ben   3   2  10
  28 ben   3   4   5
  29 prop tor   3   4   5   6
  30 prop tor   3   4   5  11
  31 ben   3   7   6
  32 ben   3   7   8
  33 prop tor   3   7   8   1
  34 ben   4   3   7
  35 prop tor   4   3   7   6
  36 prop tor   4   3   7   8
  37 ben   4   5   6
  38 prop tor   4   5   6   7
  39 prop tor   4   5   6  12
  40 ben   4   5  11
  41 ben   5   6   7
  42 prop tor   5   6   7   3
  43 prop tor   5   6   7   8
  44 ben   5   6  12
  45 ben   6   5  11
  46 ben   6   7   8
  47 prop tor   6   7   8   1
  48 prop tor   7   3   4   5
  49 ben   7   6  12
  50 prop tor   8   1   2   3
  51 prop tor   8   1   2  10
  52 ben   8   1   9
  53 prop tor   9   1   2   3
  54 prop tor   9   1   2  10
  55 prop tor   9   1   8   7
  56 prop tor  10   2   3   4
  57 prop tor  10   2   3   7
  58 prop tor  11   5   6   7
  59 prop tor  11   5   6  12
  60 prop tor  12   6   7   3
  61 prop tor  12   6   7   8
 nber bend=              20
 nber lin bend=           0
 nber prop tor=          28
 nber impr tor=           0
 nber tot redund int=          61
 generating redundant internal coords
         300        3600          12
 search for int coords
   1 str   2   1   1.421
   2 str   3   2   1.379
   3 str   4   3   1.802
   4 str   5   4   1.745
   5 str   6   5   1.421
   6 str   7   3   1.431
   7 str   7   6   1.379
   8 str   8   1   1.745
   9 str   8   7   1.802
  10 str   9   1   1.079
  11 str  10   2   1.081
  12 str  11   5   1.079
  13 str  12   6   1.081
 nber stretches=          13
  14 ben   1   2   3
  15 prop tor   1   2   3   4
  16 prop tor   1   2   3   7
  17 ben   1   2  10
  18 ben   1   8   7
  19 ben   2   1   8
  20 prop tor   2   1   8   7
  21 ben   2   1   9
  22 ben   2   3   4
  23 prop tor   2   3   4   5
  24 ben   2   3   7
  25 prop tor   2   3   7   6
  26 prop tor   2   3   7   8
  27 ben   3   2  10
  28 ben   3   4   5
  29 prop tor   3   4   5   6
  30 prop tor   3   4   5  11
  31 ben   3   7   6
  32 ben   3   7   8
  33 prop tor   3   7   8   1
  34 ben   4   3   7
  35 prop tor   4   3   7   6
  36 prop tor   4   3   7   8
  37 ben   4   5   6
  38 prop tor   4   5   6   7
  39 prop tor   4   5   6  12
  40 ben   4   5  11
  41 ben   5   6   7
  42 prop tor   5   6   7   3
  43 prop tor   5   6   7   8
  44 ben   5   6  12
  45 ben   6   5  11
  46 ben   6   7   8
  47 prop tor   6   7   8   1
  48 prop tor   7   3   4   5
  49 ben   7   6  12
  50 prop tor   8   1   2   3
  51 prop tor   8   1   2  10
  52 ben   8   1   9
  53 prop tor   9   1   2   3
  54 prop tor   9   1   2  10
  55 prop tor   9   1   8   7
  56 prop tor  10   2   3   4
  57 prop tor  10   2   3   7
  58 prop tor  11   5   6   7
  59 prop tor  11   5   6  12
  60 prop tor  12   6   7   3
  61 prop tor  12   6   7   8
 nber bend=              20
 nber lin bend=           0
 nber prop tor=          28
 nber impr tor=           0
 nber tot redund int=          61
 Eigenvalues of G in red int coords
    Gval -0.00000000 -0.00000000 -0.00000000 -0.00000000 -0.00000000 -0.00000000 -0.00000000 -0.00000000
    Gval -0.00000000 -0.00000000 -0.00000000 -0.00000000 -0.00000000 -0.00000000 -0.00000000 -0.00000000
    Gval  0.00000000  0.00000000  0.00000000  0.00000000  0.00000000  0.00000000  0.00000000  0.00000000
    Gval  0.00000000  0.00000000  0.00000000  0.00000000  0.00000000  0.00000000  0.00000000  0.00001793
    Gval  0.00002682  0.00003466  0.00004575  0.00005182  0.00007872  0.00009639  0.00010714  0.00011028
    Gval  0.00014944  0.00015886  0.00022373  0.00029103  0.00029769  0.00035867  0.00038276  0.00059643
    Gval  0.00059659  0.00062051  0.00062522  0.00062888  0.00108351  0.00108509  0.00117632  0.00117897
    Gval  0.00126057  0.00202851  0.00214952  0.00390308  0.00391490
  1.792613242490621E-005  1.792613242490621E-005
  2.682440302848546E-005  1.792613242490621E-005
  3.466306157177875E-005  1.792613242490621E-005
  4.574933415940804E-005  1.792613242490621E-005
  5.182071436291207E-005  1.792613242490621E-005
  7.872019350637135E-005  1.792613242490621E-005
  9.639164453393664E-005  1.792613242490621E-005
  1.071429557767488E-004  1.792613242490621E-005
  1.102808248730682E-004  1.792613242490621E-005
  1.494376040254308E-004  1.792613242490621E-005
  1.588639405396366E-004  1.792613242490621E-005
  2.237348288475201E-004  1.792613242490621E-005
  2.910302088337819E-004  1.792613242490621E-005
  2.976944159006357E-004  1.792613242490621E-005
  3.586717848634721E-004  1.792613242490621E-005
  3.827572738052287E-004  1.792613242490621E-005
  5.964279550108701E-004  1.792613242490621E-005
  5.965893160482280E-004  1.792613242490621E-005
  6.205077371346719E-004  1.792613242490621E-005
  6.252157509346606E-004  1.792613242490621E-005
  6.288803853961112E-004  1.792613242490621E-005
  1.083512779091133E-003  1.792613242490621E-005
  1.085089736713834E-003  1.792613242490621E-005
  1.176321788737783E-003  1.792613242490621E-005
  1.178971126540803E-003  1.792613242490621E-005
  1.260565397236321E-003  1.792613242490621E-005
  2.028510652472573E-003  1.792613242490621E-005
  2.149516711629447E-003  1.792613242490621E-005
  3.903080794796713E-003  1.792613242490621E-005
  3.914902203342369E-003  1.792613242490621E-005
 cut=1d-8, nber non-redundant internal coords=          30
 Check on Eigenvals of non-red overlap matrix:
  0.00001793  0.00002682  0.00003466  0.00004575  0.00005182  0.00007872  0.00009639  0.00010714
  0.00011028  0.00014944  0.00015886  0.00022373  0.00029103  0.00029769  0.00035867  0.00038276
  0.00059643  0.00059659  0.00062051  0.00062522  0.00062888  0.00108351  0.00108509  0.00117632
  0.00117897  0.00126057  0.00202851  0.00214952  0.00390308  0.00391490
 generating redundant internal coords
         300        3600          12
 search for int coords
   1 str   2   1   1.409
   2 str   3   2   1.383
   3 str   4   3   1.761
   4 str   5   4   1.713
   5 str   6   5   1.409
   6 str   7   3   1.422
   7 str   7   6   1.383
   8 str   8   1   1.713
   9 str   8   7   1.761
  10 str   9   1   1.082
  11 str  10   2   1.081
  12 str  11   5   1.082
  13 str  12   6   1.081
 nber stretches=          13
  14 ben   1   2   3
  15 prop tor   1   2   3   4
  16 prop tor   1   2   3   7
  17 ben   1   2  10
  18 ben   1   8   7
  19 ben   2   1   8
  20 prop tor   2   1   8   7
  21 ben   2   1   9
  22 ben   2   3   4
  23 prop tor   2   3   4   5
  24 ben   2   3   7
  25 prop tor   2   3   7   6
  26 prop tor   2   3   7   8
  27 ben   3   2  10
  28 ben   3   4   5
  29 prop tor   3   4   5   6
  30 prop tor   3   4   5  11
  31 ben   3   7   6
  32 ben   3   7   8
  33 prop tor   3   7   8   1
  34 ben   4   3   7
  35 prop tor   4   3   7   6
  36 prop tor   4   3   7   8
  37 ben   4   5   6
  38 prop tor   4   5   6   7
  39 prop tor   4   5   6  12
  40 ben   4   5  11
  41 ben   5   6   7
  42 prop tor   5   6   7   3
  43 prop tor   5   6   7   8
  44 ben   5   6  12
  45 ben   6   5  11
  46 ben   6   7   8
  47 prop tor   6   7   8   1
  48 prop tor   7   3   4   5
  49 ben   7   6  12
  50 prop tor   8   1   2   3
  51 prop tor   8   1   2  10
  52 ben   8   1   9
  53 prop tor   9   1   2   3
  54 prop tor   9   1   2  10
  55 prop tor   9   1   8   7
  56 prop tor  10   2   3   4
  57 prop tor  10   2   3   7
  58 prop tor  11   5   6   7
  59 prop tor  11   5   6  12
  60 prop tor  12   6   7   3
  61 prop tor  12   6   7   8
 nber bend=              20
 nber lin bend=           0
 nber prop tor=          28
 nber impr tor=           0
 nber tot redund int=          61
 Eigenvalues of G in red int coords
    Gval -0.00000000 -0.00000000 -0.00000000 -0.00000000 -0.00000000 -0.00000000 -0.00000000 -0.00000000
    Gval -0.00000000 -0.00000000 -0.00000000 -0.00000000 -0.00000000 -0.00000000  0.00000000  0.00000000
    Gval  0.00000000  0.00000000  0.00000000  0.00000000  0.00000000  0.00000000  0.00000000  0.00000000
    Gval  0.00000000  0.00000000  0.00000000  0.00000000  0.00000000  0.00000000  0.00000000  0.00001796
    Gval  0.00002732  0.00003502  0.00004584  0.00005211  0.00007913  0.00009979  0.00010838  0.00011105
    Gval  0.00015230  0.00016166  0.00022905  0.00029188  0.00030328  0.00036887  0.00038263  0.00059646
    Gval  0.00059665  0.00062091  0.00062562  0.00062958  0.00107983  0.00108110  0.00117604  0.00117884
    Gval  0.00126449  0.00200214  0.00212272  0.00392271  0.00393706
  1.795550658774883E-005  1.795550658774883E-005
  2.731651167244990E-005  1.795550658774883E-005
  3.501929883154966E-005  1.795550658774883E-005
  4.583647915916960E-005  1.795550658774883E-005
  5.210846245797715E-005  1.795550658774883E-005
  7.912963340729459E-005  1.795550658774883E-005
  9.979116294037320E-005  1.795550658774883E-005
  1.083821709973720E-004  1.795550658774883E-005
  1.110507418801116E-004  1.795550658774883E-005
  1.523034232656483E-004  1.795550658774883E-005
  1.616597392081909E-004  1.795550658774883E-005
  2.290488432803011E-004  1.795550658774883E-005
  2.918788863182505E-004  1.795550658774883E-005
  3.032801383008018E-004  1.795550658774883E-005
  3.688702868801655E-004  1.795550658774883E-005
  3.826273298078007E-004  1.795550658774883E-005
  5.964600740602058E-004  1.795550658774883E-005
  5.966451004584762E-004  1.795550658774883E-005
  6.209135720075632E-004  1.795550658774883E-005
  6.256190704398598E-004  1.795550658774883E-005
  6.295802957474101E-004  1.795550658774883E-005
  1.079831294167029E-003  1.795550658774883E-005
  1.081100407405900E-003  1.795550658774883E-005
  1.176035730826441E-003  1.795550658774883E-005
  1.178844876325204E-003  1.795550658774883E-005
  1.264494629027835E-003  1.795550658774883E-005
  2.002143008112556E-003  1.795550658774883E-005
  2.122718698985550E-003  1.795550658774883E-005
  3.922712409749054E-003  1.795550658774883E-005
  3.937057536193044E-003  1.795550658774883E-005
 cut=1d-8, nber non-redundant internal coords=          30
 Check on Eigenvals of non-red overlap matrix:
  0.00001796  0.00002732  0.00003502  0.00004584  0.00005211  0.00007913  0.00009979  0.00010838
  0.00011105  0.00015230  0.00016166  0.00022905  0.00029188  0.00030328  0.00036887  0.00038263
  0.00059646  0.00059665  0.00062091  0.00062562  0.00062958  0.00107983  0.00108110  0.00117604
  0.00117884  0.00126449  0.00200214  0.00212272  0.00392271  0.00393706
 d1=
 -13.0   0.0  -1.0   3.3  -0.0  -0.0  -0.0   0.0  -2.3   3.6  -0.0   0.0   0.0  -3.0   0.0  -0.6  -0.4  -0.0  -0.0   0.5
   0.0  -0.0  -0.4  -0.0   0.7   0.0  -0.0   0.0  -0.0   0.0
 d2=
 -13.1  -0.0  -1.1  -3.3  -0.0   0.0  -0.0  -0.0   2.3   3.5   0.0   0.0   0.0  -3.0  -0.0   0.6   0.4   0.0   0.0   0.6
  -0.0  -0.0   0.4   0.0   0.6  -0.0   0.0  -0.0   0.0  -0.0
 curvilinear- renormalizn of Dush matrix done
  mol 1 sym            1  -> mol 2 sym            1

 Dushinsky matrix, ncs 2 in terms of ncs 1

   mode   freq    coeff     %      %tot     of    at

   1        -0.  0.0000     0.0     0.0   1       -73.
   2        -0. -0.0000     0.0     0.0  10       329.
   3        -0.  0.0000     0.0     0.0   1       -73.
   4         0.  0.0000     0.0     0.0   1       -73.
   5         0.  0.0000     0.0     0.0   1       -73.
   6         0.  0.0000     0.0     0.0   1       -73.
   7       187. -0.9573    91.6   101.0   1       -73.
   8       213.  0.9603    92.2   104.1   9        98.
   9       354.  0.9972    99.4   102.4  10       329.
  10       422.  0.8242    67.9   102.8   2       -72.
                -0.5497    30.2          12       355.
  11       444. -0.9757    95.2   100.1  13       404.
  12       461. -0.9982    99.6   101.1  11       351.
  13       520. -0.9728    94.6   102.6  14       468.
  14       632.  0.5200    27.0   100.1  12       355.
                 0.8312    69.1          15       552.
  15       647.  0.9878    97.6   102.5  17       577.
  16       763. -0.9859    97.2   100.1  19       745.
  17       764. -0.9873    97.5   100.4  18       690.
  18       771. -0.4777    22.8    98.9   2       -72.
                -0.6275    39.4          12       355.
                 0.5272    27.8          15       552.
                 0.3163    10.0          21       793.
  19       784. -0.9397    88.3    99.0  16       558.
                 0.3333    11.1          20       787.
  20       862.  0.9888    97.8   101.5  22       827.
  21       907.  0.3191    10.2   100.5  16       558.
                 0.9474    89.8          20       787.
  22       909.  0.9508    90.4   100.6  21       793.
  23       922.  0.9902    98.0   100.2  23       867.
  24      1085. -0.9909    98.2    99.9  24      1029.
  25      1093.  0.9889    97.8    99.9  25      1051.
  26      1175.  0.9881    97.6   100.3  26      1114.
  27      1263. -0.9930    98.6   100.0  27      1230.
  28      1337. -0.9004    81.1   100.0  29      1299.
                -0.4109    16.9          30      1328.
  29      1358. -0.9907    98.2   100.2  28      1299.
  30      1377.  0.4201    17.7   100.8  29      1299.
                -0.9018    81.3          30      1328.
  31      1473. -0.9983    99.7   100.4  31      1454.
  32      1533.  0.9862    97.3   100.2  32      1550.
  33      3222.  0.7726    59.7   100.0  33      3214.
                 0.6349    40.3          36      3245.
  34      3222. -0.7919    62.7   100.0  34      3214.
                 0.6106    37.3          35      3244.
  35      3234. -0.6106    37.3   100.0  34      3214.
                -0.7918    62.7          35      3244.
  36      3234. -0.6349    40.3   100.0  33      3214.
                 0.7725    59.7          36      3245.
 nber times 1st assigned=           1           5
 nber times 1st assigned=           2           0
 nber times 1st assigned=           3           0
 nber times 1st assigned=           4           0
 nber times 1st assigned=           5           0
 nber times 1st assigned=           6           0
 nber times 1st assigned=           7           0
 nber times 1st assigned=           8           0
 nber times 1st assigned=           9           0
 nber times 1st assigned=          11           0
 nber times 1st assigned=          12           0
 nber times 1st assigned=          13           0
 nber times 1st assigned=          14           0
 nber times 1st assigned=          15           0
 nber times 1st assigned=          16           0
 nber times 1st assigned=          17           0
 nber times 1st assigned=          18           0
 nber times 1st assigned=          19           0
 nber times 1st assigned=          20           0
 nber times 1st assigned=          21           0
 nber times 1st assigned=          22           0
 nber times 1st assigned=          23           0
 nber times 1st assigned=          24           0
 nber times 1st assigned=          25           0
 nber times 1st assigned=          26           0
 nber times 1st assigned=          27           0
 nber times 1st assigned=          28           0
 nber times 1st assigned=          29           0
 nber times 1st assigned=          30           0
 nber times 1st assigned=          31           0
 nber times 1st assigned=          32           0
 nber times 1st assigned=          33           0
 nber times 1st assigned=          34           0
 nber times 1st assigned=          35           0
 nber times 1st assigned=          36           0
 Dushinsky matrix written to .out file
 modes represented=   30.1965787866402     

 Dushinsky matrix, ncs 1 in terms of ncs 2

   mode   freq    coeff     %      %tot     of    at

   1       -73. -0.9573    91.6   100.6   7       187.
   2       -72.  0.8242    67.9    99.4  10       422.
                -0.4777    22.8          18       771.
   9        98.  0.9603    92.2   104.4   8       213.
  10       329.  0.9972    99.4   102.5   9       354.
  11       351. -0.9982    99.6   101.4  12       461.
  12       355. -0.5497    30.2   102.0  10       422.
                 0.5200    27.0          14       632.
                -0.6275    39.4          18       771.
  13       404. -0.9757    95.2   100.8  11       444.
  14       468. -0.9728    94.6   102.3  13       520.
  15       552.  0.8312    69.1    99.7  14       632.
                 0.5272    27.8          18       771.
  16       558. -0.9397    88.3    98.0  19       784.
                 0.3191    10.2          21       907.
  17       577.  0.9878    97.6   102.3  15       647.
  18       690. -0.9873    97.5   100.2  17       764.
  19       745. -0.9859    97.2    99.9  16       763.
  20       787.  0.3333    11.1   101.2  19       784.
                 0.9474    89.8          21       907.
  21       793.  0.3163    10.0   101.3  18       771.
                 0.9508    90.4          22       909.
  22       827.  0.9888    97.8   101.6  20       862.
  23       867.  0.9902    98.0   100.3  23       922.
  24      1029. -0.9909    98.2   100.0  24      1085.
  25      1051.  0.9889    97.8   100.1  25      1093.
  26      1114.  0.9881    97.6   100.4  26      1175.
  27      1230. -0.9930    98.6    99.9  27      1263.
  28      1299. -0.9907    98.2   100.3  29      1358.
  29      1299. -0.9004    81.1   100.1  28      1337.
                 0.4201    17.7          30      1377.
  30      1328. -0.4109    16.9   100.7  28      1337.
                -0.9018    81.3          30      1377.
  31      1454. -0.9983    99.7   100.4  31      1473.
  32      1550.  0.9862    97.3   100.0  32      1533.
  33      3214.  0.7726    59.7   100.0  33      3222.
                -0.6349    40.3          36      3234.
  34      3214. -0.7919    62.7   100.0  34      3222.
                -0.6106    37.3          35      3234.
  35      3244.  0.6106    37.3   100.0  34      3222.
                -0.7918    62.7          35      3234.
  36      3245.  0.6349    40.3   100.0  33      3222.
                 0.7725    59.7          36      3234.
 nber times 1st assigned=           1           0
 nber times 1st assigned=           2           0
 nber times 1st assigned=           3           0
 nber times 1st assigned=           4           0
 nber times 1st assigned=           5           0
 nber times 1st assigned=           6           0
 nber times 1st assigned=           7           0
 nber times 1st assigned=           8           0
 nber times 1st assigned=           9           0
 nber times 1st assigned=          10           0
 nber times 1st assigned=          11           0
 nber times 1st assigned=          12           0
 nber times 1st assigned=          13           0
 nber times 1st assigned=          14           0
 nber times 1st assigned=          15           0
 nber times 1st assigned=          16           0
 nber times 1st assigned=          17           0
 nber times 1st assigned=          18           0
 nber times 1st assigned=          19           0
 nber times 1st assigned=          20           0
 nber times 1st assigned=          21           0
 nber times 1st assigned=          22           0
 nber times 1st assigned=          23           0
 nber times 1st assigned=          24           0
 nber times 1st assigned=          25           0
 nber times 1st assigned=          26           0
 nber times 1st assigned=          27           0
 nber times 1st assigned=          28           0
 nber times 1st assigned=          29           0
 nber times 1st assigned=          30           0
 nber times 1st assigned=          31           0
 nber times 1st assigned=          32           0
 nber times 1st assigned=          33           0
 nber times 1st assigned=          34           0
 nber times 1st assigned=          35           0
 nber times 1st assigned=          36           0
 modes represented=   30.1965787866402     
 p1=
   -0.   -0.   -0.   -0.   -0.   -0.   -0.    0.    0.    0.   -0.    0.   11.   -5.   -0.   -0.   -0.   -0.    7.    0.
    0.    4.    0.    0.   -1.   -1.   -0.    0.    0.    0.    0.   -2.   -0.    0.   -0.   -0.
 p2=
    0.    0.    0.   -0.    0.   -0.   -0.    0.   -0.    0.   12.   -0.   -2.   -0.    0.    7.    0.   -0.   -0.   -4.
   -0.   -0.   -0.   -0.    1.    0.   -0.    0.   -0.    0.    0.    2.    0.    0.   -0.   -0.

 Displacement: in terms of nc of 1 THEN of nc of 2

   1     freq=   -73. Q= -0.000 lam=    -0.0     freq=    -0. Q= -0.000 lam=    -0.0
   2     freq=   -72. Q= -0.000 lam=    -0.0     freq=    -0. Q= -0.000 lam=    -0.0
   3     freq=    -0. Q= -0.000 lam=    -0.0     freq=    -0. Q= -0.000 lam=    -0.0
   4     freq=    -0. Q= -0.000 lam=    -0.0     freq=     0. Q= -0.000 lam=     0.0
   5     freq=    -0. Q= -0.000 lam=    -0.0     freq=     0. Q= -0.000 lam=     0.0
   6     freq=     0. Q= -0.000 lam=     0.0     freq=     0. Q= -0.000 lam=     0.0
   7     freq=     0. Q= -0.000 lam=     0.0     freq=   187. Q= -0.000 lam=     0.0
   8     freq=     0. Q=  0.000 lam=     0.0     freq=   213. Q=  0.000 lam=     0.0
   9     freq=    98. Q=  0.000 lam=     0.0     freq=   354. Q=  0.000 lam=     0.0
  10     freq=   329. Q=  0.000 lam=     0.0     freq=   422. Q=  0.000 lam=     0.0
  11     freq=   351. Q= -0.000 lam=     0.0     freq=   444. Q= -0.998 lam=   221.1
  12     freq=   355. Q=  0.000 lam=     0.0     freq=   461. Q=  0.000 lam=     0.0
  13     freq=   404. Q=  0.891 lam=   160.3     freq=   520. Q=  0.184 lam=     8.8
  14     freq=   468. Q= -0.448 lam=    47.0     freq=   632. Q= -0.000 lam=     0.0
  15     freq=   552. Q= -0.000 lam=     0.0     freq=   647. Q= -0.000 lam=     0.0
  16     freq=   558. Q= -0.000 lam=     0.0     freq=   763. Q= -0.768 lam=   224.8
  17     freq=   577. Q= -0.000 lam=     0.0     freq=   764. Q= -0.002 lam=     0.0
  18     freq=   690. Q= -0.000 lam=     0.0     freq=   771. Q= -0.000 lam=     0.0
  19     freq=   745. Q=  0.744 lam=   205.9     freq=   784. Q=  0.000 lam=     0.0
  20     freq=   787. Q=  0.000 lam=     0.0     freq=   862. Q=  0.480 lam=    99.5
  21     freq=   793. Q=  0.000 lam=     0.0     freq=   907. Q=  0.000 lam=     0.0
  22     freq=   827. Q=  0.415 lam=    71.3     freq=   909. Q=  0.000 lam=     0.0
  23     freq=   867. Q=  0.000 lam=     0.0     freq=   922. Q=  0.000 lam=     0.0
  24     freq=  1029. Q=  0.000 lam=     0.0     freq=  1085. Q=  0.000 lam=     0.0
  25     freq=  1051. Q= -0.103 lam=     5.6     freq=  1093. Q= -0.146 lam=    11.6
  26     freq=  1114. Q= -0.088 lam=     4.3     freq=  1175. Q= -0.011 lam=     0.1
  27     freq=  1230. Q= -0.000 lam=     0.0     freq=  1263. Q= -0.000 lam=     0.0
  28     freq=  1299. Q=  0.000 lam=     0.0     freq=  1337. Q=  0.019 lam=     0.2
  29     freq=  1299. Q=  0.010 lam=     0.1     freq=  1358. Q=  0.000 lam=     0.0
  30     freq=  1328. Q=  0.014 lam=     0.1     freq=  1377. Q=  0.017 lam=     0.2
  31     freq=  1454. Q=  0.000 lam=     0.0     freq=  1473. Q=  0.000 lam=     0.0
  32     freq=  1550. Q= -0.324 lam=    81.6     freq=  1533. Q= -0.364 lam=   101.5
  33     freq=  3214. Q= -0.000 lam=     0.0     freq=  3222. Q= -0.000 lam=     0.0
  34     freq=  3214. Q=  0.007 lam=     0.1     freq=  3222. Q=  0.051 lam=     4.2
  35     freq=  3244. Q= -0.066 lam=     7.0     freq=  3234. Q= -0.050 lam=     4.1
  36     freq=  3245. Q= -0.000 lam=     0.0     freq=  3234. Q= -0.000 lam=     0.0

 total reorg energy (cm**-1, kcal/mol)=      583.      676.      1.67      1.93
 Nber of molecules processed=           2
