 Enter ifcurve (0=recti, 1=orth curvi, 2=apprx curvi, -1 = skip
 And atom ordering flag, 0= never changes, 1= use the first order thenceforth,
  2= deduce it (does read on fail), 3= always read it
 Reading file: 
 ./PDI_7_C0S0.log                                                               
                                          
  Entering Gaussian System, Link 0=g16                                          
  
 Gaussian format, type: g94, g98, g03= F F F
  #P Geom=AllCheck Guess=TCheck SCRF=Check GenChk RB3LYP/6-311G(d,p) Fre    
 energy type= B3LYP   
 Original G94 input coords:
  6  0.862036  0.377808 -0.209593
  6  2.273107 -0.175007  0.015563
  6  3.272838  0.242072 -1.067962
  7  2.779868  0.141305  1.389458
  6  3.021085 -0.948682  2.247398
  8  2.826567 -2.095861  1.888160
  6  3.523182 -0.642325  3.610307
  6  3.773811 -1.680894  4.486630
  6  4.246938 -1.422207  5.775114
  6  4.483929 -0.125253  6.227501
  6  4.981905  0.157830  7.580803
  6  5.250299 -0.852946  8.501845
  6  5.724213 -0.575041  9.785727
  6  5.943540  0.728990 10.185277
  6  6.448350  0.987211 11.556876
  8  6.679732  0.095556 12.346684
  7  6.650650  2.337971 11.905876
  6  7.143330  2.617120 13.238115
  6  6.253567  2.965723 14.247430
  6  6.729323  3.235652 15.524853
  6  8.098250  3.159996 15.817924
  6  8.604080  3.448362 17.183983
  6  8.080803  4.510104 17.936097
  6  8.555231  4.780873 19.216017
  6  9.562729  3.995286 19.771959
  6 10.091839  2.936776 19.036528
  6  9.617943  2.666487 17.756306
  6  8.975919  2.804677 14.783990
  6  8.505158  2.536545 13.504356
  6  6.411381  3.438206 11.057534
  8  6.610569  4.574094 11.434974
  6  5.908907  3.124665  9.696746
  6  5.657885  4.161436  8.819064
  6  5.184645  3.901279  7.531246
  6  4.948025  2.603679  7.081461
  6  4.449757  2.320480  5.728334
  6  4.180116  3.329574  4.805412
  6  3.706787  3.049902  3.521302
  6  3.489210  1.744893  3.123413
  6  2.985420  1.478855  1.751518
  8  2.760239  2.388629  0.972751
  6  3.747948  0.688717  4.023668
  6  4.231575  0.963727  5.338249
  6  5.200897  1.514861  7.972008
  6  5.685364  1.790049  9.287321
  1  0.478790 -0.003650 -1.159901
  1  0.855866  1.466423 -0.244052
  1  0.184950  0.043249  0.580606
  1  2.213587 -1.261016  0.020118
  1  3.363586  1.325182 -1.138082
  1  2.931521 -0.142814 -2.032763
  1  4.259140 -0.185199 -0.869363
  1  3.596164 -2.695693  4.154008
  1  4.428360 -2.266939  6.425044
  1  5.093959 -1.888702  8.234248
  1  5.927616 -1.373713 10.487953
  1  5.192790  3.018803 14.034159
  1  6.026783  3.484042 16.311575
  1  7.314761  5.143365 17.503163
  1  8.142864  5.612475 19.776580
  1  9.932142  4.206046 20.769127
  1 10.870037  2.313902 19.463466
  1 10.018726  1.824816 17.202915
  1 10.041282  2.762608 14.977447
  1  9.193265  2.271777 12.710652
  1  5.835753  5.176534  9.151199
  1  5.002873  4.744744  6.879811
  1  4.335179  4.365951  5.071500
  1  3.503000  3.847698  2.818364
 nber atoms=          69
  SCF Done:  E(RB3LYP) =  -1911.60747372     A.U. after    1 cycles             
  
          23          40 "  -1911.60747372"
After scan for Atom:   Atom  AN      X      Y      Z        X      Y      Z        X      Y      Z   
After scan for Atom:   Atom  AN      X      Y      Z        X      Y      Z        X      Y      Z   
After scan for Atom:   Atom  AN      X      Y      Z        X      Y      Z        X      Y      Z   
After scan for Atom:   Atom  AN      X      Y      Z        X      Y      Z        X      Y      Z   
After scan for Atom:   Atom  AN      X      Y      Z        X      Y      Z        X      Y      Z   
After scan for Atom:   Atom  AN      X      Y      Z        X      Y      Z        X      Y      Z   
After scan for Atom:   Atom  AN      X      Y      Z        X      Y      Z        X      Y      Z   
After scan for Atom:   Atom  AN      X      Y      Z        X      Y      Z        X      Y      Z   
After scan for Atom:   Atom  AN      X      Y      Z        X      Y      Z        X      Y      Z   
After scan for Atom:   Atom  AN      X      Y      Z        X      Y      Z        X      Y      Z   
After scan for Atom:   Atom  AN      X      Y      Z        X      Y      Z        X      Y      Z   
After scan for Atom:   Atom  AN      X      Y      Z        X      Y      Z        X      Y      Z   
After scan for Atom:   Atom  AN      X      Y      Z        X      Y      Z        X      Y      Z   
After scan for Atom:   Atom  AN      X      Y      Z        X      Y      Z        X      Y      Z   
After scan for Atom:   Atom  AN      X      Y      Z        X      Y      Z        X      Y      Z   
After scan for Atom:   Atom  AN      X      Y      Z        X      Y      Z        X      Y      Z   
After scan for Atom:   Atom  AN      X      Y      Z        X      Y      Z        X      Y      Z   
After scan for Atom:   Atom  AN      X      Y      Z        X      Y      Z        X      Y      Z   
After scan for Atom:   Atom  AN      X      Y      Z        X      Y      Z        X      Y      Z   
After scan for Atom:   Atom  AN      X      Y      Z        X      Y      Z        X      Y      Z   
After scan for Atom:   Atom  AN      X      Y      Z        X      Y      Z        X      Y      Z   
After scan for Atom:   Atom  AN      X      Y      Z        X      Y      Z        X      Y      Z   
After scan for Atom:   Atom  AN      X      Y      Z        X      Y      Z        X      Y      Z   
After scan for Atom:   Atom  AN      X      Y      Z        X      Y      Z        X      Y      Z   
After scan for Atom:   Atom  AN      X      Y      Z        X      Y      Z        X      Y      Z   
After scan for Atom:   Atom  AN      X      Y      Z        X      Y      Z        X      Y      Z   
After scan for Atom:   Atom  AN      X      Y      Z        X      Y      Z        X      Y      Z   
After scan for Atom:   Atom  AN      X      Y      Z        X      Y      Z        X      Y      Z   
After scan for Atom:   Atom  AN      X      Y      Z        X      Y      Z        X      Y      Z   
After scan for Atom:   Atom  AN      X      Y      Z        X      Y      Z        X      Y      Z   
After scan for Atom:   Atom  AN      X      Y      Z        X      Y      Z        X      Y      Z   
After scan for Atom:   Atom  AN      X      Y      Z        X      Y      Z        X      Y      Z   
After scan for Atom:   Atom  AN      X      Y      Z        X      Y      Z        X      Y      Z   
After scan for Atom:   Atom  AN      X      Y      Z        X      Y      Z        X      Y      Z   
After scan for Atom:   Atom  AN      X      Y      Z        X      Y      Z        X      Y      Z   
After scan for Atom:   Atom  AN      X      Y      Z        X      Y      Z        X      Y      Z   
After scan for Atom:   Atom  AN      X      Y      Z        X      Y      Z        X      Y      Z   
After scan for Atom:   Atom  AN      X      Y      Z        X      Y      Z        X      Y      Z   
After scan for Atom:   Atom  AN      X      Y      Z        X      Y      Z        X      Y      Z   
After scan for Atom:   Atom  AN      X      Y      Z        X      Y      Z        X      Y      Z   
After scan for Atom:   Atom  AN      X      Y      Z        X      Y      Z        X      Y      Z   
After scan for Atom:   Atom  AN      X      Y      Z        X      Y      Z        X      Y      Z   
After scan for Atom:   Atom  AN      X      Y      Z        X      Y      Z        X      Y      Z   
After scan for Atom:   Atom  AN      X      Y      Z        X      Y      Z        X      Y      Z   
After scan for Atom:   Atom  AN      X      Y      Z        X      Y      Z        X      Y      Z   
After scan for Atom:   Atom  AN      X      Y      Z        X      Y      Z        X      Y      Z   
After scan for Atom:   Atom  AN      X      Y      Z        X      Y      Z        X      Y      Z   
After scan for Atom:   Atom  AN      X      Y      Z        X      Y      Z        X      Y      Z   
After scan for Atom:   Atom  AN      X      Y      Z        X      Y      Z        X      Y      Z   
After scan for Atom:   Atom  AN      X      Y      Z        X      Y      Z        X      Y      Z   
After scan for Atom:   Atom  AN      X      Y      Z        X      Y      Z        X      Y      Z   
After scan for Atom:   Atom  AN      X      Y      Z        X      Y      Z        X      Y      Z   
After scan for Atom:   Atom  AN      X      Y      Z        X      Y      Z        X      Y      Z   
After scan for Atom:   Atom  AN      X      Y      Z        X      Y      Z        X      Y      Z   
After scan for Atom:   Atom  AN      X      Y      Z        X      Y      Z        X      Y      Z   
After scan for Atom:   Atom  AN      X      Y      Z        X      Y      Z        X      Y      Z   
After scan for Atom:   Atom  AN      X      Y      Z        X      Y      Z        X      Y      Z   
After scan for Atom:   Atom  AN      X      Y      Z        X      Y      Z        X      Y      Z   
After scan for Atom:   Atom  AN      X      Y      Z        X      Y      Z        X      Y      Z   
After scan for Atom:   Atom  AN      X      Y      Z        X      Y      Z        X      Y      Z   
After scan for Atom:   Atom  AN      X      Y      Z        X      Y      Z        X      Y      Z   
After scan for Atom:   Atom  AN      X      Y      Z        X      Y      Z        X      Y      Z   
After scan for Atom:   Atom  AN      X      Y      Z        X      Y      Z        X      Y      Z   
After scan for Atom:   Atom  AN      X      Y      Z        X      Y      Z        X      Y      Z   
After scan for Atom:   Atom  AN      X      Y      Z        X      Y      Z        X      Y      Z   
After scan for Atom:   Atom  AN      X      Y      Z        X      Y      Z        X      Y      Z   
After scan for Atom:   Atom  AN      X      Y      Z        X      Y      Z        X      Y      Z   
 g94    frequencies=
     0.0    0.0    0.0    0.0    0.0    0.0   10.5   11.5   18.9   23.0
    31.6   53.0   59.3   65.6   74.9   77.1   85.2   88.1  104.8  120.2
   126.3  140.5  164.0  182.6  188.9  195.4  217.4  221.5  234.4  235.6
   238.7  271.9  283.3  293.9  314.9  326.1  347.8  359.5  365.4  391.5
   395.3  415.7  418.2  424.2  431.3  436.1  438.3  446.3  448.1  451.7
   469.2  480.1  480.9  482.4  509.6  520.5  525.5  535.1  549.3  569.7
   578.2  585.4  596.8  623.2  631.7  633.5  641.9  651.9  662.2  666.7
   711.9  714.6  714.8  720.0  742.4  745.6  750.3  750.9  763.1  772.3
   779.0  785.7  800.1  804.1  813.9  823.5  840.0  841.6  854.1  856.9
   861.7  864.8  865.4  870.1  872.1  912.6  927.9  934.3  945.6  957.0
   969.1  975.2  979.6  982.6  987.1  992.5  996.7 1001.3 1002.8 1005.7
  1015.4 1026.2 1040.4 1062.3 1063.4 1081.7 1100.9 1103.9 1132.8 1150.5
  1155.9 1160.4 1166.4 1171.9 1182.7 1194.0 1200.7 1201.5 1207.5 1210.5
  1220.7 1221.6 1240.7 1251.3 1259.3 1269.1 1296.1 1302.3 1310.1 1316.2
  1323.3 1326.7 1334.9 1336.7 1356.3 1356.9 1368.7 1374.8 1382.2 1385.4
  1400.6 1406.8 1417.1 1429.0 1433.7 1436.7 1454.8 1477.0 1480.3 1485.4
  1491.3 1498.2 1505.4 1506.2 1521.8 1522.7 1542.7 1548.2 1560.6 1604.0
  1607.2 1614.9 1619.9 1625.0 1631.5 1631.6 1644.5 1649.1 1651.4 1713.1
  1734.3 1751.0 1768.3 3034.7 3038.8 3092.5 3095.7 3113.1 3133.1 3143.5
  3159.6 3166.0 3174.3 3176.5 3177.7 3182.2 3190.0 3192.4 3193.6 3193.8
  3194.7 3200.9 3201.2 3208.1 3208.4 3218.0 3218.2
 g94    symmetries=
                                                 A      A      A      A
       A      A      A      A      A      A      A      A      A      A
       A      A      A      A      A      A      A      A      A      A
       A      A      A      A      A      A      A      A      A      A
       A      A      A      A      A      A      A      A      A      A
       A      A      A      A      A      A      A      A      A      A
       A      A      A      A      A      A      A      A      A      A
       A      A      A      A      A      A      A      A      A      A
       A      A      A      A      A      A      A      A      A      A
       A      A      A      A      A      A      A      A      A      A
       A      A      A      A      A      A      A      A      A      A
       A      A      A      A      A      A      A      A      A      A
       A      A      A      A      A      A      A      A      A      A
       A      A      A      A      A      A      A      A      A      A
       A      A      A      A      A      A      A      A      A      A
       A      A      A      A      A      A      A      A      A      A
       A      A      A      A      A      A      A      A      A      A
       A      A      A      A      A      A      A      A      A      A
       A      A      A      A      A      A      A      A      A      A
       A      A      A      A      A      A      A      A      A      A
       A      A      A      A      A      A      A
 atomic masses:
 12.0000 12.0000 12.0000 14.0031 12.0000 15.9949 12.0000 12.0000 12.0000 12.0000
 12.0000 12.0000 12.0000 12.0000 12.0000 15.9949 14.0031 12.0000 12.0000 12.0000
 12.0000 12.0000 12.0000 12.0000 12.0000 12.0000 12.0000 12.0000 12.0000 12.0000
 15.9949 12.0000 12.0000 12.0000 12.0000 12.0000 12.0000 12.0000 12.0000 12.0000
 15.9949 12.0000 12.0000 12.0000 12.0000  1.0078  1.0078  1.0078  1.0078  1.0078
  1.0078  1.0078  1.0078  1.0078  1.0078  1.0078  1.0078  1.0078  1.0078  1.0078
  1.0078  1.0078  1.0078  1.0078  1.0078  1.0078  1.0078  1.0078  1.0078
 looking for force constants in 
 ./PDI_7_C0S0.fchk                                                              
  
 Cartesian Force Constants                  R   N=       21528                  
  
 n3=         207       21528
 g94-fc frequencies=
    -1.1   -0.0   -0.0    0.0    1.1    5.2   10.5   11.5   18.9   23.0
    31.6   53.0   59.3   65.6   74.9   77.1   85.2   88.1  104.8  120.2
   126.3  140.5  164.0  182.6  188.9  195.4  217.4  221.5  234.4  235.6
   238.7  271.9  283.3  293.9  314.9  326.2  347.8  359.5  365.4  391.5
   395.3  415.7  418.2  424.2  431.3  436.1  438.3  446.3  448.1  451.7
   469.2  480.1  480.9  482.4  509.6  520.5  525.5  535.1  549.4  569.7
   578.2  585.4  596.8  623.2  631.7  633.5  641.9  651.9  662.2  666.7
   711.9  714.6  714.8  720.0  742.4  745.6  750.3  750.9  763.2  772.3
   779.0  785.7  800.1  804.1  813.9  823.5  840.0  841.7  854.1  857.0
   861.7  864.9  865.4  870.1  872.2  912.7  927.9  934.3  945.6  957.0
   969.2  975.3  979.7  982.6  987.1  992.5  996.7 1001.3 1002.8 1005.7
  1015.4 1026.3 1040.4 1062.3 1063.4 1081.7 1100.9 1103.9 1132.8 1150.5
  1155.9 1160.4 1166.4 1171.9 1182.7 1194.0 1200.7 1201.5 1207.5 1210.5
  1220.7 1221.6 1240.7 1251.3 1259.3 1269.1 1296.2 1302.4 1310.1 1316.2
  1323.3 1326.7 1334.9 1336.7 1356.3 1356.9 1368.7 1374.8 1382.3 1385.4
  1400.7 1406.9 1417.1 1429.0 1433.7 1436.7 1454.8 1477.0 1480.3 1485.4
  1491.3 1498.2 1505.4 1506.2 1521.8 1522.7 1542.7 1548.3 1560.6 1604.1
  1607.3 1614.9 1619.9 1625.0 1631.5 1631.6 1644.5 1649.1 1651.4 1713.1
  1734.4 1751.1 1768.3 3034.7 3038.8 3092.6 3095.8 3113.2 3133.2 3143.6
  3159.7 3166.0 3174.3 3176.5 3177.8 3182.2 3190.1 3192.5 3193.7 3193.9
  3194.8 3201.0 3201.3 3208.2 3208.5 3218.1 3218.3
 at 99999: n3=         207
 symm operator            1 :  F  nop=           0
 symm operator            2 :  F  nop=           0
 symm operator            3 :  F  nop=           0
 symm operator            4 :  F  nop=           0
 symm operator            5 :  F  nop=           0
 symm operator            6 :  F  nop=           0
 symm operator            7 :  F  nop=           0
 The point group of the molecule is  C1
 Symmetry rotation matrix:
   1.00000   0.00000   0.00000
   0.00000   1.00000   0.00000
   0.00000   0.00000   1.00000

 Projecting out zero-frequency components
 generating redundant internal coords
         300        3600          69
 search for int coords
   1 str   2   1   1.532
   2 str   3   2   1.532
   3 str   4   2   1.498
   4 str   5   4   1.408
   5 str   6   5   1.218
   6 str   7   5   1.484
   7 str   8   7   1.382
   8 str   9   8   1.397
   9 str  10   9   1.394
  10 str  11  10   1.470
  11 str  12  11   1.394
  12 str  13  12   1.396
  13 str  14  13   1.381
  14 str  15  14   1.484
  15 str  16  15   1.213
  16 str  17  15   1.410
  17 str  18  17   1.448
  18 str  19  18   1.390
  19 str  20  19   1.390
  20 str  21  20   1.402
  21 str  22  21   1.485
  22 str  23  22   1.402
  23 str  24  23   1.392
  24 str  25  24   1.393
  25 str  26  25   1.393
  26 str  27  22   1.402
  27 str  27  26   1.392
  28 str  28  21   1.402
  29 str  29  18   1.390
  30 str  29  28   1.390
  31 str  30  17   1.410
  32 str  31  30   1.213
  33 str  32  30   1.484
  34 str  33  32   1.381
  35 str  34  33   1.396
  36 str  35  34   1.394
  37 str  36  35   1.469
  38 str  37  36   1.394
  39 str  38  37   1.397
  40 str  39  38   1.382
  41 str  40   4   1.401
  42 str  40  39   1.485
  43 str  41  40   1.219
  44 str  42   7   1.412
  45 str  42  39   1.412
  46 str  43  10   1.428
  47 str  43  36   1.428
  48 str  43  42   1.427
  49 str  44  11   1.429
  50 str  44  35   1.429
  51 str  45  14   1.414
  52 str  45  32   1.414
  53 str  45  44   1.428
  54 str  46   1   1.093
  55 str  47   1   1.089
  56 str  48   1   1.093
  57 str  49   2   1.088
  58 str  50   3   1.089
  59 str  51   3   1.093
  60 str  52   3   1.093
  61 str  53   8   1.083
  62 str  54   9   1.081
  63 str  55  12   1.081
  64 str  56  13   1.083
  65 str  57  19   1.083
  66 str  58  20   1.084
  67 str  59  23   1.084
  68 str  60  24   1.084
  69 str  61  25   1.084
  70 str  62  26   1.084
  71 str  63  27   1.084
  72 str  64  28   1.084
  73 str  65  29   1.083
  74 str  66  33   1.083
  75 str  67  34   1.081
  76 str  68  37   1.081
  77 str  69  38   1.083
 nber stretches=          77
  78 ben   1   2   3
  79 prop tor   1   2   3  50
  80 prop tor   1   2   3  51
  81 prop tor   1   2   3  52
  82 ben   1   2   4
  83 prop tor   1   2   4   5
  84 prop tor   1   2   4  40
  85 ben   1   2  49
  86 ben   2   1  46
  87 ben   2   1  47
  88 ben   2   1  48
  89 ben   2   3  50
  90 ben   2   3  51
  91 ben   2   3  52
  92 ben   2   4   5
  93 prop tor   2   4   5   6
  94 prop tor   2   4   5   7
  95 ben   2   4  40
  96 prop tor   2   4  40  39
  97 prop tor   2   4  40  41
  98 ben   3   2   4
  99 prop tor   3   2   4   5
 100 prop tor   3   2   4  40
 101 ben   3   2  49
 102 prop tor   4   2   3  50
 103 prop tor   4   2   3  51
 104 prop tor   4   2   3  52
 105 ben   4   2  49
 106 ben   4   5   6
 107 ben   4   5   7
 108 prop tor   4   5   7   8
 109 prop tor   4   5   7  42
 110 ben   4  40  39
 111 ben   4  40  41
 112 ben   5   4  40
 113 prop tor   5   4  40  39
 114 prop tor   5   4  40  41
 115 ben   5   7   8
 116 prop tor   5   7   8   9
 117 prop tor   5   7   8  53
 118 ben   5   7  42
 119 prop tor   5   7  42  39
 120 prop tor   5   7  42  43
 121 ben   6   5   7
 122 prop tor   6   5   7   8
 123 prop tor   6   5   7  42
 124 ben   7   8   9
 125 prop tor   7   8   9  10
 126 prop tor   7   8   9  54
 127 ben   7   8  53
 128 ben   7  42  39
 129 ben   7  42  43
 130 prop tor   7  42  43  10
 131 prop tor   7  42  43  36
 132 ben   8   7  42
 133 prop tor   8   7  42  39
 134 prop tor   8   7  42  43
 135 ben   8   9  10
 136 prop tor   8   9  10  11
 137 prop tor   8   9  10  43
 138 ben   8   9  54
 139 ben   9   8  53
 140 ben   9  10  11
 141 prop tor   9  10  11  12
 142 prop tor   9  10  11  44
 143 ben   9  10  43
 144 prop tor   9  10  43  36
 145 prop tor   9  10  43  42
 146 ben  10   9  54
 147 ben  10  11  12
 148 prop tor  10  11  12  13
 149 prop tor  10  11  12  55
 150 ben  10  11  44
 151 prop tor  10  11  44  35
 152 prop tor  10  11  44  45
 153 ben  10  43  36
 154 ben  10  43  42
 155 ben  11  10  43
 156 prop tor  11  10  43  36
 157 prop tor  11  10  43  42
 158 ben  11  12  13
 159 prop tor  11  12  13  14
 160 prop tor  11  12  13  56
 161 ben  11  12  55
 162 ben  11  44  35
 163 ben  11  44  45
 164 prop tor  11  44  45  14
 165 prop tor  11  44  45  32
 166 ben  12  11  44
 167 prop tor  12  11  44  35
 168 prop tor  12  11  44  45
 169 ben  12  13  14
 170 prop tor  12  13  14  15
 171 prop tor  12  13  14  45
 172 ben  12  13  56
 173 ben  13  12  55
 174 ben  13  14  15
 175 prop tor  13  14  15  16
 176 prop tor  13  14  15  17
 177 ben  13  14  45
 178 prop tor  13  14  45  32
 179 prop tor  13  14  45  44
 180 ben  14  13  56
 181 ben  14  15  16
 182 ben  14  15  17
 183 prop tor  14  15  17  18
 184 prop tor  14  15  17  30
 185 ben  14  45  32
 186 ben  14  45  44
 187 ben  15  14  45
 188 prop tor  15  14  45  32
 189 prop tor  15  14  45  44
 190 ben  15  17  18
 191 prop tor  15  17  18  19
 192 prop tor  15  17  18  29
 193 ben  15  17  30
 194 prop tor  15  17  30  31
 195 prop tor  15  17  30  32
 196 ben  16  15  17
 197 prop tor  16  15  17  18
 198 prop tor  16  15  17  30
 199 ben  17  18  19
 200 prop tor  17  18  19  20
 201 prop tor  17  18  19  57
 202 ben  17  18  29
 203 prop tor  17  18  29  28
 204 prop tor  17  18  29  65
 205 ben  17  30  31
 206 ben  17  30  32
 207 prop tor  17  30  32  33
 208 prop tor  17  30  32  45
 209 ben  18  17  30
 210 prop tor  18  17  30  31
 211 prop tor  18  17  30  32
 212 ben  18  19  20
 213 prop tor  18  19  20  21
 214 prop tor  18  19  20  58
 215 ben  18  19  57
 216 ben  18  29  28
 217 ben  18  29  65
 218 ben  19  18  29
 219 prop tor  19  18  29  28
 220 prop tor  19  18  29  65
 221 ben  19  20  21
 222 prop tor  19  20  21  22
 223 prop tor  19  20  21  28
 224 ben  19  20  58
 225 ben  20  19  57
 226 ben  20  21  22
 227 prop tor  20  21  22  23
 228 prop tor  20  21  22  27
 229 ben  20  21  28
 230 prop tor  20  21  28  29
 231 prop tor  20  21  28  64
 232 ben  21  20  58
 233 ben  21  22  23
 234 prop tor  21  22  23  24
 235 prop tor  21  22  23  59
 236 ben  21  22  27
 237 prop tor  21  22  27  26
 238 prop tor  21  22  27  63
 239 ben  21  28  29
 240 prop tor  21  28  29  18
 241 prop tor  21  28  29  65
 242 ben  21  28  64
 243 ben  22  21  28
 244 prop tor  22  21  28  29
 245 prop tor  22  21  28  64
 246 ben  22  23  24
 247 prop tor  22  23  24  25
 248 prop tor  22  23  24  60
 249 ben  22  23  59
 250 ben  22  27  26
 251 ben  22  27  63
 252 ben  23  22  27
 253 prop tor  23  22  27  26
 254 prop tor  23  22  27  63
 255 ben  23  24  25
 256 prop tor  23  24  25  26
 257 prop tor  23  24  25  61
 258 ben  23  24  60
 259 ben  24  23  59
 260 ben  24  25  26
 261 prop tor  24  25  26  27
 262 prop tor  24  25  26  62
 263 ben  24  25  61
 264 ben  25  24  60
 265 ben  25  26  27
 266 prop tor  25  26  27  22
 267 prop tor  25  26  27  63
 268 ben  25  26  62
 269 ben  26  25  61
 270 ben  26  27  63
 271 prop tor  27  22  23  24
 272 prop tor  27  22  23  59
 273 ben  27  26  62
 274 prop tor  28  21  22  23
 275 prop tor  28  21  22  27
 276 ben  28  29  65
 277 prop tor  29  18  19  20
 278 prop tor  29  18  19  57
 279 ben  29  28  64
 280 prop tor  30  17  18  19
 281 prop tor  30  17  18  29
 282 ben  30  32  33
 283 prop tor  30  32  33  34
 284 prop tor  30  32  33  66
 285 ben  30  32  45
 286 prop tor  30  32  45  14
 287 prop tor  30  32  45  44
 288 ben  31  30  32
 289 prop tor  31  30  32  33
 290 prop tor  31  30  32  45
 291 ben  32  33  34
 292 prop tor  32  33  34  35
 293 prop tor  32  33  34  67
 294 ben  32  33  66
 295 ben  32  45  44
 296 ben  33  32  45
 297 prop tor  33  32  45  14
 298 prop tor  33  32  45  44
 299 ben  33  34  35
 300 prop tor  33  34  35  36
 301 prop tor  33  34  35  44
 302 ben  33  34  67
 303 ben  34  33  66
 304 ben  34  35  36
 305 prop tor  34  35  36  37
 306 prop tor  34  35  36  43
 307 ben  34  35  44
 308 prop tor  34  35  44  11
 309 prop tor  34  35  44  45
 310 ben  35  34  67
 311 ben  35  36  37
 312 prop tor  35  36  37  38
 313 prop tor  35  36  37  68
 314 ben  35  36  43
 315 prop tor  35  36  43  10
 316 prop tor  35  36  43  42
 317 ben  35  44  45
 318 prop tor  35  44  45  14
 319 prop tor  35  44  45  32
 320 ben  36  35  44
 321 prop tor  36  35  44  11
 322 prop tor  36  35  44  45
 323 ben  36  37  38
 324 prop tor  36  37  38  39
 325 prop tor  36  37  38  69
 326 ben  36  37  68
 327 ben  36  43  42
 328 ben  37  36  43
 329 prop tor  37  36  43  10
 330 prop tor  37  36  43  42
 331 ben  37  38  39
 332 prop tor  37  38  39  40
 333 prop tor  37  38  39  42
 334 ben  37  38  69
 335 ben  38  37  68
 336 ben  38  39  40
 337 prop tor  38  39  40   4
 338 prop tor  38  39  40  41
 339 ben  38  39  42
 340 prop tor  38  39  42   7
 341 prop tor  38  39  42  43
 342 ben  39  38  69
 343 ben  39  40  41
 344 ben  39  42  43
 345 prop tor  39  42  43  10
 346 prop tor  39  42  43  36
 347 prop tor  40   4   5   6
 348 prop tor  40   4   5   7
 349 ben  40  39  42
 350 prop tor  40  39  42   7
 351 prop tor  40  39  42  43
 352 prop tor  42   7   8   9
 353 prop tor  42   7   8  53
 354 prop tor  42  39  40   4
 355 prop tor  42  39  40  41
 356 prop tor  43  10  11  12
 357 prop tor  43  10  11  44
 358 prop tor  43  36  37  38
 359 prop tor  43  36  37  68
 360 prop tor  44  11  12  13
 361 prop tor  44  11  12  55
 362 prop tor  44  35  36  37
 363 prop tor  44  35  36  43
 364 prop tor  45  14  15  16
 365 prop tor  45  14  15  17
 366 prop tor  45  32  33  34
 367 prop tor  45  32  33  66
 368 prop tor  46   1   2   3
 369 prop tor  46   1   2   4
 370 prop tor  46   1   2  49
 371 ben  46   1  47
 372 ben  46   1  48
 373 prop tor  47   1   2   3
 374 prop tor  47   1   2   4
 375 prop tor  47   1   2  49
 376 ben  47   1  48
 377 prop tor  48   1   2   3
 378 prop tor  48   1   2   4
 379 prop tor  48   1   2  49
 380 prop tor  49   2   3  50
 381 prop tor  49   2   3  51
 382 prop tor  49   2   3  52
 383 prop tor  49   2   4   5
 384 prop tor  49   2   4  40
 385 ben  50   3  51
 386 ben  50   3  52
 387 ben  51   3  52
 388 prop tor  53   8   9  10
 389 prop tor  53   8   9  54
 390 prop tor  54   9  10  11
 391 prop tor  54   9  10  43
 392 prop tor  55  12  13  14
 393 prop tor  55  12  13  56
 394 prop tor  56  13  14  15
 395 prop tor  56  13  14  45
 396 prop tor  57  19  20  21
 397 prop tor  57  19  20  58
 398 prop tor  58  20  21  22
 399 prop tor  58  20  21  28
 400 prop tor  59  23  24  25
 401 prop tor  59  23  24  60
 402 prop tor  60  24  25  26
 403 prop tor  60  24  25  61
 404 prop tor  61  25  26  27
 405 prop tor  61  25  26  62
 406 prop tor  62  26  27  22
 407 prop tor  62  26  27  63
 408 prop tor  64  28  29  18
 409 prop tor  64  28  29  65
 410 prop tor  66  33  34  35
 411 prop tor  66  33  34  67
 412 prop tor  67  34  35  36
 413 prop tor  67  34  35  44
 414 prop tor  68  37  38  39
 415 prop tor  68  37  38  69
 416 prop tor  69  38  39  40
 417 prop tor  69  38  39  42
 nber bend=             132
 nber lin bend=           0
 nber prop tor=         208
 nber impr tor=           0
 nber tot redund int=         417
 Eigenvalues of G in red int coords
    Gval -0.00000000 -0.00000000 -0.00000000 -0.00000000 -0.00000000 -0.00000000 -0.00000000 -0.00000000
    Gval -0.00000000 -0.00000000 -0.00000000 -0.00000000 -0.00000000 -0.00000000 -0.00000000 -0.00000000
    Gval -0.00000000 -0.00000000 -0.00000000 -0.00000000 -0.00000000 -0.00000000 -0.00000000 -0.00000000
    Gval -0.00000000 -0.00000000 -0.00000000 -0.00000000 -0.00000000 -0.00000000 -0.00000000 -0.00000000
    Gval -0.00000000 -0.00000000 -0.00000000 -0.00000000 -0.00000000 -0.00000000 -0.00000000 -0.00000000
    Gval -0.00000000 -0.00000000 -0.00000000 -0.00000000 -0.00000000 -0.00000000 -0.00000000 -0.00000000
    Gval -0.00000000 -0.00000000 -0.00000000 -0.00000000 -0.00000000 -0.00000000 -0.00000000 -0.00000000
    Gval -0.00000000 -0.00000000 -0.00000000 -0.00000000 -0.00000000 -0.00000000 -0.00000000 -0.00000000
    Gval -0.00000000 -0.00000000 -0.00000000 -0.00000000 -0.00000000 -0.00000000 -0.00000000 -0.00000000
    Gval -0.00000000 -0.00000000 -0.00000000 -0.00000000 -0.00000000 -0.00000000 -0.00000000 -0.00000000
    Gval -0.00000000 -0.00000000 -0.00000000 -0.00000000 -0.00000000 -0.00000000 -0.00000000 -0.00000000
    Gval -0.00000000 -0.00000000 -0.00000000 -0.00000000 -0.00000000 -0.00000000 -0.00000000 -0.00000000
    Gval -0.00000000 -0.00000000 -0.00000000 -0.00000000 -0.00000000 -0.00000000 -0.00000000 -0.00000000
    Gval -0.00000000 -0.00000000  0.00000000  0.00000000  0.00000000  0.00000000  0.00000000  0.00000000
    Gval  0.00000000  0.00000000  0.00000000  0.00000000  0.00000000  0.00000000  0.00000000  0.00000000
    Gval  0.00000000  0.00000000  0.00000000  0.00000000  0.00000000  0.00000000  0.00000000  0.00000000
    Gval  0.00000000  0.00000000  0.00000000  0.00000000  0.00000000  0.00000000  0.00000000  0.00000000
    Gval  0.00000000  0.00000000  0.00000000  0.00000000  0.00000000  0.00000000  0.00000000  0.00000000
    Gval  0.00000000  0.00000000  0.00000000  0.00000000  0.00000000  0.00000000  0.00000000  0.00000000
    Gval  0.00000000  0.00000000  0.00000000  0.00000000  0.00000000  0.00000000  0.00000000  0.00000000
    Gval  0.00000000  0.00000000  0.00000000  0.00000000  0.00000000  0.00000000  0.00000000  0.00000000
    Gval  0.00000000  0.00000000  0.00000000  0.00000000  0.00000000  0.00000000  0.00000000  0.00000000
    Gval  0.00000000  0.00000000  0.00000000  0.00000000  0.00000000  0.00000000  0.00000000  0.00000000
    Gval  0.00000000  0.00000000  0.00000000  0.00000000  0.00000000  0.00000000  0.00000000  0.00000000
    Gval  0.00000000  0.00000000  0.00000000  0.00000000  0.00000000  0.00000000  0.00000000  0.00000000
    Gval  0.00000000  0.00000000  0.00000000  0.00000000  0.00000000  0.00000000  0.00000000  0.00000000
    Gval  0.00000000  0.00000000  0.00000000  0.00000000  0.00000000  0.00000000  0.00000000  0.00000000
    Gval  0.00000025  0.00000034  0.00000124  0.00000164  0.00000257  0.00000390  0.00000508  0.00000631
    Gval  0.00000655  0.00000865  0.00000990  0.00001115  0.00001162  0.00001490  0.00001512  0.00001604
    Gval  0.00001648  0.00001787  0.00001806  0.00001842  0.00002175  0.00002297  0.00002405  0.00002520
    Gval  0.00002573  0.00002891  0.00003001  0.00003518  0.00003638  0.00003994  0.00004384  0.00004905
    Gval  0.00004920  0.00004961  0.00005223  0.00005279  0.00005370  0.00005483  0.00005679  0.00005879
    Gval  0.00006259  0.00006554  0.00006591  0.00006777  0.00006922  0.00007258  0.00007459  0.00008138
    Gval  0.00008248  0.00008488  0.00008829  0.00008863  0.00009001  0.00009333  0.00009456  0.00010055
    Gval  0.00010531  0.00011723  0.00011863  0.00012167  0.00012238  0.00012280  0.00013525  0.00013682
    Gval  0.00013701  0.00014009  0.00014380  0.00015259  0.00015919  0.00016051  0.00017297  0.00017641
    Gval  0.00018051  0.00020313  0.00022254  0.00022518  0.00023011  0.00023278  0.00024721  0.00026443
    Gval  0.00027193  0.00028351  0.00029000  0.00029346  0.00029584  0.00030172  0.00034234  0.00035896
    Gval  0.00035908  0.00036506  0.00037986  0.00038322  0.00038604  0.00039251  0.00039468  0.00039610
    Gval  0.00042114  0.00042853  0.00042987  0.00043570  0.00044152  0.00044310  0.00046216  0.00046316
    Gval  0.00046604  0.00048101  0.00048693  0.00049661  0.00051665  0.00053385  0.00053717  0.00054373
    Gval  0.00055413  0.00055595  0.00055603  0.00056966  0.00057221  0.00059306  0.00059354  0.00059856
    Gval  0.00059866  0.00059944  0.00059970  0.00060002  0.00060044  0.00060220  0.00060446  0.00062380
    Gval  0.00062940  0.00063755  0.00064195  0.00064560  0.00064615  0.00064810  0.00065050  0.00066097
    Gval  0.00067098  0.00069425  0.00069787  0.00074922  0.00079561  0.00082299  0.00094141  0.00099524
    Gval  0.00099888  0.00104124  0.00107581  0.00109539  0.00109636  0.00109708  0.00109761  0.00110809
    Gval  0.00111021  0.00113749  0.00114384  0.00115294  0.00116247  0.00116258  0.00116297  0.00116318
    Gval  0.00116995  0.00117163  0.00117207  0.00117221  0.00117233  0.00120292  0.00126189  0.00129518
    Gval  0.00137433  0.00143099  0.00149538  0.00156024  0.00164195  0.00172336  0.00177812  0.00187129
    Gval  0.00191256  0.00229272  0.00233696  0.00235226  0.00235561  0.00246588  0.00253514  0.00253643
    Gval  0.00256407  0.00278642  0.00292300  0.00302361  0.00304218  0.00308155  0.00309676  0.00311830
    Gval  0.00364377  0.00365555  0.00365748  0.00370415  0.00370585  0.00373084  0.00375676  0.00394303
    Gval  0.00406758
  2.526553653120951E-007  2.526553653120951E-007
  3.368109255915561E-007  2.526553653120951E-007
  1.235447061459093E-006  2.526553653120951E-007
  1.640459331971696E-006  2.526553653120951E-007
  2.566981525938460E-006  2.526553653120951E-007
  3.904196718508882E-006  2.526553653120951E-007
  5.080888327182551E-006  2.526553653120951E-007
  6.310195697693899E-006  2.526553653120951E-007
  6.548867120583633E-006  2.526553653120951E-007
  8.646214923646027E-006  2.526553653120951E-007
  9.903893409259360E-006  2.526553653120951E-007
  1.115077404567135E-005  2.526553653120951E-007
  1.162498191196408E-005  2.526553653120951E-007
  1.490399646310733E-005  2.526553653120951E-007
  1.511901865800405E-005  2.526553653120951E-007
  1.603759251579201E-005  2.526553653120951E-007
  1.648412726822547E-005  2.526553653120951E-007
  1.787283221594005E-005  2.526553653120951E-007
  1.805894260529142E-005  2.526553653120951E-007
  1.842114963378814E-005  2.526553653120951E-007
  2.174800942026192E-005  2.526553653120951E-007
  2.297392618719409E-005  2.526553653120951E-007
  2.405220876919422E-005  2.526553653120951E-007
  2.519971230469550E-005  2.526553653120951E-007
  2.573261871851167E-005  2.526553653120951E-007
  2.891143188117479E-005  2.526553653120951E-007
  3.000760260030843E-005  2.526553653120951E-007
  3.518114614655609E-005  2.526553653120951E-007
  3.638238591037618E-005  2.526553653120951E-007
  3.993585385452414E-005  2.526553653120951E-007
  4.384429060946992E-005  2.526553653120951E-007
  4.905193310259970E-005  2.526553653120951E-007
  4.920491819508983E-005  2.526553653120951E-007
  4.961484009607251E-005  2.526553653120951E-007
  5.222923215829209E-005  2.526553653120951E-007
  5.278837510027772E-005  2.526553653120951E-007
  5.369943704154250E-005  2.526553653120951E-007
  5.482536876092690E-005  2.526553653120951E-007
  5.679134171538358E-005  2.526553653120951E-007
  5.878748433095253E-005  2.526553653120951E-007
  6.259112655868904E-005  2.526553653120951E-007
  6.554126980351692E-005  2.526553653120951E-007
  6.590737308933658E-005  2.526553653120951E-007
  6.777204665407617E-005  2.526553653120951E-007
  6.921718125970877E-005  2.526553653120951E-007
  7.258139729344894E-005  2.526553653120951E-007
  7.458503825468801E-005  2.526553653120951E-007
  8.137751770561524E-005  2.526553653120951E-007
  8.247564459715027E-005  2.526553653120951E-007
  8.487527296250792E-005  2.526553653120951E-007
  8.829255320881132E-005  2.526553653120951E-007
  8.862552959713240E-005  2.526553653120951E-007
  9.001459730837711E-005  2.526553653120951E-007
  9.332837706309930E-005  2.526553653120951E-007
  9.456143719176253E-005  2.526553653120951E-007
  1.005471184232030E-004  2.526553653120951E-007
  1.053097229444736E-004  2.526553653120951E-007
  1.172301967060137E-004  2.526553653120951E-007
  1.186280640280457E-004  2.526553653120951E-007
  1.216662643890824E-004  2.526553653120951E-007
  1.223828979746677E-004  2.526553653120951E-007
  1.228001861589193E-004  2.526553653120951E-007
  1.352480629544958E-004  2.526553653120951E-007
  1.368190388282964E-004  2.526553653120951E-007
  1.370126373027909E-004  2.526553653120951E-007
  1.400922522893624E-004  2.526553653120951E-007
  1.437991604082133E-004  2.526553653120951E-007
  1.525879853744475E-004  2.526553653120951E-007
  1.591856816931245E-004  2.526553653120951E-007
  1.605079237353256E-004  2.526553653120951E-007
  1.729652049801133E-004  2.526553653120951E-007
  1.764118165709373E-004  2.526553653120951E-007
  1.805122725849568E-004  2.526553653120951E-007
  2.031277913529122E-004  2.526553653120951E-007
  2.225368514440419E-004  2.526553653120951E-007
  2.251848577060123E-004  2.526553653120951E-007
  2.301076581450847E-004  2.526553653120951E-007
  2.327775738242992E-004  2.526553653120951E-007
  2.472060449370525E-004  2.526553653120951E-007
  2.644315565569371E-004  2.526553653120951E-007
  2.719260935734842E-004  2.526553653120951E-007
  2.835076491097804E-004  2.526553653120951E-007
  2.900007340820530E-004  2.526553653120951E-007
  2.934554279075261E-004  2.526553653120951E-007
  2.958437671877689E-004  2.526553653120951E-007
  3.017202925489859E-004  2.526553653120951E-007
  3.423368710533928E-004  2.526553653120951E-007
  3.589639030453266E-004  2.526553653120951E-007
  3.590785279375681E-004  2.526553653120951E-007
  3.650633092356873E-004  2.526553653120951E-007
  3.798623011879215E-004  2.526553653120951E-007
  3.832181145756030E-004  2.526553653120951E-007
  3.860421778150916E-004  2.526553653120951E-007
  3.925052661191557E-004  2.526553653120951E-007
  3.946797600981429E-004  2.526553653120951E-007
  3.960985732762761E-004  2.526553653120951E-007
  4.211352222730636E-004  2.526553653120951E-007
  4.285292802502744E-004  2.526553653120951E-007
  4.298706085561729E-004  2.526553653120951E-007
  4.357025018318575E-004  2.526553653120951E-007
  4.415197181088563E-004  2.526553653120951E-007
  4.431031931000917E-004  2.526553653120951E-007
  4.621598038561567E-004  2.526553653120951E-007
  4.631621911862527E-004  2.526553653120951E-007
  4.660402671314261E-004  2.526553653120951E-007
  4.810080287691020E-004  2.526553653120951E-007
  4.869328043799459E-004  2.526553653120951E-007
  4.966138355744753E-004  2.526553653120951E-007
  5.166526805307221E-004  2.526553653120951E-007
  5.338519936343567E-004  2.526553653120951E-007
  5.371719298639596E-004  2.526553653120951E-007
  5.437254719519201E-004  2.526553653120951E-007
  5.541255924553151E-004  2.526553653120951E-007
  5.559492737301770E-004  2.526553653120951E-007
  5.560280489464595E-004  2.526553653120951E-007
  5.696569276611692E-004  2.526553653120951E-007
  5.722068817936476E-004  2.526553653120951E-007
  5.930617011328843E-004  2.526553653120951E-007
  5.935446458209626E-004  2.526553653120951E-007
  5.985594876799769E-004  2.526553653120951E-007
  5.986635989673005E-004  2.526553653120951E-007
  5.994401765971461E-004  2.526553653120951E-007
  5.997004189628749E-004  2.526553653120951E-007
  6.000190678140296E-004  2.526553653120951E-007
  6.004434792351317E-004  2.526553653120951E-007
  6.021965287387364E-004  2.526553653120951E-007
  6.044591952797407E-004  2.526553653120951E-007
  6.237953779096670E-004  2.526553653120951E-007
  6.294045569363576E-004  2.526553653120951E-007
  6.375457869612894E-004  2.526553653120951E-007
  6.419454866751958E-004  2.526553653120951E-007
  6.455998588949921E-004  2.526553653120951E-007
  6.461530664298539E-004  2.526553653120951E-007
  6.481003174606327E-004  2.526553653120951E-007
  6.505042430130876E-004  2.526553653120951E-007
  6.609675381775970E-004  2.526553653120951E-007
  6.709830839890381E-004  2.526553653120951E-007
  6.942478529132109E-004  2.526553653120951E-007
  6.978683884325220E-004  2.526553653120951E-007
  7.492182228633705E-004  2.526553653120951E-007
  7.956115223751246E-004  2.526553653120951E-007
  8.229874399418387E-004  2.526553653120951E-007
  9.414092956790641E-004  2.526553653120951E-007
  9.952390152346746E-004  2.526553653120951E-007
  9.988812831693988E-004  2.526553653120951E-007
  1.041239429632930E-003  2.526553653120951E-007
  1.075811129921796E-003  2.526553653120951E-007
  1.095385902492092E-003  2.526553653120951E-007
  1.096357353288588E-003  2.526553653120951E-007
  1.097083212422027E-003  2.526553653120951E-007
  1.097609360583070E-003  2.526553653120951E-007
  1.108090433387599E-003  2.526553653120951E-007
  1.110207446774476E-003  2.526553653120951E-007
  1.137487326666178E-003  2.526553653120951E-007
  1.143842013577455E-003  2.526553653120951E-007
  1.152937427273832E-003  2.526553653120951E-007
  1.162474964874044E-003  2.526553653120951E-007
  1.162576355539678E-003  2.526553653120951E-007
  1.162968836179933E-003  2.526553653120951E-007
  1.163183716709522E-003  2.526553653120951E-007
  1.169950437639896E-003  2.526553653120951E-007
  1.171625745768922E-003  2.526553653120951E-007
  1.172072423317880E-003  2.526553653120951E-007
  1.172208169963272E-003  2.526553653120951E-007
  1.172329681089260E-003  2.526553653120951E-007
  1.202916361812978E-003  2.526553653120951E-007
  1.261893659159160E-003  2.526553653120951E-007
  1.295184996202604E-003  2.526553653120951E-007
  1.374325741218354E-003  2.526553653120951E-007
  1.430989117681391E-003  2.526553653120951E-007
  1.495383665793950E-003  2.526553653120951E-007
  1.560243867048329E-003  2.526553653120951E-007
  1.641946801734781E-003  2.526553653120951E-007
  1.723363907400171E-003  2.526553653120951E-007
  1.778120998205345E-003  2.526553653120951E-007
  1.871286461459062E-003  2.526553653120951E-007
  1.912555850002025E-003  2.526553653120951E-007
  2.292716638224048E-003  2.526553653120951E-007
  2.336958285521118E-003  2.526553653120951E-007
  2.352256146076410E-003  2.526553653120951E-007
  2.355611069861337E-003  2.526553653120951E-007
  2.465880373217445E-003  2.526553653120951E-007
  2.535143328947563E-003  2.526553653120951E-007
  2.536434431028252E-003  2.526553653120951E-007
  2.564069116648409E-003  2.526553653120951E-007
  2.786422938744801E-003  2.526553653120951E-007
  2.923003814615137E-003  2.526553653120951E-007
  3.023614467174069E-003  2.526553653120951E-007
  3.042182196777813E-003  2.526553653120951E-007
  3.081554864551738E-003  2.526553653120951E-007
  3.096756899311429E-003  2.526553653120951E-007
  3.118299428877239E-003  2.526553653120951E-007
  3.643772306339820E-003  2.526553653120951E-007
  3.655551402329562E-003  2.526553653120951E-007
  3.657482095864348E-003  2.526553653120951E-007
  3.704153620737269E-003  2.526553653120951E-007
  3.705854610796690E-003  2.526553653120951E-007
  3.730839916844959E-003  2.526553653120951E-007
  3.756762381029586E-003  2.526553653120951E-007
  3.943034734824977E-003  2.526553653120951E-007
  4.067578239893020E-003  2.526553653120951E-007
 cut=1d-8, nber non-redundant internal coords=         201
 Check on Eigenvals of non-red overlap matrix:
  0.00000025  0.00000034  0.00000124  0.00000164  0.00000257  0.00000390  0.00000508  0.00000631
  0.00000655  0.00000865  0.00000990  0.00001115  0.00001162  0.00001490  0.00001512  0.00001604
  0.00001648  0.00001787  0.00001806  0.00001842  0.00002175  0.00002297  0.00002405  0.00002520
  0.00002573  0.00002891  0.00003001  0.00003518  0.00003638  0.00003994  0.00004384  0.00004905
  0.00004920  0.00004961  0.00005223  0.00005279  0.00005370  0.00005483  0.00005679  0.00005879
  0.00006259  0.00006554  0.00006591  0.00006777  0.00006922  0.00007258  0.00007459  0.00008138
  0.00008248  0.00008488  0.00008829  0.00008863  0.00009001  0.00009333  0.00009456  0.00010055
  0.00010531  0.00011723  0.00011863  0.00012167  0.00012238  0.00012280  0.00013525  0.00013682
  0.00013701  0.00014009  0.00014380  0.00015259  0.00015919  0.00016051  0.00017297  0.00017641
  0.00018051  0.00020313  0.00022254  0.00022518  0.00023011  0.00023278  0.00024721  0.00026443
  0.00027193  0.00028351  0.00029000  0.00029346  0.00029584  0.00030172  0.00034234  0.00035896
  0.00035908  0.00036506  0.00037986  0.00038322  0.00038604  0.00039251  0.00039468  0.00039610
  0.00042114  0.00042853  0.00042987  0.00043570  0.00044152  0.00044310  0.00046216  0.00046316
  0.00046604  0.00048101  0.00048693  0.00049661  0.00051665  0.00053385  0.00053717  0.00054373
  0.00055413  0.00055595  0.00055603  0.00056966  0.00057221  0.00059306  0.00059354  0.00059856
  0.00059866  0.00059944  0.00059970  0.00060002  0.00060044  0.00060220  0.00060446  0.00062380
  0.00062940  0.00063755  0.00064195  0.00064560  0.00064615  0.00064810  0.00065050  0.00066097
  0.00067098  0.00069425  0.00069787  0.00074922  0.00079561  0.00082299  0.00094141  0.00099524
  0.00099888  0.00104124  0.00107581  0.00109539  0.00109636  0.00109708  0.00109761  0.00110809
  0.00111021  0.00113749  0.00114384  0.00115294  0.00116247  0.00116258  0.00116297  0.00116318
  0.00116995  0.00117163  0.00117207  0.00117221  0.00117233  0.00120292  0.00126189  0.00129518
  0.00137433  0.00143099  0.00149538  0.00156024  0.00164195  0.00172336  0.00177812  0.00187129
  0.00191256  0.00229272  0.00233696  0.00235226  0.00235561  0.00246588  0.00253514  0.00253643
  0.00256407  0.00278642  0.00292300  0.00302361  0.00304218  0.00308155  0.00309676  0.00311830
  0.00364377  0.00365555  0.00365748  0.00370415  0.00370585  0.00373084  0.00375676  0.00394303
  0.00406758
 Checking for correct frequencies
 recalc frequencies=
    -0.0   -0.0   -0.0    0.0    0.0    0.0   10.5   11.5   18.9   23.0
    31.6   53.0   59.3   65.6   74.9   77.1   85.2   88.1  104.8  120.2
   126.3  140.5  164.0  182.6  188.9  195.4  217.4  221.5  234.4  235.6
   238.7  271.9  283.3  293.9  314.9  326.2  347.8  359.5  365.4  391.5
   395.3  415.7  418.2  424.2  431.3  436.1  438.3  446.3  448.1  451.7
   469.2  480.1  480.9  482.4  509.6  520.5  525.5  535.1  549.4  569.7
   578.2  585.4  596.8  623.2  631.7  633.5  641.9  651.9  662.2  666.7
   711.9  714.6  714.8  720.0  742.4  745.6  750.3  750.9  763.2  772.3
   779.0  785.7  800.1  804.1  813.9  823.5  840.0  841.7  854.1  857.0
   861.7  864.9  865.4  870.1  872.2  912.7  927.9  934.3  945.6  957.0
   969.2  975.3  979.7  982.6  987.1  992.5  996.7 1001.3 1002.8 1005.7
  1015.4 1026.3 1040.4 1062.3 1063.4 1081.7 1100.9 1103.9 1132.8 1150.5
  1155.9 1160.4 1166.4 1171.9 1182.7 1194.0 1200.7 1201.5 1207.5 1210.5
  1220.7 1221.6 1240.7 1251.3 1259.3 1269.1 1296.2 1302.4 1310.1 1316.2
  1323.3 1326.7 1334.9 1336.7 1356.3 1356.9 1368.7 1374.8 1382.3 1385.4
  1400.7 1406.9 1417.1 1429.0 1433.7 1436.7 1454.8 1477.0 1480.3 1485.4
  1491.3 1498.2 1505.4 1506.2 1521.8 1522.7 1542.7 1548.3 1560.6 1604.1
  1607.3 1614.9 1619.9 1625.0 1631.5 1631.6 1644.5 1649.1 1651.4 1713.1
  1734.4 1751.1 1768.3 3034.7 3038.8 3092.6 3095.8 3113.2 3133.2 3143.6
  3159.7 3166.0 3174.3 3176.5 3177.8 3182.2 3190.1 3192.5 3193.7 3193.9
  3194.8 3201.0 3201.3 3208.2 3208.5 3218.1 3218.3
 recalc symmetries=
                                                                       
                                                                       
                                                                       
                                                                       
                                                                       
                                                                       
                                                                       
                                                                       
                                                                       
                                                                       
                                                                       
                                                                       
                                                                       
                                                                       
                                                                       
                                                                       
                                                                       
                                                                       
                                                                       
                                                                       
                                                  
 recalc freqs check OK
 Zero-point lengths:
 10.0000 10.0000 10.0000 10.0000 10.0000 10.0000 76.5622 73.1483 56.9672 51.7208
 44.1043 34.0451 32.1997 30.6018 28.6472 28.2386 26.8642 26.4175 24.2195 22.6092
 22.0576 20.9129 19.3601 18.3465 18.0356 17.7347 16.8136 16.6573 16.1925 16.1496
 16.0469 15.0347 14.7280 14.4602 13.9706 13.7273 13.2924 13.0749 12.9684 12.5295
 12.4690 12.1588 12.1222 12.0367 11.9366 11.8713 11.8411 11.7344 11.7112 11.6643
 11.4453 11.3139 11.3053 11.2876 10.9815 10.8664 10.8148 10.7169 10.5771 10.3864
 10.3098 10.2466 10.1479  9.9306  9.8638  9.8497  9.7851  9.7093  9.6336  9.6015
  9.2915  9.2741  9.2726  9.2393  9.0987  9.0792  9.0506  9.0470  8.9740  8.9208
  8.8823  8.8444  8.7642  8.7425  8.6898  8.6388  8.5538  8.5453  8.4829  8.4687
  8.4454  8.4299  8.4274  8.4043  8.3946  8.2062  8.1386  8.1105  8.0619  8.0137
  7.9634  7.9384  7.9206  7.9086  7.8906  7.8692  7.8526  7.8346  7.8288  7.8172
  7.7799  7.7387  7.6860  7.6062  7.6023  7.5378  7.4718  7.4615  7.3657  7.3088
  7.2919  7.2777  7.2588  7.2419  7.2086  7.1745  7.1543  7.1522  7.1343  7.1253
  7.0957  7.0929  7.0381  7.0083  6.9859  6.9589  6.8859  6.8695  6.8492  6.8333
  6.8150  6.8063  6.7853  6.7807  6.7315  6.7301  6.7009  6.6862  6.6681  6.6604
  6.6241  6.6095  6.5856  6.5582  6.5474  6.5405  6.4996  6.4507  6.4434  6.4324
  6.4196  6.4049  6.3895  6.3878  6.3550  6.3531  6.3118  6.3005  6.2755  6.1899
  6.1837  6.1691  6.1596  6.1499  6.1376  6.1375  6.1134  6.1048  6.1005  5.9897
  5.9528  5.9244  5.8954  4.5002  4.4972  4.4580  4.4556  4.4432  4.4290  4.4216
  4.4103  4.4059  4.4002  4.3987  4.3978  4.3947  4.3893  4.3876  4.3868  4.3867
  4.3861  4.3818  4.3816  4.3769  4.3767  4.3702  4.3700
 highest evec of mol 1
 -0.0001 -0.0000 -0.0000
 -0.0001 -0.0003 -0.0001
  0.0000 -0.0000 -0.0001
  0.0001 -0.0000  0.0004
 -0.0003 -0.0013 -0.0006
  0.0000  0.0007 -0.0001
 -0.0008  0.0030 -0.0027
 -0.0157 -0.0834 -0.0305
  0.0308 -0.1380  0.1094
  0.0012  0.0037  0.0027
 -0.0012  0.0023 -0.0038
 -0.0263 -0.1687 -0.0458
  0.0158 -0.0561  0.0535
  0.0006  0.0035  0.0011
  0.0003 -0.0008  0.0010
 -0.0000  0.0006 -0.0002
 -0.0001 -0.0002 -0.0003
  0.0000 -0.0000  0.0001
 -0.0001 -0.0000 -0.0001
 -0.0001  0.0000  0.0001
  0.0000  0.0000  0.0000
  0.0000  0.0000  0.0000
 -0.0000  0.0000 -0.0000
 -0.0000  0.0001  0.0000
  0.0000  0.0000  0.0001
  0.0001 -0.0001  0.0000
  0.0000 -0.0000 -0.0000
  0.0002 -0.0000  0.0000
  0.0000 -0.0000 -0.0001
  0.0001  0.0005  0.0001
 -0.0000 -0.0003 -0.0000
  0.0002 -0.0007  0.0006
  0.0038  0.0199  0.0074
 -0.0079  0.0355 -0.0281
 -0.0003 -0.0011 -0.0007
  0.0003 -0.0007  0.0010
  0.0066  0.0429  0.0116
 -0.0045  0.0162 -0.0152
 -0.0002 -0.0010 -0.0003
 -0.0001  0.0004 -0.0003
  0.0000 -0.0003  0.0001
  0.0000  0.0004 -0.0001
 -0.0001  0.0011 -0.0005
  0.0001  0.0011  0.0000
  0.0000  0.0004 -0.0001
  0.0002  0.0001  0.0003
 -0.0000  0.0000 -0.0000
  0.0000  0.0000 -0.0001
  0.0001  0.0009  0.0000
  0.0000  0.0000 -0.0000
  0.0001  0.0001  0.0004
 -0.0001  0.0000 -0.0000
  0.0467  0.2702  0.0868
 -0.1035  0.4637 -0.3678
  0.0887  0.5670  0.1553
 -0.0468  0.1860 -0.1618
  0.0003 -0.0000  0.0001
  0.0004 -0.0002 -0.0005
  0.0001 -0.0000  0.0000
  0.0001 -0.0002 -0.0002
 -0.0001 -0.0001 -0.0003
 -0.0002  0.0002 -0.0001
 -0.0000  0.0001  0.0001
 -0.0007  0.0000 -0.0001
 -0.0001  0.0000  0.0001
 -0.0111 -0.0643 -0.0206
  0.0267 -0.1195  0.0950
 -0.0224 -0.1446 -0.0393
  0.0135 -0.0536  0.0466
 generating redundant internal coords
         300        3600          69
 Adding extra bonds for z output only
           6           6           6           7           6           8
           6           6           6           6           6           6
           6           6           6           8           7           6
           6           6           6           6           6           6
           6           6           6           6           6           6
           8           6           6           6           6           6
           6           6           6           6           8           6
           6           6           6           1           1           1
           1           1           1           1           1           1
           1           1           1           1           1           1
           1           1           1           1           1           1
           1           1           1
 search for int coords
   1 str   2   1   1.532
   2 str   3   2   1.532
   3 str   4   2   1.498
   4 str   5   4   1.408
   5 str   6   5   1.218
   6 str   7   5   1.484
   7 str   8   7   1.382
   8 str   9   8   1.397
   9 str  10   9   1.394
  10 str  11  10   1.470
  11 str  12  11   1.394
  12 str  13  12   1.396
  13 str  14  13   1.381
  14 str  15  14   1.484
  15 str  16  15   1.213
  16 str  17  15   1.410
  17 str  18  17   1.448
  18 str  19  18   1.390
  19 str  20  19   1.390
  20 str  21  20   1.402
  21 str  22  21   1.485
  22 str  23  22   1.402
  23 str  24  23   1.392
  24 str  25  24   1.393
  25 str  26  25   1.393
  26 str  27  22   1.402
  27 str  27  26   1.392
  28 str  28  21   1.402
  29 str  29  18   1.390
  30 str  29  28   1.390
  31 str  30  17   1.410
  32 str  31  30   1.213
  33 str  32  30   1.484
  34 str  33  32   1.381
  35 str  34  33   1.396
  36 str  35  34   1.394
  37 str  36  35   1.469
  38 str  37  36   1.394
  39 str  38  37   1.397
  40 str  39  38   1.382
  41 str  40   4   1.401
  42 str  40  39   1.485
  43 str  41  40   1.219
  44 str  42   7   1.412
  45 str  42  39   1.412
  46 str  43  10   1.428
  47 str  43  36   1.428
  48 str  43  42   1.427
  49 str  44  11   1.429
  50 str  44  35   1.429
  51 str  45  14   1.414
  52 str  45  32   1.414
  53 str  45  44   1.428
  54 str  46   1   1.093
  55 str  47   1   1.089
  56 str  48   1   1.093
  57 str  49   2   1.088
  58 str  50   3   1.089
  59 str  51   3   1.093
  60 str  52   3   1.093
  61 str  53   8   1.083
  62 str  54   9   1.081
  63 str  55  12   1.081
  64 str  56  13   1.083
  65 str  57  19   1.083
  66 str  58  20   1.084
  67 str  59  23   1.084
  68 str  60  24   1.084
  69 str  61  25   1.084
  70 str  62  26   1.084
  71 str  63  27   1.084
  72 str  64  28   1.084
  73 str  65  29   1.083
  74 str  66  33   1.083
  75 str  67  34   1.081
  76 str  68  37   1.081
  77 str  69  38   1.083
 nber stretches=          77
  78 ben   1   2   3
  79 prop tor   1   2   3  50
  80 prop tor   1   2   3  51
  81 prop tor   1   2   3  52
  82 ben   1   2   4
  83 prop tor   1   2   4   5
  84 prop tor   1   2   4  40
  85 ben   1   2  49
  86 ben   2   1  46
  87 ben   2   1  47
  88 ben   2   1  48
  89 ben   2   3  50
  90 ben   2   3  51
  91 ben   2   3  52
  92 ben   2   4   5
  93 prop tor   2   4   5   6
  94 prop tor   2   4   5   7
  95 ben   2   4  40
  96 prop tor   2   4  40  39
  97 prop tor   2   4  40  41
  98 ben   3   2   4
  99 prop tor   3   2   4   5
 100 prop tor   3   2   4  40
 101 ben   3   2  49
 102 prop tor   4   2   3  50
 103 prop tor   4   2   3  51
 104 prop tor   4   2   3  52
 105 ben   4   2  49
 106 ben   4   5   6
 107 ben   4   5   7
 108 prop tor   4   5   7   8
 109 prop tor   4   5   7  42
 110 ben   4  40  39
 111 ben   4  40  41
 112 ben   5   4  40
 113 prop tor   5   4  40  39
 114 prop tor   5   4  40  41
 115 ben   5   7   8
 116 prop tor   5   7   8   9
 117 prop tor   5   7   8  53
 118 ben   5   7  42
 119 prop tor   5   7  42  39
 120 prop tor   5   7  42  43
 121 ben   6   5   7
 122 prop tor   6   5   7   8
 123 prop tor   6   5   7  42
 124 ben   7   8   9
 125 prop tor   7   8   9  10
 126 prop tor   7   8   9  54
 127 ben   7   8  53
 128 ben   7  42  39
 129 ben   7  42  43
 130 prop tor   7  42  43  10
 131 prop tor   7  42  43  36
 132 ben   8   7  42
 133 prop tor   8   7  42  39
 134 prop tor   8   7  42  43
 135 ben   8   9  10
 136 prop tor   8   9  10  11
 137 prop tor   8   9  10  43
 138 ben   8   9  54
 139 ben   9   8  53
 140 ben   9  10  11
 141 prop tor   9  10  11  12
 142 prop tor   9  10  11  44
 143 ben   9  10  43
 144 prop tor   9  10  43  36
 145 prop tor   9  10  43  42
 146 ben  10   9  54
 147 ben  10  11  12
 148 prop tor  10  11  12  13
 149 prop tor  10  11  12  55
 150 ben  10  11  44
 151 prop tor  10  11  44  35
 152 prop tor  10  11  44  45
 153 ben  10  43  36
 154 ben  10  43  42
 155 ben  11  10  43
 156 prop tor  11  10  43  36
 157 prop tor  11  10  43  42
 158 ben  11  12  13
 159 prop tor  11  12  13  14
 160 prop tor  11  12  13  56
 161 ben  11  12  55
 162 ben  11  44  35
 163 ben  11  44  45
 164 prop tor  11  44  45  14
 165 prop tor  11  44  45  32
 166 ben  12  11  44
 167 prop tor  12  11  44  35
 168 prop tor  12  11  44  45
 169 ben  12  13  14
 170 prop tor  12  13  14  15
 171 prop tor  12  13  14  45
 172 ben  12  13  56
 173 ben  13  12  55
 174 ben  13  14  15
 175 prop tor  13  14  15  16
 176 prop tor  13  14  15  17
 177 ben  13  14  45
 178 prop tor  13  14  45  32
 179 prop tor  13  14  45  44
 180 ben  14  13  56
 181 ben  14  15  16
 182 ben  14  15  17
 183 prop tor  14  15  17  18
 184 prop tor  14  15  17  30
 185 ben  14  45  32
 186 ben  14  45  44
 187 ben  15  14  45
 188 prop tor  15  14  45  32
 189 prop tor  15  14  45  44
 190 ben  15  17  18
 191 prop tor  15  17  18  19
 192 prop tor  15  17  18  29
 193 ben  15  17  30
 194 prop tor  15  17  30  31
 195 prop tor  15  17  30  32
 196 ben  16  15  17
 197 prop tor  16  15  17  18
 198 prop tor  16  15  17  30
 199 ben  17  18  19
 200 prop tor  17  18  19  20
 201 prop tor  17  18  19  57
 202 ben  17  18  29
 203 prop tor  17  18  29  28
 204 prop tor  17  18  29  65
 205 ben  17  30  31
 206 ben  17  30  32
 207 prop tor  17  30  32  33
 208 prop tor  17  30  32  45
 209 ben  18  17  30
 210 prop tor  18  17  30  31
 211 prop tor  18  17  30  32
 212 ben  18  19  20
 213 prop tor  18  19  20  21
 214 prop tor  18  19  20  58
 215 ben  18  19  57
 216 ben  18  29  28
 217 ben  18  29  65
 218 ben  19  18  29
 219 prop tor  19  18  29  28
 220 prop tor  19  18  29  65
 221 ben  19  20  21
 222 prop tor  19  20  21  22
 223 prop tor  19  20  21  28
 224 ben  19  20  58
 225 ben  20  19  57
 226 ben  20  21  22
 227 prop tor  20  21  22  23
 228 prop tor  20  21  22  27
 229 ben  20  21  28
 230 prop tor  20  21  28  29
 231 prop tor  20  21  28  64
 232 ben  21  20  58
 233 ben  21  22  23
 234 prop tor  21  22  23  24
 235 prop tor  21  22  23  59
 236 ben  21  22  27
 237 prop tor  21  22  27  26
 238 prop tor  21  22  27  63
 239 ben  21  28  29
 240 prop tor  21  28  29  18
 241 prop tor  21  28  29  65
 242 ben  21  28  64
 243 ben  22  21  28
 244 prop tor  22  21  28  29
 245 prop tor  22  21  28  64
 246 ben  22  23  24
 247 prop tor  22  23  24  25
 248 prop tor  22  23  24  60
 249 ben  22  23  59
 250 ben  22  27  26
 251 ben  22  27  63
 252 ben  23  22  27
 253 prop tor  23  22  27  26
 254 prop tor  23  22  27  63
 255 ben  23  24  25
 256 prop tor  23  24  25  26
 257 prop tor  23  24  25  61
 258 ben  23  24  60
 259 ben  24  23  59
 260 ben  24  25  26
 261 prop tor  24  25  26  27
 262 prop tor  24  25  26  62
 263 ben  24  25  61
 264 ben  25  24  60
 265 ben  25  26  27
 266 prop tor  25  26  27  22
 267 prop tor  25  26  27  63
 268 ben  25  26  62
 269 ben  26  25  61
 270 ben  26  27  63
 271 prop tor  27  22  23  24
 272 prop tor  27  22  23  59
 273 ben  27  26  62
 274 prop tor  28  21  22  23
 275 prop tor  28  21  22  27
 276 ben  28  29  65
 277 prop tor  29  18  19  20
 278 prop tor  29  18  19  57
 279 ben  29  28  64
 280 prop tor  30  17  18  19
 281 prop tor  30  17  18  29
 282 ben  30  32  33
 283 prop tor  30  32  33  34
 284 prop tor  30  32  33  66
 285 ben  30  32  45
 286 prop tor  30  32  45  14
 287 prop tor  30  32  45  44
 288 ben  31  30  32
 289 prop tor  31  30  32  33
 290 prop tor  31  30  32  45
 291 ben  32  33  34
 292 prop tor  32  33  34  35
 293 prop tor  32  33  34  67
 294 ben  32  33  66
 295 ben  32  45  44
 296 ben  33  32  45
 297 prop tor  33  32  45  14
 298 prop tor  33  32  45  44
 299 ben  33  34  35
 300 prop tor  33  34  35  36
 301 prop tor  33  34  35  44
 302 ben  33  34  67
 303 ben  34  33  66
 304 ben  34  35  36
 305 prop tor  34  35  36  37
 306 prop tor  34  35  36  43
 307 ben  34  35  44
 308 prop tor  34  35  44  11
 309 prop tor  34  35  44  45
 310 ben  35  34  67
 311 ben  35  36  37
 312 prop tor  35  36  37  38
 313 prop tor  35  36  37  68
 314 ben  35  36  43
 315 prop tor  35  36  43  10
 316 prop tor  35  36  43  42
 317 ben  35  44  45
 318 prop tor  35  44  45  14
 319 prop tor  35  44  45  32
 320 ben  36  35  44
 321 prop tor  36  35  44  11
 322 prop tor  36  35  44  45
 323 ben  36  37  38
 324 prop tor  36  37  38  39
 325 prop tor  36  37  38  69
 326 ben  36  37  68
 327 ben  36  43  42
 328 ben  37  36  43
 329 prop tor  37  36  43  10
 330 prop tor  37  36  43  42
 331 ben  37  38  39
 332 prop tor  37  38  39  40
 333 prop tor  37  38  39  42
 334 ben  37  38  69
 335 ben  38  37  68
 336 ben  38  39  40
 337 prop tor  38  39  40   4
 338 prop tor  38  39  40  41
 339 ben  38  39  42
 340 prop tor  38  39  42   7
 341 prop tor  38  39  42  43
 342 ben  39  38  69
 343 ben  39  40  41
 344 ben  39  42  43
 345 prop tor  39  42  43  10
 346 prop tor  39  42  43  36
 347 prop tor  40   4   5   6
 348 prop tor  40   4   5   7
 349 ben  40  39  42
 350 prop tor  40  39  42   7
 351 prop tor  40  39  42  43
 352 prop tor  42   7   8   9
 353 prop tor  42   7   8  53
 354 prop tor  42  39  40   4
 355 prop tor  42  39  40  41
 356 prop tor  43  10  11  12
 357 prop tor  43  10  11  44
 358 prop tor  43  36  37  38
 359 prop tor  43  36  37  68
 360 prop tor  44  11  12  13
 361 prop tor  44  11  12  55
 362 prop tor  44  35  36  37
 363 prop tor  44  35  36  43
 364 prop tor  45  14  15  16
 365 prop tor  45  14  15  17
 366 prop tor  45  32  33  34
 367 prop tor  45  32  33  66
 368 prop tor  46   1   2   3
 369 prop tor  46   1   2   4
 370 prop tor  46   1   2  49
 371 ben  46   1  47
 372 ben  46   1  48
 373 prop tor  47   1   2   3
 374 prop tor  47   1   2   4
 375 prop tor  47   1   2  49
 376 ben  47   1  48
 377 prop tor  48   1   2   3
 378 prop tor  48   1   2   4
 379 prop tor  48   1   2  49
 380 prop tor  49   2   3  50
 381 prop tor  49   2   3  51
 382 prop tor  49   2   3  52
 383 prop tor  49   2   4   5
 384 prop tor  49   2   4  40
 385 ben  50   3  51
 386 ben  50   3  52
 387 ben  51   3  52
 388 prop tor  53   8   9  10
 389 prop tor  53   8   9  54
 390 prop tor  54   9  10  11
 391 prop tor  54   9  10  43
 392 prop tor  55  12  13  14
 393 prop tor  55  12  13  56
 394 prop tor  56  13  14  15
 395 prop tor  56  13  14  45
 396 prop tor  57  19  20  21
 397 prop tor  57  19  20  58
 398 prop tor  58  20  21  22
 399 prop tor  58  20  21  28
 400 prop tor  59  23  24  25
 401 prop tor  59  23  24  60
 402 prop tor  60  24  25  26
 403 prop tor  60  24  25  61
 404 prop tor  61  25  26  27
 405 prop tor  61  25  26  62
 406 prop tor  62  26  27  22
 407 prop tor  62  26  27  63
 408 prop tor  64  28  29  18
 409 prop tor  64  28  29  65
 410 prop tor  66  33  34  35
 411 prop tor  66  33  34  67
 412 prop tor  67  34  35  36
 413 prop tor  67  34  35  44
 414 prop tor  68  37  38  39
 415 prop tor  68  37  38  69
 416 prop tor  69  38  39  40
 417 prop tor  69  38  39  42
 nber bend=             132
 nber lin bend=           0
 nber prop tor=         208
 nber impr tor=           0
 nber tot redund int=         417
 Reading file: 
 ./PDI_7_C0S1.log                                                               
                                          
  Entering Gaussian System, Link 0=g16                                          
  
 Gaussian format, type: g94, g98, g03= F F F
  #P Geom=AllCheck Guess=TCheck SCRF=Check GenChk RB3LYP TD(FC,Read)/6-3    
 energy type= TD      
 Original G94 input coords:
  6  0.839993  0.254012 -0.134456
  6  2.301496 -0.169923  0.049511
  6  3.231774  0.373307 -1.040934
  7  2.804580  0.147180  1.418438
  6  3.169899 -0.948031  2.231344
  8  3.074120 -2.097612  1.820833
  6  3.665475 -0.640768  3.580868
  6  4.040050 -1.686691  4.424886
  6  4.509894 -1.432123  5.699771
  6  4.630522 -0.116518  6.200896
  6  5.120051  0.163025  7.533116
  6  5.508355 -0.871609  8.421508
  6  5.971814 -0.600236  9.684180
  6  6.081350  0.724849 10.144321
  6  6.572817  0.947646 11.480699
  8  6.887802  0.079516 12.278736
  7  6.658273  2.343030 11.899296
  6  7.129649  2.612313 13.184832
  6  6.516280  3.609140 13.992495
  6  6.981908  3.868039 15.254459
  6  8.088287  3.158287 15.804892
  6  8.576009  3.435659 17.139824
  6  8.304109  4.674985 17.778156
  6  8.778436  4.939253 19.048477
  6  9.523970  3.974419 19.734797
  6  9.798575  2.741928 19.132052
  6  9.342378  2.477386 17.855177
  6  8.693413  2.163348 14.983539
  6  8.235327  1.896236 13.720567
  6  6.280646  3.474003 11.057962
  8  6.420829  4.602504 11.501295
  6  5.798176  3.140137  9.741535
  6  5.422486  4.188053  8.881124
  6  4.957330  3.928980  7.616475
  6  4.838317  2.604626  7.124211
  6  4.348484  2.324980  5.791993
  6  3.957024  3.348054  4.899633
  6  3.490589  3.068030  3.628688
  6  3.389537  1.750957  3.180634
  6  2.888996  1.489276  1.822104
  8  2.556854  2.395385  1.066821
  6  3.767831  0.692311  4.034334
  6  4.253322  0.969388  5.354295
  6  5.217039  1.519687  7.975832
  6  5.704259  1.797968  9.301809
  1  0.474034 -0.126583 -1.092606
  1  0.733455  1.337904 -0.123600
  1  0.214669 -0.171616  0.654848
  1  2.343596 -1.256506  0.017402
  1  3.224591  1.462152 -1.066823
  1  2.903447 -0.004589 -2.013673
  1  4.256528  0.029293 -0.877481
  1  3.952541 -2.699988  4.054023
  1  4.788425 -2.273940  6.317728
  1  5.440821 -1.903299  8.108725
  1  6.262435 -1.400827 10.352277
  1  5.660656  4.140302 13.611404
  1  6.452581  4.590023 15.860784
  1  7.750479  5.440252 17.251688
  1  8.575973  5.896879 19.511432
  1  9.888720  4.181746 20.733355
  1 10.366005  1.991728 19.668324
  1  9.542060  1.510983 17.413043
  1  9.572859  1.640882 15.333771
  1  8.728583  1.158805 13.110366
  1  5.509900  5.204687  9.242480
  1  4.679323  4.763359  6.989342
  1  4.017834  4.383450  5.203608
  1  3.194102  3.861580  2.954558
 nber atoms=          69
  Total Energy, E(TD-HF/TD-DFT) =  -1911.54216125                               
  
          32          49 "  -1911.54216125"
After scan for Atom:   Atom  AN      X      Y      Z        X      Y      Z        X      Y      Z   
After scan for Atom:   Atom  AN      X      Y      Z        X      Y      Z        X      Y      Z   
After scan for Atom:   Atom  AN      X      Y      Z        X      Y      Z        X      Y      Z   
After scan for Atom:   Atom  AN      X      Y      Z        X      Y      Z        X      Y      Z   
After scan for Atom:   Atom  AN      X      Y      Z        X      Y      Z        X      Y      Z   
After scan for Atom:   Atom  AN      X      Y      Z        X      Y      Z        X      Y      Z   
After scan for Atom:   Atom  AN      X      Y      Z        X      Y      Z        X      Y      Z   
After scan for Atom:   Atom  AN      X      Y      Z        X      Y      Z        X      Y      Z   
After scan for Atom:   Atom  AN      X      Y      Z        X      Y      Z        X      Y      Z   
After scan for Atom:   Atom  AN      X      Y      Z        X      Y      Z        X      Y      Z   
After scan for Atom:   Atom  AN      X      Y      Z        X      Y      Z        X      Y      Z   
After scan for Atom:   Atom  AN      X      Y      Z        X      Y      Z        X      Y      Z   
After scan for Atom:   Atom  AN      X      Y      Z        X      Y      Z        X      Y      Z   
After scan for Atom:   Atom  AN      X      Y      Z        X      Y      Z        X      Y      Z   
After scan for Atom:   Atom  AN      X      Y      Z        X      Y      Z        X      Y      Z   
After scan for Atom:   Atom  AN      X      Y      Z        X      Y      Z        X      Y      Z   
After scan for Atom:   Atom  AN      X      Y      Z        X      Y      Z        X      Y      Z   
After scan for Atom:   Atom  AN      X      Y      Z        X      Y      Z        X      Y      Z   
After scan for Atom:   Atom  AN      X      Y      Z        X      Y      Z        X      Y      Z   
After scan for Atom:   Atom  AN      X      Y      Z        X      Y      Z        X      Y      Z   
After scan for Atom:   Atom  AN      X      Y      Z        X      Y      Z        X      Y      Z   
After scan for Atom:   Atom  AN      X      Y      Z        X      Y      Z        X      Y      Z   
After scan for Atom:   Atom  AN      X      Y      Z        X      Y      Z        X      Y      Z   
After scan for Atom:   Atom  AN      X      Y      Z        X      Y      Z        X      Y      Z   
After scan for Atom:   Atom  AN      X      Y      Z        X      Y      Z        X      Y      Z   
After scan for Atom:   Atom  AN      X      Y      Z        X      Y      Z        X      Y      Z   
After scan for Atom:   Atom  AN      X      Y      Z        X      Y      Z        X      Y      Z   
After scan for Atom:   Atom  AN      X      Y      Z        X      Y      Z        X      Y      Z   
After scan for Atom:   Atom  AN      X      Y      Z        X      Y      Z        X      Y      Z   
After scan for Atom:   Atom  AN      X      Y      Z        X      Y      Z        X      Y      Z   
After scan for Atom:   Atom  AN      X      Y      Z        X      Y      Z        X      Y      Z   
After scan for Atom:   Atom  AN      X      Y      Z        X      Y      Z        X      Y      Z   
After scan for Atom:   Atom  AN      X      Y      Z        X      Y      Z        X      Y      Z   
After scan for Atom:   Atom  AN      X      Y      Z        X      Y      Z        X      Y      Z   
After scan for Atom:   Atom  AN      X      Y      Z        X      Y      Z        X      Y      Z   
After scan for Atom:   Atom  AN      X      Y      Z        X      Y      Z        X      Y      Z   
After scan for Atom:   Atom  AN      X      Y      Z        X      Y      Z        X      Y      Z   
After scan for Atom:   Atom  AN      X      Y      Z        X      Y      Z        X      Y      Z   
After scan for Atom:   Atom  AN      X      Y      Z        X      Y      Z        X      Y      Z   
After scan for Atom:   Atom  AN      X      Y      Z        X      Y      Z        X      Y      Z   
After scan for Atom:   Atom  AN      X      Y      Z        X      Y      Z        X      Y      Z   
After scan for Atom:   Atom  AN      X      Y      Z        X      Y      Z        X      Y      Z   
After scan for Atom:   Atom  AN      X      Y      Z        X      Y      Z        X      Y      Z   
After scan for Atom:   Atom  AN      X      Y      Z        X      Y      Z        X      Y      Z   
After scan for Atom:   Atom  AN      X      Y      Z        X      Y      Z        X      Y      Z   
After scan for Atom:   Atom  AN      X      Y      Z        X      Y      Z        X      Y      Z   
After scan for Atom:   Atom  AN      X      Y      Z        X      Y      Z        X      Y      Z   
After scan for Atom:   Atom  AN      X      Y      Z        X      Y      Z        X      Y      Z   
After scan for Atom:   Atom  AN      X      Y      Z        X      Y      Z        X      Y      Z   
After scan for Atom:   Atom  AN      X      Y      Z        X      Y      Z        X      Y      Z   
After scan for Atom:   Atom  AN      X      Y      Z        X      Y      Z        X      Y      Z   
After scan for Atom:   Atom  AN      X      Y      Z        X      Y      Z        X      Y      Z   
After scan for Atom:   Atom  AN      X      Y      Z        X      Y      Z        X      Y      Z   
After scan for Atom:   Atom  AN      X      Y      Z        X      Y      Z        X      Y      Z   
After scan for Atom:   Atom  AN      X      Y      Z        X      Y      Z        X      Y      Z   
After scan for Atom:   Atom  AN      X      Y      Z        X      Y      Z        X      Y      Z   
After scan for Atom:   Atom  AN      X      Y      Z        X      Y      Z        X      Y      Z   
After scan for Atom:   Atom  AN      X      Y      Z        X      Y      Z        X      Y      Z   
After scan for Atom:   Atom  AN      X      Y      Z        X      Y      Z        X      Y      Z   
After scan for Atom:   Atom  AN      X      Y      Z        X      Y      Z        X      Y      Z   
After scan for Atom:   Atom  AN      X      Y      Z        X      Y      Z        X      Y      Z   
After scan for Atom:   Atom  AN      X      Y      Z        X      Y      Z        X      Y      Z   
After scan for Atom:   Atom  AN      X      Y      Z        X      Y      Z        X      Y      Z   
After scan for Atom:   Atom  AN      X      Y      Z        X      Y      Z        X      Y      Z   
After scan for Atom:   Atom  AN      X      Y      Z        X      Y      Z        X      Y      Z   
After scan for Atom:   Atom  AN      X      Y      Z        X      Y      Z        X      Y      Z   
After scan for Atom:   Atom  AN      X      Y      Z        X      Y      Z        X      Y      Z   
 g94    frequencies=
     0.0    0.0    0.0    0.0    0.0    0.0    9.5   20.7   21.2   30.1
    42.4   54.7   58.2   73.4   76.4   88.4   99.6  105.3  107.0  130.6
   144.9  168.2  169.6  179.9  195.2  210.4  212.7  230.8  234.8  236.4
   243.5  260.8  279.7  297.1  297.5  330.7  341.1  367.6  377.2  385.7
   390.4  395.3  400.8  417.0  421.9  433.6  435.5  442.7  448.2  453.4
   458.2  472.8  486.3  496.3  501.7  512.0  514.1  516.0  542.6  562.5
   579.1  582.1  591.7  607.7  623.2  624.3  628.5  632.4  660.0  667.0
   678.8  708.8  712.9  727.6  740.0  744.1  747.4  756.4  760.7  768.9
   785.6  796.8  797.6  803.1  808.8  815.8  820.4  821.7  826.8  832.6
   837.2  841.2  841.5  859.5  861.6  902.3  928.8  943.7  955.7  956.3
   971.1  971.5  974.5  980.5  981.3  983.6  984.9  988.0  996.0 1002.8
  1008.8 1010.0 1020.4 1024.7 1046.7 1068.0 1076.8 1094.2 1118.7 1144.6
  1146.6 1155.2 1164.4 1171.0 1174.6 1189.0 1189.5 1200.2 1204.9 1210.0
  1226.8 1234.7 1236.2 1247.0 1263.7 1283.1 1291.3 1294.8 1300.7 1317.4
  1330.3 1339.8 1349.9 1353.3 1359.7 1363.4 1368.4 1371.0 1384.2 1392.7
  1395.3 1397.7 1411.6 1424.9 1437.7 1457.7 1460.9 1470.8 1478.6 1483.2
  1484.0 1490.0 1496.1 1499.1 1501.2 1506.6 1523.6 1525.1 1536.1 1558.4
  1574.9 1575.9 1581.5 1591.3 1612.1 1614.0 1618.7 1632.1 1658.7 1683.6
  1705.8 1719.3 1750.0 3029.4 3034.0 3086.7 3089.8 3109.2 3131.7 3141.4
  3186.2 3192.1 3192.4 3194.4 3198.3 3198.6 3201.6 3205.9 3207.8 3208.0
  3208.3 3217.3 3218.3 3222.8 3223.0 3265.0 3265.6
 g94    symmetries=
                                                 A      A      A      A
       A      A      A      A      A      A      A      A      A      A
       A      A      A      A      A      A      A      A      A      A
       A      A      A      A      A      A      A      A      A      A
       A      A      A      A      A      A      A      A      A      A
       A      A      A      A      A      A      A      A      A      A
       A      A      A      A      A      A      A      A      A      A
       A      A      A      A      A      A      A      A      A      A
       A      A      A      A      A      A      A      A      A      A
       A      A      A      A      A      A      A      A      A      A
       A      A      A      A      A      A      A      A      A      A
       A      A      A      A      A      A      A      A      A      A
       A      A      A      A      A      A      A      A      A      A
       A      A      A      A      A      A      A      A      A      A
       A      A      A      A      A      A      A      A      A      A
       A      A      A      A      A      A      A      A      A      A
       A      A      A      A      A      A      A      A      A      A
       A      A      A      A      A      A      A      A      A      A
       A      A      A      A      A      A      A      A      A      A
       A      A      A      A      A      A      A      A      A      A
       A      A      A      A      A      A      A
 atomic masses:
 12.0000 12.0000 12.0000 14.0031 12.0000 15.9949 12.0000 12.0000 12.0000 12.0000
 12.0000 12.0000 12.0000 12.0000 12.0000 15.9949 14.0031 12.0000 12.0000 12.0000
 12.0000 12.0000 12.0000 12.0000 12.0000 12.0000 12.0000 12.0000 12.0000 12.0000
 15.9949 12.0000 12.0000 12.0000 12.0000 12.0000 12.0000 12.0000 12.0000 12.0000
 15.9949 12.0000 12.0000 12.0000 12.0000  1.0078  1.0078  1.0078  1.0078  1.0078
  1.0078  1.0078  1.0078  1.0078  1.0078  1.0078  1.0078  1.0078  1.0078  1.0078
  1.0078  1.0078  1.0078  1.0078  1.0078  1.0078  1.0078  1.0078  1.0078
 looking for force constants in 
 ./PDI_7_C0S1.fchk                                                              
  
 Cartesian Force Constants                  R   N=       21528                  
  
 n3=         207       21528
 g94-fc frequencies=
    -5.5   -1.7   -0.8   -0.0    0.0    0.0    9.5   20.7   21.2   30.1
    42.4   54.7   58.2   73.4   76.4   88.4   99.6  105.3  107.0  130.6
   144.9  168.2  169.6  179.9  195.2  210.4  212.7  230.8  234.8  236.4
   243.5  260.8  279.7  297.1  297.5  330.7  341.1  367.6  377.2  385.7
   390.4  395.3  400.9  417.0  421.9  433.6  435.5  442.7  448.2  453.4
   458.2  472.8  486.4  496.3  501.8  512.0  514.1  516.0  542.6  562.5
   579.1  582.1  591.7  607.7  623.2  624.3  628.5  632.4  660.0  667.0
   678.8  708.9  713.0  727.6  740.0  744.1  747.4  756.4  760.7  768.9
   785.6  796.9  797.7  803.1  808.8  815.8  820.4  821.8  826.8  832.6
   837.2  841.2  841.5  859.6  861.7  902.3  928.9  943.7  955.7  956.4
   971.1  971.5  974.5  980.5  981.3  983.6  984.9  988.1  996.0 1002.8
  1008.8 1010.0 1020.4 1024.7 1046.7 1068.1 1076.9 1094.2 1118.7 1144.6
  1146.6 1155.2 1164.4 1171.0 1174.6 1189.0 1189.5 1200.3 1204.9 1210.0
  1226.9 1234.7 1236.3 1247.0 1263.7 1283.1 1291.3 1294.9 1300.7 1317.4
  1330.4 1339.8 1349.9 1353.3 1359.7 1363.5 1368.4 1371.0 1384.2 1392.7
  1395.3 1397.8 1411.7 1424.9 1437.7 1457.7 1460.9 1470.8 1478.6 1483.3
  1484.1 1490.0 1496.1 1499.1 1501.3 1506.7 1523.6 1525.2 1536.2 1558.4
  1575.0 1576.0 1581.5 1591.3 1612.1 1614.1 1618.8 1632.1 1658.7 1683.6
  1705.9 1719.4 1750.1 3029.5 3034.1 3086.7 3089.9 3109.3 3131.8 3141.5
  3186.2 3192.2 3192.4 3194.5 3198.4 3198.6 3201.6 3206.0 3207.9 3208.1
  3208.4 3217.4 3218.4 3222.9 3223.0 3265.1 3265.6
 at 99999: n3=         207
 symm operator            1 :  F  nop=           0
 symm operator            2 :  F  nop=           0
 symm operator            3 :  F  nop=           0
 symm operator            4 :  F  nop=           0
 symm operator            5 :  F  nop=           0
 symm operator            6 :  F  nop=           0
 symm operator            7 :  F  nop=           0
 The point group of the molecule is  C1
 Symmetry rotation matrix:
   1.00000   0.00000   0.00000
   0.00000   1.00000   0.00000
   0.00000   0.00000   1.00000

 Projecting out zero-frequency components
 generating redundant internal coords
         300        3600          69
 search for int coords
   1 str   2   1   1.533
   2 str   3   2   1.533
   3 str   4   2   1.493
   4 str   5   4   1.412
   5 str   6   5   1.224
   6 str   7   5   1.470
   7 str   8   7   1.395
   8 str   9   8   1.382
   9 str  10   9   1.413
  10 str  11  10   1.447
  11 str  12  11   1.418
  12 str  13  12   1.372
  13 str  14  13   1.407
  14 str  15  14   1.441
  15 str  16  15   1.221
  16 str  17  15   1.459
  17 str  18  17   1.395
  18 str  19  18   1.422
  19 str  20  19   1.370
  20 str  21  20   1.425
  21 str  22  21   1.448
  22 str  23  22   1.420
  23 str  24  23   1.381
  24 str  25  24   1.399
  25 str  26  25   1.399
  26 str  27  22   1.420
[...]
   -0.   -1.    0.   -0.   -1.   -0.    1.    0.   -0.   -1.    1.   -0.    0.   -1.    0.   -0.    0.   -0.    1.    1.
   -0.   -0.   -0.    1.   -0.   -1.    2.   -2.    1.   -1.    3.    0.   -0.    0.    0.    0.    1.    0.   -0.   -0.
   -0.   -0.    1.   -0.    0.    0.   -0.   -0.    0.    0.    1.    1.    0.   -0.    0.   -2.    0.    0.    0.    1.
   -0.    0.   -0.    0.   -0.    0.   -0.    2.   -3.    0.    0.   -0.    0.    0.    1.    0.   -0.   -1.    4.   -0.
    0.    2.   -0.    0.    4.   -0.    0.    1.   -0.    7.   -0.    1.   -0.   -1.   -0.   -1.   -1.   -0.    0.   -0.
    0.    0.    0.    0.    1.   -0.    0.    1.    0.   -2.    0.   -0.    3.   -0.    1.    1.   -2.   -0.   -3.    0.
    0.   -1.   -1.    0.    0.    0.   -0.   -0.   -0.   -0.   -0.   -0.    0.   -0.   -0.   -0.   -0.   -0.   -0.    0.
   -0.    0.   -0.   -0.    0.    0.    0.
 p2=
   -0.   -0.    0.   -0.   -0.   -0.  -13. -134.   56.    8.  171.   -6.   -2.   19.  -81.  -44.   -9.  -20. -116.   15.
 -141.   -5.  -10.    5.    2.   18.   -3.   29.   -5.   17.   -2.   -2.    4.   -6.   13.   -0.   -0.   -0.    8.    0.
   -5.   -2.  -13.   -2.  -25.   -2.   -9.    2.   -0.    0.    6.   -4.    0.   -5.    0.    1.   -0.    1.   -6.   -0.
   -0.   -1.    0.    0.   -1.    0.    0.    1.    0.    1.   -0.   -1.   -0.    2.    0.   -3.    0.   -2.   -0.    1.
    0.    0.    1.   -1.   -1.    0.    0.   -2.    0.    0.   -4.   -0.   -0.   -5.   -2.    0.   -1.   -0.   -0.    0.
   -0.    0.   -0.    0.    1.   -1.    0.   -0.   -1.    0.    1.   -0.    2.    0.    1.    0.   -0.    0.    0.   -2.
   -0.   -0.    0.   -0.   -0.    0.    0.   -0.    0.   -1.    0.   -2.    0.   -0.    0.    3.   -3.    0.    3.    0.
    1.   -0.   -3.    0.    0.   -1.   -0.   -3.    0.    0.   -0.   -0.   -0.    1.    0.   -0.    0.    0.    0.    1.
   -0.    0.    0.   -0.    1.    0.   -0.   -1.    0.    1.    0.    0.   -0.    0.   -1.   -0.    3.   -3.    3.   -0.
    0.    1.    3.   -0.   -0.    0.   -0.    0.    0.   -0.   -0.    0.    0.    0.    0.    0.    0.    0.    0.   -0.
    0.   -0.    0.    0.   -0.    0.    0.

 Displacement: in terms of nc of 1 THEN of nc of 2

   1     freq=    -0. Q=  0.000 lam=    -0.0     freq=    -0. Q=  0.000 lam=    -0.0
   2     freq=    -0. Q=  0.000 lam=    -0.0     freq=    -0. Q=  0.000 lam=    -0.0
   3     freq=    -0. Q= -0.000 lam=    -0.0     freq=     0. Q= -0.000 lam=     0.0
   4     freq=     0. Q= -0.000 lam=     0.0     freq=     0. Q= -0.000 lam=     0.0
   5     freq=     0. Q= -0.000 lam=     0.0     freq=     0. Q= -0.000 lam=     0.0
   6     freq=     0. Q= -0.000 lam=     0.0     freq=     0. Q= -0.000 lam=     0.0
   7     freq=    10. Q=  3.762 lam=    74.2     freq=     9. Q=  0.157 lam=     0.1
   8     freq=    11. Q= -0.351 lam=     0.7     freq=    21. Q= -2.467 lam=    63.0
   9     freq=    19. Q=  0.141 lam=     0.2     freq=    21. Q=  1.038 lam=    11.4
  10     freq=    23. Q=  0.242 lam=     0.7     freq=    30. Q=  0.186 lam=     0.5
  11     freq=    32. Q= -0.004 lam=     0.0     freq=    42. Q= -4.491 lam=   427.3
  12     freq=    53. Q= -0.084 lam=     0.2     freq=    55. Q= -0.173 lam=     0.8
  13     freq=    59. Q= -0.029 lam=     0.0     freq=    58. Q= -0.067 lam=     0.1
  14     freq=    66. Q=  3.160 lam=   327.6     freq=    73. Q=  0.658 lam=    15.9
  15     freq=    75. Q=  0.229 lam=     2.0     freq=    76. Q=  2.850 lam=   310.2
  16     freq=    77. Q=  0.017 lam=     0.0     freq=    88. Q=  1.664 lam=   122.3
  17     freq=    85. Q=  0.110 lam=     0.5     freq=   100. Q=  0.363 lam=     6.6
  18     freq=    88. Q= -0.057 lam=     0.1     freq=   105. Q= -0.833 lam=    36.5
  19     freq=   105. Q=  0.018 lam=     0.0     freq=   107. Q=  4.859 lam=  1263.7
  20     freq=   120. Q= -0.440 lam=    11.7     freq=   131. Q= -0.699 lam=    31.9
  21     freq=   126. Q= -1.603 lam=   162.2     freq=   145. Q= -6.828 lam=  3378.4
  22     freq=   141. Q= -0.074 lam=     0.4     freq=   168. Q= -0.237 lam=     4.7
  23     freq=   164. Q= -0.004 lam=     0.0     freq=   170. Q= -0.518 lam=    22.8
  24     freq=   183. Q=  0.012 lam=     0.0     freq=   180. Q=  0.249 lam=     5.6
  25     freq=   189. Q= -0.011 lam=     0.0     freq=   195. Q= -0.130 lam=     1.7
  26     freq=   195. Q=  0.059 lam=     0.3     freq=   210. Q=  1.050 lam=   116.0
  27     freq=   217. Q=  0.001 lam=     0.0     freq=   213. Q=  0.198 lam=     4.2
  28     freq=   222. Q=  0.017 lam=     0.0     freq=   231. Q=  1.806 lam=   376.3
  29     freq=   234. Q= -0.009 lam=     0.0     freq=   235. Q= -0.325 lam=    12.4
  30     freq=   236. Q=  0.005 lam=     0.0     freq=   236. Q=  1.038 lam=   127.3
  31     freq=   239. Q= -0.022 lam=     0.1     freq=   244. Q= -0.119 lam=     1.7
  32     freq=   272. Q=  0.073 lam=     0.7     freq=   261. Q=  0.152 lam=     3.0
  33     freq=   283. Q=  0.010 lam=     0.0     freq=   280. Q=  0.301 lam=    12.7
  34     freq=   294. Q=  0.004 lam=     0.0     freq=   297. Q=  0.417 lam=    25.9
  35     freq=   315. Q= -0.088 lam=     1.2     freq=   297. Q= -0.879 lam=   114.9
  36     freq=   326. Q=  0.007 lam=     0.0     freq=   331. Q=  0.033 lam=     0.2
  37     freq=   348. Q=  0.000 lam=     0.0     freq=   341. Q=  0.007 lam=     0.0
  38     freq=   360. Q= -0.010 lam=     0.0     freq=   368. Q= -0.013 lam=     0.0
  39     freq=   365. Q=  0.017 lam=     0.1     freq=   377. Q=  0.623 lam=    73.2
  40     freq=   391. Q= -0.007 lam=     0.0     freq=   386. Q= -0.002 lam=     0.0
  41     freq=   395. Q=  0.028 lam=     0.2     freq=   390. Q=  0.422 lam=    34.7
  42     freq=   416. Q=  0.250 lam=    13.0     freq=   395. Q=  0.183 lam=     6.7
  43     freq=   418. Q= -0.006 lam=     0.0     freq=   401. Q= -1.052 lam=   221.6
  44     freq=   424. Q= -0.144 lam=     4.4     freq=   417. Q= -0.179 lam=     6.6
  45     freq=   431. Q= -0.170 lam=     6.2     freq=   422. Q= -2.054 lam=   889.6
  46     freq=   436. Q= -0.222 lam=    10.7     freq=   434. Q= -0.209 lam=     9.5
  47     freq=   438. Q=  0.050 lam=     0.5     freq=   435. Q=  0.783 lam=   133.3
  48     freq=   446. Q=  0.002 lam=     0.0     freq=   443. Q=  0.175 lam=     6.8
  49     freq=   448. Q= -0.081 lam=     1.5     freq=   448. Q= -0.042 lam=     0.4
  50     freq=   452. Q=  0.003 lam=     0.0     freq=   453. Q=  0.002 lam=     0.0
  51     freq=   469. Q= -0.329 lam=    25.4     freq=   458. Q= -0.493 lam=    55.8
  52     freq=   480. Q= -0.012 lam=     0.0     freq=   473. Q= -0.320 lam=    24.2
  53     freq=   481. Q= -0.238 lam=    13.6     freq=   486. Q= -0.000 lam=     0.0
  54     freq=   482. Q= -0.003 lam=     0.0     freq=   496. Q= -0.428 lam=    45.6
  55     freq=   510. Q=  0.521 lam=    69.1     freq=   502. Q=  0.001 lam=     0.0
  56     freq=   520. Q=  0.285 lam=    21.2     freq=   512. Q=  0.089 lam=     2.0
  57     freq=   525. Q=  0.002 lam=     0.0     freq=   514. Q=  0.003 lam=     0.0
  58     freq=   535. Q=  0.081 lam=     1.8     freq=   516. Q=  0.107 lam=     3.0
  59     freq=   549. Q= -0.764 lam=   160.3     freq=   543. Q= -0.607 lam=    99.9
  60     freq=   570. Q=  0.005 lam=     0.0     freq=   563. Q=  0.007 lam=     0.0
  61     freq=   578. Q= -0.002 lam=     0.0     freq=   579. Q= -0.003 lam=     0.0
  62     freq=   585. Q= -0.070 lam=     1.4     freq=   582. Q= -0.099 lam=     2.8
  63     freq=   597. Q=  0.001 lam=     0.0     freq=   592. Q=  0.001 lam=     0.0
  64     freq=   623. Q= -0.003 lam=     0.0     freq=   608. Q= -0.002 lam=     0.0
  65     freq=   632. Q= -0.071 lam=     1.6     freq=   623. Q= -0.097 lam=     3.0
  66     freq=   633. Q= -0.001 lam=     0.0     freq=   624. Q= -0.002 lam=     0.0
  67     freq=   642. Q=  0.133 lam=     5.7     freq=   628. Q=  0.000 lam=     0.0
  68     freq=   652. Q=  0.000 lam=     0.0     freq=   632. Q=  0.137 lam=     5.9
  69     freq=   662. Q= -0.000 lam=     0.0     freq=   660. Q= -0.001 lam=     0.0
  70     freq=   667. Q= -0.065 lam=     1.4     freq=   667. Q= -0.133 lam=     5.9
  71     freq=   712. Q=  0.075 lam=     2.0     freq=   679. Q=  0.000 lam=     0.0
  72     freq=   715. Q= -0.017 lam=     0.1     freq=   709. Q= -0.143 lam=     7.3
  73     freq=   715. Q=  0.020 lam=     0.1     freq=   713. Q=  0.031 lam=     0.3
  74     freq=   720. Q= -0.063 lam=     1.4     freq=   728. Q= -0.239 lam=    20.8
  75     freq=   742. Q=  0.002 lam=     0.0     freq=   740. Q=  0.000 lam=     0.0
  76     freq=   746. Q= -0.002 lam=     0.0     freq=   744. Q= -0.297 lam=    32.8
  77     freq=   750. Q=  0.004 lam=     0.0     freq=   747. Q=  0.016 lam=     0.1
  78     freq=   751. Q= -0.050 lam=     0.9     freq=   756. Q= -0.217 lam=    17.8
  79     freq=   763. Q=  0.148 lam=     8.4     freq=   761. Q=  0.007 lam=     0.0
  80     freq=   772. Q=  0.148 lam=     8.5     freq=   769. Q=  0.144 lam=     8.0
  81     freq=   779. Q= -0.001 lam=     0.0     freq=   786. Q= -0.000 lam=     0.0
  82     freq=   786. Q= -0.002 lam=     0.0     freq=   797. Q= -0.048 lam=     0.9
  83     freq=   800. Q= -0.001 lam=     0.0     freq=   798. Q= -0.163 lam=    10.6
  84     freq=   804. Q=  0.091 lam=     3.3     freq=   803. Q=  0.117 lam=     5.5
  85     freq=   814. Q= -0.056 lam=     1.3     freq=   809. Q= -0.090 lam=     3.3
  86     freq=   824. Q= -0.119 lam=     5.9     freq=   816. Q= -0.051 lam=     1.1
  87     freq=   840. Q=  0.219 lam=    20.1     freq=   820. Q=  0.017 lam=     0.1
  88     freq=   842. Q= -0.232 lam=    22.6     freq=   822. Q= -0.278 lam=    31.7
  89     freq=   854. Q=  0.117 lam=     5.8     freq=   827. Q=  0.020 lam=     0.2
  90     freq=   857. Q= -0.129 lam=     7.2     freq=   833. Q= -0.018 lam=     0.1
  91     freq=   862. Q=  0.403 lam=    69.8     freq=   837. Q=  0.495 lam=   102.7
  92     freq=   865. Q=  0.002 lam=     0.0     freq=   841. Q=  0.026 lam=     0.3
  93     freq=   865. Q= -0.044 lam=     0.9     freq=   842. Q= -0.003 lam=     0.0
  94     freq=   870. Q=  0.053 lam=     1.2     freq=   860. Q=  0.545 lam=   127.5
  95     freq=   872. Q=  0.000 lam=     0.0     freq=   862. Q=  0.184 lam=    14.5
  96     freq=   913. Q=  0.048 lam=     1.1     freq=   902. Q=  0.054 lam=     1.3
  97     freq=   928. Q=  0.065 lam=     2.0     freq=   929. Q=  0.104 lam=     5.0
  98     freq=   934. Q=  0.008 lam=     0.0     freq=   944. Q=  0.001 lam=     0.0
  99     freq=   946. Q= -0.000 lam=     0.0     freq=   956. Q= -0.000 lam=     0.0
 100     freq=   957. Q= -0.000 lam=     0.0     freq=   956. Q= -0.000 lam=     0.0
 101     freq=   969. Q= -0.008 lam=     0.0     freq=   971. Q= -0.017 lam=     0.1
 102     freq=   975. Q= -0.022 lam=     0.2     freq=   971. Q= -0.019 lam=     0.2
 103     freq=   980. Q=  0.067 lam=     2.2     freq=   974. Q=  0.000 lam=     0.0
 104     freq=   983. Q= -0.006 lam=     0.0     freq=   980. Q= -0.053 lam=     1.4
 105     freq=   987. Q=  0.042 lam=     0.9     freq=   981. Q=  0.188 lam=    17.3
 106     freq=   992. Q=  0.015 lam=     0.1     freq=   984. Q=  0.165 lam=    13.4
 107     freq=   997. Q= -0.002 lam=     0.0     freq=   985. Q= -0.016 lam=     0.1
 108     freq=  1001. Q= -0.015 lam=     0.1     freq=   988. Q= -0.001 lam=     0.0
 109     freq=  1003. Q=  0.000 lam=     0.0     freq=   996. Q=  0.086 lam=     3.7
 110     freq=  1006. Q=  0.001 lam=     0.0     freq=  1003. Q=  0.008 lam=     0.0
 111     freq=  1015. Q=  0.116 lam=     6.9     freq=  1009. Q=  0.150 lam=    11.3
 112     freq=  1026. Q=  0.078 lam=     3.1     freq=  1010. Q=  0.001 lam=     0.0
 113     freq=  1040. Q=  0.011 lam=     0.1     freq=  1020. Q=  0.252 lam=    32.5
 114     freq=  1062. Q= -0.020 lam=     0.2     freq=  1025. Q= -0.000 lam=     0.0
 115     freq=  1063. Q=  0.027 lam=     0.4     freq=  1047. Q=  0.093 lam=     4.5
 116     freq=  1082. Q= -0.251 lam=    34.1     freq=  1068. Q= -0.028 lam=     0.4
 117     freq=  1101. Q=  0.018 lam=     0.2     freq=  1077. Q=  0.047 lam=     1.2
 118     freq=  1104. Q=  0.000 lam=     0.0     freq=  1094. Q=  0.045 lam=     1.1
 119     freq=  1133. Q=  0.001 lam=     0.0     freq=  1119. Q=  0.000 lam=     0.0
 120     freq=  1151. Q=  0.103 lam=     6.1     freq=  1145. Q=  0.306 lam=    53.4
 121     freq=  1156. Q= -0.000 lam=     0.0     freq=  1147. Q= -0.049 lam=     1.4
 122     freq=  1160. Q=  0.003 lam=     0.0     freq=  1155. Q=  0.000 lam=     0.0
 123     freq=  1166. Q= -0.015 lam=     0.1     freq=  1164. Q= -0.020 lam=     0.2
 124     freq=  1172. Q=  0.013 lam=     0.1     freq=  1171. Q=  0.001 lam=     0.0
 125     freq=  1183. Q= -0.000 lam=     0.0     freq=  1175. Q= -0.005 lam=     0.0
 126     freq=  1194. Q=  0.012 lam=     0.1     freq=  1189. Q=  0.019 lam=     0.2
 127     freq=  1201. Q= -0.047 lam=     1.3     freq=  1190. Q= -0.004 lam=     0.0
 128     freq=  1201. Q=  0.264 lam=    42.0     freq=  1200. Q=  0.008 lam=     0.0
 129     freq=  1207. Q= -0.440 lam=   117.1     freq=  1205. Q= -0.000 lam=     0.0
 130     freq=  1211. Q=  0.014 lam=     0.1     freq=  1210. Q=  0.115 lam=     8.1
 131     freq=  1221. Q=  0.025 lam=     0.4     freq=  1227. Q=  0.035 lam=     0.7
 132     freq=  1222. Q= -0.015 lam=     0.1     freq=  1235. Q= -0.251 lam=    38.9
 133     freq=  1241. Q=  0.008 lam=     0.0     freq=  1236. Q=  0.015 lam=     0.1
 134     freq=  1251. Q=  0.005 lam=     0.0     freq=  1247. Q=  0.012 lam=     0.1
 135     freq=  1259. Q=  0.085 lam=     4.6     freq=  1264. Q=  0.006 lam=     0.0
 136     freq=  1269. Q=  0.013 lam=     0.1     freq=  1283. Q=  0.421 lam=   113.8
 137     freq=  1296. Q= -0.001 lam=     0.0     freq=  1291. Q= -0.463 lam=   138.6
 138     freq=  1302. Q= -0.089 lam=     5.1     freq=  1295. Q= -0.013 lam=     0.1
 139     freq=  1310. Q=  0.578 lam=   219.0     freq=  1301. Q=  0.385 lam=    96.4
 140     freq=  1316. Q= -0.007 lam=     0.0     freq=  1317. Q= -0.007 lam=     0.0
 141     freq=  1323. Q=  0.001 lam=     0.0     freq=  1330. Q=  0.203 lam=    27.4
 142     freq=  1327. Q=  0.229 lam=    34.7     freq=  1340. Q=  0.003 lam=     0.0
 143     freq=  1335. Q= -0.001 lam=     0.0     freq=  1350. Q= -0.457 lam=   140.7
 144     freq=  1337. Q=  0.002 lam=     0.0     freq=  1353. Q=  0.006 lam=     0.0
 145     freq=  1356. Q=  0.537 lam=   195.3     freq=  1360. Q=  0.012 lam=     0.1
 146     freq=  1357. Q= -0.005 lam=     0.0     freq=  1363. Q= -0.100 lam=     6.9
 147     freq=  1369. Q=  0.017 lam=     0.2     freq=  1368. Q=  0.002 lam=     0.0
 148     freq=  1375. Q=  0.099 lam=     6.7     freq=  1371. Q=  0.478 lam=   156.7
 149     freq=  1382. Q= -0.010 lam=     0.1     freq=  1384. Q= -0.001 lam=     0.0
 150     freq=  1385. Q=  1.083 lam=   812.2     freq=  1393. Q=  0.062 lam=     2.7
 151     freq=  1401. Q= -0.000 lam=     0.0     freq=  1395. Q= -0.006 lam=     0.0
 152     freq=  1407. Q=  0.088 lam=     5.4     freq=  1398. Q=  0.000 lam=     0.0
 153     freq=  1417. Q= -0.041 lam=     1.2     freq=  1412. Q= -0.061 lam=     2.6
 154     freq=  1429. Q= -0.140 lam=    14.1     freq=  1425. Q= -0.091 lam=     5.8
 155     freq=  1434. Q= -0.000 lam=     0.0     freq=  1438. Q= -0.029 lam=     0.6
 156     freq=  1437. Q= -0.144 lam=    14.9     freq=  1458. Q= -0.001 lam=     0.0
 157     freq=  1455. Q= -0.211 lam=    32.4     freq=  1461. Q= -0.022 lam=     0.4
 158     freq=  1477. Q= -0.053 lam=     2.1     freq=  1471. Q= -0.003 lam=     0.0
 159     freq=  1480. Q=  0.000 lam=     0.0     freq=  1479. Q=  0.002 lam=     0.0
 160     freq=  1485. Q= -0.000 lam=     0.0     freq=  1483. Q= -0.158 lam=    18.5
 161     freq=  1491. Q=  0.001 lam=     0.0     freq=  1484. Q=  0.001 lam=     0.0
 162     freq=  1498. Q=  0.013 lam=     0.1     freq=  1490. Q=  0.001 lam=     0.0
 163     freq=  1505. Q=  0.000 lam=     0.0     freq=  1496. Q=  0.005 lam=     0.0
 164     freq=  1506. Q=  0.000 lam=     0.0     freq=  1499. Q=  0.002 lam=     0.0
 165     freq=  1522. Q=  0.174 lam=    23.1     freq=  1501. Q=  0.081 lam=     4.9
 166     freq=  1523. Q= -0.019 lam=     0.3     freq=  1507. Q= -0.000 lam=     0.0
 167     freq=  1543. Q=  0.002 lam=     0.0     freq=  1524. Q=  0.039 lam=     1.2
 168     freq=  1548. Q=  0.100 lam=     7.7     freq=  1525. Q=  0.166 lam=    21.1
 169     freq=  1561. Q=  0.001 lam=     0.0     freq=  1536. Q=  0.002 lam=     0.0
 170     freq=  1604. Q= -0.377 lam=   113.8     freq=  1558. Q= -0.096 lam=     7.2
 171     freq=  1607. Q=  0.000 lam=     0.0     freq=  1575. Q=  0.005 lam=     0.0
 172     freq=  1615. Q= -0.024 lam=     0.5     freq=  1576. Q= -0.000 lam=     0.0
 173     freq=  1620. Q=  0.546 lam=   241.3     freq=  1581. Q=  0.002 lam=     0.0
 174     freq=  1625. Q= -0.000 lam=     0.0     freq=  1591. Q= -0.001 lam=     0.0
 175     freq=  1631. Q=  0.151 lam=    18.6     freq=  1612. Q=  0.158 lam=    20.2
 176     freq=  1632. Q=  0.111 lam=    10.1     freq=  1614. Q=  0.005 lam=     0.0
 177     freq=  1644. Q= -0.387 lam=   123.2     freq=  1619. Q= -0.472 lam=   180.1
 178     freq=  1649. Q= -0.001 lam=     0.0     freq=  1632. Q= -0.436 lam=   154.8
 179     freq=  1651. Q= -0.566 lam=   264.7     freq=  1659. Q= -0.518 lam=   222.4
 180     freq=  1713. Q=  0.002 lam=     0.0     freq=  1684. Q=  0.003 lam=     0.0
 181     freq=  1734. Q=  0.000 lam=     0.0     freq=  1706. Q=  0.002 lam=     0.0
 182     freq=  1751. Q= -0.115 lam=    11.6     freq=  1719. Q= -0.091 lam=     7.1
 183     freq=  1768. Q= -0.220 lam=    42.9     freq=  1750. Q= -0.546 lam=   261.3
 184     freq=  3035. Q=  0.000 lam=     0.0     freq=  3029. Q=  0.000 lam=     0.0
 185     freq=  3039. Q=  0.008 lam=     0.1     freq=  3034. Q=  0.011 lam=     0.2
 186     freq=  3093. Q=  0.000 lam=     0.0     freq=  3087. Q=  0.000 lam=     0.0
 187     freq=  3096. Q= -0.006 lam=     0.1     freq=  3090. Q= -0.008 lam=     0.1
 188     freq=  3113. Q= -0.004 lam=     0.0     freq=  3109. Q= -0.005 lam=     0.0
 189     freq=  3133. Q= -0.000 lam=     0.0     freq=  3132. Q= -0.000 lam=     0.0
 190     freq=  3144. Q= -0.004 lam=     0.0     freq=  3141. Q= -0.005 lam=     0.0
 191     freq=  3160. Q= -0.002 lam=     0.0     freq=  3186. Q= -0.008 lam=     0.1
 192     freq=  3166. Q= -0.000 lam=     0.0     freq=  3192. Q= -0.001 lam=     0.0
 193     freq=  3174. Q=  0.031 lam=     1.6     freq=  3192. Q=  0.000 lam=     0.0
 194     freq=  3176. Q= -0.000 lam=     0.0     freq=  3194. Q= -0.000 lam=     0.0
 195     freq=  3178. Q= -0.018 lam=     0.5     freq=  3198. Q= -0.000 lam=     0.0
 196     freq=  3182. Q= -0.000 lam=     0.0     freq=  3199. Q= -0.000 lam=     0.0
 197     freq=  3190. Q= -0.017 lam=     0.5     freq=  3202. Q= -0.019 lam=     0.6
 198     freq=  3192. Q= -0.001 lam=     0.0     freq=  3206. Q= -0.000 lam=     0.0
 199     freq=  3194. Q= -0.003 lam=     0.0     freq=  3208. Q= -0.009 lam=     0.1
 200     freq=  3194. Q=  0.001 lam=     0.0     freq=  3208. Q=  0.002 lam=     0.0
 201     freq=  3195. Q= -0.103 lam=    17.1     freq=  3208. Q= -0.003 lam=     0.0
 202     freq=  3201. Q=  0.001 lam=     0.0     freq=  3217. Q=  0.000 lam=     0.0
 203     freq=  3201. Q= -0.001 lam=     0.0     freq=  3218. Q= -0.044 lam=     3.1
 204     freq=  3208. Q= -0.004 lam=     0.0     freq=  3223. Q= -0.001 lam=     0.0
 205     freq=  3208. Q=  0.004 lam=     0.0     freq=  3223. Q=  0.003 lam=     0.0
 206     freq=  3218. Q=  0.005 lam=     0.0     freq=  3265. Q=  0.046 lam=     3.5
 207     freq=  3218. Q=  0.009 lam=     0.1     freq=  3266. Q=  0.000 lam=     0.0

 total reorg energy (cm**-1, kcal/mol)=     3526.    10311.     10.08     29.48
 Nber of molecules processed=           2
