 Enter ifcurve (0=recti, 1=orth curvi, 2=apprx curvi, -1 = skip
 And atom ordering flag, 0= never changes, 1= use the first order thenceforth,
  2= deduce it (does read on fail), 3= always read it
 Reading file: 
 ./PDI_6_C1S0.log                                                               
                                          
  Entering Gaussian System, Link 0=g16                                          
  
 Gaussian format, type: g94, g98, g03= F F F
  #P Geom=AllCheck Guess=TCheck SCRF=Check GenChk UB3LYP/6-311G(d,p) Fre    
 energy type= B3LYP   
 Original G94 input coords:
  6  1.410946 -0.045321 -0.081027
  6  2.855823 -0.013368 -0.057618
  6  4.072207  0.015024 -0.040235
  6  5.418991  0.042663 -0.019923
  6  6.633594  0.068793 -0.001786
  7  7.973446  0.079928  0.020931
  6  8.644340 -1.181748  0.197673
  8  8.008810 -2.196331  0.318231
  6 10.119470 -1.116502  0.216060
  6 10.820134 -2.306615  0.384194
  6 12.206096 -2.307508  0.409688
  6 12.953426 -1.121859  0.268647
  6 14.405480 -1.117560  0.294940
  6 15.161360 -2.293574  0.462642
  6 16.550767 -2.278642  0.486461
  6 17.237733 -1.080176  0.342689
  6 18.734664 -1.096455  0.372779
  8 19.325479 -2.146614  0.520664
  7 19.397076  0.121624  0.226460
  6 20.904865  0.150838  0.252249
  6 21.449176 -0.286809  1.614587
  6 21.499245 -0.620398 -0.929177
  6 18.735417  1.345324  0.054347
  8 19.331038  2.394808 -0.070941
  6 17.240707  1.325471  0.028342
  6 16.554379  2.519950 -0.140788
  6 15.163582  2.529157 -0.167962
  6 14.407649  1.352422 -0.028005
  6 12.950308  1.349352 -0.054414
  6 12.202973  2.524285 -0.221681
  6 10.812796  2.510337 -0.245129
  6 10.123004  1.315010 -0.101412
  6  8.640640  1.348924 -0.132539
  8  8.000528  2.356152 -0.275566
  6 10.826213  0.104683  0.069495
  6 12.253805  0.110746  0.094768
  6 15.098570  0.120169  0.145972
  6 16.523203  0.122240  0.172250
  1  1.034561 -0.960862  0.383845
  1  1.044679 -0.010464 -1.112520
  1  0.996092  0.814488  0.453492
  1 10.261017 -3.227097  0.494103
  1 12.708834 -3.254624  0.542459
  1 14.665847 -3.247130  0.578075
  1 17.118272 -3.191205  0.616197
  1 21.129689  1.206335  0.118251
  1 21.280237 -1.346733  1.800322
  1 20.997460  0.294779  2.422044
  1 22.525561 -0.101256  1.636061
  1 21.331680 -1.693162 -0.842254
  1 22.576680 -0.441710 -0.955692
  1 21.082571 -0.268387 -1.876152
  1 17.121134  3.435671 -0.249909
  1 14.668833  3.480874 -0.301679
  1 12.700906  3.476294 -0.337062
  1 10.251230  3.426678 -0.375067
 nber atoms=          56
  SCF Done:  E(UB3LYP) =  -1640.78177500     A.U. after    3 cycles             
  
          23          40 "  -1640.78177500"
After scan for Atom:   Atom  AN      X      Y      Z        X      Y      Z        X      Y      Z   
After scan for Atom:   Atom  AN      X      Y      Z        X      Y      Z        X      Y      Z   
After scan for Atom:   Atom  AN      X      Y      Z        X      Y      Z        X      Y      Z   
After scan for Atom:   Atom  AN      X      Y      Z        X      Y      Z        X      Y      Z   
After scan for Atom:   Atom  AN      X      Y      Z        X      Y      Z        X      Y      Z   
After scan for Atom:   Atom  AN      X      Y      Z        X      Y      Z        X      Y      Z   
After scan for Atom:   Atom  AN      X      Y      Z        X      Y      Z        X      Y      Z   
After scan for Atom:   Atom  AN      X      Y      Z        X      Y      Z        X      Y      Z   
After scan for Atom:   Atom  AN      X      Y      Z        X      Y      Z        X      Y      Z   
After scan for Atom:   Atom  AN      X      Y      Z        X      Y      Z        X      Y      Z   
After scan for Atom:   Atom  AN      X      Y      Z        X      Y      Z        X      Y      Z   
After scan for Atom:   Atom  AN      X      Y      Z        X      Y      Z        X      Y      Z   
After scan for Atom:   Atom  AN      X      Y      Z        X      Y      Z        X      Y      Z   
After scan for Atom:   Atom  AN      X      Y      Z        X      Y      Z        X      Y      Z   
After scan for Atom:   Atom  AN      X      Y      Z        X      Y      Z        X      Y      Z   
After scan for Atom:   Atom  AN      X      Y      Z        X      Y      Z        X      Y      Z   
After scan for Atom:   Atom  AN      X      Y      Z        X      Y      Z        X      Y      Z   
After scan for Atom:   Atom  AN      X      Y      Z        X      Y      Z        X      Y      Z   
After scan for Atom:   Atom  AN      X      Y      Z        X      Y      Z        X      Y      Z   
After scan for Atom:   Atom  AN      X      Y      Z        X      Y      Z        X      Y      Z   
After scan for Atom:   Atom  AN      X      Y      Z        X      Y      Z        X      Y      Z   
After scan for Atom:   Atom  AN      X      Y      Z        X      Y      Z        X      Y      Z   
After scan for Atom:   Atom  AN      X      Y      Z        X      Y      Z        X      Y      Z   
After scan for Atom:   Atom  AN      X      Y      Z        X      Y      Z        X      Y      Z   
After scan for Atom:   Atom  AN      X      Y      Z        X      Y      Z        X      Y      Z   
After scan for Atom:   Atom  AN      X      Y      Z        X      Y      Z        X      Y      Z   
After scan for Atom:   Atom  AN      X      Y      Z        X      Y      Z        X      Y      Z   
After scan for Atom:   Atom  AN      X      Y      Z        X      Y      Z        X      Y      Z   
After scan for Atom:   Atom  AN      X      Y      Z        X      Y      Z        X      Y      Z   
After scan for Atom:   Atom  AN      X      Y      Z        X      Y      Z        X      Y      Z   
After scan for Atom:   Atom  AN      X      Y      Z        X      Y      Z        X      Y      Z   
After scan for Atom:   Atom  AN      X      Y      Z        X      Y      Z        X      Y      Z   
After scan for Atom:   Atom  AN      X      Y      Z        X      Y      Z        X      Y      Z   
After scan for Atom:   Atom  AN      X      Y      Z        X      Y      Z        X      Y      Z   
After scan for Atom:   Atom  AN      X      Y      Z        X      Y      Z        X      Y      Z   
After scan for Atom:   Atom  AN      X      Y      Z        X      Y      Z        X      Y      Z   
After scan for Atom:   Atom  AN      X      Y      Z        X      Y      Z        X      Y      Z   
After scan for Atom:   Atom  AN      X      Y      Z        X      Y      Z        X      Y      Z   
After scan for Atom:   Atom  AN      X      Y      Z        X      Y      Z        X      Y      Z   
After scan for Atom:   Atom  AN      X      Y      Z        X      Y      Z        X      Y      Z   
After scan for Atom:   Atom  AN      X      Y      Z        X      Y      Z        X      Y      Z   
After scan for Atom:   Atom  AN      X      Y      Z        X      Y      Z        X      Y      Z   
After scan for Atom:   Atom  AN      X      Y      Z        X      Y      Z        X      Y      Z   
After scan for Atom:   Atom  AN      X      Y      Z        X      Y      Z        X      Y      Z   
After scan for Atom:   Atom  AN      X      Y      Z        X      Y      Z        X      Y      Z   
After scan for Atom:   Atom  AN      X      Y      Z        X      Y      Z        X      Y      Z   
After scan for Atom:   Atom  AN      X      Y      Z        X      Y      Z        X      Y      Z   
After scan for Atom:   Atom  AN      X      Y      Z        X      Y      Z        X      Y      Z   
After scan for Atom:   Atom  AN      X      Y      Z        X      Y      Z        X      Y      Z   
After scan for Atom:   Atom  AN      X      Y      Z        X      Y      Z        X      Y      Z   
After scan for Atom:   Atom  AN      X      Y      Z        X      Y      Z        X      Y      Z   
After scan for Atom:   Atom  AN      X      Y      Z        X      Y      Z        X      Y      Z   
After scan for Atom:   Atom  AN      X      Y      Z        X      Y      Z        X      Y      Z   
After scan for Atom:   Atom  AN      X      Y      Z        X      Y      Z        X      Y      Z   
 g94    frequencies=
     0.0    0.0    0.0    0.0    0.0    0.0   -5.6   13.8   24.4   26.6
    31.1   50.8   57.7   72.0   84.3   86.8  102.0  102.6  135.4  159.3
   164.0  170.1  180.1  199.3  199.4  219.3  234.3  237.0  255.6  261.9
   278.1  304.2  308.8  310.7  324.8  336.8  353.9  385.1  391.6  421.4
   428.5  433.7  438.5  441.9  445.2  445.7  456.1  470.0  472.1  482.8
   500.3  511.5  520.9  524.6  547.4  550.2  573.7  580.7  585.6  616.3
   619.1  645.0  663.3  672.9  712.4  714.7  715.8  722.2  729.7  749.9
   766.1  774.4  778.2  801.8  812.5  822.5  843.2  867.3  870.0  872.2
   876.7  900.5  912.6  933.7  947.7  957.9  965.1 1000.7 1007.2 1009.6
  1016.5 1018.8 1028.3 1037.8 1064.5 1091.4 1095.8 1102.7 1123.1 1155.8
  1160.2 1163.8 1177.0 1194.0 1209.0 1213.8 1223.8 1237.3 1255.7 1259.5
  1278.8 1307.4 1323.3 1327.4 1353.8 1366.8 1375.1 1377.2 1384.8 1391.5
  1405.9 1406.6 1411.5 1420.3 1423.6 1440.7 1452.2 1454.1 1457.0 1483.7
  1484.6 1486.1 1492.0 1500.1 1503.0 1520.9 1531.3 1564.0 1581.9 1583.1
  1598.8 1606.3 1610.7 1617.8 1714.0 1759.9 1762.8 1793.8 2223.3 2260.0
  3020.9 3041.4 3044.7 3080.4 3092.6 3101.7 3104.9 3117.8 3134.7 3146.0
  3203.8 3204.6 3208.8 3209.1 3215.9 3216.4 3228.2 3229.9
 g94    symmetries=
                                                 A      A      A      A
       A      A      A      A      A      A      A      A      A      A
       A      A      A      A      A      A      A      A      A      A
       A      A      A      A      A      A      A      A      A      A
       A      A      A      A      A      A      A      A      A      A
       A      A      A      A      A      A      A      A      A      A
       A      A      A      A      A      A      A      A      A      A
       A      A      A      A      A      A      A      A      A      A
       A      A      A      A      A      A      A      A      A      A
       A      A      A      A      A      A      A      A      A      A
       A      A      A      A      A      A      A      A      A      A
       A      A      A      A      A      A      A      A      A      A
       A      A      A      A      A      A      A      A      A      A
       A      A      A      A      A      A      A      A      A      A
       A      A      A      A      A      A      A      A      A      A
       A      A      A      A      A      A      A      A      A      A
       A      A      A      A      A      A      A      A
 atomic masses:
 12.0000 12.0000 12.0000 12.0000 12.0000 14.0031 12.0000 15.9949 12.0000 12.0000
 12.0000 12.0000 12.0000 12.0000 12.0000 12.0000 12.0000 15.9949 14.0031 12.0000
 12.0000 12.0000 12.0000 15.9949 12.0000 12.0000 12.0000 12.0000 12.0000 12.0000
 12.0000 12.0000 12.0000 15.9949 12.0000 12.0000 12.0000 12.0000  1.0078  1.0078
  1.0078  1.0078  1.0078  1.0078  1.0078  1.0078  1.0078  1.0078  1.0078  1.0078
  1.0078  1.0078  1.0078  1.0078  1.0078  1.0078
 looking for force constants in 
 ./PDI_6_C1S0.fchk                                                              
  
 Cartesian Force Constants                  R   N=       14196                  
  
 n3=         168       14196
 g94-fc frequencies=
    -5.7   -1.4   -0.0    0.0    0.0    0.9    3.2   13.8   24.4   26.6
    31.1   50.8   57.7   72.0   84.3   86.8  102.0  102.6  135.4  159.3
   164.0  170.1  180.1  199.3  199.4  219.3  234.4  237.0  255.6  261.9
   278.1  304.2  308.8  310.8  324.8  336.8  353.9  385.1  391.6  421.4
   428.5  433.7  438.5  441.9  445.2  445.7  456.1  470.0  472.2  482.8
   500.3  511.5  520.9  524.6  547.4  550.2  573.7  580.7  585.6  616.3
   619.1  645.0  663.4  673.0  712.4  714.7  715.8  722.3  729.7  749.9
   766.1  774.4  778.2  801.8  812.6  822.5  843.2  867.4  870.0  872.3
   876.7  900.5  912.6  933.7  947.7  958.0  965.1 1000.8 1007.3 1009.7
  1016.6 1018.9 1028.3 1037.8 1064.6 1091.4 1095.8 1102.8 1123.1 1155.9
  1160.2 1163.8 1177.0 1194.0 1209.0 1213.8 1223.8 1237.4 1255.7 1259.5
  1278.8 1307.4 1323.4 1327.4 1353.9 1366.8 1375.2 1377.3 1384.8 1391.5
  1405.9 1406.7 1411.6 1420.3 1423.7 1440.8 1452.2 1454.1 1457.0 1483.7
  1484.7 1486.1 1492.0 1500.1 1503.0 1520.9 1531.4 1564.0 1581.9 1583.2
  1598.8 1606.3 1610.7 1617.8 1714.0 1759.9 1762.9 1793.8 2223.4 2260.1
  3021.0 3041.5 3044.7 3080.5 3092.6 3101.8 3105.0 3117.9 3134.8 3146.0
  3203.9 3204.6 3208.9 3209.2 3216.0 3216.5 3228.3 3230.0
 at 99999: n3=         168
 symm operator            1 :  F  nop=           0
 symm operator            2 :  F  nop=           0
 symm operator            3 :  F  nop=           0
 symm operator            4 :  F  nop=           0
 symm operator            5 :  F  nop=           0
 symm operator            6 :  F  nop=           0
 symm operator            7 :  F  nop=           0
 The point group of the molecule is  C1
 Symmetry rotation matrix:
   1.00000   0.00000   0.00000
   0.00000   1.00000   0.00000
   0.00000   0.00000   1.00000

 Projecting out zero-frequency components
 generating redundant internal coords
         300        3600          56
 search for int coords
   1 str   2   1   1.445
   2 str   3   2   1.217
   3 str   4   3   1.347
   4 str   5   4   1.215
   5 str   6   5   1.340
   6 str   7   6   1.440
   7 str   8   7   1.203
   8 str   9   7   1.477
   9 str  10   9   1.391
  10 str  11  10   1.386
  11 str  12  11   1.409
  12 str  13  12   1.452
  13 str  14  13   1.408
  14 str  15  14   1.390
  15 str  16  15   1.389
  16 str  17  16   1.497
  17 str  18  17   1.214
  18 str  19  17   1.394
  19 str  20  19   1.508
  20 str  21  20   1.531
  21 str  22  20   1.531
  22 str  23  19   1.402
  23 str  24  23   1.213
  24 str  25  23   1.495
  25 str  26  25   1.388
  26 str  27  26   1.391
  27 str  28  27   1.406
  28 str  29  28   1.458
  29 str  30  29   1.402
  30 str  31  30   1.390
  31 str  32  31   1.388
  32 str  33   6   1.442
  33 str  33  32   1.483
  34 str  34  33   1.202
  35 str  35   9   1.419
  36 str  35  32   1.410
  37 str  36  12   1.428
  38 str  36  29   1.429
  39 str  36  35   1.428
  40 str  37  13   1.426
  41 str  37  28   1.423
  42 str  38  16   1.409
  43 str  38  25   1.408
  44 str  38  37   1.425
  45 str  39   1   1.094
  46 str  40   1   1.095
  47 str  41   1   1.094
  48 str  42  10   1.083
  49 str  43  11   1.080
  50 str  44  14   1.081
  51 str  45  15   1.082
  52 str  46  20   1.087
  53 str  47  21   1.089
  54 str  48  21   1.093
  55 str  49  21   1.092
  56 str  50  22   1.089
  57 str  51  22   1.092
  58 str  52  22   1.093
  59 str  53  26   1.082
  60 str  54  27   1.081
  61 str  55  30   1.081
  62 str  56  31   1.083
 nber stretches=          62
  63 lin ben   1   2   3
  65 ben   2   1  39
  66 ben   2   1  40
  67 ben   2   1  41
 Extend lin bond           1           1           2           4
  68 lin ben   2   3   4
  70 lin ben   3   4   5
 Extend lin bond           2           3           4           6
  72 lin ben   4   5   6
  74 ben   5   6   7
  75 prop tor   5   6   7   8
  76 prop tor   5   6   7   9
  77 ben   5   6  33
  78 prop tor   5   6  33  32
  79 prop tor   5   6  33  34
  80 ben   6   7   8
  81 ben   6   7   9
  82 prop tor   6   7   9  10
  83 prop tor   6   7   9  35
  84 ben   6  33  32
  85 ben   6  33  34
  86 ben   7   6  33
  87 prop tor   7   6  33  32
  88 prop tor   7   6  33  34
  89 ben   7   9  10
  90 prop tor   7   9  10  11
  91 prop tor   7   9  10  42
  92 ben   7   9  35
  93 prop tor   7   9  35  32
  94 prop tor   7   9  35  36
  95 ben   8   7   9
  96 prop tor   8   7   9  10
  97 prop tor   8   7   9  35
  98 ben   9  10  11
  99 prop tor   9  10  11  12
 100 prop tor   9  10  11  43
 101 ben   9  10  42
 102 ben   9  35  32
 103 ben   9  35  36
 104 prop tor   9  35  36  12
 105 prop tor   9  35  36  29
 106 ben  10   9  35
 107 prop tor  10   9  35  32
 108 prop tor  10   9  35  36
 109 ben  10  11  12
 110 prop tor  10  11  12  13
 111 prop tor  10  11  12  36
 112 ben  10  11  43
 113 ben  11  10  42
 114 ben  11  12  13
 115 prop tor  11  12  13  14
 116 prop tor  11  12  13  37
 117 ben  11  12  36
 118 prop tor  11  12  36  29
 119 prop tor  11  12  36  35
 120 ben  12  11  43
 121 ben  12  13  14
 122 prop tor  12  13  14  15
 123 prop tor  12  13  14  44
 124 ben  12  13  37
 125 prop tor  12  13  37  28
 126 prop tor  12  13  37  38
 127 ben  12  36  29
 128 ben  12  36  35
 129 ben  13  12  36
 130 prop tor  13  12  36  29
 131 prop tor  13  12  36  35
 132 ben  13  14  15
 133 prop tor  13  14  15  16
 134 prop tor  13  14  15  45
 135 ben  13  14  44
 136 ben  13  37  28
 137 ben  13  37  38
 138 prop tor  13  37  38  16
 139 prop tor  13  37  38  25
 140 ben  14  13  37
 141 prop tor  14  13  37  28
 142 prop tor  14  13  37  38
 143 ben  14  15  16
 144 prop tor  14  15  16  17
 145 prop tor  14  15  16  38
 146 ben  14  15  45
 147 ben  15  14  44
 148 ben  15  16  17
 149 prop tor  15  16  17  18
 150 prop tor  15  16  17  19
 151 ben  15  16  38
 152 prop tor  15  16  38  25
 153 prop tor  15  16  38  37
 154 ben  16  15  45
 155 ben  16  17  18
 156 ben  16  17  19
 157 prop tor  16  17  19  20
 158 prop tor  16  17  19  23
 159 ben  16  38  25
 160 ben  16  38  37
 161 ben  17  16  38
 162 prop tor  17  16  38  25
 163 prop tor  17  16  38  37
 164 ben  17  19  20
 165 prop tor  17  19  20  21
 166 prop tor  17  19  20  22
 167 prop tor  17  19  20  46
 168 ben  17  19  23
 169 prop tor  17  19  23  24
 170 prop tor  17  19  23  25
 171 ben  18  17  19
 172 prop tor  18  17  19  20
 173 prop tor  18  17  19  23
 174 ben  19  20  21
 175 prop tor  19  20  21  47
 176 prop tor  19  20  21  48
 177 prop tor  19  20  21  49
 178 ben  19  20  22
 179 prop tor  19  20  22  50
 180 prop tor  19  20  22  51
 181 prop tor  19  20  22  52
 182 ben  19  20  46
 183 ben  19  23  24
 184 ben  19  23  25
 185 prop tor  19  23  25  26
 186 prop tor  19  23  25  38
 187 ben  20  19  23
 188 prop tor  20  19  23  24
 189 prop tor  20  19  23  25
 190 ben  20  21  47
 191 ben  20  21  48
 192 ben  20  21  49
 193 ben  20  22  50
 194 ben  20  22  51
 195 ben  20  22  52
 196 ben  21  20  22
 197 prop tor  21  20  22  50
 198 prop tor  21  20  22  51
 199 prop tor  21  20  22  52
 200 ben  21  20  46
 201 prop tor  22  20  21  47
 202 prop tor  22  20  21  48
 203 prop tor  22  20  21  49
 204 ben  22  20  46
 205 prop tor  23  19  20  21
 206 prop tor  23  19  20  22
 207 prop tor  23  19  20  46
 208 ben  23  25  26
 209 prop tor  23  25  26  27
 210 prop tor  23  25  26  53
 211 ben  23  25  38
 212 prop tor  23  25  38  16
 213 prop tor  23  25  38  37
 214 ben  24  23  25
 215 prop tor  24  23  25  26
 216 prop tor  24  23  25  38
 217 ben  25  26  27
 218 prop tor  25  26  27  28
 219 prop tor  25  26  27  54
 220 ben  25  26  53
 221 ben  25  38  37
 222 ben  26  25  38
 223 prop tor  26  25  38  16
 224 prop tor  26  25  38  37
 225 ben  26  27  28
 226 prop tor  26  27  28  29
 227 prop tor  26  27  28  37
 228 ben  26  27  54
 229 ben  27  26  53
 230 ben  27  28  29
 231 prop tor  27  28  29  30
 232 prop tor  27  28  29  36
 233 ben  27  28  37
 234 prop tor  27  28  37  13
 235 prop tor  27  28  37  38
 236 ben  28  27  54
 237 ben  28  29  30
 238 prop tor  28  29  30  31
 239 prop tor  28  29  30  55
 240 ben  28  29  36
 241 prop tor  28  29  36  12
 242 prop tor  28  29  36  35
 243 ben  28  37  38
 244 prop tor  28  37  38  16
 245 prop tor  28  37  38  25
 246 ben  29  28  37
 247 prop tor  29  28  37  13
 248 prop tor  29  28  37  38
 249 ben  29  30  31
 250 prop tor  29  30  31  32
 251 prop tor  29  30  31  56
 252 ben  29  30  55
 253 ben  29  36  35
 254 ben  30  29  36
 255 prop tor  30  29  36  12
 256 prop tor  30  29  36  35
 257 ben  30  31  32
 258 prop tor  30  31  32  33
 259 prop tor  30  31  32  35
 260 ben  30  31  56
 261 ben  31  30  55
 262 ben  31  32  33
 263 prop tor  31  32  33   6
 264 prop tor  31  32  33  34
 265 ben  31  32  35
 266 prop tor  31  32  35   9
 267 prop tor  31  32  35  36
 268 ben  32  31  56
 269 ben  32  33  34
 270 ben  32  35  36
 271 prop tor  32  35  36  12
 272 prop tor  32  35  36  29
 273 prop tor  33   6   7   8
 274 prop tor  33   6   7   9
 275 ben  33  32  35
 276 prop tor  33  32  35   9
 277 prop tor  33  32  35  36
 278 prop tor  35   9  10  11
 279 prop tor  35   9  10  42
 280 prop tor  35  32  33   6
 281 prop tor  35  32  33  34
 282 prop tor  36  12  13  14
 283 prop tor  36  12  13  37
 284 prop tor  36  29  30  31
 285 prop tor  36  29  30  55
 286 prop tor  37  13  14  15
 287 prop tor  37  13  14  44
 288 prop tor  37  28  29  30
 289 prop tor  37  28  29  36
 290 prop tor  38  16  17  18
 291 prop tor  38  16  17  19
 292 prop tor  38  25  26  27
 293 prop tor  38  25  26  53
 294 prop tor  39   1   2   3
 295 ben  39   1  40
 296 ben  39   1  41
 297 prop tor  40   1   2   3
 298 ben  40   1  41
 299 prop tor  41   1   2   3
 300 prop tor  42  10  11  12
 301 prop tor  42  10  11  43
 302 prop tor  43  11  12  13
 303 prop tor  43  11  12  36
 304 prop tor  44  14  15  16
 305 prop tor  44  14  15  45
 306 prop tor  45  15  16  17
 307 prop tor  45  15  16  38
 308 prop tor  46  20  21  47
 309 prop tor  46  20  21  48
 310 prop tor  46  20  21  49
 311 prop tor  46  20  22  50
 312 prop tor  46  20  22  51
 313 prop tor  46  20  22  52
 314 ben  47  21  48
 315 ben  47  21  49
 316 ben  48  21  49
 317 ben  50  22  51
 318 ben  50  22  52
 319 ben  51  22  52
 320 prop tor  53  26  27  28
 321 prop tor  53  26  27  54
 322 prop tor  54  27  28  29
 323 prop tor  54  27  28  37
 324 prop tor  55  30  31  32
 325 prop tor  55  30  31  56
 326 prop tor  56  31  32  33
 327 prop tor  56  31  32  35
 328 lin bend prop tor   2   1   4   3
 329 lin bend prop tor   2   1   4   5
 330 lin bend prop tor  39   1   4   3
 331 lin bend prop tor  39   1   4   5
 332 lin bend prop tor  40   1   4   3
 333 lin bend prop tor  40   1   4   5
 334 lin bend prop tor  41   1   4   3
 335 lin bend prop tor  41   1   4   5
 336 lin bend prop tor   2   3   6   5
 337 lin bend prop tor   2   3   6   7
 338 lin bend prop tor   2   3   6  33
 339 lin bend prop tor   4   3   6   5
 340 lin bend prop tor   4   3   6   7
 341 lin bend prop tor   4   3   6  33
 nber bend=             110
 nber lin bend=           2
 nber prop tor=         169
 nber impr tor=           0
 nber tot redund int=         341
 Eigenvalues of G in red int coords
    Gval -0.00000000 -0.00000000 -0.00000000 -0.00000000 -0.00000000 -0.00000000 -0.00000000 -0.00000000
    Gval -0.00000000 -0.00000000 -0.00000000 -0.00000000 -0.00000000 -0.00000000 -0.00000000 -0.00000000
    Gval -0.00000000 -0.00000000 -0.00000000 -0.00000000 -0.00000000 -0.00000000 -0.00000000 -0.00000000
    Gval -0.00000000 -0.00000000 -0.00000000 -0.00000000 -0.00000000 -0.00000000 -0.00000000 -0.00000000
    Gval -0.00000000 -0.00000000 -0.00000000 -0.00000000 -0.00000000 -0.00000000 -0.00000000 -0.00000000
    Gval -0.00000000 -0.00000000 -0.00000000 -0.00000000 -0.00000000 -0.00000000 -0.00000000 -0.00000000
    Gval -0.00000000 -0.00000000 -0.00000000 -0.00000000 -0.00000000 -0.00000000 -0.00000000 -0.00000000
    Gval -0.00000000 -0.00000000 -0.00000000 -0.00000000 -0.00000000 -0.00000000 -0.00000000 -0.00000000
    Gval -0.00000000 -0.00000000 -0.00000000 -0.00000000 -0.00000000 -0.00000000 -0.00000000 -0.00000000
    Gval -0.00000000 -0.00000000 -0.00000000 -0.00000000 -0.00000000 -0.00000000 -0.00000000 -0.00000000
    Gval -0.00000000 -0.00000000 -0.00000000 -0.00000000 -0.00000000 -0.00000000 -0.00000000 -0.00000000
    Gval -0.00000000  0.00000000  0.00000000  0.00000000  0.00000000  0.00000000  0.00000000  0.00000000
    Gval  0.00000000  0.00000000  0.00000000  0.00000000  0.00000000  0.00000000  0.00000000  0.00000000
    Gval  0.00000000  0.00000000  0.00000000  0.00000000  0.00000000  0.00000000  0.00000000  0.00000000
    Gval  0.00000000  0.00000000  0.00000000  0.00000000  0.00000000  0.00000000  0.00000000  0.00000000
    Gval  0.00000000  0.00000000  0.00000000  0.00000000  0.00000000  0.00000000  0.00000000  0.00000000
    Gval  0.00000000  0.00000000  0.00000000  0.00000000  0.00000000  0.00000000  0.00000000  0.00000000
    Gval  0.00000000  0.00000000  0.00000000  0.00000000  0.00000000  0.00000000  0.00000000  0.00000000
    Gval  0.00000000  0.00000000  0.00000000  0.00000000  0.00000000  0.00000000  0.00000000  0.00000000
    Gval  0.00000000  0.00000000  0.00000000  0.00000000  0.00000000  0.00000000  0.00000000  0.00000000
    Gval  0.00000000  0.00000000  0.00000000  0.00000000  0.00000000  0.00000000  0.00000000  0.00000000
    Gval  0.00000000  0.00000000  0.00000000  0.00000000  0.00000000  0.00000000  0.00000000  0.00000000
    Gval  0.00000000  0.00000000  0.00000000  0.00000034  0.00000044  0.00000122  0.00000178  0.00000197
    Gval  0.00000453  0.00000564  0.00000651  0.00000912  0.00001077  0.00001113  0.00001474  0.00001573
    Gval  0.00001692  0.00001757  0.00001796  0.00001835  0.00002131  0.00002298  0.00002362  0.00002539
    Gval  0.00002687  0.00002925  0.00003071  0.00003310  0.00003580  0.00003992  0.00004903  0.00005120
    Gval  0.00005167  0.00005356  0.00005555  0.00006134  0.00006362  0.00006446  0.00006873  0.00007232
    Gval  0.00007445  0.00008137  0.00008248  0.00008518  0.00008747  0.00009250  0.00009436  0.00009472
    Gval  0.00009531  0.00011593  0.00012264  0.00012773  0.00013147  0.00013207  0.00013710  0.00013802
    Gval  0.00014160  0.00015297  0.00015984  0.00016864  0.00016968  0.00017351  0.00018101  0.00019885
    Gval  0.00022295  0.00022964  0.00023017  0.00025862  0.00027518  0.00027841  0.00028427  0.00029286
    Gval  0.00030473  0.00034165  0.00036019  0.00038056  0.00039053  0.00039211  0.00039634  0.00039932
    Gval  0.00042065  0.00042086  0.00043216  0.00043322  0.00044116  0.00044287  0.00046250  0.00046613
    Gval  0.00046795  0.00049383  0.00051918  0.00052658  0.00052857  0.00053517  0.00053694  0.00055205
    Gval  0.00055480  0.00055615  0.00055616  0.00055643  0.00058603  0.00059851  0.00059902  0.00059931
    Gval  0.00059964  0.00059990  0.00060215  0.00061620  0.00064136  0.00064496  0.00064562  0.00064752
    Gval  0.00067007  0.00069332  0.00069896  0.00078405  0.00080297  0.00089038  0.00098159  0.00108713
    Gval  0.00109499  0.00109595  0.00109672  0.00109734  0.00113775  0.00116375  0.00116420  0.00116437
    Gval  0.00116481  0.00117347  0.00117555  0.00117620  0.00120060  0.00130045  0.00130401  0.00148389
    Gval  0.00149635  0.00171685  0.00174156  0.00191165  0.00229284  0.00234961  0.00251974  0.00253465
    Gval  0.00255935  0.00278040  0.00279483  0.00281424  0.00291670  0.00302503  0.00304108  0.00307949
    Gval  0.00310361  0.00366278  0.00366463  0.00371104  0.00371270  0.00396407  0.02265143  0.55358278
    Gval  2.24519294 21.99160112 78.21168973127.00137564************
  3.422788093898729E-007  3.422788093898729E-007
  4.368059420034729E-007  3.422788093898729E-007
  1.223610657133444E-006  3.422788093898729E-007
  1.777452487568488E-006  3.422788093898729E-007
  1.966134884526662E-006  3.422788093898729E-007
  4.526939883133774E-006  3.422788093898729E-007
  5.642593537549587E-006  3.422788093898729E-007
  6.507478654791562E-006  3.422788093898729E-007
  9.119804649980296E-006  3.422788093898729E-007
  1.076656224954071E-005  3.422788093898729E-007
  1.113375048181622E-005  3.422788093898729E-007
  1.473735646957873E-005  3.422788093898729E-007
  1.573100855750270E-005  3.422788093898729E-007
  1.691996860293052E-005  3.422788093898729E-007
  1.757353097476443E-005  3.422788093898729E-007
  1.796178904766178E-005  3.422788093898729E-007
  1.834894031691487E-005  3.422788093898729E-007
  2.131177091140891E-005  3.422788093898729E-007
  2.298093805770527E-005  3.422788093898729E-007
  2.361646896230362E-005  3.422788093898729E-007
  2.539320789354962E-005  3.422788093898729E-007
  2.687006737226452E-005  3.422788093898729E-007
  2.924610079682226E-005  3.422788093898729E-007
  3.070716579847554E-005  3.422788093898729E-007
  3.310255730710590E-005  3.422788093898729E-007
  3.580200881391982E-005  3.422788093898729E-007
  3.992430811676524E-005  3.422788093898729E-007
  4.903471398729934E-005  3.422788093898729E-007
  5.120027020556057E-005  3.422788093898729E-007
  5.167072244566417E-005  3.422788093898729E-007
  5.356281755937578E-005  3.422788093898729E-007
  5.554759430112147E-005  3.422788093898729E-007
  6.134070707963846E-005  3.422788093898729E-007
  6.361578065120868E-005  3.422788093898729E-007
  6.445842216837079E-005  3.422788093898729E-007
  6.873008208433695E-005  3.422788093898729E-007
  7.232255707097244E-005  3.422788093898729E-007
  7.445311417584467E-005  3.422788093898729E-007
  8.136931715118192E-005  3.422788093898729E-007
  8.248123854491695E-005  3.422788093898729E-007
  8.517542097319090E-005  3.422788093898729E-007
  8.747386405190798E-005  3.422788093898729E-007
  9.249665682100869E-005  3.422788093898729E-007
  9.436044905816455E-005  3.422788093898729E-007
  9.471568788434808E-005  3.422788093898729E-007
  9.531017278513335E-005  3.422788093898729E-007
  1.159304381714642E-004  3.422788093898729E-007
  1.226438037647952E-004  3.422788093898729E-007
  1.277250060889684E-004  3.422788093898729E-007
  1.314739763407321E-004  3.422788093898729E-007
  1.320656464196210E-004  3.422788093898729E-007
  1.371022327515400E-004  3.422788093898729E-007
  1.380156837456788E-004  3.422788093898729E-007
  1.415979870194162E-004  3.422788093898729E-007
  1.529698746486587E-004  3.422788093898729E-007
  1.598378852308560E-004  3.422788093898729E-007
  1.686380100075276E-004  3.422788093898729E-007
  1.696806793718034E-004  3.422788093898729E-007
  1.735082256839927E-004  3.422788093898729E-007
  1.810101350970131E-004  3.422788093898729E-007
  1.988494004707980E-004  3.422788093898729E-007
  2.229486183906091E-004  3.422788093898729E-007
  2.296401673848118E-004  3.422788093898729E-007
  2.301701929486937E-004  3.422788093898729E-007
  2.586208700362152E-004  3.422788093898729E-007
  2.751799049289824E-004  3.422788093898729E-007
  2.784100292002496E-004  3.422788093898729E-007
  2.842659185615741E-004  3.422788093898729E-007
  2.928622784152824E-004  3.422788093898729E-007
  3.047331394445461E-004  3.422788093898729E-007
  3.416455230159749E-004  3.422788093898729E-007
  3.601878853832168E-004  3.422788093898729E-007
  3.805642542443460E-004  3.422788093898729E-007
  3.905300242467502E-004  3.422788093898729E-007
  3.921144366116988E-004  3.422788093898729E-007
  3.963391032856875E-004  3.422788093898729E-007
  3.993178848117057E-004  3.422788093898729E-007
  4.206509874793492E-004  3.422788093898729E-007
  4.208550141343428E-004  3.422788093898729E-007
  4.321583361647727E-004  3.422788093898729E-007
  4.332235122046479E-004  3.422788093898729E-007
  4.411631297142644E-004  3.422788093898729E-007
  4.428741700802230E-004  3.422788093898729E-007
  4.624974921748319E-004  3.422788093898729E-007
  4.661294709905873E-004  3.422788093898729E-007
  4.679515939199686E-004  3.422788093898729E-007
  4.938345746984136E-004  3.422788093898729E-007
  5.191805715943470E-004  3.422788093898729E-007
  5.265753508464088E-004  3.422788093898729E-007
  5.285725638781420E-004  3.422788093898729E-007
  5.351687003356477E-004  3.422788093898729E-007
  5.369375926832149E-004  3.422788093898729E-007
  5.520506929820667E-004  3.422788093898729E-007
  5.547990214818935E-004  3.422788093898729E-007
  5.561513046348052E-004  3.422788093898729E-007
  5.561637503810287E-004  3.422788093898729E-007
  5.564328450668615E-004  3.422788093898729E-007
  5.860288274322363E-004  3.422788093898729E-007
  5.985093800527309E-004  3.422788093898729E-007
  5.990197688295117E-004  3.422788093898729E-007
  5.993109299040675E-004  3.422788093898729E-007
  5.996384240619509E-004  3.422788093898729E-007
  5.999049551308464E-004  3.422788093898729E-007
  6.021549808081074E-004  3.422788093898729E-007
  6.161995967969003E-004  3.422788093898729E-007
  6.413604860388701E-004  3.422788093898729E-007
  6.449601445745706E-004  3.422788093898729E-007
  6.456218353839184E-004  3.422788093898729E-007
  6.475213755512186E-004  3.422788093898729E-007
  6.700691747000243E-004  3.422788093898729E-007
  6.933156996503209E-004  3.422788093898729E-007
  6.989583143852078E-004  3.422788093898729E-007
  7.840465060827542E-004  3.422788093898729E-007
  8.029732947194989E-004  3.422788093898729E-007
  8.903772915176270E-004  3.422788093898729E-007
  9.815878731051393E-004  3.422788093898729E-007
  1.087131933430380E-003  3.422788093898729E-007
  1.094994428840838E-003  3.422788093898729E-007
  1.095946385115630E-003  3.422788093898729E-007
  1.096721276850559E-003  3.422788093898729E-007
  1.097344075860991E-003  3.422788093898729E-007
  1.137747259709082E-003  3.422788093898729E-007
  1.163751383762845E-003  3.422788093898729E-007
  1.164198136090070E-003  3.422788093898729E-007
  1.164373371861762E-003  3.422788093898729E-007
  1.164814843354690E-003  3.422788093898729E-007
  1.173467718359243E-003  3.422788093898729E-007
  1.175545361490807E-003  3.422788093898729E-007
  1.176202819374749E-003  3.422788093898729E-007
  1.200599876820072E-003  3.422788093898729E-007
  1.300447112520979E-003  3.422788093898729E-007
  1.304006282695114E-003  3.422788093898729E-007
  1.483891943146219E-003  3.422788093898729E-007
  1.496345636447164E-003  3.422788093898729E-007
  1.716845131116204E-003  3.422788093898729E-007
  1.741564929964212E-003  3.422788093898729E-007
  1.911646596815308E-003  3.422788093898729E-007
  2.292844826426131E-003  3.422788093898729E-007
  2.349606620664754E-003  3.422788093898729E-007
  2.519736477726119E-003  3.422788093898729E-007
  2.534649800300299E-003  3.422788093898729E-007
  2.559345182377017E-003  3.422788093898729E-007
  2.780402518569973E-003  3.422788093898729E-007
  2.794832019379572E-003  3.422788093898729E-007
  2.814242960336914E-003  3.422788093898729E-007
  2.916697155526166E-003  3.422788093898729E-007
  3.025026600864465E-003  3.422788093898729E-007
  3.041076073055674E-003  3.422788093898729E-007
  3.079489910140090E-003  3.422788093898729E-007
  3.103610674417557E-003  3.422788093898729E-007
  3.662784205438377E-003  3.422788093898729E-007
  3.664633831324637E-003  3.422788093898729E-007
  3.711044845392629E-003  3.422788093898729E-007
  3.712704871778185E-003  3.422788093898729E-007
  3.964065536092800E-003  3.422788093898729E-007
  2.265142730852653E-002  3.422788093898729E-007
  0.553582780980755       3.422788093898729E-007
   2.24519293995860       3.422788093898729E-007
   21.9916011205953       3.422788093898729E-007
   78.2116897296700       3.422788093898729E-007
   127.001375641415       3.422788093898729E-007
   1230.06006723605       3.422788093898729E-007
 cut=1d-8, nber non-redundant internal coords=         162
 Check on Eigenvals of non-red overlap matrix:
  0.00000034  0.00000044  0.00000122  0.00000178  0.00000197  0.00000453  0.00000564  0.00000651
  0.00000912  0.00001077  0.00001113  0.00001474  0.00001573  0.00001692  0.00001757  0.00001796
  0.00001835  0.00002131  0.00002298  0.00002362  0.00002539  0.00002687  0.00002925  0.00003071
  0.00003310  0.00003580  0.00003992  0.00004903  0.00005120  0.00005167  0.00005356  0.00005555
  0.00006134  0.00006362  0.00006446  0.00006873  0.00007232  0.00007445  0.00008137  0.00008248
  0.00008518  0.00008747  0.00009250  0.00009436  0.00009472  0.00009531  0.00011593  0.00012264
  0.00012773  0.00013147  0.00013207  0.00013710  0.00013802  0.00014160  0.00015297  0.00015984
  0.00016864  0.00016968  0.00017351  0.00018101  0.00019885  0.00022295  0.00022964  0.00023017
  0.00025862  0.00027518  0.00027841  0.00028427  0.00029286  0.00030473  0.00034165  0.00036019
  0.00038056  0.00039053  0.00039211  0.00039634  0.00039932  0.00042065  0.00042086  0.00043216
  0.00043322  0.00044116  0.00044287  0.00046250  0.00046613  0.00046795  0.00049383  0.00051918
  0.00052658  0.00052857  0.00053517  0.00053694  0.00055205  0.00055480  0.00055615  0.00055616
  0.00055643  0.00058603  0.00059851  0.00059902  0.00059931  0.00059964  0.00059990  0.00060215
  0.00061620  0.00064136  0.00064496  0.00064562  0.00064752  0.00067007  0.00069332  0.00069896
  0.00078405  0.00080297  0.00089038  0.00098159  0.00108713  0.00109499  0.00109595  0.00109672
  0.00109734  0.00113775  0.00116375  0.00116420  0.00116437  0.00116481  0.00117347  0.00117555
  0.00117620  0.00120060  0.00130045  0.00130401  0.00148389  0.00149635  0.00171685  0.00174156
  0.00191165  0.00229284  0.00234961  0.00251974  0.00253465  0.00255935  0.00278040  0.00279483
  0.00281424  0.00291670  0.00302503  0.00304108  0.00307949  0.00310361  0.00366278  0.00366463
  0.00371104  0.00371270  0.00396407  0.02265143  0.55358278  2.24519294 21.99160112 78.21168973
127.00137564************
 Checking for correct frequencies
 recalc frequencies=
    -5.6   -0.0   -0.0   -0.0   -0.0    0.0    0.0   13.8   24.4   26.6
    31.1   50.8   57.7   72.0   84.3   86.8  102.0  102.6  135.4  159.3
   164.0  170.1  180.1  199.3  199.4  219.3  234.4  237.0  255.6  261.9
   278.1  304.2  308.8  310.8  324.8  336.8  353.9  385.1  391.6  421.4
   428.5  433.7  438.5  441.9  445.2  445.7  456.1  470.0  472.2  482.8
   500.3  511.5  520.9  524.6  547.4  550.2  573.7  580.7  585.6  616.3
   619.1  645.0  663.4  673.0  712.4  714.7  715.8  722.3  729.7  749.9
   766.1  774.4  778.2  801.8  812.6  822.5  843.2  867.4  870.0  872.3
   876.7  900.5  912.6  933.7  947.7  958.0  965.1 1000.8 1007.3 1009.7
  1016.6 1018.9 1028.3 1037.8 1064.6 1091.4 1095.8 1102.8 1123.1 1155.9
  1160.2 1163.8 1177.0 1194.0 1209.0 1213.8 1223.8 1237.4 1255.7 1259.5
  1278.8 1307.4 1323.4 1327.4 1353.9 1366.8 1375.2 1377.3 1384.8 1391.5
  1405.9 1406.7 1411.6 1420.3 1423.7 1440.8 1452.2 1454.1 1457.0 1483.7
  1484.7 1486.1 1492.0 1500.1 1503.0 1520.9 1531.4 1564.0 1581.9 1583.2
  1598.8 1606.3 1610.7 1617.8 1714.0 1759.9 1762.9 1793.8 2223.4 2260.1
  3021.0 3041.5 3044.7 3080.5 3092.6 3101.8 3105.0 3117.9 3134.8 3146.0
  3203.9 3204.6 3208.9 3209.2 3216.0 3216.5 3228.3 3230.0
 recalc symmetries=
                                                                       
                                                                       
                                                                       
                                                                       
                                                                       
                                                                       
                                                                       
                                                                       
                                                                       
                                                                       
                                                                       
                                                                       
                                                                       
                                                                       
                                                                       
                                                                       
                                                         
 recalc freqs check OK
 Zero-point lengths:
104.3798 10.0000 10.0000 10.0000 10.0000 10.0000 10.0000 66.6806 50.1438 48.0372
 44.4346 34.7717 32.6290 29.2238 26.9996 26.6035 24.5475 24.4712 21.3014 19.6435
 19.3591 19.0085 18.4744 17.5609 17.5567 16.7422 16.1943 16.1049 15.5066 15.3181
 14.8654 14.2138 14.1085 14.0633 13.7565 13.5091 13.1775 12.6323 12.5276 12.0765
 11.9759 11.9043 11.8386 11.7927 11.7493 11.7433 11.6083 11.4355 11.4092 11.2822
 11.0837 10.9617 10.8619 10.8237 10.5956 10.5688 10.3503 10.2876 10.2444  9.9859
  9.9638  9.7612  9.6255  9.5566  9.2883  9.2735  9.2663  9.2247  9.1776  9.0528
  8.9569  8.9084  8.8870  8.7549  8.6970  8.6444  8.5374  8.4177  8.4050  8.3941
  8.3727  8.2613  8.2064  8.1131  8.0529  8.0098  7.9800  7.8367  7.8113  7.8020
  7.7755  7.7668  7.7310  7.6955  7.5982  7.5042  7.4891  7.4654  7.3975  7.2919
  7.2782  7.2670  7.2261  7.1745  7.1298  7.1157  7.0865  7.0477  6.9960  6.9854
  6.9326  6.8563  6.8149  6.8044  6.7377  6.7057  6.6853  6.6802  6.6619  6.6458
  6.6117  6.6100  6.5985  6.5781  6.5704  6.5313  6.5055  6.5012  6.4947  6.4360
  6.4340  6.4308  6.4182  6.4008  6.3946  6.3569  6.3352  6.2687  6.2332  6.2306
  6.2001  6.1856  6.1771  6.1635  5.9881  5.9095  5.9045  5.8534  5.2576  5.2147
  4.5105  4.4952  4.4928  4.4667  4.4579  4.4513  4.4491  4.4398  4.4278  4.4199
  4.3798  4.3793  4.3764  4.3762  4.3716  4.3713  4.3632  4.3621
 highest evec of mol 1
  0.0000 -0.0000  0.0000
 -0.0001  0.0000 -0.0000
  0.0001  0.0000  0.0000
  0.0000  0.0000 -0.0000
 -0.0001 -0.0000  0.0000
  0.0002 -0.0001  0.0000
 -0.0005 -0.0006  0.0001
  0.0000  0.0003 -0.0000
 -0.0017  0.0029 -0.0004
 -0.0381 -0.0520  0.0061
  0.1020 -0.1848  0.0260
  0.0033  0.0038 -0.0004
 -0.0027  0.0025 -0.0004
 -0.0815 -0.1515  0.0183
  0.0329 -0.0450  0.0065
  0.0013  0.0023 -0.0003
  0.0005 -0.0007  0.0001
  0.0000  0.0004 -0.0000
 -0.0002 -0.0000  0.0000
  0.0001 -0.0000  0.0000
  0.0000  0.0000  0.0000
  0.0000  0.0000 -0.0000
 -0.0000  0.0001 -0.0000
 -0.0000 -0.0000  0.0000
 -0.0000 -0.0002  0.0000
  0.0009  0.0018 -0.0002
 -0.0015  0.0034 -0.0005
 -0.0003 -0.0002  0.0000
  0.0003 -0.0002  0.0000
  0.0018  0.0038 -0.0005
 -0.0011  0.0018 -0.0003
  0.0000 -0.0001  0.0000
  0.0000  0.0001 -0.0000
  0.0000 -0.0000  0.0000
 -0.0002  0.0004 -0.0000
 -0.0001  0.0016 -0.0002
  0.0001  0.0013 -0.0002
  0.0001  0.0004 -0.0001
  0.0000  0.0000 -0.0000
 -0.0000  0.0000 -0.0000
  0.0000  0.0000  0.0000
  0.1026  0.1695 -0.0202
 -0.3415  0.6191 -0.0870
  0.2762  0.5093 -0.0614
 -0.0906  0.1473 -0.0209
 -0.0001  0.0000 -0.0000
  0.0000 -0.0000  0.0000
  0.0000 -0.0000 -0.0000
 -0.0001 -0.0000 -0.0000
  0.0000 -0.0000 -0.0000
 -0.0001 -0.0000  0.0000
  0.0000 -0.0000  0.0000
 -0.0033 -0.0054  0.0006
  0.0059 -0.0110  0.0016
 -0.0068 -0.0126  0.0015
  0.0034 -0.0056  0.0008
 generating redundant internal coords
         300        3600          56
 Adding extra bonds for z output only
           6           6           6           6           6           7
           6           8           6           6           6           6
           6           6           6           6           6           8
           7           6           6           6           6           8
           6           6           6           6           6           6
           6           6           6           8           6           6
           6           6           1           1           1           1
           1           1           1           1           1           1
           1           1           1           1           1           1
           1           1
 search for int coords
   1 str   2   1   1.445
   2 str   3   2   1.217
   3 str   4   3   1.347
   4 str   5   4   1.215
   5 str   6   5   1.340
   6 str   7   6   1.440
   7 str   8   7   1.203
   8 str   9   7   1.477
   9 str  10   9   1.391
  10 str  11  10   1.386
  11 str  12  11   1.409
  12 str  13  12   1.452
  13 str  14  13   1.408
  14 str  15  14   1.390
  15 str  16  15   1.389
  16 str  17  16   1.497
  17 str  18  17   1.214
  18 str  19  17   1.394
  19 str  20  19   1.508
  20 str  21  20   1.531
  21 str  22  20   1.531
  22 str  23  19   1.402
  23 str  24  23   1.213
  24 str  25  23   1.495
  25 str  26  25   1.388
  26 str  27  26   1.391
  27 str  28  27   1.406
  28 str  29  28   1.458
  29 str  30  29   1.402
  30 str  31  30   1.390
  31 str  32  31   1.388
  32 str  33   6   1.442
  33 str  33  32   1.483
  34 str  34  33   1.202
  35 str  35   9   1.419
  36 str  35  32   1.410
  37 str  36  12   1.428
  38 str  36  29   1.429
  39 str  36  35   1.428
  40 str  37  13   1.426
  41 str  37  28   1.423
  42 str  38  16   1.409
  43 str  38  25   1.408
  44 str  38  37   1.425
  45 str  39   1   1.094
  46 str  40   1   1.095
  47 str  41   1   1.094
  48 str  42  10   1.083
  49 str  43  11   1.080
  50 str  44  14   1.081
  51 str  45  15   1.082
  52 str  46  20   1.087
  53 str  47  21   1.089
  54 str  48  21   1.093
  55 str  49  21   1.092
  56 str  50  22   1.089
  57 str  51  22   1.092
  58 str  52  22   1.093
  59 str  53  26   1.082
  60 str  54  27   1.081
  61 str  55  30   1.081
  62 str  56  31   1.083
 nber stretches=          62
  63 lin ben   1   2   3
  65 ben   2   1  39
  66 ben   2   1  40
  67 ben   2   1  41
 Extend lin bond           1           1           2           4
  68 lin ben   2   3   4
  70 lin ben   3   4   5
 Extend lin bond           2           3           4           6
  72 lin ben   4   5   6
  74 ben   5   6   7
  75 prop tor   5   6   7   8
  76 prop tor   5   6   7   9
  77 ben   5   6  33
  78 prop tor   5   6  33  32
  79 prop tor   5   6  33  34
  80 ben   6   7   8
  81 ben   6   7   9
  82 prop tor   6   7   9  10
  83 prop tor   6   7   9  35
  84 ben   6  33  32
  85 ben   6  33  34
  86 ben   7   6  33
  87 prop tor   7   6  33  32
  88 prop tor   7   6  33  34
  89 ben   7   9  10
  90 prop tor   7   9  10  11
  91 prop tor   7   9  10  42
  92 ben   7   9  35
  93 prop tor   7   9  35  32
  94 prop tor   7   9  35  36
  95 ben   8   7   9
  96 prop tor   8   7   9  10
  97 prop tor   8   7   9  35
  98 ben   9  10  11
  99 prop tor   9  10  11  12
 100 prop tor   9  10  11  43
 101 ben   9  10  42
 102 ben   9  35  32
 103 ben   9  35  36
 104 prop tor   9  35  36  12
 105 prop tor   9  35  36  29
 106 ben  10   9  35
 107 prop tor  10   9  35  32
 108 prop tor  10   9  35  36
 109 ben  10  11  12
 110 prop tor  10  11  12  13
 111 prop tor  10  11  12  36
 112 ben  10  11  43
 113 ben  11  10  42
 114 ben  11  12  13
 115 prop tor  11  12  13  14
 116 prop tor  11  12  13  37
 117 ben  11  12  36
 118 prop tor  11  12  36  29
 119 prop tor  11  12  36  35
 120 ben  12  11  43
 121 ben  12  13  14
 122 prop tor  12  13  14  15
 123 prop tor  12  13  14  44
 124 ben  12  13  37
 125 prop tor  12  13  37  28
 126 prop tor  12  13  37  38
 127 ben  12  36  29
 128 ben  12  36  35
 129 ben  13  12  36
 130 prop tor  13  12  36  29
 131 prop tor  13  12  36  35
 132 ben  13  14  15
 133 prop tor  13  14  15  16
 134 prop tor  13  14  15  45
 135 ben  13  14  44
 136 ben  13  37  28
 137 ben  13  37  38
 138 prop tor  13  37  38  16
 139 prop tor  13  37  38  25
 140 ben  14  13  37
 141 prop tor  14  13  37  28
 142 prop tor  14  13  37  38
 143 ben  14  15  16
 144 prop tor  14  15  16  17
 145 prop tor  14  15  16  38
 146 ben  14  15  45
 147 ben  15  14  44
 148 ben  15  16  17
 149 prop tor  15  16  17  18
 150 prop tor  15  16  17  19
 151 ben  15  16  38
 152 prop tor  15  16  38  25
 153 prop tor  15  16  38  37
 154 ben  16  15  45
 155 ben  16  17  18
 156 ben  16  17  19
 157 prop tor  16  17  19  20
 158 prop tor  16  17  19  23
 159 ben  16  38  25
 160 ben  16  38  37
 161 ben  17  16  38
 162 prop tor  17  16  38  25
 163 prop tor  17  16  38  37
 164 ben  17  19  20
 165 prop tor  17  19  20  21
 166 prop tor  17  19  20  22
 167 prop tor  17  19  20  46
 168 ben  17  19  23
 169 prop tor  17  19  23  24
 170 prop tor  17  19  23  25
 171 ben  18  17  19
 172 prop tor  18  17  19  20
 173 prop tor  18  17  19  23
 174 ben  19  20  21
 175 prop tor  19  20  21  47
 176 prop tor  19  20  21  48
 177 prop tor  19  20  21  49
 178 ben  19  20  22
 179 prop tor  19  20  22  50
 180 prop tor  19  20  22  51
 181 prop tor  19  20  22  52
 182 ben  19  20  46
 183 ben  19  23  24
 184 ben  19  23  25
 185 prop tor  19  23  25  26
 186 prop tor  19  23  25  38
 187 ben  20  19  23
 188 prop tor  20  19  23  24
 189 prop tor  20  19  23  25
 190 ben  20  21  47
 191 ben  20  21  48
 192 ben  20  21  49
 193 ben  20  22  50
 194 ben  20  22  51
 195 ben  20  22  52
 196 ben  21  20  22
 197 prop tor  21  20  22  50
 198 prop tor  21  20  22  51
 199 prop tor  21  20  22  52
 200 ben  21  20  46
 201 prop tor  22  20  21  47
 202 prop tor  22  20  21  48
 203 prop tor  22  20  21  49
 204 ben  22  20  46
 205 prop tor  23  19  20  21
 206 prop tor  23  19  20  22
 207 prop tor  23  19  20  46
 208 ben  23  25  26
 209 prop tor  23  25  26  27
 210 prop tor  23  25  26  53
 211 ben  23  25  38
 212 prop tor  23  25  38  16
 213 prop tor  23  25  38  37
 214 ben  24  23  25
 215 prop tor  24  23  25  26
 216 prop tor  24  23  25  38
 217 ben  25  26  27
 218 prop tor  25  26  27  28
 219 prop tor  25  26  27  54
 220 ben  25  26  53
 221 ben  25  38  37
 222 ben  26  25  38
 223 prop tor  26  25  38  16
 224 prop tor  26  25  38  37
 225 ben  26  27  28
 226 prop tor  26  27  28  29
 227 prop tor  26  27  28  37
 228 ben  26  27  54
 229 ben  27  26  53
 230 ben  27  28  29
 231 prop tor  27  28  29  30
 232 prop tor  27  28  29  36
 233 ben  27  28  37
 234 prop tor  27  28  37  13
 235 prop tor  27  28  37  38
 236 ben  28  27  54
 237 ben  28  29  30
 238 prop tor  28  29  30  31
 239 prop tor  28  29  30  55
 240 ben  28  29  36
 241 prop tor  28  29  36  12
 242 prop tor  28  29  36  35
 243 ben  28  37  38
 244 prop tor  28  37  38  16
 245 prop tor  28  37  38  25
 246 ben  29  28  37
 247 prop tor  29  28  37  13
 248 prop tor  29  28  37  38
 249 ben  29  30  31
 250 prop tor  29  30  31  32
 251 prop tor  29  30  31  56
 252 ben  29  30  55
 253 ben  29  36  35
 254 ben  30  29  36
 255 prop tor  30  29  36  12
 256 prop tor  30  29  36  35
 257 ben  30  31  32
 258 prop tor  30  31  32  33
 259 prop tor  30  31  32  35
 260 ben  30  31  56
 261 ben  31  30  55
 262 ben  31  32  33
 263 prop tor  31  32  33   6
 264 prop tor  31  32  33  34
 265 ben  31  32  35
 266 prop tor  31  32  35   9
 267 prop tor  31  32  35  36
 268 ben  32  31  56
 269 ben  32  33  34
 270 ben  32  35  36
 271 prop tor  32  35  36  12
 272 prop tor  32  35  36  29
 273 prop tor  33   6   7   8
 274 prop tor  33   6   7   9
 275 ben  33  32  35
 276 prop tor  33  32  35   9
 277 prop tor  33  32  35  36
 278 prop tor  35   9  10  11
 279 prop tor  35   9  10  42
 280 prop tor  35  32  33   6
 281 prop tor  35  32  33  34
 282 prop tor  36  12  13  14
 283 prop tor  36  12  13  37
 284 prop tor  36  29  30  31
 285 prop tor  36  29  30  55
 286 prop tor  37  13  14  15
 287 prop tor  37  13  14  44
 288 prop tor  37  28  29  30
 289 prop tor  37  28  29  36
 290 prop tor  38  16  17  18
 291 prop tor  38  16  17  19
 292 prop tor  38  25  26  27
 293 prop tor  38  25  26  53
 294 prop tor  39   1   2   3
 295 ben  39   1  40
 296 ben  39   1  41
 297 prop tor  40   1   2   3
 298 ben  40   1  41
 299 prop tor  41   1   2   3
 300 prop tor  42  10  11  12
 301 prop tor  42  10  11  43
 302 prop tor  43  11  12  13
 303 prop tor  43  11  12  36
 304 prop tor  44  14  15  16
 305 prop tor  44  14  15  45
 306 prop tor  45  15  16  17
 307 prop tor  45  15  16  38
 308 prop tor  46  20  21  47
 309 prop tor  46  20  21  48
 310 prop tor  46  20  21  49
 311 prop tor  46  20  22  50
 312 prop tor  46  20  22  51
 313 prop tor  46  20  22  52
 314 ben  47  21  48
 315 ben  47  21  49
 316 ben  48  21  49
 317 ben  50  22  51
 318 ben  50  22  52
 319 ben  51  22  52
 320 prop tor  53  26  27  28
 321 prop tor  53  26  27  54
 322 prop tor  54  27  28  29
 323 prop tor  54  27  28  37
 324 prop tor  55  30  31  32
 325 prop tor  55  30  31  56
 326 prop tor  56  31  32  33
 327 prop tor  56  31  32  35
 328 lin bend prop tor   2   1   4   3
 329 lin bend prop tor   2   1   4   5
 330 lin bend prop tor  39   1   4   3
 331 lin bend prop tor  39   1   4   5
 332 lin bend prop tor  40   1   4   3
 333 lin bend prop tor  40   1   4   5
 334 lin bend prop tor  41   1   4   3
 335 lin bend prop tor  41   1   4   5
 336 lin bend prop tor   2   3   6   5
 337 lin bend prop tor   2   3   6   7
 338 lin bend prop tor   2   3   6  33
 339 lin bend prop tor   4   3   6   5
 340 lin bend prop tor   4   3   6   7
 341 lin bend prop tor   4   3   6  33
 nber bend=             110
 nber lin bend=           2
 nber prop tor=         169
 nber impr tor=           0
 nber tot redund int=         341
 Reading file: 
 ./PDI_6_C0S1.log                                                               
                                          
  Entering Gaussian System, Link 0=g16                                          
  
 Gaussian format, type: g94, g98, g03= F F F
  #P Geom=AllCheck Guess=TCheck SCRF=Check GenChk RB3LYP TD(FC,Read)/6-3    
 energy type= TD      
 Original G94 input coords:
  6  1.414568  0.015338 -0.090258
  6  2.866948  0.025396 -0.066042
  6  4.077020  0.033460 -0.045109
  6  5.437336  0.042530 -0.021496
  6  6.644748  0.050577 -0.000496
  7  7.997849  0.059527  0.023106
  6  8.664556 -1.194682  0.198463
  8  8.026174 -2.217059  0.319649
  6 10.134881 -1.141305  0.218635
  6 10.841347 -2.339265  0.387625
  6 12.219736 -2.341190  0.413411
  6 12.969293 -1.141422  0.271085
  6 14.409999 -1.131990  0.296944
  6 15.174931 -2.319279  0.466779
  6 16.554568 -2.295511  0.489740
  6 17.245895 -1.086825  0.344455
  6 18.724751 -1.097727  0.374178
  8 19.345718 -2.139751  0.522916
  7 19.380105  0.130360  0.225558
  6 20.877783  0.168105  0.249698
  6 21.433075 -0.266043  1.610044
  6 21.482597 -0.598998 -0.930606
  6 18.713636  1.357626  0.051509
  8 19.326318  2.406414 -0.074760
  6 17.236211  1.327428  0.027659
  6 16.534412  2.527048 -0.142748
  6 15.154632  2.532809 -0.169058
  6 14.399462  1.335891 -0.026135
  6 12.958822  1.326499 -0.051235
  6 12.198787  2.516166 -0.220158
  6 10.820487  2.496075 -0.242617
  6 10.124083  1.288985 -0.098068
  6  8.653741  1.322943 -0.129176
  8  8.005902  2.336432 -0.272682
  6 10.834778  0.078543  0.072609
  6 12.264137  0.087974  0.097645
  6 15.101734  0.106562  0.147794
  6 16.529261  0.115808  0.173313
  1  1.023164 -0.892280  0.379425
  1  1.035721  0.053310 -1.116261
  1  1.007726  0.874872  0.451287
  1 10.276560 -3.256141  0.496509
  1 12.730547 -3.284198  0.545528
  1 14.675407 -3.270646  0.582000
  1 17.130371 -3.202728  0.619504
  1 21.098651  1.224675  0.115557
  1 21.257608 -1.324473  1.798043
  1 20.981939  0.318083  2.416313
  1 22.510727 -0.082096  1.628527
  1 21.309578 -1.671061 -0.845968
  1 22.561012 -0.420258 -0.954778
  1 21.065343 -0.244838 -1.876790
  1 17.101867  3.442117 -0.252214
  1 14.647366  3.477706 -0.302353
  1 12.701399  3.465879 -0.334647
  1 10.247955  3.405537 -0.371470
 nber atoms=          56
  Total Energy, E(TD-HF/TD-DFT) =  -1640.96901280                               
  
          32          49 "  -1640.96901280"
After scan for Atom:   Atom  AN      X      Y      Z        X      Y      Z        X      Y      Z   
After scan for Atom:   Atom  AN      X      Y      Z        X      Y      Z        X      Y      Z   
After scan for Atom:   Atom  AN      X      Y      Z        X      Y      Z        X      Y      Z   
After scan for Atom:   Atom  AN      X      Y      Z        X      Y      Z        X      Y      Z   
After scan for Atom:   Atom  AN      X      Y      Z        X      Y      Z        X      Y      Z   
After scan for Atom:   Atom  AN      X      Y      Z        X      Y      Z        X      Y      Z   
After scan for Atom:   Atom  AN      X      Y      Z        X      Y      Z        X      Y      Z   
After scan for Atom:   Atom  AN      X      Y      Z        X      Y      Z        X      Y      Z   
After scan for Atom:   Atom  AN      X      Y      Z        X      Y      Z        X      Y      Z   
After scan for Atom:   Atom  AN      X      Y      Z        X      Y      Z        X      Y      Z   
After scan for Atom:   Atom  AN      X      Y      Z        X      Y      Z        X      Y      Z   
After scan for Atom:   Atom  AN      X      Y      Z        X      Y      Z        X      Y      Z   
After scan for Atom:   Atom  AN      X      Y      Z        X      Y      Z        X      Y      Z   
After scan for Atom:   Atom  AN      X      Y      Z        X      Y      Z        X      Y      Z   
After scan for Atom:   Atom  AN      X      Y      Z        X      Y      Z        X      Y      Z   
After scan for Atom:   Atom  AN      X      Y      Z        X      Y      Z        X      Y      Z   
After scan for Atom:   Atom  AN      X      Y      Z        X      Y      Z        X      Y      Z   
After scan for Atom:   Atom  AN      X      Y      Z        X      Y      Z        X      Y      Z   
After scan for Atom:   Atom  AN      X      Y      Z        X      Y      Z        X      Y      Z   
After scan for Atom:   Atom  AN      X      Y      Z        X      Y      Z        X      Y      Z   
After scan for Atom:   Atom  AN      X      Y      Z        X      Y      Z        X      Y      Z   
After scan for Atom:   Atom  AN      X      Y      Z        X      Y      Z        X      Y      Z   
After scan for Atom:   Atom  AN      X      Y      Z        X      Y      Z        X      Y      Z   
After scan for Atom:   Atom  AN      X      Y      Z        X      Y      Z        X      Y      Z   
After scan for Atom:   Atom  AN      X      Y      Z        X      Y      Z        X      Y      Z   
After scan for Atom:   Atom  AN      X      Y      Z        X      Y      Z        X      Y      Z   
After scan for Atom:   Atom  AN      X      Y      Z        X      Y      Z        X      Y      Z   
After scan for Atom:   Atom  AN      X      Y      Z        X      Y      Z        X      Y      Z   
After scan for Atom:   Atom  AN      X      Y      Z        X      Y      Z        X      Y      Z   
After scan for Atom:   Atom  AN      X      Y      Z        X      Y      Z        X      Y      Z   
After scan for Atom:   Atom  AN      X      Y      Z        X      Y      Z        X      Y      Z   
After scan for Atom:   Atom  AN      X      Y      Z        X      Y      Z        X      Y      Z   
After scan for Atom:   Atom  AN      X      Y      Z        X      Y      Z        X      Y      Z   
After scan for Atom:   Atom  AN      X      Y      Z        X      Y      Z        X      Y      Z   
After scan for Atom:   Atom  AN      X      Y      Z        X      Y      Z        X      Y      Z   
After scan for Atom:   Atom  AN      X      Y      Z        X      Y      Z        X      Y      Z   
After scan for Atom:   Atom  AN      X      Y      Z        X      Y      Z        X      Y      Z   
After scan for Atom:   Atom  AN      X      Y      Z        X      Y      Z        X      Y      Z   
After scan for Atom:   Atom  AN      X      Y      Z        X      Y      Z        X      Y      Z   
After scan for Atom:   Atom  AN      X      Y      Z        X      Y      Z        X      Y      Z   
After scan for Atom:   Atom  AN      X      Y      Z        X      Y      Z        X      Y      Z   
After scan for Atom:   Atom  AN      X      Y      Z        X      Y      Z        X      Y      Z   
After scan for Atom:   Atom  AN      X      Y      Z        X      Y      Z        X      Y      Z   
After scan for Atom:   Atom  AN      X      Y      Z        X      Y      Z        X      Y      Z   
After scan for Atom:   Atom  AN      X      Y      Z        X      Y      Z        X      Y      Z   
After scan for Atom:   Atom  AN      X      Y      Z        X      Y      Z        X      Y      Z   
After scan for Atom:   Atom  AN      X      Y      Z        X      Y      Z        X      Y      Z   
After scan for Atom:   Atom  AN      X      Y      Z        X      Y      Z        X      Y      Z   
After scan for Atom:   Atom  AN      X      Y      Z        X      Y      Z        X      Y      Z   
After scan for Atom:   Atom  AN      X      Y      Z        X      Y      Z        X      Y      Z   
After scan for Atom:   Atom  AN      X      Y      Z        X      Y      Z        X      Y      Z   
After scan for Atom:   Atom  AN      X      Y      Z        X      Y      Z        X      Y      Z   
After scan for Atom:   Atom  AN      X      Y      Z        X      Y      Z        X      Y      Z   
After scan for Atom:   Atom  AN      X      Y      Z        X      Y      Z        X      Y      Z   
 g94    frequencies=
     0.0    0.0    0.0    0.0    0.0    0.0   -6.0   13.5   25.1   28.5
    30.7   54.0   58.2   75.7   86.1   89.9  101.8  102.0  137.3  162.0
   167.7  171.3  183.7  200.8  203.9  214.8  234.2  235.3  255.8  259.8
   280.0  297.8  301.3  310.8  318.1  325.8  351.2  389.3  391.6  416.9
   425.1  432.2  436.3  438.2  447.3  450.2  464.7  473.8  484.1  498.9
   501.4  505.6  508.0  510.3  544.7  550.3  573.1  574.1  578.2  604.1
   615.8  635.1  651.8  671.5  678.2  704.5  710.4  714.4  727.4  746.3
   757.4  757.8  764.1  800.8  809.1  810.4  814.6  823.0  826.3  832.0
   844.5  901.5  915.6  931.9  945.4  951.5  956.7  975.1  976.8  988.2
   988.9 1006.6 1046.4 1047.5 1061.7 1088.1 1096.7 1110.1 1136.9 1155.5
  1161.5 1169.6 1185.0 1187.2 1196.4 1200.7 1224.6 1232.7 1242.8 1256.6
  1289.7 1304.6 1319.0 1331.4 1350.4 1366.0 1371.1 1381.9 1391.1 1397.6
  1400.4 1404.5 1416.5 1417.3 1430.2 1438.4 1443.9 1459.4 1467.8 1472.6
  1474.4 1485.0 1491.5 1497.6 1505.1 1511.5 1522.4 1546.3 1554.5 1572.9
  1584.3 1599.0 1599.2 1621.9 1686.2 1725.9 1727.6 1758.8 2280.8 2369.7
  3017.6 3034.4 3038.5 3075.0 3076.5 3092.5 3095.7 3112.5 3132.4 3142.8
  3198.7 3199.0 3205.2 3205.4 3213.3 3213.4 3225.0 3225.3
 g94    symmetries=
                                                 A      A      A      A
       A      A      A      A      A      A      A      A      A      A
       A      A      A      A      A      A      A      A      A      A
       A      A      A      A      A      A      A      A      A      A
       A      A      A      A      A      A      A      A      A      A
       A      A      A      A      A      A      A      A      A      A
       A      A      A      A      A      A      A      A      A      A
       A      A      A      A      A      A      A      A      A      A
       A      A      A      A      A      A      A      A      A      A
       A      A      A      A      A      A      A      A      A      A
       A      A      A      A      A      A      A      A      A      A
       A      A      A      A      A      A      A      A      A      A
       A      A      A      A      A      A      A      A      A      A
       A      A      A      A      A      A      A      A      A      A
       A      A      A      A      A      A      A      A      A      A
       A      A      A      A      A      A      A      A      A      A
       A      A      A      A      A      A      A      A
 atomic masses:
 12.0000 12.0000 12.0000 12.0000 12.0000 14.0031 12.0000 15.9949 12.0000 12.0000
 12.0000 12.0000 12.0000 12.0000 12.0000 12.0000 12.0000 15.9949 14.0031 12.0000
 12.0000 12.0000 12.0000 15.9949 12.0000 12.0000 12.0000 12.0000 12.0000 12.0000
 12.0000 12.0000 12.0000 15.9949 12.0000 12.0000 12.0000 12.0000  1.0078  1.0078
  1.0078  1.0078  1.0078  1.0078  1.0078  1.0078  1.0078  1.0078  1.0078  1.0078
  1.0078  1.0078  1.0078  1.0078  1.0078  1.0078
 looking for force constants in 
 ./PDI_6_C0S1.fchk                                                              
  
 Cartesian Force Constants                  R   N=       14196                  
  
 n3=         168       14196
 g94-fc frequencies=
    -6.0   -1.4   -0.0   -0.0    0.0    0.5    3.5   13.5   25.1   28.5
    30.7   54.0   58.2   75.7   86.1   90.0  101.8  102.0  137.3  162.0
   167.7  171.3  183.7  200.9  203.9  214.8  234.2  235.3  255.8  259.8
   280.0  297.8  301.3  310.8  318.1  325.8  351.2  389.3  391.7  416.9
   425.1  432.2  436.3  438.2  447.3  450.2  464.7  473.8  484.1  498.9
   501.4  505.6  508.0  510.3  544.7  550.4  573.2  574.1  578.2  604.2
   615.8  635.1  651.8  671.5  678.2  704.5  710.4  714.5  727.4  746.4
   757.4  757.8  764.1  800.8  809.2  810.5  814.6  823.0  826.3  832.0
   844.6  901.5  915.6  931.9  945.4  951.6  956.8  975.1  976.9  988.2
   989.0 1006.7 1046.5 1047.6 1061.7 1088.2 1096.7 1110.1 1137.0 1155.5
  1161.5 1169.7 1185.0 1187.3 1196.5 1200.7 1224.7 1232.8 1242.8 1256.6
  1289.7 1304.7 1319.0 1331.4 1350.4 1366.0 1371.1 1382.0 1391.2 1397.7
  1400.4 1404.6 1416.5 1417.3 1430.2 1438.4 1444.0 1459.4 1467.8 1472.6
  1474.5 1485.0 1491.5 1497.7 1505.1 1511.5 1522.4 1546.3 1554.5 1573.0
  1584.4 1599.0 1599.2 1621.9 1686.2 1725.9 1727.7 1758.9 2280.9 2369.8
  3017.6 3034.5 3038.6 3075.0 3076.6 3092.5 3095.7 3112.6 3132.5 3142.8
  3198.8 3199.1 3205.3 3205.5 3213.4 3213.5 3225.1 3225.3
 at 99999: n3=         168
 symm operator            1 :  F  nop=           0
 symm operator            2 :  F  nop=           0
 symm operator            3 :  F  nop=           0
 symm operator            4 :  F  nop=           0
 symm operator            5 :  F  nop=           0
 symm operator            6 :  F  nop=           0
 symm operator            7 :  F  nop=           0
 The point group of the molecule is  C1
 Symmetry rotation matrix:
   1.00000   0.00000   0.00000
   0.00000   1.00000   0.00000
   0.00000   0.00000   1.00000

 Projecting out zero-frequency components
 generating redundant internal coords
         300        3600          56
 search for int coords
   1 str   2   1   1.453
   2 str   3   2   1.210
   3 str   4   3   1.361
   4 str   5   4   1.208
   5 str   6   5   1.353
   6 str   7   6   1.431
   7 str   8   7   1.211
   8 str   9   7   1.471
   9 str  10   9   1.401
  10 str  11  10   1.379
  11 str  12  11   1.422
  12 str  13  12   1.441
  13 str  14  13   1.423
  14 str  15  14   1.380
  15 str  16  15   1.400
  16 str  17  16   1.479
  17 str  18  17   1.222
  18 str  19  17   1.400
  19 str  20  19   1.498
  20 str  21  20   1.532
  21 str  22  20   1.532
  22 str  23  19   1.407
  23 str  24  23   1.221
  24 str  25  23   1.478
  25 str  26  25   1.400
  26 str  27  26   1.380
  27 str  28  27   1.422
  28 str  29  28   1.441
  29 str  30  29   1.422
  30 str  31  30   1.379
  31 str  32  31   1.401
  32 str  33   6   1.432
  33 str  33  32   1.471
  34 str  34  33   1.211
  35 str  35   9   1.414
  36 str  35  32   1.414
  37 str  36  12   1.428
  38 str  36  29   1.428
  39 str  36  35   1.430
  40 str  37  13   1.426
  41 str  37  28   1.426
  42 str  38  16   1.410
  43 str  38  25   1.410
  44 str  38  37   1.428
  45 str  39   1   1.094
  46 str  40   1   1.094
  47 str  41   1   1.094
  48 str  42  10   1.082
  49 str  43  11   1.081
  50 str  44  14   1.081
  51 str  45  15   1.082
  52 str  46  20   1.088
  53 str  47  21   1.089
  54 str  48  21   1.093
  55 str  49  21   1.093
  56 str  50  22   1.089
  57 str  51  22   1.093
  58 str  52  22   1.093
  59 str  53  26   1.082
  60 str  54  27   1.081
  61 str  55  30   1.081
  62 str  56  31   1.082
 nber stretches=          62
  63 lin ben   1   2   3
  65 ben   2   1  39
  66 ben   2   1  40
  67 ben   2   1  41
 Extend lin bond           1           1           2           4
  68 lin ben   2   3   4
  70 lin ben   3   4   5
 Extend lin bond           2           3           4           6
  72 lin ben   4   5   6
  74 ben   5   6   7
  75 prop tor   5   6   7   8
  76 prop tor   5   6   7   9
  77 ben   5   6  33
  78 prop tor   5   6  33  32
  79 prop tor   5   6  33  34
  80 ben   6   7   8
  81 ben   6   7   9
  82 prop tor   6   7   9  10
  83 prop tor   6   7   9  35
  84 ben   6  33  32
  85 ben   6  33  34
  86 ben   7   6  33
  87 prop tor   7   6  33  32
  88 prop tor   7   6  33  34
  89 ben   7   9  10
  90 prop tor   7   9  10  11
  91 prop tor   7   9  10  42
  92 ben   7   9  35
  93 prop tor   7   9  35  32
  94 prop tor   7   9  35  36
  95 ben   8   7   9
  96 prop tor   8   7   9  10
  97 prop tor   8   7   9  35
  98 ben   9  10  11
  99 prop tor   9  10  11  12
 100 prop tor   9  10  11  43
 101 ben   9  10  42
 102 ben   9  35  32
 103 ben   9  35  36
 104 prop tor   9  35  36  12
 105 prop tor   9  35  36  29
 106 ben  10   9  35
 107 prop tor  10   9  35  32
 108 prop tor  10   9  35  36
 109 ben  10  11  12
 110 prop tor  10  11  12  13
 111 prop tor  10  11  12  36
 112 ben  10  11  43
 113 ben  11  10  42
 114 ben  11  12  13
 115 prop tor  11  12  13  14
 116 prop tor  11  12  13  37
 117 ben  11  12  36
 118 prop tor  11  12  36  29
 119 prop tor  11  12  36  35
 120 ben  12  11  43
 121 ben  12  13  14
 122 prop tor  12  13  14  15
 123 prop tor  12  13  14  44
 124 ben  12  13  37
 125 prop tor  12  13  37  28
 126 prop tor  12  13  37  38
 127 ben  12  36  29
 128 ben  12  36  35
 129 ben  13  12  36
 130 prop tor  13  12  36  29
 131 prop tor  13  12  36  35
 132 ben  13  14  15
 133 prop tor  13  14  15  16
 134 prop tor  13  14  15  45
 135 ben  13  14  44
 136 ben  13  37  28
 137 ben  13  37  38
 138 prop tor  13  37  38  16
 139 prop tor  13  37  38  25
 140 ben  14  13  37
 141 prop tor  14  13  37  28
 142 prop tor  14  13  37  38
 143 ben  14  15  16
 144 prop tor  14  15  16  17
 145 prop tor  14  15  16  38
 146 ben  14  15  45
 147 ben  15  14  44
 148 ben  15  16  17
 149 prop tor  15  16  17  18
 150 prop tor  15  16  17  19
 151 ben  15  16  38
 152 prop tor  15  16  38  25
 153 prop tor  15  16  38  37
 154 ben  16  15  45
 155 ben  16  17  18
 156 ben  16  17  19
 157 prop tor  16  17  19  20
 158 prop tor  16  17  19  23
 159 ben  16  38  25
 160 ben  16  38  37
 161 ben  17  16  38
 162 prop tor  17  16  38  25
 163 prop tor  17  16  38  37
 164 ben  17  19  20
 165 prop tor  17  19  20  21
 166 prop tor  17  19  20  22
 167 prop tor  17  19  20  46
 168 ben  17  19  23
 169 prop tor  17  19  23  24
 170 prop tor  17  19  23  25
 171 ben  18  17  19
 172 prop tor  18  17  19  20
 173 prop tor  18  17  19  23
 174 ben  19  20  21
 175 prop tor  19  20  21  47
 176 prop tor  19  20  21  48
 177 prop tor  19  20  21  49
 178 ben  19  20  22
 179 prop tor  19  20  22  50
 180 prop tor  19  20  22  51
 181 prop tor  19  20  22  52
 182 ben  19  20  46
 183 ben  19  23  24
 184 ben  19  23  25
 185 prop tor  19  23  25  26
 186 prop tor  19  23  25  38
 187 ben  20  19  23
 188 prop tor  20  19  23  24
 189 prop tor  20  19  23  25
 190 ben  20  21  47
 191 ben  20  21  48
 192 ben  20  21  49
 193 ben  20  22  50
 194 ben  20  22  51
 195 ben  20  22  52
 196 ben  21  20  22
 197 prop tor  21  20  22  50
 198 prop tor  21  20  22  51
 199 prop tor  21  20  22  52
 200 ben  21  20  46
 201 prop tor  22  20  21  47
 202 prop tor  22  20  21  48
 203 prop tor  22  20  21  49
 204 ben  22  20  46
 205 prop tor  23  19  20  21
 206 prop tor  23  19  20  22
 207 prop tor  23  19  20  46
 208 ben  23  25  26
 209 prop tor  23  25  26  27
 210 prop tor  23  25  26  53
 211 ben  23  25  38
 212 prop tor  23  25  38  16
 213 prop tor  23  25  38  37
 214 ben  24  23  25
 215 prop tor  24  23  25  26
 216 prop tor  24  23  25  38
 217 ben  25  26  27
 218 prop tor  25  26  27  28
 219 prop tor  25  26  27  54
 220 ben  25  26  53
 221 ben  25  38  37
 222 ben  26  25  38
 223 prop tor  26  25  38  16
 224 prop tor  26  25  38  37
 225 ben  26  27  28
 226 prop tor  26  27  28  29
 227 prop tor  26  27  28  37
 228 ben  26  27  54
 229 ben  27  26  53
 230 ben  27  28  29
 231 prop tor  27  28  29  30
 232 prop tor  27  28  29  36
 233 ben  27  28  37
 234 prop tor  27  28  37  13
 235 prop tor  27  28  37  38
 236 ben  28  27  54
 237 ben  28  29  30
 238 prop tor  28  29  30  31
 239 prop tor  28  29  30  55
 240 ben  28  29  36
 241 prop tor  28  29  36  12
 242 prop tor  28  29  36  35
 243 ben  28  37  38
 244 prop tor  28  37  38  16
 245 prop tor  28  37  38  25
 246 ben  29  28  37
 247 prop tor  29  28  37  13
 248 prop tor  29  28  37  38
 249 ben  29  30  31
 250 prop tor  29  30  31  32
 251 prop tor  29  30  31  56
 252 ben  29  30  55
 253 ben  29  36  35
 254 ben  30  29  36
 255 prop tor  30  29  36  12
 256 prop tor  30  29  36  35
 257 ben  30  31  32
 258 prop tor  30  31  32  33
 259 prop tor  30  31  32  35
 260 ben  30  31  56
 261 ben  31  30  55
 262 ben  31  32  33
 263 prop tor  31  32  33   6
 264 prop tor  31  32  33  34
 265 ben  31  32  35
 266 prop tor  31  32  35   9
 267 prop tor  31  32  35  36
 268 ben  32  31  56
 269 ben  32  33  34
 270 ben  32  35  36
 271 prop tor  32  35  36  12
 272 prop tor  32  35  36  29
 273 prop tor  33   6   7   8
 274 prop tor  33   6   7   9
 275 ben  33  32  35
 276 prop tor  33  32  35   9
 277 prop tor  33  32  35  36
 278 prop tor  35   9  10  11
 279 prop tor  35   9  10  42
 280 prop tor  35  32  33   6
 281 prop tor  35  32  33  34
 282 prop tor  36  12  13  14
 283 prop tor  36  12  13  37
 284 prop tor  36  29  30  31
 285 prop tor  36  29  30  55
 286 prop tor  37  13  14  15
 287 prop tor  37  13  14  44
 288 prop tor  37  28  29  30
 289 prop tor  37  28  29  36
 290 prop tor  38  16  17  18
 291 prop tor  38  16  17  19
 292 prop tor  38  25  26  27
 293 prop tor  38  25  26  53
 294 prop tor  39   1   2   3
 295 ben  39   1  40
 296 ben  39   1  41
 297 prop tor  40   1   2   3
 298 ben  40   1  41
 299 prop tor  41   1   2   3
 300 prop tor  42  10  11  12
 301 prop tor  42  10  11  43
 302 prop tor  43  11  12  13
 303 prop tor  43  11  12  36
 304 prop tor  44  14  15  16
 305 prop tor  44  14  15  45
 306 prop tor  45  15  16  17
 307 prop tor  45  15  16  38
 308 prop tor  46  20  21  47
 309 prop tor  46  20  21  48
 310 prop tor  46  20  21  49
 311 prop tor  46  20  22  50
 312 prop tor  46  20  22  51
 313 prop tor  46  20  22  52
 314 ben  47  21  48
 315 ben  47  21  49
 316 ben  48  21  49
 317 ben  50  22  51
 318 ben  50  22  52
 319 ben  51  22  52
 320 prop tor  53  26  27  28
 321 prop tor  53  26  27  54
 322 prop tor  54  27  28  29
 323 prop tor  54  27  28  37
 324 prop tor  55  30  31  32
 325 prop tor  55  30  31  56
 326 prop tor  56  31  32  33
 327 prop tor  56  31  32  35
 328 lin bend prop tor   2   1   4   3
 329 lin bend prop tor   2   1   4   5
 330 lin bend prop tor  39   1   4   3
 331 lin bend prop tor  39   1   4   5
 332 lin bend prop tor  40   1   4   3
 333 lin bend prop tor  40   1   4   5
 334 lin bend prop tor  41   1   4   3
 335 lin bend prop tor  41   1   4   5
 336 lin bend prop tor   2   3   6   7
 337 lin bend prop tor   2   3   6  33
 nber bend=             110
 nber lin bend=           2
 nber prop tor=         165
 nber impr tor=           0
 nber tot redund int=         337
 Eigenvalues of G in red int coords
    Gval -0.00000000 -0.00000000 -0.00000000 -0.00000000 -0.00000000 -0.00000000 -0.00000000 -0.00000000
    Gval -0.00000000 -0.00000000 -0.00000000 -0.00000000 -0.00000000 -0.00000000 -0.00000000 -0.00000000
    Gval -0.00000000 -0.00000000 -0.00000000 -0.00000000 -0.00000000 -0.00000000 -0.00000000 -0.00000000
    Gval -0.00000000 -0.00000000 -0.00000000 -0.00000000 -0.00000000 -0.00000000 -0.00000000 -0.00000000
    Gval -0.00000000 -0.00000000 -0.00000000 -0.00000000 -0.00000000 -0.00000000 -0.00000000 -0.00000000
    Gval -0.00000000 -0.00000000 -0.00000000 -0.00000000 -0.00000000 -0.00000000 -0.00000000 -0.00000000
    Gval -0.00000000 -0.00000000 -0.00000000 -0.00000000 -0.00000000 -0.00000000 -0.00000000 -0.00000000
    Gval -0.00000000 -0.00000000 -0.00000000 -0.00000000 -0.00000000 -0.00000000 -0.00000000 -0.00000000
    Gval -0.00000000 -0.00000000 -0.00000000 -0.00000000 -0.00000000 -0.00000000 -0.00000000 -0.00000000
    Gval -0.00000000 -0.00000000 -0.00000000 -0.00000000 -0.00000000 -0.00000000 -0.00000000 -0.00000000
    Gval -0.00000000 -0.00000000 -0.00000000 -0.00000000 -0.00000000 -0.00000000 -0.00000000 -0.00000000
    Gval  0.00000000  0.00000000  0.00000000  0.00000000  0.00000000  0.00000000  0.00000000  0.00000000
    Gval  0.00000000  0.00000000  0.00000000  0.00000000  0.00000000  0.00000000  0.00000000  0.00000000
    Gval  0.00000000  0.00000000  0.00000000  0.00000000  0.00000000  0.00000000  0.00000000  0.00000000
    Gval  0.00000000  0.00000000  0.00000000  0.00000000  0.00000000  0.00000000  0.00000000  0.00000000
    Gval  0.00000000  0.00000000  0.00000000  0.00000000  0.00000000  0.00000000  0.00000000  0.00000000
    Gval  0.00000000  0.00000000  0.00000000  0.00000000  0.00000000  0.00000000  0.00000000  0.00000000
    Gval  0.00000000  0.00000000  0.00000000  0.00000000  0.00000000  0.00000000  0.00000000  0.00000000
    Gval  0.00000000  0.00000000  0.00000000  0.00000000  0.00000000  0.00000000  0.00000000  0.00000000
    Gval  0.00000000  0.00000000  0.00000000  0.00000000  0.00000000  0.00000000  0.00000000  0.00000000
    Gval  0.00000000  0.00000000  0.00000000  0.00000000  0.00000000  0.00000000  0.00000000  0.00000000
    Gval  0.00000000  0.00000000  0.00000000  0.00000000  0.00000000  0.00000000  0.00000000  0.00000000
    Gval  0.00000051  0.00000069  0.00000194  0.00000226  0.00000372  0.00000454  0.00000622  0.00000917
    Gval  0.00001105  0.00001117  0.00001264  0.00001472  0.00001647  0.00001704  0.00001754  0.00001833
    Gval  0.00002125  0.00002323  0.00002353  0.00002429  0.00002542  0.00002687  0.00003069  0.00003358
    Gval  0.00003579  0.00003994  0.00004575  0.00004884  0.00005149  0.00005222  0.00005367  0.00005470
    Gval  0.00005864  0.00006245  0.00006449  0.00006892  0.00007272  0.00007521  0.00008139  0.00008249
    Gval  0.00008586  0.00008667  0.00009311  0.00009448  0.00009533  0.00009597  0.00010109  0.00011767
    Gval  0.00012247  0.00013142  0.00013425  0.00013639  0.00013730  0.00014084  0.00015530  0.00015863
    Gval  0.00015937  0.00016847  0.00016863  0.00018152  0.00020033  0.00021197  0.00022226  0.00022928
    Gval  0.00023030  0.00025962  0.00027260  0.00028526  0.00028930  0.00029665  0.00034175  0.00036037
    Gval  0.00037540  0.00038151  0.00038921  0.00038995  0.00039517  0.00041949  0.00042343  0.00043164
    Gval  0.00043512  0.00044059  0.00044189  0.00046220  0.00046320  0.00046895  0.00046898  0.00049498
    Gval  0.00052810  0.00053361  0.00053716  0.00054045  0.00054511  0.00055411  0.00055585  0.00055602
    Gval  0.00055665  0.00056606  0.00058821  0.00059849  0.00059923  0.00059956  0.00059984  0.00060219
    Gval  0.00061041  0.00064074  0.00064423  0.00064499  0.00064681  0.00066921  0.00069087  0.00069275
    Gval  0.00069777  0.00078267  0.00081061  0.00092096  0.00097843  0.00109335  0.00109427  0.00109497
    Gval  0.00109546  0.00114288  0.00116545  0.00116573  0.00116593  0.00116627  0.00117134  0.00117190
    Gval  0.00118680  0.00119231  0.00121193  0.00129546  0.00131879  0.00147952  0.00151471  0.00171402
    Gval  0.00175242  0.00191345  0.00228032  0.00233875  0.00251859  0.00252073  0.00255775  0.00278327
    Gval  0.00278898  0.00292182  0.00295876  0.00302354  0.00304204  0.00308122  0.00309640  0.00367454
    Gval  0.00367632  0.00372127  0.00372299  0.00394546  0.16816672177.69102408877.21036495************
    Gval************
  5.062020521227981E-007  5.062020521227981E-007
  6.923087007718446E-007  5.062020521227981E-007
  1.939611559942740E-006  5.062020521227981E-007
  2.255770963429643E-006  5.062020521227981E-007
  3.715492728504093E-006  5.062020521227981E-007
  4.538668700069718E-006  5.062020521227981E-007
  6.216910191367519E-006  5.062020521227981E-007
  9.172935854146832E-006  5.062020521227981E-007
  1.105133848756658E-005  5.062020521227981E-007
  1.116678857820397E-005  5.062020521227981E-007
  1.264440193709596E-005  5.062020521227981E-007
  1.471548257364300E-005  5.062020521227981E-007
  1.646523087302858E-005  5.062020521227981E-007
  1.703945506962841E-005  5.062020521227981E-007
  1.754446692401980E-005  5.062020521227981E-007
  1.833456636602852E-005  5.062020521227981E-007
  2.124610521794484E-005  5.062020521227981E-007
[...]
 145 prop tor  14  15  16  38
 146 ben  14  15  45
 147 ben  15  14  44
 148 ben  15  16  17
 149 prop tor  15  16  17  18
 150 prop tor  15  16  17  19
 151 ben  15  16  38
 152 prop tor  15  16  38  25
 153 prop tor  15  16  38  37
 154 ben  16  15  45
 155 ben  16  17  18
 156 ben  16  17  19
 157 prop tor  16  17  19  20
 158 prop tor  16  17  19  23
 159 ben  16  38  25
 160 ben  16  38  37
 161 ben  17  16  38
 162 prop tor  17  16  38  25
 163 prop tor  17  16  38  37
 164 ben  17  19  20
 165 prop tor  17  19  20  21
 166 prop tor  17  19  20  22
 167 prop tor  17  19  20  46
 168 ben  17  19  23
 169 prop tor  17  19  23  24
 170 prop tor  17  19  23  25
 171 ben  18  17  19
 172 prop tor  18  17  19  20
 173 prop tor  18  17  19  23
 174 ben  19  20  21
 175 prop tor  19  20  21  47
 176 prop tor  19  20  21  48
 177 prop tor  19  20  21  49
 178 ben  19  20  22
 179 prop tor  19  20  22  50
 180 prop tor  19  20  22  51
 181 prop tor  19  20  22  52
 182 ben  19  20  46
 183 ben  19  23  24
 184 ben  19  23  25
 185 prop tor  19  23  25  26
 186 prop tor  19  23  25  38
 187 ben  20  19  23
 188 prop tor  20  19  23  24
 189 prop tor  20  19  23  25
 190 ben  20  21  47
 191 ben  20  21  48
 192 ben  20  21  49
 193 ben  20  22  50
 194 ben  20  22  51
 195 ben  20  22  52
 196 ben  21  20  22
 197 prop tor  21  20  22  50
 198 prop tor  21  20  22  51
 199 prop tor  21  20  22  52
 200 ben  21  20  46
 201 prop tor  22  20  21  47
 202 prop tor  22  20  21  48
 203 prop tor  22  20  21  49
 204 ben  22  20  46
 205 prop tor  23  19  20  21
 206 prop tor  23  19  20  22
 207 prop tor  23  19  20  46
 208 ben  23  25  26
 209 prop tor  23  25  26  27
 210 prop tor  23  25  26  53
 211 ben  23  25  38
 212 prop tor  23  25  38  16
 213 prop tor  23  25  38  37
 214 ben  24  23  25
 215 prop tor  24  23  25  26
 216 prop tor  24  23  25  38
 217 ben  25  26  27
 218 prop tor  25  26  27  28
 219 prop tor  25  26  27  54
 220 ben  25  26  53
 221 ben  25  38  37
 222 ben  26  25  38
 223 prop tor  26  25  38  16
 224 prop tor  26  25  38  37
 225 ben  26  27  28
 226 prop tor  26  27  28  29
 227 prop tor  26  27  28  37
 228 ben  26  27  54
 229 ben  27  26  53
 230 ben  27  28  29
 231 prop tor  27  28  29  30
 232 prop tor  27  28  29  36
 233 ben  27  28  37
 234 prop tor  27  28  37  13
 235 prop tor  27  28  37  38
 236 ben  28  27  54
 237 ben  28  29  30
 238 prop tor  28  29  30  31
 239 prop tor  28  29  30  55
 240 ben  28  29  36
 241 prop tor  28  29  36  12
 242 prop tor  28  29  36  35
 243 ben  28  37  38
 244 prop tor  28  37  38  16
 245 prop tor  28  37  38  25
 246 ben  29  28  37
 247 prop tor  29  28  37  13
 248 prop tor  29  28  37  38
 249 ben  29  30  31
 250 prop tor  29  30  31  32
 251 prop tor  29  30  31  56
 252 ben  29  30  55
 253 ben  29  36  35
 254 ben  30  29  36
 255 prop tor  30  29  36  12
 256 prop tor  30  29  36  35
 257 ben  30  31  32
 258 prop tor  30  31  32  33
 259 prop tor  30  31  32  35
 260 ben  30  31  56
 261 ben  31  30  55
 262 ben  31  32  33
 263 prop tor  31  32  33   6
 264 prop tor  31  32  33  34
 265 ben  31  32  35
 266 prop tor  31  32  35   9
 267 prop tor  31  32  35  36
 268 ben  32  31  56
 269 ben  32  33  34
 270 ben  32  35  36
 271 prop tor  32  35  36  12
 272 prop tor  32  35  36  29
 273 prop tor  33   6   7   8
 274 prop tor  33   6   7   9
 275 ben  33  32  35
 276 prop tor  33  32  35   9
 277 prop tor  33  32  35  36
 278 prop tor  35   9  10  11
 279 prop tor  35   9  10  42
 280 prop tor  35  32  33   6
 281 prop tor  35  32  33  34
 282 prop tor  36  12  13  14
 283 prop tor  36  12  13  37
 284 prop tor  36  29  30  31
 285 prop tor  36  29  30  55
 286 prop tor  37  13  14  15
 287 prop tor  37  13  14  44
 288 prop tor  37  28  29  30
 289 prop tor  37  28  29  36
 290 prop tor  38  16  17  18
 291 prop tor  38  16  17  19
 292 prop tor  38  25  26  27
 293 prop tor  38  25  26  53
 294 prop tor  39   1   2   3
 295 ben  39   1  40
 296 ben  39   1  41
 297 prop tor  40   1   2   3
 298 ben  40   1  41
 299 prop tor  41   1   2   3
 300 prop tor  42  10  11  12
 301 prop tor  42  10  11  43
 302 prop tor  43  11  12  13
 303 prop tor  43  11  12  36
 304 prop tor  44  14  15  16
 305 prop tor  44  14  15  45
 306 prop tor  45  15  16  17
 307 prop tor  45  15  16  38
 308 prop tor  46  20  21  47
 309 prop tor  46  20  21  48
 310 prop tor  46  20  21  49
 311 prop tor  46  20  22  50
 312 prop tor  46  20  22  51
 313 prop tor  46  20  22  52
 314 ben  47  21  48
 315 ben  47  21  49
 316 ben  48  21  49
 317 ben  50  22  51
 318 ben  50  22  52
 319 ben  51  22  52
 320 prop tor  53  26  27  28
 321 prop tor  53  26  27  54
 322 prop tor  54  27  28  29
 323 prop tor  54  27  28  37
 324 prop tor  55  30  31  32
 325 prop tor  55  30  31  56
 326 prop tor  56  31  32  33
 327 prop tor  56  31  32  35
 328 lin bend prop tor   2   1   4   3
 329 lin bend prop tor   2   1   4   5
 330 lin bend prop tor  39   1   4   3
 331 lin bend prop tor  39   1   4   5
 332 lin bend prop tor  40   1   4   3
 333 lin bend prop tor  40   1   4   5
 334 lin bend prop tor  41   1   4   3
 335 lin bend prop tor  41   1   4   5
 336 lin bend prop tor   2   3   6   7
 337 lin bend prop tor   2   3   6  33
 nber bend=             110
 nber lin bend=           2
 nber prop tor=         165
 nber impr tor=           0
 nber tot redund int=         337
 Eigenvalues of G in red int coords
    Gval -0.00000000 -0.00000000 -0.00000000 -0.00000000 -0.00000000 -0.00000000 -0.00000000 -0.00000000
    Gval -0.00000000 -0.00000000 -0.00000000 -0.00000000 -0.00000000 -0.00000000 -0.00000000 -0.00000000
    Gval -0.00000000 -0.00000000 -0.00000000 -0.00000000 -0.00000000 -0.00000000 -0.00000000 -0.00000000
    Gval -0.00000000 -0.00000000 -0.00000000 -0.00000000 -0.00000000 -0.00000000 -0.00000000 -0.00000000
    Gval -0.00000000 -0.00000000 -0.00000000 -0.00000000 -0.00000000 -0.00000000 -0.00000000 -0.00000000
    Gval -0.00000000 -0.00000000 -0.00000000 -0.00000000 -0.00000000 -0.00000000 -0.00000000 -0.00000000
    Gval -0.00000000 -0.00000000 -0.00000000 -0.00000000 -0.00000000 -0.00000000 -0.00000000 -0.00000000
    Gval -0.00000000 -0.00000000 -0.00000000 -0.00000000 -0.00000000 -0.00000000 -0.00000000 -0.00000000
    Gval -0.00000000 -0.00000000 -0.00000000 -0.00000000 -0.00000000 -0.00000000 -0.00000000 -0.00000000
    Gval -0.00000000 -0.00000000 -0.00000000 -0.00000000 -0.00000000 -0.00000000 -0.00000000 -0.00000000
    Gval -0.00000000 -0.00000000 -0.00000000 -0.00000000 -0.00000000 -0.00000000 -0.00000000 -0.00000000
    Gval -0.00000000 -0.00000000  0.00000000  0.00000000  0.00000000  0.00000000  0.00000000  0.00000000
    Gval  0.00000000  0.00000000  0.00000000  0.00000000  0.00000000  0.00000000  0.00000000  0.00000000
    Gval  0.00000000  0.00000000  0.00000000  0.00000000  0.00000000  0.00000000  0.00000000  0.00000000
    Gval  0.00000000  0.00000000  0.00000000  0.00000000  0.00000000  0.00000000  0.00000000  0.00000000
    Gval  0.00000000  0.00000000  0.00000000  0.00000000  0.00000000  0.00000000  0.00000000  0.00000000
    Gval  0.00000000  0.00000000  0.00000000  0.00000000  0.00000000  0.00000000  0.00000000  0.00000000
    Gval  0.00000000  0.00000000  0.00000000  0.00000000  0.00000000  0.00000000  0.00000000  0.00000000
    Gval  0.00000000  0.00000000  0.00000000  0.00000000  0.00000000  0.00000000  0.00000000  0.00000000
    Gval  0.00000000  0.00000000  0.00000000  0.00000000  0.00000000  0.00000000  0.00000000  0.00000000
    Gval  0.00000000  0.00000000  0.00000000  0.00000000  0.00000000  0.00000000  0.00000000  0.00000000
    Gval  0.00000000  0.00000000  0.00000000  0.00000000  0.00000000  0.00000000  0.00000000  0.00000000
    Gval  0.00000051  0.00000069  0.00000194  0.00000226  0.00000372  0.00000454  0.00000622  0.00000917
    Gval  0.00001105  0.00001117  0.00001264  0.00001472  0.00001647  0.00001704  0.00001754  0.00001833
    Gval  0.00002125  0.00002323  0.00002353  0.00002429  0.00002542  0.00002687  0.00003069  0.00003358
    Gval  0.00003579  0.00003994  0.00004575  0.00004884  0.00005149  0.00005222  0.00005367  0.00005470
    Gval  0.00005864  0.00006245  0.00006449  0.00006892  0.00007272  0.00007521  0.00008139  0.00008249
    Gval  0.00008586  0.00008667  0.00009311  0.00009448  0.00009533  0.00009597  0.00010109  0.00011767
    Gval  0.00012247  0.00013142  0.00013425  0.00013639  0.00013730  0.00014084  0.00015530  0.00015863
    Gval  0.00015937  0.00016847  0.00016863  0.00018152  0.00020033  0.00021197  0.00022226  0.00022928
    Gval  0.00023030  0.00025962  0.00027260  0.00028526  0.00028930  0.00029665  0.00034175  0.00036037
    Gval  0.00037540  0.00038151  0.00038921  0.00038995  0.00039517  0.00041949  0.00042343  0.00043164
    Gval  0.00043512  0.00044059  0.00044189  0.00046220  0.00046320  0.00046895  0.00046898  0.00049498
    Gval  0.00052810  0.00053361  0.00053716  0.00054045  0.00054511  0.00055411  0.00055585  0.00055602
    Gval  0.00055665  0.00056606  0.00058821  0.00059849  0.00059923  0.00059956  0.00059984  0.00060219
    Gval  0.00061041  0.00064074  0.00064423  0.00064499  0.00064681  0.00066921  0.00069087  0.00069275
    Gval  0.00069777  0.00078267  0.00081061  0.00092096  0.00097843  0.00109335  0.00109427  0.00109497
    Gval  0.00109546  0.00114288  0.00116545  0.00116573  0.00116593  0.00116627  0.00117134  0.00117190
    Gval  0.00118680  0.00119231  0.00121193  0.00129546  0.00131879  0.00147952  0.00151471  0.00171402
    Gval  0.00175242  0.00191345  0.00228032  0.00233875  0.00251859  0.00252073  0.00255775  0.00278327
    Gval  0.00278898  0.00292182  0.00295876  0.00302354  0.00304204  0.00308122  0.00309640  0.00367454
    Gval  0.00367632  0.00372127  0.00372299  0.00394546  0.16816672177.69102512877.21036832************
    Gval************
  5.062021981554218E-007  5.062021981554218E-007
  6.923095232849734E-007  5.062021981554218E-007
  1.939611560037455E-006  5.062021981554218E-007
  2.255770968842298E-006  5.062021981554218E-007
  3.715493063047020E-006  5.062021981554218E-007
  4.538668700678792E-006  5.062021981554218E-007
  6.216910192910330E-006  5.062021981554218E-007
  9.172935854162226E-006  5.062021981554218E-007
  1.105133849137949E-005  5.062021981554218E-007
  1.116678857827465E-005  5.062021981554218E-007
  1.264440198334945E-005  5.062021981554218E-007
  1.471548257368743E-005  5.062021981554218E-007
  1.646523087320921E-005  5.062021981554218E-007
  1.703945507119750E-005  5.062021981554218E-007
  1.754446692418411E-005  5.062021981554218E-007
  1.833456636608720E-005  5.062021981554218E-007
  2.124610521796041E-005  5.062021981554218E-007
  2.322877332911539E-005  5.062021981554218E-007
  2.353183596051791E-005  5.062021981554218E-007
  2.429288006611023E-005  5.062021981554218E-007
  2.542088811471803E-005  5.062021981554218E-007
  2.687162367272370E-005  5.062021981554218E-007
  3.069134064733403E-005  5.062021981554218E-007
  3.357895107548487E-005  5.062021981554218E-007
  3.578666458546248E-005  5.062021981554218E-007
  3.993966593552903E-005  5.062021981554218E-007
  4.575451935891597E-005  5.062021981554218E-007
  4.883511819154554E-005  5.062021981554218E-007
  5.148966620571153E-005  5.062021981554218E-007
  5.222232650168677E-005  5.062021981554218E-007
  5.366553022090824E-005  5.062021981554218E-007
  5.469955555975864E-005  5.062021981554218E-007
  5.863598769770789E-005  5.062021981554218E-007
  6.244604418640392E-005  5.062021981554218E-007
  6.448768062439008E-005  5.062021981554218E-007
  6.891525886588516E-005  5.062021981554218E-007
  7.271602942817379E-005  5.062021981554218E-007
  7.520777612491024E-005  5.062021981554218E-007
  8.139490108341166E-005  5.062021981554218E-007
  8.249110957499562E-005  5.062021981554218E-007
  8.586365335030195E-005  5.062021981554218E-007
  8.666712792470258E-005  5.062021981554218E-007
  9.311370591174383E-005  5.062021981554218E-007
  9.447995755442853E-005  5.062021981554218E-007
  9.533360881262097E-005  5.062021981554218E-007
  9.597304785436275E-005  5.062021981554218E-007
  1.010899900265076E-004  5.062021981554218E-007
  1.176695568985913E-004  5.062021981554218E-007
  1.224711030194799E-004  5.062021981554218E-007
  1.314216615760673E-004  5.062021981554218E-007
  1.342516396842742E-004  5.062021981554218E-007
  1.363876123014253E-004  5.062021981554218E-007
  1.372977713944458E-004  5.062021981554218E-007
  1.408401778946200E-004  5.062021981554218E-007
  1.552990440173239E-004  5.062021981554218E-007
  1.586331461676949E-004  5.062021981554218E-007
  1.593688062062299E-004  5.062021981554218E-007
  1.684718493551870E-004  5.062021981554218E-007
  1.686265099583765E-004  5.062021981554218E-007
  1.815192339103261E-004  5.062021981554218E-007
  2.003312829129733E-004  5.062021981554218E-007
  2.119727270821778E-004  5.062021981554218E-007
  2.222608112418805E-004  5.062021981554218E-007
  2.292778421412083E-004  5.062021981554218E-007
  2.302976994415877E-004  5.062021981554218E-007
  2.596212199093913E-004  5.062021981554218E-007
  2.726034414248410E-004  5.062021981554218E-007
  2.852623160922906E-004  5.062021981554218E-007
  2.893042564434432E-004  5.062021981554218E-007
  2.966540170361147E-004  5.062021981554218E-007
  3.417481406469685E-004  5.062021981554218E-007
  3.603652783068145E-004  5.062021981554218E-007
  3.753984780060647E-004  5.062021981554218E-007
  3.815058561338999E-004  5.062021981554218E-007
  3.892084480601959E-004  5.062021981554218E-007
  3.899478238783913E-004  5.062021981554218E-007
  3.951677269831497E-004  5.062021981554218E-007
  4.194881931121488E-004  5.062021981554218E-007
  4.234323378586982E-004  5.062021981554218E-007
  4.316390521603355E-004  5.062021981554218E-007
  4.351166123690307E-004  5.062021981554218E-007
  4.405944401003147E-004  5.062021981554218E-007
  4.418895733694331E-004  5.062021981554218E-007
  4.621953928990231E-004  5.062021981554218E-007
  4.631981065783367E-004  5.062021981554218E-007
  4.689476202491213E-004  5.062021981554218E-007
  4.689756815513667E-004  5.062021981554218E-007
  4.949781333434215E-004  5.062021981554218E-007
  5.281035841969090E-004  5.062021981554218E-007
  5.336094551263350E-004  5.062021981554218E-007
  5.371567220597286E-004  5.062021981554218E-007
  5.404468760549660E-004  5.062021981554218E-007
  5.451111132301973E-004  5.062021981554218E-007
  5.541143936922268E-004  5.062021981554218E-007
  5.558524070446017E-004  5.062021981554218E-007
  5.560178023425930E-004  5.062021981554218E-007
  5.566467021886815E-004  5.062021981554218E-007
  5.660644397175005E-004  5.062021981554218E-007
  5.882057579434050E-004  5.062021981554218E-007
  5.984911566587410E-004  5.062021981554218E-007
  5.992287598115120E-004  5.062021981554218E-007
  5.995620737151798E-004  5.062021981554218E-007
  5.998392042993288E-004  5.062021981554218E-007
  6.021870974852446E-004  5.062021981554218E-007
  6.104067740545054E-004  5.062021981554218E-007
  6.407381111131758E-004  5.062021981554218E-007
  6.442275249689865E-004  5.062021981554218E-007
  6.449930633258961E-004  5.062021981554218E-007
  6.468106333210210E-004  5.062021981554218E-007
  6.692127366827573E-004  5.062021981554218E-007
  6.908685109595282E-004  5.062021981554218E-007
  6.927539030499863E-004  5.062021981554218E-007
  6.977701662010203E-004  5.062021981554218E-007
  7.826663213026019E-004  5.062021981554218E-007
  8.106075440135064E-004  5.062021981554218E-007
  9.209638585028992E-004  5.062021981554218E-007
  9.784333949836041E-004  5.062021981554218E-007
  1.093346986308444E-003  5.062021981554218E-007
  1.094273508957391E-003  5.062021981554218E-007
  1.094972453767604E-003  5.062021981554218E-007
  1.095463906256270E-003  5.062021981554218E-007
  1.142875099366507E-003  5.062021981554218E-007
  1.165452155108995E-003  5.062021981554218E-007
  1.165725942992610E-003  5.062021981554218E-007
  1.165933483913058E-003  5.062021981554218E-007
  1.166270257271838E-003  5.062021981554218E-007
  1.171344122324113E-003  5.062021981554218E-007
  1.171904086197331E-003  5.062021981554218E-007
  1.186798883672570E-003  5.062021981554218E-007
  1.192312618852924E-003  5.062021981554218E-007
  1.211926536990640E-003  5.062021981554218E-007
  1.295464640575347E-003  5.062021981554218E-007
  1.318792918533563E-003  5.062021981554218E-007
  1.479523800867734E-003  5.062021981554218E-007
  1.514708824734673E-003  5.062021981554218E-007
  1.714018037901448E-003  5.062021981554218E-007
  1.752420639770121E-003  5.062021981554218E-007
  1.913451002333732E-003  5.062021981554218E-007
  2.280321605396196E-003  5.062021981554218E-007
  2.338752697181272E-003  5.062021981554218E-007
  2.518591835271360E-003  5.062021981554218E-007
  2.520734640938944E-003  5.062021981554218E-007
  2.557748194073718E-003  5.062021981554218E-007
  2.783268504032480E-003  5.062021981554218E-007
  2.788983768420771E-003  5.062021981554218E-007
  2.921824798737975E-003  5.062021981554218E-007
  2.958764633809941E-003  5.062021981554218E-007
  3.023544775125933E-003  5.062021981554218E-007
  3.042038016016004E-003  5.062021981554218E-007
  3.081222027545773E-003  5.062021981554218E-007
  3.096395260862674E-003  5.062021981554218E-007
  3.674538339410685E-003  5.062021981554218E-007
  3.676318712495253E-003  5.062021981554218E-007
  3.721267112938073E-003  5.062021981554218E-007
  3.722994279109726E-003  5.062021981554218E-007
  3.945458471415872E-003  5.062021981554218E-007
  0.168166717645668       5.062021981554218E-007
   177.691025120700       5.062021981554218E-007
   877.210368323103       5.062021981554218E-007
   4033.64665606636       5.062021981554218E-007
   19010.0112827673       5.062021981554218E-007
 cut=1d-8, nber non-redundant internal coords=         161
 Check on Eigenvals of non-red overlap matrix:
  0.00000051  0.00000069  0.00000194  0.00000226  0.00000372  0.00000454  0.00000622  0.00000917
  0.00001105  0.00001117  0.00001264  0.00001472  0.00001647  0.00001704  0.00001754  0.00001833
  0.00002125  0.00002323  0.00002353  0.00002429  0.00002542  0.00002687  0.00003069  0.00003358
  0.00003579  0.00003994  0.00004575  0.00004884  0.00005149  0.00005222  0.00005367  0.00005470
  0.00005864  0.00006245  0.00006449  0.00006892  0.00007272  0.00007521  0.00008139  0.00008249
  0.00008586  0.00008667  0.00009311  0.00009448  0.00009533  0.00009597  0.00010109  0.00011767
  0.00012247  0.00013142  0.00013425  0.00013639  0.00013730  0.00014084  0.00015530  0.00015863
  0.00015937  0.00016847  0.00016863  0.00018152  0.00020033  0.00021197  0.00022226  0.00022928
  0.00023030  0.00025962  0.00027260  0.00028526  0.00028930  0.00029665  0.00034175  0.00036037
  0.00037540  0.00038151  0.00038921  0.00038995  0.00039517  0.00041949  0.00042343  0.00043164
  0.00043512  0.00044059  0.00044189  0.00046220  0.00046320  0.00046895  0.00046898  0.00049498
  0.00052810  0.00053361  0.00053716  0.00054045  0.00054511  0.00055411  0.00055585  0.00055602
  0.00055665  0.00056606  0.00058821  0.00059849  0.00059923  0.00059956  0.00059984  0.00060219
  0.00061041  0.00064074  0.00064423  0.00064499  0.00064681  0.00066921  0.00069087  0.00069275
  0.00069777  0.00078267  0.00081061  0.00092096  0.00097843  0.00109335  0.00109427  0.00109497
  0.00109546  0.00114288  0.00116545  0.00116573  0.00116593  0.00116627  0.00117134  0.00117190
  0.00118680  0.00119231  0.00121193  0.00129546  0.00131879  0.00147952  0.00151471  0.00171402
  0.00175242  0.00191345  0.00228032  0.00233875  0.00251859  0.00252073  0.00255775  0.00278327
  0.00278898  0.00292182  0.00295876  0.00302354  0.00304204  0.00308122  0.00309640  0.00367454
  0.00367632  0.00372127  0.00372299  0.00394546  0.16816672177.69102512877.21036832************
************
 int defn changed for coord         336
           2           3           6           5
           2           3           6           7
