 Enter ifcurve (0=recti, 1=orth curvi, 2=apprx curvi, -1 = skip
 And atom ordering flag, 0= never changes, 1= use the first order thenceforth,
  2= deduce it (does read on fail), 3= always read it
 Reading file: 
 ./IDT-PDI_1_C0S1.log                                                           
                                          
  Entering Gaussian System, Link 0=g16                                          
  
 Gaussian format, type: g94, g98, g03= F F F
  #P Geom=AllCheck Guess=TCheck SCRF=Check GenChk RB3LYP TD(FC,Read)/6-3    
 energy type= TD      
 Original G94 input coords:
  6  2.506890  1.965824  0.981979
  6  2.942845  0.693904  0.245837
  6  4.151876  0.909429 -0.671504
  7  3.152751 -0.447417  1.183821
  6  2.292523 -1.557285  1.036979
  8  1.420370 -1.569713  0.177140
  6  2.495534 -2.683999  1.958645
  6  1.672675 -3.806394  1.856031
  6  1.837390 -4.882854  2.707158
  6  2.834511 -4.895277  3.707971
  6  3.017374 -6.017093  4.605529
  6  2.204163 -7.174674  4.532652
  6  2.383645 -8.234948  5.387101
  6  3.386592 -8.207494  6.369628
  6  3.528081 -9.357181  7.242604
  8  2.834261-10.357783  7.187550
  7  4.575935 -9.272890  8.234045
  6  4.820460-10.294046  9.127132
  6  4.205847-11.499509  9.274713
  6  4.638865-12.411423 10.287468
  6  5.657553-12.301832 11.254157
  6  5.752375-13.427865 12.057681
  6  4.820586-14.427716 11.738597
 16  3.804318-13.964595 10.415120
  6  4.962305-15.552913 12.589804
  6  4.263159-16.778274 12.648209
  6  4.639620-17.690858 13.604741
  6  5.708918-17.396394 14.508166
  6  6.407299-16.176842 14.452417
  6  6.033016-15.260462 13.495358
  6  6.622033-13.871019 13.221338
  6  8.108396-13.958420 12.811111
  6  6.451861-12.935402 14.438266
  6  5.847894-18.536457 15.366179
 16  6.864283-18.999838 16.691886
  6  6.031583-20.524858 16.802093
  6  5.031313-20.662679 15.870368
  6  4.926842-19.520158 15.046461
  6  4.054671-19.081963 13.882909
  6  2.567885-18.996045 14.292229
  6  4.224660-20.017702 12.665921
  6  5.468243 -8.114191  8.387694
  8  6.319218 -8.147922  9.259687
  6  5.246578 -7.025065  7.471765
  6  6.069420 -5.888043  7.567620
  6  5.901359 -4.822740  6.719880
  6  4.898024 -4.820170  5.716923
  6  4.716339 -3.700420  4.820309
  6  5.522971 -2.541308  4.883391
  6  5.339448 -1.477677  4.020579
  6  4.339962 -1.512692  3.047121
  6  4.172926 -0.363423  2.145662
  8  4.886093  0.630951  2.219790
  6  3.507022 -2.647606  2.942690
  6  3.687341 -3.758327  3.831819
  6  4.046132 -5.961962  5.595965
  6  4.227813 -7.079203  6.489652
  1  2.226821  2.727293  0.248038
  1  3.306465  2.359025  1.608375
  1  1.632361  1.766564  1.607042
  1  2.109979  0.358004 -0.368179
  1  5.019790  1.258279 -0.113537
  1  3.897842  1.654766 -1.431027
  1  4.411904 -0.018512 -1.187759
  1  0.904463 -3.809659  1.093285
  1  1.177178 -5.730641  2.590989
  1  1.420878 -7.237135  3.791481
  1  1.755495 -9.114005  5.320798
  1  5.642613-10.022095  9.777882
  1  3.388356-11.779586  8.630424
  1  6.282529-11.424378 11.339921
  1  3.455362-16.982671 11.954515
  1  7.215114-15.972568 15.146136
  1  8.244030-14.617016 11.950969
  1  8.711637-14.342694 13.637245
  1  8.489133-12.968505 12.548878
  1  5.404952-12.863719 14.739646
  1  6.809592-11.931282 14.198613
  1  7.030307-13.304370 15.288756
  1  6.336461-21.233195 17.557386
  1  4.414988-21.548564 15.799323
  1  2.431495-18.333906 15.149556
  1  2.189634-19.985967 14.559458
  1  1.961721-18.617684 13.465397
  1  5.271195-20.084961 12.362149
  1  3.642267-19.654025 11.815742
  1  3.872162-21.023483 12.907952
  1  6.839349 -5.876027  8.328471
  1  6.555417 -3.969964  6.828402
  1  6.309449 -2.469687  5.621256
  1  5.964513 -0.595690  4.079535
 nber atoms=          91
  Total Energy, E(TD-HF/TD-DFT) =  -3095.17055342                               
  
          32          49 "  -3095.17055342"
After scan for Atom:   Atom  AN      X      Y      Z        X      Y      Z        X      Y      Z   
After scan for Atom:   Atom  AN      X      Y      Z        X      Y      Z        X      Y      Z   
After scan for Atom:   Atom  AN      X      Y      Z        X      Y      Z        X      Y      Z   
After scan for Atom:   Atom  AN      X      Y      Z        X      Y      Z        X      Y      Z   
After scan for Atom:   Atom  AN      X      Y      Z        X      Y      Z        X      Y      Z   
After scan for Atom:   Atom  AN      X      Y      Z        X      Y      Z        X      Y      Z   
After scan for Atom:   Atom  AN      X      Y      Z        X      Y      Z        X      Y      Z   
After scan for Atom:   Atom  AN      X      Y      Z        X      Y      Z        X      Y      Z   
After scan for Atom:   Atom  AN      X      Y      Z        X      Y      Z        X      Y      Z   
After scan for Atom:   Atom  AN      X      Y      Z        X      Y      Z        X      Y      Z   
After scan for Atom:   Atom  AN      X      Y      Z        X      Y      Z        X      Y      Z   
After scan for Atom:   Atom  AN      X      Y      Z        X      Y      Z        X      Y      Z   
After scan for Atom:   Atom  AN      X      Y      Z        X      Y      Z        X      Y      Z   
After scan for Atom:   Atom  AN      X      Y      Z        X      Y      Z        X      Y      Z   
After scan for Atom:   Atom  AN      X      Y      Z        X      Y      Z        X      Y      Z   
After scan for Atom:   Atom  AN      X      Y      Z        X      Y      Z        X      Y      Z   
After scan for Atom:   Atom  AN      X      Y      Z        X      Y      Z        X      Y      Z   
After scan for Atom:   Atom  AN      X      Y      Z        X      Y      Z        X      Y      Z   
After scan for Atom:   Atom  AN      X      Y      Z        X      Y      Z        X      Y      Z   
After scan for Atom:   Atom  AN      X      Y      Z        X      Y      Z        X      Y      Z   
After scan for Atom:   Atom  AN      X      Y      Z        X      Y      Z        X      Y      Z   
After scan for Atom:   Atom  AN      X      Y      Z        X      Y      Z        X      Y      Z   
After scan for Atom:   Atom  AN      X      Y      Z        X      Y      Z        X      Y      Z   
After scan for Atom:   Atom  AN      X      Y      Z        X      Y      Z        X      Y      Z   
After scan for Atom:   Atom  AN      X      Y      Z        X      Y      Z        X      Y      Z   
After scan for Atom:   Atom  AN      X      Y      Z        X      Y      Z        X      Y      Z   
After scan for Atom:   Atom  AN      X      Y      Z        X      Y      Z        X      Y      Z   
After scan for Atom:   Atom  AN      X      Y      Z        X      Y      Z        X      Y      Z   
After scan for Atom:   Atom  AN      X      Y      Z        X      Y      Z        X      Y      Z   
After scan for Atom:   Atom  AN      X      Y      Z        X      Y      Z        X      Y      Z   
After scan for Atom:   Atom  AN      X      Y      Z        X      Y      Z        X      Y      Z   
After scan for Atom:   Atom  AN      X      Y      Z        X      Y      Z        X      Y      Z   
After scan for Atom:   Atom  AN      X      Y      Z        X      Y      Z        X      Y      Z   
After scan for Atom:   Atom  AN      X      Y      Z        X      Y      Z        X      Y      Z   
After scan for Atom:   Atom  AN      X      Y      Z        X      Y      Z        X      Y      Z   
After scan for Atom:   Atom  AN      X      Y      Z        X      Y      Z        X      Y      Z   
After scan for Atom:   Atom  AN      X      Y      Z        X      Y      Z        X      Y      Z   
After scan for Atom:   Atom  AN      X      Y      Z        X      Y      Z        X      Y      Z   
After scan for Atom:   Atom  AN      X      Y      Z        X      Y      Z        X      Y      Z   
After scan for Atom:   Atom  AN      X      Y      Z        X      Y      Z        X      Y      Z   
After scan for Atom:   Atom  AN      X      Y      Z        X      Y      Z        X      Y      Z   
After scan for Atom:   Atom  AN      X      Y      Z        X      Y      Z        X      Y      Z   
After scan for Atom:   Atom  AN      X      Y      Z        X      Y      Z        X      Y      Z   
After scan for Atom:   Atom  AN      X      Y      Z        X      Y      Z        X      Y      Z   
After scan for Atom:   Atom  AN      X      Y      Z        X      Y      Z        X      Y      Z   
After scan for Atom:   Atom  AN      X      Y      Z        X      Y      Z        X      Y      Z   
After scan for Atom:   Atom  AN      X      Y      Z        X      Y      Z        X      Y      Z   
After scan for Atom:   Atom  AN      X      Y      Z        X      Y      Z        X      Y      Z   
After scan for Atom:   Atom  AN      X      Y      Z        X      Y      Z        X      Y      Z   
After scan for Atom:   Atom  AN      X      Y      Z        X      Y      Z        X      Y      Z   
After scan for Atom:   Atom  AN      X      Y      Z        X      Y      Z        X      Y      Z   
After scan for Atom:   Atom  AN      X      Y      Z        X      Y      Z        X      Y      Z   
After scan for Atom:   Atom  AN      X      Y      Z        X      Y      Z        X      Y      Z   
After scan for Atom:   Atom  AN      X      Y      Z        X      Y      Z        X      Y      Z   
After scan for Atom:   Atom  AN      X      Y      Z        X      Y      Z        X      Y      Z   
After scan for Atom:   Atom  AN      X      Y      Z        X      Y      Z        X      Y      Z   
After scan for Atom:   Atom  AN      X      Y      Z        X      Y      Z        X      Y      Z   
After scan for Atom:   Atom  AN      X      Y      Z        X      Y      Z        X      Y      Z   
After scan for Atom:   Atom  AN      X      Y      Z        X      Y      Z        X      Y      Z   
After scan for Atom:   Atom  AN      X      Y      Z        X      Y      Z        X      Y      Z   
After scan for Atom:   Atom  AN      X      Y      Z        X      Y      Z        X      Y      Z   
After scan for Atom:   Atom  AN      X      Y      Z        X      Y      Z        X      Y      Z   
After scan for Atom:   Atom  AN      X      Y      Z        X      Y      Z        X      Y      Z   
After scan for Atom:   Atom  AN      X      Y      Z        X      Y      Z        X      Y      Z   
After scan for Atom:   Atom  AN      X      Y      Z        X      Y      Z        X      Y      Z   
After scan for Atom:   Atom  AN      X      Y      Z        X      Y      Z        X      Y      Z   
After scan for Atom:   Atom  AN      X      Y      Z        X      Y      Z        X      Y      Z   
After scan for Atom:   Atom  AN      X      Y      Z        X      Y      Z        X      Y      Z   
After scan for Atom:   Atom  AN      X      Y      Z        X      Y      Z        X      Y      Z   
After scan for Atom:   Atom  AN      X      Y      Z        X      Y      Z        X      Y      Z   
After scan for Atom:   Atom  AN      X      Y      Z        X      Y      Z        X      Y      Z   
After scan for Atom:   Atom  AN      X      Y      Z        X      Y      Z        X      Y      Z   
After scan for Atom:   Atom  AN      X      Y      Z        X      Y      Z        X      Y      Z   
After scan for Atom:   Atom  AN      X      Y      Z        X      Y      Z        X      Y      Z   
After scan for Atom:   Atom  AN      X      Y      Z        X      Y      Z        X      Y      Z   
After scan for Atom:   Atom  AN      X      Y      Z        X      Y      Z        X      Y      Z   
After scan for Atom:   Atom  AN      X      Y      Z        X      Y      Z        X      Y      Z   
After scan for Atom:   Atom  AN      X      Y      Z        X      Y      Z        X      Y      Z   
After scan for Atom:   Atom  AN      X      Y      Z        X      Y      Z        X      Y      Z   
After scan for Atom:   Atom  AN      X      Y      Z        X      Y      Z        X      Y      Z   
After scan for Atom:   Atom  AN      X      Y      Z        X      Y      Z        X      Y      Z   
After scan for Atom:   Atom  AN      X      Y      Z        X      Y      Z        X      Y      Z   
After scan for Atom:   Atom  AN      X      Y      Z        X      Y      Z        X      Y      Z   
After scan for Atom:   Atom  AN      X      Y      Z        X      Y      Z        X      Y      Z   
After scan for Atom:   Atom  AN      X      Y      Z        X      Y      Z        X      Y      Z   
After scan for Atom:   Atom  AN      X      Y      Z        X      Y      Z        X      Y      Z   
After scan for Atom:   Atom  AN      X      Y      Z        X      Y      Z        X      Y      Z   
After scan for Atom:   Atom  AN      X      Y      Z        X      Y      Z        X      Y      Z   
After scan for Atom:   Atom  AN      X      Y      Z        X      Y      Z        X      Y      Z   
 g94    frequencies=
     0.0    0.0    0.0    0.0    0.0    0.0    5.3    8.1   15.6   17.7
    25.4   30.8   44.4   55.9   58.8   67.4   68.1   77.9   82.9   88.8
    90.0  101.5  105.7  116.1  125.8  148.6  149.2  156.1  168.4  172.6
   192.8  195.3  204.7  207.0  208.4  216.1  229.0  234.6  235.1  237.8
   243.4  246.0  250.4  257.6  260.1  272.1  280.9  289.9  297.2  298.8
   301.7  308.1  319.0  334.9  357.8  362.6  377.8  379.1  397.5  401.6
   418.0  418.8  425.2  435.2  441.2  446.3  452.1  453.7  455.7  461.8
   473.2  477.9  487.8  497.1  499.9  502.7  509.8  512.8  517.1  534.4
   542.9  569.6  573.2  577.4  579.5  582.3  592.4  617.5  624.0  624.4
   630.0  648.5  660.3  665.0  668.3  682.7  692.0  711.0  716.8  720.9
   725.3  729.2  734.2  748.1  752.1  758.6  762.7  771.7  781.8  784.0
   786.0  800.3  803.3  815.5  815.9  820.2  824.2  828.2  832.5  836.5
   842.1  848.6  850.0  889.0  897.2  899.3  901.4  903.1  905.5  909.8
   926.2  943.5  951.7  953.3  955.5  956.2  972.7  976.0  976.8  983.5
   984.8  985.1  988.3 1000.5 1003.6 1029.1 1032.1 1032.7 1057.8 1071.2
  1073.5 1091.8 1096.1 1100.9 1108.5 1129.3 1151.5 1154.2 1155.0 1155.2
  1164.0 1164.6 1170.1 1174.8 1190.0 1200.7 1215.2 1224.0 1227.1 1235.9
  1236.9 1244.0 1249.8 1252.4 1270.0 1273.7 1282.9 1288.1 1297.0 1300.4
  1314.5 1330.1 1351.1 1356.1 1362.9 1367.9 1369.6 1373.8 1378.6 1381.1
  1384.2 1393.5 1396.2 1397.6 1401.7 1402.0 1403.2 1411.3 1424.1 1426.2
  1428.8 1439.5 1451.9 1459.0 1469.2 1474.7 1484.0 1484.9 1485.0 1485.2
  1488.3 1489.6 1489.9 1494.3 1496.3 1503.1 1505.3 1506.6 1506.7 1508.2
  1516.5 1523.7 1524.7 1533.4 1554.5 1559.6 1560.3 1574.2 1588.8 1602.1
  1615.3 1620.5 1625.6 1633.5 1638.1 1682.1 1718.5 1772.1 1967.3 3029.0
  3031.1 3033.0 3033.7 3034.6 3036.3 3086.2 3089.4 3096.7 3100.2 3101.6
  3104.8 3108.8 3109.0 3110.1 3110.5 3111.8 3131.6 3141.3 3176.2 3177.4
  3189.7 3191.8 3192.4 3198.2 3198.8 3207.7 3208.3 3209.9 3220.6 3222.6
  3222.7 3245.1 3246.4
 g94    symmetries=
                                                 A      A      A      A
       A      A      A      A      A      A      A      A      A      A
       A      A      A      A      A      A      A      A      A      A
       A      A      A      A      A      A      A      A      A      A
       A      A      A      A      A      A      A      A      A      A
       A      A      A      A      A      A      A      A      A      A
       A      A      A      A      A      A      A      A      A      A
       A      A      A      A      A      A      A      A      A      A
       A      A      A      A      A      A      A      A      A      A
       A      A      A      A      A      A      A      A      A      A
       A      A      A      A      A      A      A      A      A      A
       A      A      A      A      A      A      A      A      A      A
       A      A      A      A      A      A      A      A      A      A
       A      A      A      A      A      A      A      A      A      A
       A      A      A      A      A      A      A      A      A      A
       A      A      A      A      A      A      A      A      A      A
       A      A      A      A      A      A      A      A      A      A
       A      A      A      A      A      A      A      A      A      A
       A      A      A      A      A      A      A      A      A      A
       A      A      A      A      A      A      A      A      A      A
       A      A      A      A      A      A      A      A      A      A
       A      A      A      A      A      A      A      A      A      A
       A      A      A      A      A      A      A      A      A      A
       A      A      A      A      A      A      A      A      A      A
       A      A      A      A      A      A      A      A      A      A
       A      A      A      A      A      A      A      A      A      A
       A      A      A      A      A      A      A      A      A      A
       A      A      A
 atomic masses:
 12.0000 12.0000 12.0000 14.0031 12.0000 15.9949 12.0000 12.0000 12.0000 12.0000
 12.0000 12.0000 12.0000 12.0000 12.0000 15.9949 14.0031 12.0000 12.0000 12.0000
 12.0000 12.0000 12.0000 31.9721 12.0000 12.0000 12.0000 12.0000 12.0000 12.0000
 12.0000 12.0000 12.0000 12.0000 31.9721 12.0000 12.0000 12.0000 12.0000 12.0000
 12.0000 12.0000 15.9949 12.0000 12.0000 12.0000 12.0000 12.0000 12.0000 12.0000
 12.0000 12.0000 15.9949 12.0000 12.0000 12.0000 12.0000  1.0078  1.0078  1.0078
  1.0078  1.0078  1.0078  1.0078  1.0078  1.0078  1.0078  1.0078  1.0078  1.0078
  1.0078  1.0078  1.0078  1.0078  1.0078  1.0078  1.0078  1.0078  1.0078  1.0078
  1.0078  1.0078  1.0078  1.0078  1.0078  1.0078  1.0078  1.0078  1.0078  1.0078
  1.0078
 looking for force constants in 
 ./IDT-PDI_1_C0S1.fchk                                                          
  
 cant find forces in .fchk file
 NO FORCES: 
 ./IDT-PDI_1_C0S1.log                                                           
                                          
 g94-fc frequencies=

 at 99999: n3=           0
 symm operator            1 :  F  nop=           0
 symm operator            2 :  F  nop=           0
 symm operator            3 :  F  nop=           0
 symm operator            4 :  F  nop=           0
 symm operator            5 :  F  nop=           0
 symm operator            6 :  F  nop=           0
 symm operator            7 :  F  nop=           0
 The point group of the molecule is  C1
 Symmetry rotation matrix:
   1.00000   0.00000   0.00000
   0.00000   1.00000   0.00000
   0.00000   0.00000   1.00000

 highest evec of mol 1

 generating redundant internal coords
         300        3600          91
 Adding extra bonds for z output only
           6           6           6           7           6           8
           6           6           6           6           6           6
           6           6           6           8           7           6
           6           6           6           6           6          16
           6           6           6           6           6           6
           6           6           6           6          16           6
           6           6           6           6           6           6
           8           6           6           6           6           6
           6           6           6           6           8           6
           6           6           6           1           1           1
           1           1           1           1           1           1
           1           1           1           1           1           1
           1           1           1           1           1           1
           1           1           1           1           1           1
           1           1           1           1           1           1
           1
 search for int coords
   1 str   2   1   1.533
   2 str   3   2   1.533
   3 str   4   2   1.492
   4 str   5   4   1.412
   5 str   6   5   1.225
   6 str   7   5   1.470
   7 str   8   7   1.395
   8 str   9   8   1.382
   9 str  10   9   1.413
  10 str  11  10   1.448
  11 str  12  11   1.417
  12 str  13  12   1.373
  13 str  14  13   1.404
  14 str  15  14   1.450
  15 str  16  15   1.219
  16 str  17  15   1.445
  17 str  18  17   1.378
  18 str  19  18   1.361
  19 str  20  19   1.430
  20 str  21  20   1.409
  21 str  22  21   1.387
  22 str  23  22   1.403
  23 str  24  20   1.768
  24 str  24  23   1.732
  25 str  25  23   1.418
  26 str  26  25   1.412
  27 str  27  26   1.375
  28 str  28  27   1.430
  29 str  29  28   1.406
  30 str  30  25   1.432
  31 str  30  29   1.377
  32 str  31  22   1.519
  33 str  31  30   1.534
  34 str  32  31   1.544
  35 str  33  31   1.544
  36 str  34  28   1.434
  37 str  35  34   1.734
  38 str  36  35   1.741
  39 str  37  36   1.374
  40 str  38  34   1.385
  41 str  38  37   1.412
  42 str  39  27   1.535
  43 str  39  38   1.519
  44 str  40  39   1.544
  45 str  41  39   1.545
  46 str  42  17   1.471
  47 str  43  42   1.219
  48 str  44  42   1.440
  49 str  45  44   1.407
  50 str  46  45   1.372
  51 str  47  46   1.419
  52 str  48  47   1.446
  53 str  49  48   1.414
  54 str  50  49   1.382
  55 str  51  50   1.396
  56 str  52   4   1.405
  57 str  52  51   1.470
  58 str  53  52   1.226
  59 str  54   7   1.412
  60 str  54  51   1.412
  61 str  55  10   1.427
  62 str  55  48   1.428
  63 str  55  54   1.434
  64 str  56  11   1.429
  65 str  56  47   1.430
  66 str  57  14   1.412
  67 str  57  44   1.416
  68 str  57  56   1.442
  69 str  58   1   1.094
  70 str  59   1   1.089
  71 str  60   1   1.093
  72 str  61   2   1.088
  73 str  62   3   1.089
  74 str  63   3   1.094
  75 str  64   3   1.093
  76 str  65   8   1.083
  77 str  66   9   1.081
  78 str  67  12   1.080
  79 str  68  13   1.082
  80 str  69  18   1.083
  81 str  70  19   1.078
  82 str  71  21   1.081
  83 str  72  26   1.084
  84 str  73  29   1.084
  85 str  74  32   1.092
  86 str  75  32   1.093
  87 str  76  32   1.093
  88 str  77  33   1.092
  89 str  78  33   1.093
  90 str  79  33   1.093
  91 str  80  36   1.079
  92 str  81  37   1.082
  93 str  82  40   1.092
  94 str  83  40   1.093
  95 str  84  40   1.093
  96 str  85  41   1.092
  97 str  86  41   1.093
  98 str  87  41   1.093
  99 str  88  45   1.083
 100 str  89  46   1.080
 101 str  90  49   1.081
 102 str  91  50   1.083
 nber stretches=         102
 103 ben   1   2   3
 104 prop tor   1   2   3  62
 105 prop tor   1   2   3  63
 106 prop tor   1   2   3  64
 107 ben   1   2   4
 108 prop tor   1   2   4   5
 109 prop tor   1   2   4  52
 110 ben   1   2  61
 111 ben   2   1  58
 112 ben   2   1  59
 113 ben   2   1  60
 114 ben   2   3  62
 115 ben   2   3  63
 116 ben   2   3  64
 117 ben   2   4   5
 118 prop tor   2   4   5   6
 119 prop tor   2   4   5   7
 120 ben   2   4  52
 121 prop tor   2   4  52  51
 122 prop tor   2   4  52  53
 123 ben   3   2   4
 124 prop tor   3   2   4   5
 125 prop tor   3   2   4  52
 126 ben   3   2  61
 127 prop tor   4   2   3  62
 128 prop tor   4   2   3  63
 129 prop tor   4   2   3  64
 130 ben   4   2  61
 131 ben   4   5   6
 132 ben   4   5   7
 133 prop tor   4   5   7   8
 134 prop tor   4   5   7  54
 135 ben   4  52  51
 136 ben   4  52  53
 137 ben   5   4  52
 138 prop tor   5   4  52  51
 139 prop tor   5   4  52  53
 140 ben   5   7   8
 141 prop tor   5   7   8   9
 142 prop tor   5   7   8  65
 143 ben   5   7  54
 144 prop tor   5   7  54  51
 145 prop tor   5   7  54  55
 146 ben   6   5   7
 147 prop tor   6   5   7   8
 148 prop tor   6   5   7  54
 149 ben   7   8   9
 150 prop tor   7   8   9  10
 151 prop tor   7   8   9  66
 152 ben   7   8  65
 153 ben   7  54  51
 154 ben   7  54  55
 155 prop tor   7  54  55  10
 156 prop tor   7  54  55  48
 157 ben   8   7  54
 158 prop tor   8   7  54  51
 159 prop tor   8   7  54  55
 160 ben   8   9  10
 161 prop tor   8   9  10  11
 162 prop tor   8   9  10  55
 163 ben   8   9  66
 164 ben   9   8  65
 165 ben   9  10  11
 166 prop tor   9  10  11  12
 167 prop tor   9  10  11  56
 168 ben   9  10  55
 169 prop tor   9  10  55  48
 170 prop tor   9  10  55  54
 171 ben  10   9  66
 172 ben  10  11  12
 173 prop tor  10  11  12  13
 174 prop tor  10  11  12  67
 175 ben  10  11  56
 176 prop tor  10  11  56  47
 177 prop tor  10  11  56  57
 178 ben  10  55  48
 179 ben  10  55  54
 180 ben  11  10  55
 181 prop tor  11  10  55  48
 182 prop tor  11  10  55  54
 183 ben  11  12  13
 184 prop tor  11  12  13  14
 185 prop tor  11  12  13  68
 186 ben  11  12  67
 187 ben  11  56  47
 188 ben  11  56  57
 189 prop tor  11  56  57  14
 190 prop tor  11  56  57  44
 191 ben  12  11  56
 192 prop tor  12  11  56  47
 193 prop tor  12  11  56  57
 194 ben  12  13  14
 195 prop tor  12  13  14  15
 196 prop tor  12  13  14  57
 197 ben  12  13  68
 198 ben  13  12  67
 199 ben  13  14  15
 200 prop tor  13  14  15  16
 201 prop tor  13  14  15  17
 202 ben  13  14  57
 203 prop tor  13  14  57  44
 204 prop tor  13  14  57  56
 205 ben  14  13  68
 206 ben  14  15  16
 207 ben  14  15  17
 208 prop tor  14  15  17  18
 209 prop tor  14  15  17  42
 210 ben  14  57  44
 211 ben  14  57  56
 212 ben  15  14  57
 213 prop tor  15  14  57  44
 214 prop tor  15  14  57  56
 215 ben  15  17  18
 216 prop tor  15  17  18  19
 217 prop tor  15  17  18  69
 218 ben  15  17  42
 219 prop tor  15  17  42  43
 220 prop tor  15  17  42  44
 221 ben  16  15  17
 222 prop tor  16  15  17  18
 223 prop tor  16  15  17  42
 224 ben  17  18  19
 225 prop tor  17  18  19  20
 226 prop tor  17  18  19  70
 227 ben  17  18  69
 228 ben  17  42  43
 229 ben  17  42  44
 230 prop tor  17  42  44  45
 231 prop tor  17  42  44  57
 232 ben  18  17  42
 233 prop tor  18  17  42  43
 234 prop tor  18  17  42  44
 235 ben  18  19  20
 236 prop tor  18  19  20  21
 237 prop tor  18  19  20  24
 238 ben  18  19  70
 239 ben  19  18  69
 240 ben  19  20  21
 241 prop tor  19  20  21  22
 242 prop tor  19  20  21  71
 243 ben  19  20  24
 244 prop tor  19  20  24  23
 245 ben  20  19  70
 246 ben  20  21  22
 247 prop tor  20  21  22  23
 248 prop tor  20  21  22  31
 249 ben  20  21  71
 250 ben  20  24  23
 251 ben  21  20  24
 252 prop tor  21  20  24  23
 253 ben  21  22  23
 254 prop tor  21  22  23  24
 255 prop tor  21  22  23  25
 256 ben  21  22  31
 257 prop tor  21  22  31  30
 258 prop tor  21  22  31  32
 259 prop tor  21  22  31  33
 260 ben  22  21  71
 261 ben  22  23  24
 262 prop tor  22  23  24  20
 263 ben  22  23  25
 264 prop tor  22  23  25  26
 265 prop tor  22  23  25  30
 266 ben  22  31  30
 267 ben  22  31  32
 268 prop tor  22  31  32  74
 269 prop tor  22  31  32  75
 270 prop tor  22  31  32  76
 271 ben  22  31  33
 272 prop tor  22  31  33  77
 273 prop tor  22  31  33  78
 274 prop tor  22  31  33  79
 275 ben  23  22  31
 276 prop tor  23  22  31  30
 277 prop tor  23  22  31  32
 278 prop tor  23  22  31  33
 279 ben  23  25  26
 280 prop tor  23  25  26  27
 281 prop tor  23  25  26  72
 282 ben  23  25  30
 283 prop tor  23  25  30  29
 284 prop tor  23  25  30  31
 285 prop tor  24  20  21  22
 286 prop tor  24  20  21  71
 287 ben  24  23  25
 288 prop tor  24  23  25  26
 289 prop tor  24  23  25  30
 290 prop tor  25  23  24  20
 291 ben  25  26  27
 292 prop tor  25  26  27  28
 293 prop tor  25  26  27  39
 294 ben  25  26  72
 295 ben  25  30  29
 296 ben  25  30  31
 297 prop tor  25  30  31  22
 298 prop tor  25  30  31  32
 299 prop tor  25  30  31  33
 300 ben  26  25  30
 301 prop tor  26  25  30  29
 302 prop tor  26  25  30  31
 303 ben  26  27  28
 304 prop tor  26  27  28  29
 305 prop tor  26  27  28  34
 306 ben  26  27  39
 307 prop tor  26  27  39  38
 308 prop tor  26  27  39  40
 309 prop tor  26  27  39  41
 310 ben  27  26  72
 311 ben  27  28  29
 312 prop tor  27  28  29  30
 313 prop tor  27  28  29  73
 314 ben  27  28  34
 315 prop tor  27  28  34  35
 316 prop tor  27  28  34  38
 317 ben  27  39  38
 318 ben  27  39  40
 319 prop tor  27  39  40  82
 320 prop tor  27  39  40  83
 321 prop tor  27  39  40  84
 322 ben  27  39  41
 323 prop tor  27  39  41  85
 324 prop tor  27  39  41  86
 325 prop tor  27  39  41  87
 326 ben  28  27  39
 327 prop tor  28  27  39  38
 328 prop tor  28  27  39  40
 329 prop tor  28  27  39  41
 330 ben  28  29  30
 331 prop tor  28  29  30  25
 332 prop tor  28  29  30  31
 333 ben  28  29  73
 334 ben  28  34  35
 335 prop tor  28  34  35  36
 336 ben  28  34  38
 337 prop tor  28  34  38  37
 338 prop tor  28  34  38  39
 339 ben  29  28  34
 340 prop tor  29  28  34  35
 341 prop tor  29  28  34  38
 342 ben  29  30  31
 343 prop tor  29  30  31  22
 344 prop tor  29  30  31  32
 345 prop tor  29  30  31  33
 346 prop tor  30  25  26  27
 347 prop tor  30  25  26  72
 348 ben  30  29  73
 349 ben  30  31  32
 350 prop tor  30  31  32  74
 351 prop tor  30  31  32  75
 352 prop tor  30  31  32  76
 353 ben  30  31  33
 354 prop tor  30  31  33  77
 355 prop tor  30  31  33  78
 356 prop tor  30  31  33  79
 357 prop tor  31  22  23  24
 358 prop tor  31  22  23  25
 359 ben  31  32  74
 360 ben  31  32  75
 361 ben  31  32  76
 362 ben  31  33  77
 363 ben  31  33  78
 364 ben  31  33  79
 365 ben  32  31  33
 366 prop tor  32  31  33  77
 367 prop tor  32  31  33  78
 368 prop tor  32  31  33  79
 369 prop tor  33  31  32  74
 370 prop tor  33  31  32  75
 371 prop tor  33  31  32  76
 372 prop tor  34  28  29  30
 373 prop tor  34  28  29  73
 374 ben  34  35  36
 375 prop tor  34  35  36  37
 376 prop tor  34  35  36  80
 377 ben  34  38  37
 378 ben  34  38  39
 379 prop tor  34  38  39  27
 380 prop tor  34  38  39  40
 381 prop tor  34  38  39  41
 382 ben  35  34  38
 383 prop tor  35  34  38  37
 384 prop tor  35  34  38  39
 385 ben  35  36  37
 386 prop tor  35  36  37  38
 387 prop tor  35  36  37  81
 388 ben  35  36  80
 389 ben  36  37  38
 390 prop tor  36  37  38  34
 391 prop tor  36  37  38  39
 392 ben  36  37  81
 393 ben  37  36  80
 394 ben  37  38  39
 395 prop tor  37  38  39  27
 396 prop tor  37  38  39  40
 397 prop tor  37  38  39  41
 398 prop tor  38  34  35  36
 399 ben  38  37  81
 400 ben  38  39  40
 401 prop tor  38  39  40  82
 402 prop tor  38  39  40  83
 403 prop tor  38  39  40  84
 404 ben  38  39  41
 405 prop tor  38  39  41  85
 406 prop tor  38  39  41  86
 407 prop tor  38  39  41  87
 408 prop tor  39  27  28  29
 409 prop tor  39  27  28  34
 410 ben  39  40  82
 411 ben  39  40  83
 412 ben  39  40  84
 413 ben  39  41  85
 414 ben  39  41  86
 415 ben  39  41  87
 416 ben  40  39  41
 417 prop tor  40  39  41  85
 418 prop tor  40  39  41  86
 419 prop tor  40  39  41  87
 420 prop tor  41  39  40  82
 421 prop tor  41  39  40  83
 422 prop tor  41  39  40  84
 423 prop tor  42  17  18  19
 424 prop tor  42  17  18  69
 425 ben  42  44  45
 426 prop tor  42  44  45  46
 427 prop tor  42  44  45  88
 428 ben  42  44  57
 429 prop tor  42  44  57  14
 430 prop tor  42  44  57  56
 431 ben  43  42  44
 432 prop tor  43  42  44  45
 433 prop tor  43  42  44  57
 434 ben  44  45  46
 435 prop tor  44  45  46  47
 436 prop tor  44  45  46  89
 437 ben  44  45  88
 438 ben  44  57  56
 439 ben  45  44  57
 440 prop tor  45  44  57  14
 441 prop tor  45  44  57  56
 442 ben  45  46  47
 443 prop tor  45  46  47  48
 444 prop tor  45  46  47  56
 445 ben  45  46  89
 446 ben  46  45  88
 447 ben  46  47  48
 448 prop tor  46  47  48  49
 449 prop tor  46  47  48  55
 450 ben  46  47  56
 451 prop tor  46  47  56  11
 452 prop tor  46  47  56  57
 453 ben  47  46  89
 454 ben  47  48  49
 455 prop tor  47  48  49  50
 456 prop tor  47  48  49  90
 457 ben  47  48  55
 458 prop tor  47  48  55  10
 459 prop tor  47  48  55  54
 460 ben  47  56  57
 461 prop tor  47  56  57  14
 462 prop tor  47  56  57  44
 463 ben  48  47  56
 464 prop tor  48  47  56  11
 465 prop tor  48  47  56  57
 466 ben  48  49  50
 467 prop tor  48  49  50  51
 468 prop tor  48  49  50  91
 469 ben  48  49  90
 470 ben  48  55  54
 471 ben  49  48  55
 472 prop tor  49  48  55  10
 473 prop tor  49  48  55  54
 474 ben  49  50  51
 475 prop tor  49  50  51  52
 476 prop tor  49  50  51  54
 477 ben  49  50  91
 478 ben  50  49  90
 479 ben  50  51  52
 480 prop tor  50  51  52   4
 481 prop tor  50  51  52  53
 482 ben  50  51  54
 483 prop tor  50  51  54   7
 484 prop tor  50  51  54  55
 485 ben  51  50  91
 486 ben  51  52  53
 487 ben  51  54  55
 488 prop tor  51  54  55  10
 489 prop tor  51  54  55  48
 490 prop tor  52   4   5   6
 491 prop tor  52   4   5   7
 492 ben  52  51  54
 493 prop tor  52  51  54   7
 494 prop tor  52  51  54  55
 495 prop tor  54   7   8   9
 496 prop tor  54   7   8  65
 497 prop tor  54  51  52   4
 498 prop tor  54  51  52  53
 499 prop tor  55  10  11  12
 500 prop tor  55  10  11  56
 501 prop tor  55  48  49  50
 502 prop tor  55  48  49  90
 503 prop tor  56  11  12  13
 504 prop tor  56  11  12  67
 505 prop tor  56  47  48  49
 506 prop tor  56  47  48  55
 507 prop tor  57  14  15  16
 508 prop tor  57  14  15  17
 509 prop tor  57  44  45  46
 510 prop tor  57  44  45  88
 511 prop tor  58   1   2   3
 512 prop tor  58   1   2   4
 513 prop tor  58   1   2  61
 514 ben  58   1  59
 515 ben  58   1  60
 516 prop tor  59   1   2   3
 517 prop tor  59   1   2   4
 518 prop tor  59   1   2  61
 519 ben  59   1  60
 520 prop tor  60   1   2   3
 521 prop tor  60   1   2   4
 522 prop tor  60   1   2  61
 523 prop tor  61   2   3  62
 524 prop tor  61   2   3  63
 525 prop tor  61   2   3  64
 526 prop tor  61   2   4   5
 527 prop tor  61   2   4  52
 528 ben  62   3  63
 529 ben  62   3  64
 530 ben  63   3  64
 531 prop tor  65   8   9  10
 532 prop tor  65   8   9  66
 533 prop tor  66   9  10  11
 534 prop tor  66   9  10  55
 535 prop tor  67  12  13  14
 536 prop tor  67  12  13  68
 537 prop tor  68  13  14  15
 538 prop tor  68  13  14  57
 539 prop tor  69  18  19  20
 540 prop tor  69  18  19  70
 541 prop tor  70  19  20  21
 542 prop tor  70  19  20  24
 543 prop tor  71  21  22  23
 544 prop tor  71  21  22  31
 545 prop tor  72  26  27  28
 546 prop tor  72  26  27  39
 547 prop tor  73  29  30  25
 548 prop tor  73  29  30  31
 549 ben  74  32  75
 550 ben  74  32  76
 551 ben  75  32  76
 552 ben  77  33  78
 553 ben  77  33  79
 554 ben  78  33  79
 555 prop tor  80  36  37  38
 556 prop tor  80  36  37  81
 557 prop tor  81  37  38  34
 558 prop tor  81  37  38  39
 559 ben  82  40  83
 560 ben  82  40  84
 561 ben  83  40  84
 562 ben  85  41  86
 563 ben  85  41  87
 564 ben  86  41  87
 565 prop tor  88  45  46  47
 566 prop tor  88  45  46  89
 567 prop tor  89  46  47  48
 568 prop tor  89  46  47  56
 569 prop tor  90  49  50  51
 570 prop tor  90  49  50  91
 571 prop tor  91  50  51  52
 572 prop tor  91  50  51  54
 nber bend=             182
 nber lin bend=           0
 nber prop tor=         288
 nber impr tor=           0
 nber tot redund int=         572
 Reading file: 
 ./IDT-PDI_1_C0S2.log                                                           
                                          
  Entering Gaussian System, Link 0=g16                                          
  
 Gaussian format, type: g94, g98, g03= F F F
  #P Geom=AllCheck Guess=TCheck SCRF=Check GenChk RB3LYP TD(FC,Read)/6-3    
 energy type= TD      
 Original G94 input coords:
  6  2.481141  1.963183  0.940593
  6  2.899056  0.682359  0.209357
  6  4.092872  0.884384 -0.730789
  7  3.120306 -0.450650  1.154065
  6  2.252414 -1.558073  1.032731
  8  1.365103 -1.573369  0.188054
  6  2.466834 -2.676491  1.960685
  6  1.637452 -3.796476  1.883407
  6  1.812870 -4.865891  2.740896
  6  2.827903 -4.874054  3.723817
  6  3.023000 -5.989011  4.626800
  6  2.207833 -7.146237  4.576540
  6  2.398589 -8.199903  5.437433
  6  3.415767 -8.166069  6.404870
  6  3.568659 -9.307808  7.285660
  8  2.870120-10.307740  7.247147
  7  4.629747 -9.219664  8.261142
  6  4.886972-10.234503  9.161388
  6  4.269513-11.438640  9.322941
  6  4.696506-12.367485 10.340546
  6  5.687454-12.278644 11.308807
  6  5.765384-13.442400 12.109274
  6  4.849448-14.403901 11.759822
 16  3.854543-13.922943 10.436442
  6  4.977274-15.579927 12.622141
  6  4.279310-16.785095 12.648268
  6  4.643778-17.725428 13.608760
  6  5.694521-17.443952 14.521004
  6  6.396149-16.223315 14.488771
  6  6.032349-15.294945 13.536105
  6  6.621653-13.901159 13.279389
  6  8.113090-13.986705 12.887357
  6  6.439887-12.980887 14.506169
  6  5.820920-18.595288 15.366173
 16  6.818562-19.073931 16.695689
  6  5.977270-20.603755 16.774533
  6  4.981752-20.727589 15.821192
  6  4.888889-19.586177 15.016656
  6  4.041219-19.116682 13.848027
  6  2.549196-19.025273 14.235423
  6  4.226010-20.029489 12.616144
  6  5.524092 -8.061456  8.389910
  8  6.388803 -8.086833  9.249744
  6  5.292278 -6.978728  7.467854
  6  6.118633 -5.843202  7.542038
  6  5.941037 -4.784436  6.686926
  6  4.924194 -4.787522  5.698381
  6  4.732731 -3.676034  4.793481
  6  5.545594 -2.520143  4.831236
  6  5.351857 -1.464016  3.961697
  6  4.335204 -1.503185  3.006040
  6  4.157400 -0.361964  2.097561
  8  4.875565  0.630682  2.149240
  6  3.495715 -2.635513  2.926649
  6  3.686946 -3.738745  3.822683
  6  4.067365 -5.928232  5.600917
  6  4.259814 -7.036798  6.500517
  1  2.191938  2.719165  0.204449
  1  3.293004  2.358273  1.549775
  1  1.616562  1.773512  1.582275
  1  2.054324  0.344332 -0.387078
  1  4.971703  1.234398 -0.190933
  1  3.828941  1.623789 -1.492814
  1  4.340034 -0.049510 -1.242634
  1  0.855537 -3.803133  1.134719
  1  1.146856 -5.711691  2.644812
  1  1.413747 -7.214419  3.847307
  1  1.768462 -9.078634  5.387893
  1  5.717563 -9.961588  9.800184
  1  3.446413-11.713540  8.682891
  1  6.316294-11.406546 11.422921
  1  3.480118-16.979889 11.942581
  1  7.196243-16.026931 15.194020
  1  8.257713-14.640672 12.025068
  1  8.711732-14.371186 13.717535
  1  8.493715-12.995137 12.630884
  1  5.390082-12.916455 14.799301
  1  6.792514-11.972304 14.277470
  1  7.015056-13.351695 15.358862
  1  6.268564-21.324602 17.523278
  1  4.366988-21.612828 15.734370
  1  2.404477-18.386850 15.109120
  1  2.150741-20.017345 14.462334
  1  1.966808-18.611132 13.409033
  1  5.277891-20.107679 12.334556
  1  3.672027-19.632132 11.762444
  1  3.847912-21.033776 12.823278
  1  6.899114 -5.826532  8.291967
  1  6.598524 -3.932266  6.779348
  1  6.345425 -2.445725  5.554366
  1  5.981931 -0.584498  4.001268
 nber atoms=          91
  Total Energy, E(TD-HF/TD-DFT) =  -3095.12814186                               
  
          32          49 "  -3095.12814186"
After scan for Atom:   Atom  AN      X      Y      Z        X      Y      Z        X      Y      Z   
After scan for Atom:   Atom  AN      X      Y      Z        X      Y      Z        X      Y      Z   
After scan for Atom:   Atom  AN      X      Y      Z        X      Y      Z        X      Y      Z   
After scan for Atom:   Atom  AN      X      Y      Z        X      Y      Z        X      Y      Z   
After scan for Atom:   Atom  AN      X      Y      Z        X      Y      Z        X      Y      Z   
After scan for Atom:   Atom  AN      X      Y      Z        X      Y      Z        X      Y      Z   
After scan for Atom:   Atom  AN      X      Y      Z        X      Y      Z        X      Y      Z   
After scan for Atom:   Atom  AN      X      Y      Z        X      Y      Z        X      Y      Z   
After scan for Atom:   Atom  AN      X      Y      Z        X      Y      Z        X      Y      Z   
After scan for Atom:   Atom  AN      X      Y      Z        X      Y      Z        X      Y      Z   
After scan for Atom:   Atom  AN      X      Y      Z        X      Y      Z        X      Y      Z   
After scan for Atom:   Atom  AN      X      Y      Z        X      Y      Z        X      Y      Z   
After scan for Atom:   Atom  AN      X      Y      Z        X      Y      Z        X      Y      Z   
After scan for Atom:   Atom  AN      X      Y      Z        X      Y      Z        X      Y      Z   
After scan for Atom:   Atom  AN      X      Y      Z        X      Y      Z        X      Y      Z   
After scan for Atom:   Atom  AN      X      Y      Z        X      Y      Z        X      Y      Z   
After scan for Atom:   Atom  AN      X      Y      Z        X      Y      Z        X      Y      Z   
After scan for Atom:   Atom  AN      X      Y      Z        X      Y      Z        X      Y      Z   
After scan for Atom:   Atom  AN      X      Y      Z        X      Y      Z        X      Y      Z   
After scan for Atom:   Atom  AN      X      Y      Z        X      Y      Z        X      Y      Z   
After scan for Atom:   Atom  AN      X      Y      Z        X      Y      Z        X      Y      Z   
After scan for Atom:   Atom  AN      X      Y      Z        X      Y      Z        X      Y      Z   
After scan for Atom:   Atom  AN      X      Y      Z        X      Y      Z        X      Y      Z   
After scan for Atom:   Atom  AN      X      Y      Z        X      Y      Z        X      Y      Z   
After scan for Atom:   Atom  AN      X      Y      Z        X      Y      Z        X      Y      Z   
After scan for Atom:   Atom  AN      X      Y      Z        X      Y      Z        X      Y      Z   
After scan for Atom:   Atom  AN      X      Y      Z        X      Y      Z        X      Y      Z   
After scan for Atom:   Atom  AN      X      Y      Z        X      Y      Z        X      Y      Z   
After scan for Atom:   Atom  AN      X      Y      Z        X      Y      Z        X      Y      Z   
After scan for Atom:   Atom  AN      X      Y      Z        X      Y      Z        X      Y      Z   
After scan for Atom:   Atom  AN      X      Y      Z        X      Y      Z        X      Y      Z   
After scan for Atom:   Atom  AN      X      Y      Z        X      Y      Z        X      Y      Z   
After scan for Atom:   Atom  AN      X      Y      Z        X      Y      Z        X      Y      Z   
After scan for Atom:   Atom  AN      X      Y      Z        X      Y      Z        X      Y      Z   
After scan for Atom:   Atom  AN      X      Y      Z        X      Y      Z        X      Y      Z   
After scan for Atom:   Atom  AN      X      Y      Z        X      Y      Z        X      Y      Z   
After scan for Atom:   Atom  AN      X      Y      Z        X      Y      Z        X      Y      Z   
After scan for Atom:   Atom  AN      X      Y      Z        X      Y      Z        X      Y      Z   
After scan for Atom:   Atom  AN      X      Y      Z        X      Y      Z        X      Y      Z   
After scan for Atom:   Atom  AN      X      Y      Z        X      Y      Z        X      Y      Z   
After scan for Atom:   Atom  AN      X      Y      Z        X      Y      Z        X      Y      Z   
After scan for Atom:   Atom  AN      X      Y      Z        X      Y      Z        X      Y      Z   
After scan for Atom:   Atom  AN      X      Y      Z        X      Y      Z        X      Y      Z   
After scan for Atom:   Atom  AN      X      Y      Z        X      Y      Z        X      Y      Z   
After scan for Atom:   Atom  AN      X      Y      Z        X      Y      Z        X      Y      Z   
After scan for Atom:   Atom  AN      X      Y      Z        X      Y      Z        X      Y      Z   
After scan for Atom:   Atom  AN      X      Y      Z        X      Y      Z        X      Y      Z   
After scan for Atom:   Atom  AN      X      Y      Z        X      Y      Z        X      Y      Z   
After scan for Atom:   Atom  AN      X      Y      Z        X      Y      Z        X      Y      Z   
After scan for Atom:   Atom  AN      X      Y      Z        X      Y      Z        X      Y      Z   
After scan for Atom:   Atom  AN      X      Y      Z        X      Y      Z        X      Y      Z   
After scan for Atom:   Atom  AN      X      Y      Z        X      Y      Z        X      Y      Z   
After scan for Atom:   Atom  AN      X      Y      Z        X      Y      Z        X      Y      Z   
After scan for Atom:   Atom  AN      X      Y      Z        X      Y      Z        X      Y      Z   
After scan for Atom:   Atom  AN      X      Y      Z        X      Y      Z        X      Y      Z   
After scan for Atom:   Atom  AN      X      Y      Z        X      Y      Z        X      Y      Z   
After scan for Atom:   Atom  AN      X      Y      Z        X      Y      Z        X      Y      Z   
After scan for Atom:   Atom  AN      X      Y      Z        X      Y      Z        X      Y      Z   
After scan for Atom:   Atom  AN      X      Y      Z        X      Y      Z        X      Y      Z   
After scan for Atom:   Atom  AN      X      Y      Z        X      Y      Z        X      Y      Z   
After scan for Atom:   Atom  AN      X      Y      Z        X      Y      Z        X      Y      Z   
After scan for Atom:   Atom  AN      X      Y      Z        X      Y      Z        X      Y      Z   
After scan for Atom:   Atom  AN      X      Y      Z        X      Y      Z        X      Y      Z   
After scan for Atom:   Atom  AN      X      Y      Z        X      Y      Z        X      Y      Z   
After scan for Atom:   Atom  AN      X      Y      Z        X      Y      Z        X      Y      Z   
After scan for Atom:   Atom  AN      X      Y      Z        X      Y      Z        X      Y      Z   
After scan for Atom:   Atom  AN      X      Y      Z        X      Y      Z        X      Y      Z   
After scan for Atom:   Atom  AN      X      Y      Z        X      Y      Z        X      Y      Z   
After scan for Atom:   Atom  AN      X      Y      Z        X      Y      Z        X      Y      Z   
After scan for Atom:   Atom  AN      X      Y      Z        X      Y      Z        X      Y      Z   
After scan for Atom:   Atom  AN      X      Y      Z        X      Y      Z        X      Y      Z   
After scan for Atom:   Atom  AN      X      Y      Z        X      Y      Z        X      Y      Z   
After scan for Atom:   Atom  AN      X      Y      Z        X      Y      Z        X      Y      Z   
After scan for Atom:   Atom  AN      X      Y      Z        X      Y      Z        X      Y      Z   
After scan for Atom:   Atom  AN      X      Y      Z        X      Y      Z        X      Y      Z   
After scan for Atom:   Atom  AN      X      Y      Z        X      Y      Z        X      Y      Z   
After scan for Atom:   Atom  AN      X      Y      Z        X      Y      Z        X      Y      Z   
After scan for Atom:   Atom  AN      X      Y      Z        X      Y      Z        X      Y      Z   
After scan for Atom:   Atom  AN      X      Y      Z        X      Y      Z        X      Y      Z   
After scan for Atom:   Atom  AN      X      Y      Z        X      Y      Z        X      Y      Z   
After scan for Atom:   Atom  AN      X      Y      Z        X      Y      Z        X      Y      Z   
After scan for Atom:   Atom  AN      X      Y      Z        X      Y      Z        X      Y      Z   
After scan for Atom:   Atom  AN      X      Y      Z        X      Y      Z        X      Y      Z   
After scan for Atom:   Atom  AN      X      Y      Z        X      Y      Z        X      Y      Z   
After scan for Atom:   Atom  AN      X      Y      Z        X      Y      Z        X      Y      Z   
After scan for Atom:   Atom  AN      X      Y      Z        X      Y      Z        X      Y      Z   
After scan for Atom:   Atom  AN      X      Y      Z        X      Y      Z        X      Y      Z   
After scan for Atom:   Atom  AN      X      Y      Z        X      Y      Z        X      Y      Z   
After scan for Atom:   Atom  AN      X      Y      Z        X      Y      Z        X      Y      Z   
 g94    frequencies=
     0.0    0.0    0.0    0.0    0.0    0.0    4.0    5.9   15.2   17.8
    25.0   30.9   44.1   56.1   58.5   66.5   67.4   77.6   82.6   88.4
    90.0  101.1  102.9  115.2  120.6  144.3  147.7  156.2  164.9  169.6
   192.2  194.9  195.8  204.1  207.5  213.6  229.3  234.5  235.0  238.1
   241.6  246.9  249.9  255.1  260.8  271.3  281.8  288.4  297.6  298.0
   299.0  308.1  318.3  334.8  357.5  364.2  369.1  379.1  395.0  401.3
   409.7  417.8  420.6  435.4  440.7  443.9  445.5  451.9  453.8  461.9
   462.4  471.0  486.7  487.5  498.2  499.8  502.9  512.1  516.8  534.5
   544.1  554.9  567.9  574.3  579.5  581.5  590.7  614.9  622.7  623.8
   629.5  645.3  658.6  661.0  667.2  677.2  686.2  710.5  711.7  716.8
   719.3  727.3  731.0  740.3  747.9  755.6  759.9  768.9  778.0  781.6
   784.9  786.0  803.2  814.1  815.2  815.9  824.1  826.7  831.7  833.7
   835.5  837.9  848.7  891.2  893.9  899.8  900.5  901.2  902.5  904.1
   926.2  943.4  951.4  952.9  955.4  956.0  971.9  975.2  977.6  980.7
   984.3  984.4  987.6 1003.1 1003.6 1005.0 1030.6 1032.3 1059.5 1072.6
  1074.3 1091.8 1093.6 1102.1 1103.3 1136.2 1149.8 1153.1 1155.0 1155.2
  1157.5 1163.5 1169.8 1174.7 1189.4 1200.2 1209.6 1224.7 1226.9 1229.6
  1235.7 1241.9 1248.7 1251.6 1259.0 1272.4 1279.2 1284.2 1294.4 1297.9
  1315.0 1325.5 1331.0 1332.9 1342.8 1360.0 1363.2 1370.8 1374.3 1384.2
  1392.4 1393.8 1395.2 1397.6 1401.6 1403.2 1408.8 1411.0 1419.8 1425.4
  1426.7 1432.1 1438.1 1453.6 1462.9 1472.9 1474.3 1481.0 1481.3 1483.9
  1484.4 1484.5 1484.9 1488.6 1490.2 1495.9 1504.8 1505.5 1506.8 1508.1
  1512.5 1523.8 1524.2 1536.4 1545.1 1560.0 1565.7 1573.9 1585.8 1598.9
  1614.1 1619.5 1628.8 1632.6 1680.9 1713.6 1720.6 1764.9 1769.9 3028.5
  3029.4 3032.8 3033.0 3033.3 3036.0 3085.8 3088.9 3094.7 3099.5 3099.6
  3104.0 3108.2 3108.6 3110.0 3110.7 3112.3 3131.5 3141.1 3174.7 3181.2
  3191.2 3191.7 3192.8 3197.8 3198.5 3207.3 3207.8 3213.6 3216.3 3221.6
  3221.7 3243.3 3248.8
 g94    symmetries=
                                                 A      A      A      A
       A      A      A      A      A      A      A      A      A      A
       A      A      A      A      A      A      A      A      A      A
       A      A      A      A      A      A      A      A      A      A
       A      A      A      A      A      A      A      A      A      A
       A      A      A      A      A      A      A      A      A      A
       A      A      A      A      A      A      A      A      A      A
       A      A      A      A      A      A      A      A      A      A
       A      A      A      A      A      A      A      A      A      A
       A      A      A      A      A      A      A      A      A      A
       A      A      A      A      A      A      A      A      A      A
       A      A      A      A      A      A      A      A      A      A
       A      A      A      A      A      A      A      A      A      A
       A      A      A      A      A      A      A      A      A      A
       A      A      A      A      A      A      A      A      A      A
       A      A      A      A      A      A      A      A      A      A
       A      A      A      A      A      A      A      A      A      A
       A      A      A      A      A      A      A      A      A      A
       A      A      A      A      A      A      A      A      A      A
       A      A      A      A      A      A      A      A      A      A
       A      A      A      A      A      A      A      A      A      A
       A      A      A      A      A      A      A      A      A      A
       A      A      A      A      A      A      A      A      A      A
       A      A      A      A      A      A      A      A      A      A
       A      A      A      A      A      A      A      A      A      A
       A      A      A      A      A      A      A      A      A      A
       A      A      A      A      A      A      A      A      A      A
       A      A      A
 atomic masses:
 12.0000 12.0000 12.0000 14.0031 12.0000 15.9949 12.0000 12.0000 12.0000 12.0000
 12.0000 12.0000 12.0000 12.0000 12.0000 15.9949 14.0031 12.0000 12.0000 12.0000
 12.0000 12.0000 12.0000 31.9721 12.0000 12.0000 12.0000 12.0000 12.0000 12.0000
 12.0000 12.0000 12.0000 12.0000 31.9721 12.0000 12.0000 12.0000 12.0000 12.0000
 12.0000 12.0000 15.9949 12.0000 12.0000 12.0000 12.0000 12.0000 12.0000 12.0000
 12.0000 12.0000 15.9949 12.0000 12.0000 12.0000 12.0000  1.0078  1.0078  1.0078
  1.0078  1.0078  1.0078  1.0078  1.0078  1.0078  1.0078  1.0078  1.0078  1.0078
  1.0078  1.0078  1.0078  1.0078  1.0078  1.0078  1.0078  1.0078  1.0078  1.0078
  1.0078  1.0078  1.0078  1.0078  1.0078  1.0078  1.0078  1.0078  1.0078  1.0078
  1.0078
 looking for force constants in 
 ./IDT-PDI_1_C0S2.fchk                                                          
  
 cant find forces in .fchk file
 NO FORCES: 
 ./IDT-PDI_1_C0S2.log                                                           
                                          
 g94-fc frequencies=

 at 99999: n3=           0
 symm operator            1 :  F  nop=           0
 symm operator            2 :  F  nop=           0
 symm operator            3 :  F  nop=           0
 symm operator            4 :  F  nop=           0
 symm operator            5 :  F  nop=           0
 symm operator            6 :  F  nop=           0
 symm operator            7 :  F  nop=           0
 The point group of the molecule is  C1
 Symmetry rotation matrix:
   1.00000   0.00000   0.00000
   0.00000   1.00000   0.00000
   0.00000   0.00000   1.00000

 highest evec of mol 2

 Enter nber and list of atoms to keep of mol #2
 keep list:          91           1           2           3           4
           5           6           7           8           9          10
          11          12          13          14          15          16
          17          18          19          20          21          22
          23          24          25          26          27          28
          29          30          31          32          33          34
          35          36          37          38          39          40
          41          42          43          44          45          46
          47          48          49          50          51          52
          53          54          55          56          57          58
          59          60          61          62          63          64
          65          66          67          68          69          70
          71          72          73          74          75          76
          77          78          79          80          81          82
          83          84          85          86          87          88
          89          90          91
 reordering atoms
           1  -13.6832544213904     
           2  -13.0653054256400     
           3  -13.6740796817614     
           4  -11.5772175020355     
           5  -10.8557328317178     
           6  -11.4372910383428     
           7  -9.38995172722640     
           8  -8.62828868607522     
           9  -7.24751471623569     
          10  -6.55187571972340     
          11  -5.10572007947497     
          12  -4.29689175617070     
          13  -2.92507853998228     
          14  -2.27185915367866     
          15 -0.821887274472115     
          16 -0.119477978803681     
          17 -0.202661640932914     
          18   1.16844495005200     
          19   2.16096451843369     
          20   3.55083988968207     
          21   4.15834757441441     
          22   5.57025202049170     
          23   6.03424706198030     
          24   4.76087706084018     
          25   7.49789497774561     
          26   8.40205775547890     
          27   9.76066078107168     
          28   10.1874708671732     
          29   9.26772133160331     
          30   7.92337747223653     
          31   6.72045697142905     
          32   6.69807209847445     
          33   6.70925657306391     
          34   11.6210855725584     
          35   12.8965701798521     
          36   14.0760880782822     
          37   13.5048668637155     
          38   12.1067969440022     
          39   10.9498015461437     
          40   10.9646921049097     
          41   10.9523073221240     
          42 -0.957408976820915     
          43 -0.336669479244970     
          44  -2.39301753623245     
          45  -3.16916677551390     
          46  -4.54027413010080     
          47  -5.23054001122864     
          48  -6.67474028913278     
          49  -7.49024407445844     
          50  -8.86949338545404     
          51  -9.51135265651824     
          52  -10.9799688101986     
          53  -11.6667778477432     
          54  -8.74214724198173     
          55  -7.30984646845856     
          56  -4.46722548268739     
          57  -3.02843133650032     
          58  -14.7534852475582     
          59  -13.5518836462470     
          60  -13.2314949240270     
          61  -13.2375047370110     
          62  -13.5420557060333     
          63  -14.7442393673744     
          64  -13.2163059316574     
          65  -9.14879099166260     
          66  -6.69883522213483     
          67  -4.75806810889804     
          68  -2.31881697577362     
          69   1.41638263535135     
          70   1.91457816751204     
          71   3.59600841755938     
          72   8.05500485802183     
          73   9.61333715285414     
          74   6.71323559496178     
          75   7.56008213389572     
          76   5.79418144288691     
          77   6.73198794371666     
          78   5.80581877345176     
          79   7.57165353699790     
          80   15.1262078084631     
          81   14.0953967200035     
          82   10.9687066478575     
          83   11.8494918339211     
          84   10.0830014303571     
          85   10.9476297490294     
          86   10.0702987739220     
          87   11.8369042037336     
          88  -2.65600496460425     
          89  -5.09703831684037     
          90  -7.03712284714953     
          91  -9.48237214724118     
           1           1
           2           2
           3           3
           4           4
           5           5
           6           6
           7           7
           8           8
           9           9
          10          10
          11          11
          12          12
          13          13
          14          14
          15          15
          16          16
          17          17
          18          18
          19          19
          20          20
          21          21
          22          22
          23          23
          24          24
          25          25
          26          26
          27          27
          28          28
          29          29
          30          30
          31          31
          32          32
          33          33
          34          34
          35          35
          36          36
          37          37
          38          38
          39          39
          40          40
          41          41
          42          42
          43          43
          44          44
          45          45
          46          46
          47          47
          48          48
          49          49
          50          50
          51          51
          52          52
          53          53
          54          54
          55          55
          56          56
          57          57
          58          58
          59          59
          60          60
          61          61
          62          62
          63          63
          64          64
          65          65
          66          66
          67          67
          68          68
          69          69
          70          70
          71          71
          72          72
          73          73
          74          74
          75          75
          76          76
          77          77
          78          78
          79          79
          80          80
          81          81
          82          82
          83          83
          84          84
          85          85
          86          86
          87          87
          88          88
          89          89
          90          90
          91          91
 initial cartes coords mol 1
   6  -1.26578   0.26637 -13.65841
   6   0.00935  -0.32749 -13.04923
   6   1.29462   0.24910 -13.65368
   7   0.00720  -0.23995 -11.55966
   6  -0.00227  -1.46116 -10.85120
   8  -0.00834  -2.53347 -11.44301
   6  -0.00434  -1.37996  -9.38370
   6  -0.01297  -2.55762  -8.63508
   6  -0.01494  -2.51609  -7.25356
   6  -0.00857  -1.29374  -6.54515
   6  -0.01016  -1.23698  -5.09798
   6  -0.01733  -2.40916  -4.30264
   6  -0.01848  -2.34758  -2.93053
   6  -0.01284  -1.11147  -2.26417
   6  -0.01402  -1.11023  -0.81370
   8  -0.01944  -2.11280  -0.12055
   7  -0.00825   0.18972  -0.18270
   6  -0.00812   0.33644   1.18793
   6  -0.00909  -0.60278   2.17309
   6  -0.00855  -0.20752   3.54732
   6  -0.01604   1.07009   4.14053
   6  -0.01238   1.01383   5.52596
   6  -0.00220  -0.29339   6.03667
  16   0.00282  -1.47951   4.77493
   6   0.00078  -0.29122   7.45466
   6   0.01061  -1.34558   8.39377
   6   0.01100  -1.02002   9.72925
   6   0.00155   0.34938  10.14270
   6  -0.00810   1.40180   9.20971
   6  -0.00830   1.07935   7.87112
   6  -0.01758   2.02242   6.66153
   6   1.24441   2.91210   6.62917
   6  -1.29290   2.89309   6.63396
   6   0.00445   0.34598  11.57631
  16  -0.00182   1.53313  12.83960
   6   0.01048   0.26699  14.03457
   6   0.01891  -0.99288  13.48656
   6   0.01540  -0.94613  12.07486
   6   0.02093  -1.95880  10.94305
   6  -1.24015  -2.84990  10.97600
   6   1.29622  -2.82969  10.97066
   6  -0.00232   1.46046  -0.92269
   8   0.00106   2.50168  -0.28902
   6  -0.00068   1.35090  -2.35874
   6   0.00633   2.53196  -3.12303
   6   0.00850   2.48447  -4.49398
   6   0.00351   1.25195  -5.19647
   6   0.00610   1.19560  -6.64132
   6   0.01470   2.35885  -7.44440
   6   0.01724   2.29177  -8.82460
   6   0.01109   1.05916  -9.47917
   6   0.01424   1.02492 -10.94892
   8   0.02244   2.04834 -11.62377
   6   0.00221  -0.13264  -8.72269
   6  -0.00014  -0.07678  -7.28964
   6  -0.00420   0.03488  -4.44632
   6  -0.00593   0.09098  -3.00522
   1  -1.28539   0.05088 -14.73085
   1  -1.31181   1.34522 -13.51605
   1  -2.15299  -0.18852 -13.20992
   1   0.00248  -1.39975 -13.23287
   1   1.35497   1.32715 -13.51059
   1   1.31491   0.03388 -14.72616
   1   2.17395  -0.21816 -13.20240
   1  -0.01799  -3.50122  -9.16568
   1  -0.02161  -3.45318  -6.71510
   1  -0.02184  -3.38067  -4.77478
   1  -0.02374  -3.25093  -2.33417
   1  -0.00573   1.38912   1.44333
   1  -0.00930  -1.65254   1.92847
   1  -0.02471   1.97954   3.55683
   1   0.01759  -2.37724   8.06038
   1  -0.01504   2.43343   9.54323
   1   2.15465   2.30953   6.64800
   1   1.25997   3.58596   7.48924
   1   1.25573   3.52283   5.72333
   1  -2.19391   2.27691   6.65621
   1  -1.31680   3.50354   5.72819
   1  -1.31532   3.56666   7.49412
   1   0.01073   0.53535  15.08010
   1   0.02715  -1.89262  14.08664
   1  -2.15051  -2.24764  10.95260
   1  -1.25308  -3.45639  11.88509
   1  -1.25473  -3.52897  10.11991
   1   2.19672  -2.21294  10.94343
   1   1.31804  -3.50849  10.11450
   1   1.32265  -3.43582  11.87969
   1   0.01011   3.47991  -2.60034
   1   0.01408   3.41553  -5.04160
   1   0.01966   3.33534  -6.98120
   1   0.02403   3.19063  -9.42799
 initial cartes coords mol 2
   6  -1.25122   0.20919 -13.68325
   6   0.01534  -0.39399 -13.06531
   6   1.30856   0.15995 -13.67408
   7   0.01197  -0.29047 -11.57722
   6  -0.01448  -1.50419 -10.85573
   8  -0.03385  -2.58235 -11.43729
   6  -0.01741  -1.40718  -9.38995
   6  -0.04238  -2.57656  -8.62829
   6  -0.04499  -2.52031  -7.24751
   6  -0.02308  -1.29064  -6.55188
   6  -0.02374  -1.21850  -5.10572
   6  -0.04174  -2.38112  -4.29689
   6  -0.04312  -2.30454  -2.92508
   6  -0.02704  -1.06165  -2.27186
   6  -0.02956  -1.04404  -0.82189
   8  -0.04454  -2.04189  -0.11948
   7  -0.01267   0.26038  -0.20266
   6  -0.01260   0.42339   1.16844
   6  -0.02091  -0.51049   2.16096
   6  -0.02260  -0.12470   3.55084
   6  -0.04649   1.12341   4.15835
   6  -0.03635   1.03639   5.57025
   6  -0.00619  -0.25564   6.03425
  16   0.01098  -1.41784   4.76088
   6   0.00114  -0.28117   7.49789
   6   0.02891  -1.34040   8.40206
   6   0.02857  -1.03413   9.76066
   6   0.00040   0.31958  10.18747
   6  -0.02741   1.38568   9.26772
   6  -0.02679   1.07821   7.92338
   6  -0.05288   2.03117   6.72046
   6   1.19577   2.93989   6.69807
   6  -1.33972   2.88490   6.70926
   6   0.00777   0.29599  11.62109
  16  -0.01255   1.46420  12.89657
   6   0.02197   0.17506  14.07609
   6   0.04762  -1.08522  13.50487
   6   0.03966  -1.02150  12.10680
   6   0.05636  -2.00422  10.94980
   6  -1.19207  -2.91293  10.96469
   6   1.34538  -2.85470  10.95231
   6   0.00519   1.52050  -0.95741
   8   0.01689   2.57038  -0.33667
   6   0.00774   1.39703  -2.39302
   6   0.02639   2.56964  -3.16917
   6   0.03042   2.50808  -4.54027
   6   0.01559   1.26932  -5.23054
   6   0.02125   1.19748  -6.67474
   6   0.04639   2.35185  -7.49024
   6   0.05044   2.27005  -8.86949
   6   0.02927   1.03071  -9.51135
   6   0.03385   0.98092 -10.97997
   8   0.05595   1.99659 -11.66678
   6   0.00423  -0.15289  -8.74215
   6   0.00076  -0.08169  -7.30985
   6  -0.00551   0.06028  -4.46723
   6  -0.00831   0.13169  -3.02843
   1  -1.27178  -0.01717 -14.75349
   1  -1.28399   1.28992 -13.55188
   1  -2.14470  -0.22994 -13.23149
   1  -0.00468  -1.46801 -13.23750
   1   1.38218   1.23858 -13.54206
   1   1.32780  -0.06687 -14.74424
   1   2.18122  -0.31348 -13.21631
   1  -0.05944  -3.52564  -9.14879
   1  -0.06502  -3.45130  -6.69884
   1  -0.05398  -3.35793  -4.75807
   1  -0.05661  -3.20118  -2.31882
   1  -0.00236   1.47736   1.41638
   1  -0.02470  -1.56026   1.91458
   1  -0.07282   2.04650   3.59601
   1   0.05008  -2.36693   8.05500
   1  -0.04836   2.41339   9.61334
   1   2.11405   2.34941   6.71324
   1   1.20252   3.61241   7.56008
   1   1.20004   3.55375   5.79418
   1  -2.23145   2.25525   6.73199
   1  -1.37839   3.49824   5.80582
   1  -1.36823   3.55636   7.57165
   1   0.02132   0.42474  15.12621
   1   0.07078  -1.99068  14.09540
   1  -2.11141  -2.32414  10.96871
   1  -1.18852  -3.55448  11.84949
   1  -1.20297  -3.55800  10.08300
   1   2.23664  -2.22423  10.94763
   1   1.37730  -3.49862  10.07030
   1   1.37982  -3.49561  11.83690
   1   0.03762   3.52272  -2.65600
   1   0.04472   3.43373  -5.09704
   1   0.06372   3.33296  -7.03712
   1   0.07001   3.16230  -9.48237
 loop 1 0
 mod cartes coords mol 2
   6  -1.25122   0.20919 -13.68325
   6   0.01534  -0.39399 -13.06531
   6   1.30856   0.15995 -13.67408
   7   0.01197  -0.29047 -11.57722
   6  -0.01448  -1.50419 -10.85573
   8  -0.03385  -2.58235 -11.43729
   6  -0.01741  -1.40718  -9.38995
   6  -0.04238  -2.57656  -8.62829
   6  -0.04499  -2.52031  -7.24751
   6  -0.02308  -1.29064  -6.55188
   6  -0.02374  -1.21850  -5.10572
   6  -0.04174  -2.38112  -4.29689
   6  -0.04312  -2.30454  -2.92508
   6  -0.02704  -1.06165  -2.27186
   6  -0.02956  -1.04404  -0.82189
   8  -0.04454  -2.04189  -0.11948
   7  -0.01267   0.26038  -0.20266
   6  -0.01260   0.42339   1.16844
   6  -0.02091  -0.51049   2.16096
   6  -0.02260  -0.12470   3.55084
   6  -0.04649   1.12341   4.15835
   6  -0.03635   1.03639   5.57025
   6  -0.00619  -0.25564   6.03425
  16   0.01098  -1.41784   4.76088
   6   0.00114  -0.28117   7.49789
   6   0.02891  -1.34040   8.40206
   6   0.02857  -1.03413   9.76066
   6   0.00040   0.31958  10.18747
   6  -0.02741   1.38568   9.26772
   6  -0.02679   1.07821   7.92338
   6  -0.05288   2.03117   6.72046
   6   1.19577   2.93989   6.69807
   6  -1.33972   2.88490   6.70926
   6   0.00777   0.29599  11.62109
  16  -0.01255   1.46420  12.89657
   6   0.02197   0.17506  14.07609
   6   0.04762  -1.08522  13.50487
   6   0.03966  -1.02150  12.10680
   6   0.05636  -2.00422  10.94980
   6  -1.19207  -2.91293  10.96469
   6   1.34538  -2.85470  10.95231
   6   0.00519   1.52050  -0.95741
   8   0.01689   2.57038  -0.33667
   6   0.00774   1.39703  -2.39302
   6   0.02639   2.56964  -3.16917
   6   0.03042   2.50808  -4.54027
   6   0.01559   1.26932  -5.23054
   6   0.02125   1.19748  -6.67474
   6   0.04639   2.35185  -7.49024
   6   0.05044   2.27005  -8.86949
   6   0.02927   1.03071  -9.51135
   6   0.03385   0.98092 -10.97997
   8   0.05595   1.99659 -11.66678
   6   0.00423  -0.15289  -8.74215
   6   0.00076  -0.08169  -7.30985
   6  -0.00551   0.06028  -4.46723
   6  -0.00831   0.13169  -3.02843
   1  -1.27178  -0.01717 -14.75349
   1  -1.28399   1.28992 -13.55188
   1  -2.14470  -0.22994 -13.23149
   1  -0.00468  -1.46801 -13.23750
   1   1.38218   1.23858 -13.54206
   1   1.32780  -0.06687 -14.74424
   1   2.18122  -0.31348 -13.21631
   1  -0.05944  -3.52564  -9.14879
   1  -0.06502  -3.45130  -6.69884
   1  -0.05398  -3.35793  -4.75807
   1  -0.05661  -3.20118  -2.31882
   1  -0.00236   1.47736   1.41638
   1  -0.02470  -1.56026   1.91458
   1  -0.07282   2.04650   3.59601
   1   0.05008  -2.36693   8.05500
   1  -0.04836   2.41339   9.61334
   1   2.11405   2.34941   6.71324
   1   1.20252   3.61241   7.56008
   1   1.20004   3.55375   5.79418
   1  -2.23145   2.25525   6.73199
   1  -1.37839   3.49824   5.80582
   1  -1.36823   3.55636   7.57165
   1   0.02132   0.42474  15.12621
   1   0.07078  -1.99068  14.09540
   1  -2.11141  -2.32414  10.96871
   1  -1.18852  -3.55448  11.84949
   1  -1.20297  -3.55800  10.08300
   1   2.23664  -2.22423  10.94763
   1   1.37730  -3.49862  10.07030
   1   1.37982  -3.49561  11.83690
   1   0.03762   3.52272  -2.65600
   1   0.04472   3.43373  -5.09704
   1   0.06372   3.33296  -7.03712
   1   0.07001   3.16230  -9.48237
 read in order, maxerr=  0.12 for atom  83
 final axis swaps:           1           1           1
 final xyz swap pattern=           1
 reorder list:
   1   2   3   4   5   6   7   8   9  10  11  12  13  14  15  16  17  18  19  20
  21  22  23  24  25  26  27  28  29  30  31  32  33  34  35  36  37  38  39  40
  41  42  43  44  45  46  47  48  49  50  51  52  53  54  55  56  57  58  59  60
  61  62  63  64  65  66  67  68  69  70  71  72  73  74  75  76  77  78  79  80
  81  82  83  84  85  86  87  88  89  90  91
  6    -1.251221  0.209189-13.683254    -1.265779  0.266373-13.658415
  6     0.015341 -0.393994-13.065305     0.009354 -0.327491-13.049233
  6     1.308563  0.159952-13.674080     1.294618  0.249102-13.653681
  7     0.011966 -0.290470-11.577218     0.007205 -0.239946-11.559662
  6    -0.014484 -1.504186-10.855733    -0.002266 -1.461156-10.851200
  8    -0.033852 -2.582355-11.437291    -0.008336 -2.533469-11.443007
  6    -0.017414 -1.407178 -9.389952    -0.004336 -1.379956 -9.383696
  6    -0.042380 -2.576562 -8.628289    -0.012972 -2.557620 -8.635078
  6    -0.044989 -2.520314 -7.247515    -0.014935 -2.516092 -7.253562
  6    -0.023076 -1.290640 -6.551876    -0.008567 -1.293740 -6.545150
  6    -0.023735 -1.218504 -5.105720    -0.010161 -1.236981 -5.097981
  6    -0.041736 -2.381116 -4.296892    -0.017334 -2.409157 -4.302638
  6    -0.043125 -2.304545 -2.925079    -0.018481 -2.347580 -2.930529
  6    -0.027044 -1.061655 -2.271859    -0.012843 -1.111475 -2.264174
  6    -0.029561 -1.044044 -0.821887    -0.014025 -1.110229 -0.813697
  8    -0.044538 -2.041892 -0.119478    -0.019438 -2.112797 -0.120551
  7    -0.012669  0.260378 -0.202662    -0.008246  0.189721 -0.182702
  6    -0.012600  0.423389  1.168445    -0.008119  0.336444  1.187929
  6    -0.020906 -0.510494  2.160965    -0.009093 -0.602777  2.173086
  6    -0.022596 -0.124696  3.550840    -0.008547 -0.207516  3.547325
  6    -0.046487  1.123408  4.158348    -0.016042  1.070088  4.140533
  6    -0.036355  1.036392  5.570252    -0.012381  1.013833  5.525962
  6    -0.006189 -0.255637  6.034247    -0.002202 -0.293387  6.036666
 16     0.010983 -1.417844  4.760877     0.002816 -1.479505  4.774933
  6     0.001143 -0.281166  7.497895     0.000784 -0.291220  7.454655
  6     0.028913 -1.340403  8.402058     0.010608 -1.345585  8.393774
  6     0.028570 -1.034126  9.760661     0.011003 -1.020020  9.729249
  6     0.000399  0.319579 10.187471     0.001554  0.349378 10.142702
  6    -0.027409  1.385676  9.267721    -0.008103  1.401799  9.209713
  6    -0.026787  1.078214  7.923377    -0.008299  1.079345  7.871122
  6    -0.052878  2.031169  6.720457    -0.017584  2.022417  6.661532
  6     1.195768  2.939889  6.698072     1.244407  2.912097  6.629165
  6    -1.339716  2.884897  6.709257    -1.292899  2.893085  6.633964
  6     0.007769  0.295989 11.621086     0.004450  0.345981 11.576308
 16    -0.012553  1.464205 12.896570    -0.001819  1.533130 12.839600
  6     0.021966  0.175059 14.076088     0.010481  0.266988 14.034570
  6     0.047620 -1.085218 13.504867     0.018913 -0.992879 13.486563
  6     0.039661 -1.021498 12.106797     0.015398 -0.946128 12.074865
  6     0.056361 -2.004222 10.949802     0.020930 -1.958802 10.943047
  6    -1.192072 -2.912934 10.964692    -1.240146 -2.849901 10.976004
  6     1.345383 -2.854702 10.952307     1.296215 -2.829692 10.970658
  6     0.005192  1.520504 -0.957409    -0.002316  1.460465 -0.922688
  8     0.016890  2.570375 -0.336669     0.001056  2.501676 -0.289021
  6     0.007743  1.397028 -2.393018    -0.000677  1.350902 -2.358742
  6     0.026388  2.569644 -3.169167     0.006331  2.531959 -3.123028
  6     0.030425  2.508076 -4.540274     0.008500  2.484465 -4.493983
  6     0.015591  1.269321 -5.230540     0.003510  1.251950 -5.196472
  6     0.021250  1.197480 -6.674740     0.006102  1.195595 -6.641319
  6     0.046393  2.351853 -7.490244     0.014697  2.358848 -7.444404
  6     0.050439  2.270053 -8.869493     0.017240  2.291770 -8.824596
  6     0.029273  1.030711 -9.511353     0.011091  1.059163 -9.479165
  6     0.033851  0.980918-10.979969     0.014239  1.024921-10.948916
  8     0.055946  1.996587-11.666778     0.022441  2.048337-11.623774
  6     0.004225 -0.152888 -8.742147     0.002206 -0.132638 -8.722689
  6     0.000759 -0.081687 -7.309846    -0.000136 -0.076784 -7.289636
  6    -0.005511  0.060280 -4.467225    -0.004198  0.034885 -4.446317
  6    -0.008309  0.131687 -3.028431    -0.005932  0.090983 -3.005219
  1    -1.271777 -0.017170-14.753485    -1.285389  0.050881-14.730852
  1    -1.283992  1.289924-13.551884    -1.311812  1.345221-13.516045
  1    -2.144700 -0.229942-13.231495    -2.152986 -0.188516-13.209918
  1    -0.004680 -1.468012-13.237505     0.002482 -1.399751-13.232866
  1     1.382177  1.238584-13.542056     1.354974  1.327146-13.510588
  1     1.327795 -0.066874-14.744239     1.314914  0.033880-14.726156
  1     2.181223 -0.313483-13.216306     2.173945 -0.218162-13.202398
  1    -0.059438 -3.525643 -9.148791    -0.017990 -3.501217 -9.165682
  1    -0.065018 -3.451300 -6.698835    -0.021611 -3.453180 -6.715102
  1    -0.053977 -3.357932 -4.758068    -0.021841 -3.380666 -4.774784
  1    -0.056614 -3.201176 -2.318817    -0.023738 -3.250929 -2.334172
  1    -0.002358  1.477356  1.416383    -0.005733  1.389124  1.443326
  1    -0.024700 -1.560259  1.914578    -0.009304 -1.652542  1.928472
  1    -0.072823  2.046499  3.596008    -0.024712  1.979536  3.556833
  1     0.050077 -2.366928  8.055005     0.017591 -2.377245  8.060376
  1    -0.048361  2.413394  9.613337    -0.015041  2.433429  9.543226
  1     2.114047  2.349409  6.713236     2.154651  2.309527  6.647995
  1     1.202522  3.612411  7.560082     1.259966  3.585959  7.489242
  1     1.200044  3.553749  5.794181     1.255733  3.522829  5.723330
  1    -2.231455  2.255252  6.731988    -2.193912  2.276913  6.656206
  1    -1.378386  3.498243  5.805819    -1.316798  3.503543  5.728187
  1    -1.368227  3.556360  7.571654    -1.315317  3.566660  7.494118
  1     0.021324  0.424739 15.126208     0.010725  0.535354 15.080103
  1     0.070776 -1.990679 14.095397     0.027150 -1.892621 14.086640
  1    -2.111410 -2.324142 10.968707    -2.150513 -2.247636 10.952598
  1    -1.188523 -3.554478 11.849492    -1.253076 -3.456390 11.885089
  1    -1.202966 -3.558002 10.083001    -1.254734 -3.528975 10.119915
  1     2.236640 -2.224229 10.947630     2.196720 -2.212937 10.943432
  1     1.377302 -3.498624 10.070299     1.318036 -3.508493 10.114504
  1     1.379823 -3.495606 11.836904     1.322649 -3.435818 11.879691
  1     0.037616  3.522724 -2.656005     0.010108  3.479909 -2.600337
  1     0.044717  3.433729 -5.097038     0.014078  3.415532 -5.041595
  1     0.063720  3.332957 -7.037123     0.019661  3.335342 -6.981201
  1     0.070013  3.162301 -9.482372     0.024034  3.190630 -9.427993
 generating redundant internal coords
         300        3600          91
 Adding extra bonds for z output only
           6           6           6           7           6           8
           6           6           6           6           6           6
           6           6           6           8           7           6
           6           6           6           6           6          16
           6           6           6           6           6           6
           6           6           6           6          16           6
           6           6           6           6           6           6
           8           6           6           6           6           6
           6           6           6           6           8           6
           6           6           6           1           1           1
           1           1           1           1           1           1
           1           1           1           1           1           1
           1           1           1           1           1           1
           1           1           1           1           1           1
           1           1           1           1           1           1
           1
 search for int coords
   1 str   2   1   1.533
   2 str   3   2   1.533
   3 str   4   2   1.492
   4 str   5   4   1.412
   5 str   6   5   1.225
   6 str   7   5   1.469
   7 str   8   7   1.396
   8 str   9   8   1.382
   9 str  10   9   1.413
  10 str  11  10   1.448
  11 str  12  11   1.416
  12 str  13  12   1.374
  13 str  14  13   1.404
  14 str  15  14   1.450
  15 str  16  15   1.220
  16 str  17  15   1.444
  17 str  18  17   1.381
  18 str  19  18   1.363
  19 str  20  19   1.442
  20 str  21  20   1.388
  21 str  22  21   1.415
  22 str  23  22   1.373
  23 str  24  20   1.771
  24 str  24  23   1.724
  25 str  25  23   1.464
  26 str  26  25   1.393
  27 str  27  26   1.393
  28 str  28  27   1.420
  29 str  29  28   1.408
  30 str  30  25   1.425
  31 str  30  29   1.379
  32 str  31  22   1.521
  33 str  31  30   1.535
  34 str  32  31   1.544
  35 str  33  31   1.544
  36 str  34  28   1.434
  37 str  35  34   1.730
  38 str  36  35   1.748
  39 str  37  36   1.384
  40 str  38  34   1.405
  41 str  38  37   1.400
  42 str  39  27   1.535
  43 str  39  38   1.518
  44 str  40  39   1.544
  45 str  41  39   1.544
  46 str  42  17   1.469
  47 str  43  42   1.220
  48 str  44  42   1.441
  49 str  45  44   1.406
  50 str  46  45   1.372
  51 str  47  46   1.418
  52 str  48  47   1.446
  53 str  49  48   1.414
  54 str  50  49   1.382
  55 str  51  50   1.396
  56 str  52   4   1.405
  57 str  52  51   1.469
  58 str  53  52   1.226
  59 str  54   7   1.412
  60 str  54  51   1.412
  61 str  55  10   1.427
  62 str  55  48   1.428
  63 str  55  54   1.434
  64 str  56  11   1.429
  65 str  56  47   1.430
  66 str  57  14   1.413
  67 str  57  44   1.416
  68 str  57  56   1.441
  69 str  58   1   1.094
  70 str  59   1   1.089
  71 str  60   1   1.093
  72 str  61   2   1.088
  73 str  62   3   1.089
  74 str  63   3   1.094
  75 str  64   3   1.093
  76 str  65   8   1.083
  77 str  66   9   1.081
  78 str  67  12   1.080
  79 str  68  13   1.082
  80 str  69  18   1.083
  81 str  70  19   1.078
  82 str  71  21   1.081
  83 str  72  26   1.084
[...]
    Gval  0.00371208  0.00371374  0.00393170  0.00404059
  5.107544609617854E-008  5.107544609617854E-008
  1.829890634846074E-007  5.107544609617854E-008
  5.238402724069405E-007  5.107544609617854E-008
  6.237516862323400E-007  5.107544609617854E-008
  1.097292242510980E-006  5.107544609617854E-008
  1.712808532689384E-006  5.107544609617854E-008
  1.819779656534547E-006  5.107544609617854E-008
  3.095943672766904E-006  5.107544609617854E-008
  3.649947486373684E-006  5.107544609617854E-008
  4.889437319585933E-006  5.107544609617854E-008
  5.718024389729838E-006  5.107544609617854E-008
  6.383742441347377E-006  5.107544609617854E-008
  8.854403719235733E-006  5.107544609617854E-008
  9.491293185320957E-006  5.107544609617854E-008
  1.081011904180264E-005  5.107544609617854E-008
  1.124242533715442E-005  5.107544609617854E-008
  1.275131803602783E-005  5.107544609617854E-008
  1.359511387120081E-005  5.107544609617854E-008
  1.418735328677282E-005  5.107544609617854E-008
  1.509566623062303E-005  5.107544609617854E-008
  1.559103700521383E-005  5.107544609617854E-008
  1.630277455243546E-005  5.107544609617854E-008
  1.741869418864719E-005  5.107544609617854E-008
  1.765581672849621E-005  5.107544609617854E-008
  1.833480097776244E-005  5.107544609617854E-008
  2.107035182071757E-005  5.107544609617854E-008
  2.129040929901088E-005  5.107544609617854E-008
  2.236980582750076E-005  5.107544609617854E-008
  2.363152314912089E-005  5.107544609617854E-008
  2.405113639179773E-005  5.107544609617854E-008
  2.536632114610017E-005  5.107544609617854E-008
  2.701677641666184E-005  5.107544609617854E-008
  2.866222243489367E-005  5.107544609617854E-008
  3.009728687484759E-005  5.107544609617854E-008
  3.184830520055381E-005  5.107544609617854E-008
  3.232114062674927E-005  5.107544609617854E-008
  3.329455458169368E-005  5.107544609617854E-008
  3.557215268923063E-005  5.107544609617854E-008
  3.633326958388558E-005  5.107544609617854E-008
  3.874132316954956E-005  5.107544609617854E-008
  3.995188633617411E-005  5.107544609617854E-008
  4.100949415813013E-005  5.107544609617854E-008
  4.244444456304092E-005  5.107544609617854E-008
  4.353394528147825E-005  5.107544609617854E-008
  4.489098511000525E-005  5.107544609617854E-008
  4.787983925316550E-005  5.107544609617854E-008
  4.832997361832525E-005  5.107544609617854E-008
  4.891353397252603E-005  5.107544609617854E-008
  5.103240287077742E-005  5.107544609617854E-008
  5.220621690353126E-005  5.107544609617854E-008
  5.278837569701871E-005  5.107544609617854E-008
  5.417956695941625E-005  5.107544609617854E-008
  5.428340674900048E-005  5.107544609617854E-008
  5.723230515853855E-005  5.107544609617854E-008
  5.843322685003969E-005  5.107544609617854E-008
  6.072053827228756E-005  5.107544609617854E-008
  6.201012968189245E-005  5.107544609617854E-008
  6.732881289393426E-005  5.107544609617854E-008
  6.946804732025757E-005  5.107544609617854E-008
  7.099671643620760E-005  5.107544609617854E-008
  7.143605443478915E-005  5.107544609617854E-008
  7.404465901274364E-005  5.107544609617854E-008
  7.681705755320484E-005  5.107544609617854E-008
  8.009807581523978E-005  5.107544609617854E-008
  8.154175276984267E-005  5.107544609617854E-008
  8.228578412307382E-005  5.107544609617854E-008
  8.385328194362796E-005  5.107544609617854E-008
  8.526506754105216E-005  5.107544609617854E-008
  8.660200030015954E-005  5.107544609617854E-008
  8.778244868846122E-005  5.107544609617854E-008
  9.274150709623738E-005  5.107544609617854E-008
  9.407352995856251E-005  5.107544609617854E-008
  9.478629439028856E-005  5.107544609617854E-008
  9.691285772433970E-005  5.107544609617854E-008
  1.036459719659438E-004  5.107544609617854E-008
  1.071587451472414E-004  5.107544609617854E-008
  1.127338813309903E-004  5.107544609617854E-008
  1.175936112827379E-004  5.107544609617854E-008
  1.224680318908794E-004  5.107544609617854E-008
  1.269836324722111E-004  5.107544609617854E-008
  1.323779635447667E-004  5.107544609617854E-008
  1.361135262227497E-004  5.107544609617854E-008
  1.362521286660702E-004  5.107544609617854E-008
  1.371857274013429E-004  5.107544609617854E-008
  1.407236751039032E-004  5.107544609617854E-008
  1.437432276197871E-004  5.107544609617854E-008
  1.477777620772067E-004  5.107544609617854E-008
  1.540354555767435E-004  5.107544609617854E-008
  1.560094726635508E-004  5.107544609617854E-008
  1.592097140752092E-004  5.107544609617854E-008
  1.654440908020930E-004  5.107544609617854E-008
  1.698061602842346E-004  5.107544609617854E-008
  1.747380936931703E-004  5.107544609617854E-008
  1.777719519579484E-004  5.107544609617854E-008
  1.818563096135877E-004  5.107544609617854E-008
  1.841221108902173E-004  5.107544609617854E-008
  1.846972947843507E-004  5.107544609617854E-008
  2.032700008106705E-004  5.107544609617854E-008
  2.216765663708767E-004  5.107544609617854E-008
  2.257286559797265E-004  5.107544609617854E-008
  2.275546176317897E-004  5.107544609617854E-008
  2.312529380685589E-004  5.107544609617854E-008
  2.459227826255065E-004  5.107544609617854E-008
  2.496693762126363E-004  5.107544609617854E-008
  2.679016609986073E-004  5.107544609617854E-008
  2.832067809212741E-004  5.107544609617854E-008
  2.852120781456555E-004  5.107544609617854E-008
  2.907467239219379E-004  5.107544609617854E-008
  2.982010956170345E-004  5.107544609617854E-008
  2.994419746730134E-004  5.107544609617854E-008
  3.112283335738737E-004  5.107544609617854E-008
  3.296229852035579E-004  5.107544609617854E-008
  3.344553038095827E-004  5.107544609617854E-008
  3.424382889143297E-004  5.107544609617854E-008
  3.593261923335279E-004  5.107544609617854E-008
  3.604185615986378E-004  5.107544609617854E-008
  3.772379833340545E-004  5.107544609617854E-008
  3.850428412397221E-004  5.107544609617854E-008
  3.876015460193212E-004  5.107544609617854E-008
  3.920969839920774E-004  5.107544609617854E-008
  3.957789935049333E-004  5.107544609617854E-008
  4.048897497200093E-004  5.107544609617854E-008
  4.125714132034388E-004  5.107544609617854E-008
  4.186980049197499E-004  5.107544609617854E-008
  4.195902558982167E-004  5.107544609617854E-008
  4.244749894023029E-004  5.107544609617854E-008
  4.297582725017249E-004  5.107544609617854E-008
  4.304335748458849E-004  5.107544609617854E-008
  4.356514866603687E-004  5.107544609617854E-008
  4.407316433552958E-004  5.107544609617854E-008
  4.422592112199241E-004  5.107544609617854E-008
  4.437085972724746E-004  5.107544609617854E-008
  4.598777424699331E-004  5.107544609617854E-008
  4.619230241338216E-004  5.107544609617854E-008
  4.633691676680766E-004  5.107544609617854E-008
  4.669563444222705E-004  5.107544609617854E-008
  4.689703474583828E-004  5.107544609617854E-008
  4.936631514296826E-004  5.107544609617854E-008
  5.063830487142403E-004  5.107544609617854E-008
  5.103443906809660E-004  5.107544609617854E-008
  5.144863793363867E-004  5.107544609617854E-008
  5.224504680624364E-004  5.107544609617854E-008
  5.335778301418672E-004  5.107544609617854E-008
  5.349016326993948E-004  5.107544609617854E-008
  5.354993339477251E-004  5.107544609617854E-008
  5.362457593574973E-004  5.107544609617854E-008
  5.373082658441346E-004  5.107544609617854E-008
  5.514714968232887E-004  5.107544609617854E-008
  5.535953738162682E-004  5.107544609617854E-008
  5.559205230430648E-004  5.107544609617854E-008
  5.561585455119711E-004  5.107544609617854E-008
  5.561711990193837E-004  5.107544609617854E-008
  5.561900819165433E-004  5.107544609617854E-008
  5.562168257917289E-004  5.107544609617854E-008
  5.562213029262583E-004  5.107544609617854E-008
  5.783765157614949E-004  5.107544609617854E-008
  5.784345716302843E-004  5.107544609617854E-008
  5.879676617110321E-004  5.107544609617854E-008
  5.890445230537141E-004  5.107544609617854E-008
  5.944426776448826E-004  5.107544609617854E-008
  5.958351149968538E-004  5.107544609617854E-008
  5.971733927436934E-004  5.107544609617854E-008
  5.985365539388502E-004  5.107544609617854E-008
  5.989680708930851E-004  5.107544609617854E-008
  5.992535366130336E-004  5.107544609617854E-008
  5.995886545113574E-004  5.107544609617854E-008
  5.998632033652920E-004  5.107544609617854E-008
  6.022152965600792E-004  5.107544609617854E-008
  6.174345243390977E-004  5.107544609617854E-008
  6.248356834988335E-004  5.107544609617854E-008
  6.257685075557553E-004  5.107544609617854E-008
  6.357654598756589E-004  5.107544609617854E-008
  6.363605248575023E-004  5.107544609617854E-008
  6.413614813942039E-004  5.107544609617854E-008
  6.449039110802041E-004  5.107544609617854E-008
  6.456305246467148E-004  5.107544609617854E-008
  6.474881975040535E-004  5.107544609617854E-008
  6.514386253193745E-004  5.107544609617854E-008
  6.543907276181198E-004  5.107544609617854E-008
  6.710710213822885E-004  5.107544609617854E-008
  6.763039917031625E-004  5.107544609617854E-008
  6.768831725562591E-004  5.107544609617854E-008
  6.964883228263038E-004  5.107544609617854E-008
  6.968674700200791E-004  5.107544609617854E-008
  7.634192175403958E-004  5.107544609617854E-008
  7.905369713175250E-004  5.107544609617854E-008
  8.261074674547262E-004  5.107544609617854E-008
  8.450502604019560E-004  5.107544609617854E-008
  9.344925656413773E-004  5.107544609617854E-008
  9.864344876317876E-004  5.107544609617854E-008
  9.908599702979520E-004  5.107544609617854E-008
  9.975977397626192E-004  5.107544609617854E-008
  1.072855182796715E-003  5.107544609617854E-008
  1.081411950343687E-003  5.107544609617854E-008
  1.087133402954146E-003  5.107544609617854E-008
  1.090051905553412E-003  5.107544609617854E-008
  1.093537208465246E-003  5.107544609617854E-008
  1.094468654637155E-003  5.107544609617854E-008
  1.095170957007134E-003  5.107544609617854E-008
  1.095684807227015E-003  5.107544609617854E-008
  1.098982093540640E-003  5.107544609617854E-008
  1.109668702479066E-003  5.107544609617854E-008
  1.134782551329951E-003  5.107544609617854E-008
  1.136330145550599E-003  5.107544609617854E-008
  1.140685119935896E-003  5.107544609617854E-008
  1.146409692240672E-003  5.107544609617854E-008
  1.146530740466033E-003  5.107544609617854E-008
  1.164419334829350E-003  5.107544609617854E-008
  1.164930098839238E-003  5.107544609617854E-008
  1.166038045707792E-003  5.107544609617854E-008
  1.166551120187375E-003  5.107544609617854E-008
  1.168178480933713E-003  5.107544609617854E-008
  1.168724250622294E-003  5.107544609617854E-008
  1.174586121091952E-003  5.107544609617854E-008
  1.180339331900594E-003  5.107544609617854E-008
  1.180756240224462E-003  5.107544609617854E-008
  1.180846867886210E-003  5.107544609617854E-008
  1.181609402640893E-003  5.107544609617854E-008
  1.184646517450004E-003  5.107544609617854E-008
  1.208548943506515E-003  5.107544609617854E-008
  1.269157371150236E-003  5.107544609617854E-008
  1.291760914681805E-003  5.107544609617854E-008
  1.371125374183670E-003  5.107544609617854E-008
  1.495895710014267E-003  5.107544609617854E-008
  1.550926983034605E-003  5.107544609617854E-008
  1.584519069933321E-003  5.107544609617854E-008
  1.609766494955949E-003  5.107544609617854E-008
  1.670710969842282E-003  5.107544609617854E-008
  1.672016638823279E-003  5.107544609617854E-008
  1.708542424145431E-003  5.107544609617854E-008
  1.723410246626544E-003  5.107544609617854E-008
  1.769979663460195E-003  5.107544609617854E-008
  1.902398148786230E-003  5.107544609617854E-008
  1.915452263857195E-003  5.107544609617854E-008
  2.026180444684390E-003  5.107544609617854E-008
  2.158360566403776E-003  5.107544609617854E-008
  2.277011562651932E-003  5.107544609617854E-008
  2.340911624125040E-003  5.107544609617854E-008
  2.353934180634975E-003  5.107544609617854E-008
  2.520800604872747E-003  5.107544609617854E-008
  2.525255149215724E-003  5.107544609617854E-008
  2.558193566847551E-003  5.107544609617854E-008
  2.779720908361363E-003  5.107544609617854E-008
  2.819456974645477E-003  5.107544609617854E-008
  2.924995304377996E-003  5.107544609617854E-008
  3.021983890433268E-003  5.107544609617854E-008
  3.027630115014166E-003  5.107544609617854E-008
  3.031844432643069E-003  5.107544609617854E-008
  3.035701470119271E-003  5.107544609617854E-008
  3.037909874233275E-003  5.107544609617854E-008
  3.042568266259994E-003  5.107544609617854E-008
  3.046916023830858E-003  5.107544609617854E-008
  3.047063902694877E-003  5.107544609617854E-008
  3.083103826718945E-003  5.107544609617854E-008
  3.091222807731186E-003  5.107544609617854E-008
  3.096503373552021E-003  5.107544609617854E-008
  3.099234105705765E-003  5.107544609617854E-008
  3.270066712042256E-003  5.107544609617854E-008
  3.415742178082320E-003  5.107544609617854E-008
  3.422465616366158E-003  5.107544609617854E-008
  3.664268611036837E-003  5.107544609617854E-008
  3.666103607910261E-003  5.107544609617854E-008
  3.700173561385341E-003  5.107544609617854E-008
  3.712083637652522E-003  5.107544609617854E-008
  3.713735623746963E-003  5.107544609617854E-008
  3.931702246275417E-003  5.107544609617854E-008
  4.040591875443408E-003  5.107544609617854E-008
 cut=1d-8, nber non-redundant internal coords=         267
 Check on Eigenvals of non-red overlap matrix:
  0.00000005  0.00000018  0.00000052  0.00000062  0.00000110  0.00000171  0.00000182  0.00000310
  0.00000365  0.00000489  0.00000572  0.00000638  0.00000885  0.00000949  0.00001081  0.00001124
  0.00001275  0.00001360  0.00001419  0.00001510  0.00001559  0.00001630  0.00001742  0.00001766
  0.00001833  0.00002107  0.00002129  0.00002237  0.00002363  0.00002405  0.00002537  0.00002702
  0.00002866  0.00003010  0.00003185  0.00003232  0.00003329  0.00003557  0.00003633  0.00003874
  0.00003995  0.00004101  0.00004244  0.00004353  0.00004489  0.00004788  0.00004833  0.00004891
  0.00005103  0.00005221  0.00005279  0.00005418  0.00005428  0.00005723  0.00005843  0.00006072
  0.00006201  0.00006733  0.00006947  0.00007100  0.00007144  0.00007404  0.00007682  0.00008010
  0.00008154  0.00008229  0.00008385  0.00008527  0.00008660  0.00008778  0.00009274  0.00009407
  0.00009479  0.00009691  0.00010365  0.00010716  0.00011273  0.00011759  0.00012247  0.00012698
  0.00013238  0.00013611  0.00013625  0.00013719  0.00014072  0.00014374  0.00014778  0.00015404
  0.00015601  0.00015921  0.00016544  0.00016981  0.00017474  0.00017777  0.00018186  0.00018412
  0.00018470  0.00020327  0.00022168  0.00022573  0.00022755  0.00023125  0.00024592  0.00024967
  0.00026790  0.00028321  0.00028521  0.00029075  0.00029820  0.00029944  0.00031123  0.00032962
  0.00033446  0.00034244  0.00035933  0.00036042  0.00037724  0.00038504  0.00038760  0.00039210
  0.00039578  0.00040489  0.00041257  0.00041870  0.00041959  0.00042447  0.00042976  0.00043043
  0.00043565  0.00044073  0.00044226  0.00044371  0.00045988  0.00046192  0.00046337  0.00046696
  0.00046897  0.00049366  0.00050638  0.00051034  0.00051449  0.00052245  0.00053358  0.00053490
  0.00053550  0.00053625  0.00053731  0.00055147  0.00055360  0.00055592  0.00055616  0.00055617
  0.00055619  0.00055622  0.00055622  0.00057838  0.00057843  0.00058797  0.00058904  0.00059444
  0.00059584  0.00059717  0.00059854  0.00059897  0.00059925  0.00059959  0.00059986  0.00060222
  0.00061743  0.00062484  0.00062577  0.00063577  0.00063636  0.00064136  0.00064490  0.00064563
  0.00064749  0.00065144  0.00065439  0.00067107  0.00067630  0.00067688  0.00069649  0.00069687
  0.00076342  0.00079054  0.00082611  0.00084505  0.00093449  0.00098643  0.00099086  0.00099760
  0.00107286  0.00108141  0.00108713  0.00109005  0.00109354  0.00109447  0.00109517  0.00109568
  0.00109898  0.00110967  0.00113478  0.00113633  0.00114069  0.00114641  0.00114653  0.00116442
  0.00116493  0.00116604  0.00116655  0.00116818  0.00116872  0.00117459  0.00118034  0.00118076
  0.00118085  0.00118161  0.00118465  0.00120855  0.00126916  0.00129176  0.00137113  0.00149590
  0.00155093  0.00158452  0.00160977  0.00167071  0.00167202  0.00170854  0.00172341  0.00176998
  0.00190240  0.00191545  0.00202618  0.00215836  0.00227701  0.00234091  0.00235393  0.00252080
  0.00252526  0.00255819  0.00277972  0.00281946  0.00292500  0.00302198  0.00302763  0.00303184
  0.00303570  0.00303791  0.00304257  0.00304692  0.00304706  0.00308310  0.00309122  0.00309650
  0.00309923  0.00327007  0.00341574  0.00342247  0.00366427  0.00366610  0.00370017  0.00371208
  0.00371374  0.00393170  0.00404059
 d1=
 -64.4  -9.5 -29.6   0.8 -26.5   4.6   0.1  -5.8  -2.1   2.1  -0.5  -0.8   1.9  -3.6   0.1   0.6  -0.1   0.8   0.5   1.7
  -1.4   0.5  -0.7  -0.8   0.3   0.7   1.4  -4.1   0.4  -2.8   0.3   1.8   1.1  -3.5  -0.1   0.1   0.8  -0.6  -0.2   0.1
   0.0   0.0   0.3   0.7  -3.1  -0.2  -0.0  -0.2   0.0  -1.5   0.1   0.9   0.3   0.9   0.8   0.5  -1.1  -0.2   0.4   0.1
   0.3   1.0   0.9   0.7   0.1   0.7  -1.9   0.5   0.7   1.3  -0.3   0.1   0.0  -1.5  -0.3  -0.3  -0.3   0.2  -0.1  -0.2
  -1.1  -0.1   0.3  -0.1  -0.2   0.9   1.4   0.7  -0.2   0.2   0.2   1.1   0.0  -0.9  -0.3  -0.5   0.3   0.1   0.0  -0.2
  -0.7  -0.2   1.0  -1.4   0.5  -0.7   0.2  -0.3  -0.1   0.6   1.4  -0.3  -0.5   0.2  -1.0  -1.0  -1.0  -0.3  -0.0   0.2
   0.4  -0.6  -0.2  -0.2  -0.2   0.0   0.6   0.0  -0.0   0.1   0.0  -0.2   0.5  -0.1   0.1  -0.0  -0.1  -0.0  -0.4  -0.3
  -0.2  -0.0  -0.0  -0.0   0.0   0.0  -0.0   0.1   0.0  -0.0  -0.0  -0.0  -0.0  -0.0   0.0  -0.1   0.4  -0.1   0.2   0.1
  -0.1   0.1   0.0   0.1  -0.0   0.0   0.0   0.0   0.0   0.2   0.2   0.1  -0.2   0.0  -0.0  -0.0   0.0  -0.3   0.0  -0.1
   0.0   0.0   0.1  -0.0   0.1  -0.0   0.1  -0.1   0.1  -0.2  -0.1   0.0   0.4  -0.1  -0.4   0.0   0.0   0.1  -0.0   0.0
   0.6   0.3   0.1  -0.3  -0.0   0.2   0.1  -0.0   0.0  -0.0   0.0   0.0  -0.0  -0.0   0.0   0.0   0.0  -0.0   0.0   0.1
  -0.1   0.0  -0.1  -0.0   0.1   0.0  -0.0   1.3  -0.5   0.0   0.0   0.0  -0.0  -0.0  -0.0  -0.0  -0.0  -0.0  -0.0   0.0
  -0.0  -0.0   0.0   0.1  -0.0  -0.0  -0.0  -0.0  -0.0   0.0   0.0  -0.1   0.0   0.0   0.0   0.3   0.2   0.2  -0.0  -0.0
   0.0  -0.0  -0.0   0.0   0.0   0.0  -0.0
 d2=
  63.8  -9.4 -29.3   1.0  26.5  -4.9  -0.4  -5.7   2.2   2.1   0.5  -0.8  -1.8  -3.7  -0.0   0.6  -0.1   0.9  -0.5  -1.7
   1.4   0.5   0.7  -0.8  -0.3   0.6  -1.4   4.2   0.5  -2.8   0.3  -1.7   1.3  -3.5   0.0  -0.1   0.8  -0.6  -0.2   0.1
  -0.0   0.0   0.2  -0.7  -3.1  -0.3   0.0  -0.2  -0.0   1.5   0.1  -1.0   0.1  -0.9  -0.7   0.6  -1.1  -0.2   0.4   0.0
   0.3  -1.0   1.0  -0.8  -0.2  -0.6  -1.9   0.5   0.7  -1.4  -0.3   0.1  -0.0   1.5  -0.3  -0.2  -0.3   0.2   0.1  -0.1
  -1.1  -0.1  -0.3  -0.1   0.2   0.9  -1.4  -0.7  -0.2  -0.2  -0.2  -1.0   0.0   1.0   0.3   0.3  -0.5  -0.1  -0.0  -0.6
   0.4   0.2   0.9  -1.4  -0.4  -0.7  -0.3   0.4   0.1  -0.6  -1.3   0.2   0.5   0.2   0.3   1.4  -1.0   0.3  -0.0   0.1
  -0.4   0.4   0.1   0.2   0.2  -0.1   0.7  -0.0  -0.0  -0.1  -0.0  -0.3  -0.4   0.2  -0.1   0.0   0.1  -0.0  -0.4   0.4
   0.2  -0.0   0.0   0.0  -0.0   0.0  -0.0   0.1   0.0   0.0  -0.0   0.0  -0.0   0.0   0.0  -0.2   0.4  -0.1   0.2   0.1
  -0.1  -0.1  -0.0   0.1  -0.0  -0.0   0.0  -0.0  -0.0   0.1  -0.3  -0.1   0.2   0.0  -0.0   0.0  -0.0   0.3  -0.0  -0.1
  -0.0   0.0   0.1  -0.0   0.1   0.0  -0.1  -0.1  -0.1  -0.2   0.0  -0.0   0.1  -0.4  -0.3   0.2   0.0   0.0   0.0   0.0
  -0.5   0.4  -0.2  -0.2   0.0   0.2   0.0   0.0   0.0   0.0   0.0   0.0   0.0  -0.0  -0.0   0.0   0.0   0.1  -0.0   0.1
  -0.1  -0.0   0.1  -0.0   0.1  -0.0   0.0  -0.8   1.2   0.0  -0.0  -0.0   0.0   0.0  -0.0   0.0  -0.0  -0.0   0.0  -0.0
   0.0  -0.0  -0.0  -0.1   0.0  -0.0   0.0  -0.0   0.0   0.0   0.0  -0.0  -0.0  -0.0  -0.0   0.2  -0.3  -0.2   0.0   0.0
   0.0   0.0   0.0  -0.0  -0.0   0.0   0.0
 p1=

 p2=


 Displacement: in terms of nc of 1 THEN of nc of 2


 total reorg energy (cm**-1, kcal/mol)=        0.        0.      0.00      0.00
 Nber of molecules processed=           2
